Generated by trjconv : CNT in water t= 337.00000
33518
    1C        C    1   2.841   2.767   4.749
    1C        C    2   2.894   2.718   4.870
    1C        C    3   2.836   2.773   4.984
    1C        C    4   2.849   2.777   4.258
    1C        C    5   2.901   2.729   4.381
    1C        C    6   2.845   2.773   4.502
    1C        C    7   3.010   2.643   4.626
    1C        C    8   2.895   2.724   4.625
    1C        C    9   3.078   2.607   4.745
    1C        C   10   3.006   2.631   4.864
    1C        C   11   3.177   2.488   4.976
    1C        C   12   3.057   2.562   4.975
    1C        C   13   2.850   2.773   3.771
    1C        C   14   2.897   2.722   3.894
    1C        C   15   2.845   2.771   4.016
    1C        C   16   3.019   2.645   4.137
    1C        C   17   2.903   2.727   4.137
    1C        C   18   3.079   2.611   4.260
    1C        C   19   3.015   2.645   4.381
    1C        C   20   3.205   2.557   4.503
    1C        C   21   3.075   2.612   4.505
    1C        C   22   3.275   2.535   4.624
    1C        C   23   3.210   2.555   4.747
    1C        C   24   3.409   2.483   4.866
    1C        C   25   3.267   2.501   4.866
    1C        C   26   3.488   2.480   4.982
    1C        C   27   2.847   2.764   3.284
    1C        C   28   2.905   2.723   3.406
    1C        C   29   2.854   2.776   3.526
    1C        C   30   3.021   2.648   3.649
    1C        C   31   2.906   2.729   3.649
    1C        C   32   3.079   2.608   3.772
    1C        C   33   3.013   2.641   3.893
    1C        C   34   3.207   2.551   4.015
    1C        C   35   3.077   2.607   4.014
    1C        C   36   3.275   2.531   4.138
    1C        C   37   3.208   2.554   4.260
    1C        C   38   3.414   2.506   4.381
    1C        C   39   3.275   2.531   4.383
    1C        C   40   3.484   2.499   4.503
    1C        C   41   3.413   2.506   4.625
    1C        C   42   3.626   2.480   4.742
    1C        C   43   3.484   2.484   4.745
    1C        C   44   3.702   2.480   4.862
    1C        C   45   3.627   2.481   4.980
    1C        C   46   2.838   2.755   2.793
    1C        C   47   2.896   2.715   2.915
    1C        C   48   2.847   2.766   3.037
    1C        C   49   3.018   2.642   3.161
    1C        C   50   2.900   2.721   3.160
    1C        C   51   3.081   2.607   3.282
    1C        C   52   3.020   2.641   3.405
    1C        C   53   3.210   2.551   3.525
    1C        C   54   3.081   2.607   3.528
    1C        C   55   3.275   2.525   3.648
    1C        C   56   3.208   2.549   3.770
    1C        C   57   3.413   2.504   3.892
    1C        C   58   3.274   2.530   3.893
    1C        C   59   3.483   2.498   4.015
    1C        C   60   3.412   2.498   4.137
    1C        C   61   3.623   2.500   4.257
    1C        C   62   3.483   2.487   4.259
    1C        C   63   3.694   2.509   4.379
    1C        C   64   3.626   2.503   4.503
    1C        C   65   3.832   2.550   4.619
    1C        C   66   3.699   2.505   4.624
    1C        C   67   3.903   2.557   4.742
    1C        C   68   3.838   2.519   4.861
    1C        C   69   4.046   2.591   4.976
    1C        C   70   3.919   2.533   4.974
    1C        C   71   2.823   2.731   2.307
    1C        C   72   2.883   2.689   2.428
    1C        C   73   2.833   2.744   2.548
    1C        C   74   3.008   2.628   2.673
    1C        C   75   2.888   2.703   2.671
    1C        C   76   3.071   2.592   2.793
    1C        C   77   3.012   2.634   2.914
    1C        C   78   3.202   2.543   3.037
    1C        C   79   3.075   2.604   3.037
    1C        C   80   3.273   2.520   3.157
    1C        C   81   3.208   2.545   3.280
    1C        C   82   3.412   2.489   3.403
    1C        C   83   3.275   2.524   3.403
    1C        C   84   3.484   2.485   3.524
    1C        C   85   3.413   2.496   3.645
    1C        C   86   3.622   2.496   3.769
    1C        C   87   3.481   2.491   3.769
    1C        C   88   3.693   2.508   3.891
    1C        C   89   3.624   2.506   4.014
    1C        C   90   3.831   2.550   4.135
    1C        C   91   3.695   2.514   4.136
    1C        C   92   3.899   2.572   4.257
    1C        C   93   3.830   2.547   4.377
    1C        C   94   4.027   2.635   4.496
    1C        C   95   3.898   2.575   4.497
    1C        C   96   4.086   2.673   4.618
    1C        C   97   4.028   2.624   4.737
    1C        C   98   4.187   2.766   4.863
    1C        C   99   4.093   2.658   4.858
    1C        C  100   4.211   2.845   4.976
    1C        C  101   2.821   2.729   2.071
    1C        C  102   2.989   2.586   2.189
    1C        C  103   2.876   2.674   2.188
    1C        C  104   3.064   2.571   2.309
    1C        C  105   3.004   2.616   2.429
    1C        C  106   3.199   2.532   2.548
    1C        C  107   3.069   2.587   2.552
    1C        C  108   3.269   2.519   2.670
    1C        C  109   3.203   2.540   2.793
    1C        C  110   3.409   2.495   2.912
    1C        C  111   3.270   2.520   2.915
    1C        C  112   3.482   2.493   3.034
    1C        C  113   3.412   2.495   3.157
    1C        C  114   3.623   2.489   3.278
    1C        C  115   3.481   2.486   3.280
    1C        C  116   3.692   2.501   3.400
    1C        C  117   3.625   2.498   3.524
    1C        C  118   3.830   2.544   3.642
    1C        C  119   3.694   2.509   3.647
    1C        C  120   3.894   2.569   3.766
    1C        C  121   3.829   2.545   3.889
    1C        C  122   4.021   2.637   4.012
    1C        C  123   3.896   2.572   4.011
    1C        C  124   4.084   2.677   4.133
    1C        C  125   4.026   2.636   4.255
    1C        C  126   4.194   2.769   4.376
    1C        C  127   4.089   2.675   4.375
    1C        C  128   4.244   2.818   4.499
    1C        C  129   4.193   2.765   4.620
    1C        C  130   4.322   2.935   4.738
    1C        C  131   4.235   2.822   4.742
    1C        C  132   4.353   3.005   4.857
    1C        C  133   4.287   2.961   4.973
    1C        C  134   3.175   2.467   2.078
    1C        C  135   3.040   2.505   2.083
    1C        C  136   3.261   2.475   2.188
    1C        C  137   3.193   2.511   2.307
    1C        C  138   3.404   2.476   2.423
    1C        C  139   3.265   2.498   2.428
    1C        C  140   3.476   2.481   2.545
    1C        C  141   3.407   2.488   2.668
    1C        C  142   3.619   2.484   2.790
    1C        C  143   3.478   2.483   2.790
    1C        C  144   3.694   2.496   2.910
    1C        C  145   3.623   2.492   3.032
    1C        C  146   3.826   2.538   3.152
    1C        C  147   3.692   2.494   3.155
    1C        C  148   3.894   2.562   3.274
    1C        C  149   3.828   2.540   3.397
    1C        C  150   4.021   2.630   3.521
    1C        C  151   3.895   2.567   3.519
    1C        C  152   4.079   2.669   3.644
    1C        C  153   4.018   2.635   3.767
    1C        C  154   4.190   2.761   3.886
    1C        C  155   4.079   2.673   3.889
    1C        C  156   4.244   2.809   4.007
    1C        C  157   4.195   2.764   4.132
    1C        C  158   4.336   2.924   4.253
    1C        C  159   4.247   2.814   4.253
    1C        C  160   4.372   2.989   4.373
    1C        C  161   4.330   2.930   4.494
    1C        C  162   4.433   3.116   4.616
    1C        C  163   4.367   2.990   4.617
    1C        C  164   4.462   3.187   4.735
    1C        C  165   4.432   3.121   4.856
    1C        C  166   4.519   3.317   4.972
    1C        C  167   4.481   3.184   4.972
    1C        C  168   3.476   2.429   2.069
    1C        C  169   3.400   2.454   2.184
    1C        C  170   3.619   2.464   2.304
    1C        C  171   3.477   2.460   2.303
    1C        C  172   3.691   2.481   2.425
    1C        C  173   3.617   2.480   2.545
    1C        C  174   3.824   2.529   2.664
    1C        C  175   3.688   2.493   2.667
    1C        C  176   3.892   2.555   2.785
    1C        C  177   3.831   2.529   2.910
    1C        C  178   4.025   2.620   3.030
    1C        C  179   3.896   2.561   3.031
    1C        C  180   4.083   2.661   3.153
    1C        C  181   4.022   2.622   3.274
    1C        C  182   4.190   2.750   3.397
    1C        C  183   4.081   2.660   3.397
    1C        C  184   4.238   2.806   3.517
    1C        C  185   4.190   2.756   3.641
    1C        C  186   4.331   2.916   3.761
    1C        C  187   4.241   2.808   3.763
    1C        C  188   4.369   2.976   3.884
    1C        C  189   4.333   2.919   4.008
    1C        C  190   4.444   3.102   4.128
    1C        C  191   4.377   2.978   4.129
    1C        C  192   4.466   3.174   4.248
    1C        C  193   4.435   3.115   4.373
    1C        C  194   4.500   3.318   4.490
    1C        C  195   4.458   3.183   4.495
    1C        C  196   4.517   3.390   4.610
    1C        C  197   4.505   3.322   4.734
    1C        C  198   4.553   3.534   4.852
    1C        C  199   4.527   3.393   4.855
    1C        C  200   4.593   3.620   4.959
    1C        C  201   3.615   2.412   2.073
    1C        C  202   3.829   2.505   2.181
    1C        C  203   3.693   2.461   2.183
    1C        C  204   3.896   2.536   2.302
    1C        C  205   3.829   2.512   2.424
    1C        C  206   4.019   2.615   2.543
    1C        C  207   3.896   2.546   2.543
    1C        C  208   4.082   2.655   2.664
    1C        C  209   4.016   2.624   2.785
    1C        C  210   4.191   2.745   2.906
    1C        C  211   4.080   2.658   2.906
    1C        C  212   4.245   2.793   3.027
    1C        C  213   4.192   2.750   3.151
    1C        C  214   4.330   2.909   3.272
    1C        C  215   4.241   2.798   3.275
    1C        C  216   4.367   2.972   3.393
    1C        C  217   4.328   2.915   3.516
    1C        C  218   4.427   3.103   3.635
    1C        C  219   4.369   2.974   3.638
    1C        C  220   4.456   3.167   3.758
    1C        C  221   4.433   3.102   3.881
    1C        C  222   4.493   3.304   4.002
    1C        C  223   4.463   3.165   4.004
    1C        C  224   4.505   3.378   4.121
    1C        C  225   4.499   3.311   4.246
    1C        C  226   4.513   3.525   4.364
    1C        C  227   4.513   3.384   4.366
    1C        C  228   4.516   3.598   4.485
    1C        C  229   4.523   3.531   4.609
    1C        C  230   4.499   3.741   4.728
    1C        C  231   4.536   3.604   4.729
    1C        C  232   4.492   3.819   4.846
    1C        C  233   4.550   3.753   4.956
    1C        C  234   4.010   2.614   2.062
    1C        C  235   3.896   2.535   2.062
    1C        C  236   4.081   2.648   2.179
    1C        C  237   4.021   2.605   2.299
    1C        C  238   4.191   2.736   2.420
    1C        C  239   4.080   2.648   2.420
    1C        C  240   4.245   2.785   2.540
    1C        C  241   4.193   2.741   2.664
    1C        C  242   4.331   2.906   2.783
    1C        C  243   4.244   2.795   2.784
    1C        C  244   4.373   2.960   2.906
    1C        C  245   4.334   2.902   3.029
    1C        C  246   4.438   3.089   3.147
    1C        C  247   4.374   2.963   3.150
    1C        C  248   4.454   3.159   3.268
    1C        C  249   4.433   3.097   3.393
    1C        C  250   4.500   3.302   3.513
    1C        C  251   4.454   3.169   3.513
    1C        C  252   4.510   3.373   3.635
    1C        C  253   4.491   3.304   3.757
    1C        C  254   4.520   3.513   3.876
    1C        C  255   4.510   3.372   3.879
    1C        C  256   4.515   3.588   3.995
    1C        C  257   4.519   3.518   4.118
    1C        C  258   4.487   3.730   4.241
    1C        C  259   4.512   3.591   4.239
    1C        C  260   4.468   3.802   4.361
    1C        C  261   4.490   3.736   4.485
    1C        C  262   4.424   3.939   4.600
    1C        C  263   4.471   3.807   4.606
    1C        C  264   4.398   4.009   4.720
    1C        C  265   4.435   3.948   4.841
    1C        C  266   4.315   4.132   4.956
    1C        C  267   4.396   4.018   4.956
    1C        C  268   4.260   2.774   2.061
    1C        C  269   4.193   2.734   2.178
    1C        C  270   4.341   2.889   2.298
    1C        C  271   4.248   2.782   2.299
    1C        C  272   4.379   2.955   2.418
    1C        C  273   4.333   2.896   2.538
    1C        C  274   4.440   3.083   2.659
    1C        C  275   4.371   2.959   2.658
    1C        C  276   4.466   3.150   2.781
    1C        C  277   4.440   3.085   2.903
    1C        C  278   4.501   3.290   3.023
    1C        C  279   4.466   3.153   3.024
    1C        C  280   4.505   3.363   3.144
    1C        C  281   4.490   3.296   3.267
    1C        C  282   4.517   3.508   3.388
    1C        C  283   4.509   3.367   3.388
    1C        C  284   4.510   3.583   3.508
    1C        C  285   4.514   3.514   3.631
    1C        C  286   4.489   3.724   3.752
    1C        C  287   4.511   3.584   3.754
    1C        C  288   4.477   3.796   3.873
    1C        C  289   4.487   3.726   3.995
    1C        C  290   4.424   3.930   4.114
    1C        C  291   4.469   3.796   4.117
    1C        C  292   4.397   3.998   4.235
    1C        C  293   4.422   3.935   4.359
    1C        C  294   4.322   4.127   4.478
    1C        C  295   4.390   4.003   4.478
    1C        C  296   4.281   4.189   4.598
    1C        C  297   4.323   4.130   4.719
    1C        C  298   4.202   4.317   4.837
    1C        C  299   4.284   4.200   4.837
    1C        C  300   4.170   4.402   4.948
    1C        C  301   4.355   2.876   2.062
    1C        C  302   4.470   3.064   2.178
    1C        C  303   4.395   2.942   2.178
    1C        C  304   4.484   3.143   2.296
    1C        C  305   4.443   3.081   2.416
    1C        C  306   4.508   3.283   2.536
    1C        C  307   4.470   3.147   2.537
    1C        C  308   4.520   3.355   2.657
    1C        C  309   4.501   3.287   2.779
    1C        C  310   4.524   3.499   2.900
    1C        C  311   4.517   3.358   2.900
    1C        C  312   4.518   3.573   3.020
    1C        C  313   4.517   3.504   3.143
    1C        C  314   4.490   3.715   3.264
    1C        C  315   4.517   3.576   3.264
    1C        C  316   4.472   3.788   3.384
    1C        C  317   4.490   3.723   3.508
    1C        C  318   4.430   3.927   3.623
    1C        C  319   4.472   3.792   3.630
    1C        C  320   4.397   3.989   3.746
    1C        C  321   4.423   3.927   3.870
    1C        C  322   4.316   4.111   3.991
    1C        C  323   4.394   3.993   3.991
    1C        C  324   4.281   4.175   4.113
    1C        C  325   4.328   4.122   4.235
    1C        C  326   4.183   4.282   4.351
    1C        C  327   4.284   4.183   4.354
    1C        C  328   4.134   4.336   4.472
    1C        C  329   4.189   4.295   4.596
    1C        C  330   4.022   4.434   4.712
    1C        C  331   4.137   4.350   4.715
    1C        C  332   3.970   4.495   4.828
    1C        C  333   4.056   4.482   4.938
    1C        C  334   4.547   3.264   2.063
    1C        C  335   4.533   3.124   2.065
    1C        C  336   4.540   3.351   2.172
    1C        C  337   4.512   3.283   2.293
    1C        C  338   4.518   3.495   2.412
    1C        C  339   4.514   3.354   2.414
    1C        C  340   4.514   3.567   2.534
    1C        C  341   4.524   3.496   2.656
    1C        C  342   4.493   3.708   2.776
    1C        C  343   4.520   3.569   2.777
    1C        C  344   4.482   3.781   2.896
    1C        C  345   4.497   3.713   3.019
    1C        C  346   4.422   3.912   3.135
    1C        C  347   4.478   3.782   3.141
    1C        C  348   4.396   3.983   3.254
    1C        C  349   4.424   3.921   3.378
    1C        C  350   4.319   4.105   3.502
    1C        C  351   4.398   3.988   3.500
    1C        C  352   4.274   4.162   3.623
    1C        C  353   4.317   4.105   3.745
    1C        C  354   4.176   4.265   3.866
    1C        C  355   4.272   4.161   3.867
    1C        C  356   4.126   4.318   3.987
    1C        C  357   4.182   4.276   4.110
    1C        C  358   4.007   4.402   4.231
    1C        C  359   4.123   4.322   4.229
    1C        C  360   3.947   4.444   4.352
    1C        C  361   4.015   4.412   4.471
    1C        C  362   3.825   4.514   4.593
    1C        C  363   3.955   4.460   4.590
    1C        C  364   3.760   4.551   4.713
    1C        C  365   3.839   4.550   4.829
    1C        C  366   3.628   4.591   4.944
    1C        C  367   3.765   4.569   4.947
    1C        C  368   4.519   3.565   2.051
    1C        C  369   4.533   3.492   2.170
    1C        C  370   4.505   3.706   2.287
    1C        C  371   4.523   3.566   2.290
    1C        C  372   4.487   3.777   2.408
    1C        C  373   4.500   3.707   2.530
    1C        C  374   4.427   3.906   2.649
    1C        C  375   4.479   3.775   2.652
    1C        C  376   4.395   3.972   2.770
    1C        C  377   4.429   3.912   2.893
    1C        C  378   4.324   4.100   3.011
    1C        C  379   4.395   3.978   3.013
    1C        C  380   4.278   4.159   3.131
    1C        C  381   4.315   4.099   3.253
    1C        C  382   4.176   4.256   3.377
    1C        C  383   4.276   4.155   3.377
    1C        C  384   4.123   4.307   3.497
    1C        C  385   4.177   4.265   3.621
    1C        C  386   4.007   4.390   3.742
    1C        C  387   4.125   4.312   3.743
    1C        C  388   3.946   4.428   3.863
    1C        C  389   4.009   4.397   3.986
    1C        C  390   3.816   4.487   4.107
    1C        C  391   3.946   4.433   4.107
    1C        C  392   3.747   4.513   4.227
    1C        C  393   3.818   4.502   4.349
    1C        C  394   3.614   4.550   4.476
    1C        C  395   3.754   4.531   4.472
    1C        C  396   3.542   4.566   4.596
    1C        C  397   3.620   4.564   4.713
    1C        C  398   3.405   4.552   4.838
    1C        C  399   3.545   4.572   4.833
    1C        C  400   3.339   4.519   4.957
    1C        C  401   4.513   3.703   2.053
    1C        C  402   4.453   3.916   2.167
    1C        C  403   4.491   3.780   2.168
    1C        C  404   4.416   3.979   2.288
    1C        C  405   4.439   3.910   2.409
    1C        C  406   4.322   4.092   2.524
    1C        C  407   4.397   3.973   2.529
    1C        C  408   4.277   4.149   2.646
    1C        C  409   4.317   4.090   2.767
    1C        C  410   4.170   4.244   2.888
    1C        C  411   4.276   4.151   2.888
    1C        C  412   4.120   4.296   3.009
    1C        C  413   4.176   4.257   3.133
    1C        C  414   4.001   4.375   3.253
    1C        C  415   4.119   4.298   3.255
    1C        C  416   3.940   4.412   3.375
    1C        C  417   4.002   4.381   3.497
    1C        C  418   3.814   4.476   3.619
    1C        C  419   3.942   4.416   3.620
    1C        C  420   3.748   4.501   3.741
    1C        C  421   3.814   4.480   3.864
    1C        C  422   3.608   4.534   3.985
    1C        C  423   3.747   4.509   3.985
    1C        C  424   3.540   4.543   4.108
    1C        C  425   3.608   4.541   4.232
    1C        C  426   3.399   4.558   4.353
    1C        C  427   3.540   4.551   4.355
    1C        C  428   3.328   4.550   4.475
    1C        C  429   3.400   4.559   4.596
    1C        C  430   3.191   4.522   4.720
    1C        C  431   3.330   4.553   4.719
    1C        C  432   3.123   4.497   4.842
    1C        C  433   3.202   4.495   4.958
    1C        C  434   4.389   4.126   2.050
    1C        C  435   4.443   3.997   2.053
    1C        C  436   4.307   4.164   2.162
    1C        C  437   4.331   4.092   2.283
    1C        C  438   4.177   4.246   2.402
    1C        C  439   4.277   4.145   2.402
    1C        C  440   4.121   4.294   2.523
    1C        C  441   4.176   4.248   2.644
    1C        C  442   4.004   4.375   2.765
    1C        C  443   4.117   4.291   2.765
    1C        C  444   3.939   4.411   2.885
    1C        C  445   3.999   4.369   3.006
    1C        C  446   3.809   4.460   3.130
    1C        C  447   3.939   4.404   3.129
    1C        C  448   3.744   4.490   3.251
    1C        C  449   3.812   4.472   3.374
    1C        C  450   3.608   4.525   3.496
    1C        C  451   3.746   4.495   3.496
    1C        C  452   3.540   4.537   3.619
    1C        C  453   3.610   4.532   3.742
    1C        C  454   3.397   4.546   3.864
    1C        C  455   3.538   4.544   3.862
    1C        C  456   3.329   4.534   3.987
    1C        C  457   3.399   4.544   4.109
    1C        C  458   3.193   4.503   4.232
    1C        C  459   3.330   4.538   4.232
    1C        C  460   3.127   4.483   4.355
    1C        C  461   3.193   4.511   4.477
    1C        C  462   2.997   4.432   4.604
    1C        C  463   3.123   4.495   4.599
    1C        C  464   2.931   4.400   4.724
    1C        C  465   2.990   4.444   4.846
    1C        C  466   2.798   4.336   4.960
    1C        C  467   2.906   4.426   4.960
    1C        C  468   4.119   4.280   2.041
    1C        C  469   4.190   4.245   2.157
    1C        C  470   4.008   4.364   2.280
    1C        C  471   4.131   4.292   2.277
    1C        C  472   3.939   4.396   2.398
    1C        C  473   4.002   4.370   2.522
    1C        C  474   3.808   4.457   2.645
    1C        C  475   3.941   4.410   2.643
    1C        C  476   3.738   4.482   2.765
    1C        C  477   3.808   4.466   2.886
    1C        C  478   3.602   4.514   3.007
    1C        C  479   3.741   4.485   3.009
    1C        C  480   3.532   4.518   3.129
    1C        C  481   3.605   4.517   3.250
    1C        C  482   3.396   4.532   3.375
    1C        C  483   3.538   4.531   3.373
    1C        C  484   3.327   4.535   3.498
    1C        C  485   3.399   4.548   3.619
    1C        C  486   3.192   4.503   3.744
    1C        C  487   3.328   4.542   3.740
    1C        C  488   3.129   4.470   3.866
    1C        C  489   3.193   4.496   3.989
    1C        C  490   2.998   4.414   4.113
    1C        C  491   3.123   4.479   4.111
    1C        C  492   2.944   4.378   4.238
    1C        C  493   3.000   4.421   4.361
    1C        C  494   2.828   4.299   4.483
    1C        C  495   2.937   4.389   4.483
    1C        C  496   2.779   4.251   4.606
    1C        C  497   2.820   4.310   4.728
    1C        C  498   2.662   4.162   4.846
    1C        C  499   2.752   4.271   4.845
    1C        C  500   2.599   4.112   4.961
    1C        C  501   4.004   4.357   2.042
    1C        C  502   3.814   4.461   2.158
    1C        C  503   3.941   4.400   2.160
    1C        C  504   3.741   4.477   2.278
    1C        C  505   3.808   4.449   2.399
    1C        C  506   3.603   4.504   2.522
    1C        C  507   3.741   4.471   2.522
    1C        C  508   3.529   4.515   2.642
    1C        C  509   3.599   4.507   2.764
    1C        C  510   3.389   4.528   2.885
    1C        C  511   3.530   4.527   2.886
    1C        C  512   3.320   4.522   3.008
    1C        C  513   3.392   4.532   3.130
    1C        C  514   3.188   4.493   3.254
    1C        C  515   3.324   4.530   3.254
    1C        C  516   3.122   4.471   3.377
    1C        C  517   3.189   4.501   3.498
    1C        C  518   3.001   4.411   3.624
    1C        C  519   3.125   4.478   3.622
    1C        C  520   2.940   4.371   3.746
    1C        C  521   3.000   4.412   3.867
    1C        C  522   2.832   4.285   3.994
    1C        C  523   2.939   4.377   3.990
    1C        C  524   2.786   4.236   4.118
    1C        C  525   2.834   4.290   4.240
    1C        C  526   2.702   4.126   4.364
    1C        C  527   2.781   4.243   4.363
    1C        C  528   2.649   4.075   4.485
    1C        C  529   2.690   4.141   4.604
    1C        C  530   2.588   3.958   4.729
    1C        C  531   2.642   4.090   4.726
    1C        C  532   2.544   3.900   4.851
    1C        C  533   2.526   3.993   4.958
    1C        C  534   3.617   4.559   2.039
    1C        C  535   3.749   4.511   2.045
    1C        C  536   3.536   4.530   2.153
    1C        C  537   3.602   4.508   2.277
    1C        C  538   3.392   4.517   2.397
    1C        C  539   3.534   4.519   2.400
    1C        C  540   3.321   4.510   2.519
    1C        C  541   3.388   4.516   2.643
    1C        C  542   3.178   4.488   2.765
    1C        C  543   3.316   4.519   2.765
    1C        C  544   3.115   4.464   2.889
    1C        C  545   3.183   4.485   3.011
    1C        C  546   2.992   4.401   3.135
    1C        C  547   3.117   4.467   3.134
    1C        C  548   2.937   4.362   3.259
    1C        C  549   3.000   4.400   3.380
    1C        C  550   2.833   4.276   3.505
    1C        C  551   2.942   4.366   3.504
    1C        C  552   2.780   4.228   3.627
    1C        C  553   2.833   4.279   3.748
    1C        C  554   2.701   4.117   3.878
    1C        C  555   2.786   4.231   3.872
    1C        C  556   2.665   4.058   4.001
    1C        C  557   2.707   4.120   4.121
    1C        C  558   2.600   3.937   4.244
    1C        C  559   2.667   4.061   4.244
    1C        C  560   2.569   3.877   4.368
    1C        C  561   2.588   3.948   4.488
    1C        C  562   2.531   3.747   4.617
    1C        C  563   2.561   3.885   4.611
    1C        C  564   2.511   3.678   4.738
    1C        C  565   2.518   3.759   4.855
    1C        C  566   2.528   3.544   4.975
    1C        C  567   2.518   3.682   4.972
    1C        C  568   3.326   4.474   2.039
    1C        C  569   3.395   4.509   2.155
    1C        C  570   3.181   4.481   2.278
    1C        C  571   3.321   4.508   2.276
    1C        C  572   3.113   4.464   2.401
    1C        C  573   3.181   4.490   2.522
    1C        C  574   2.987   4.399   2.645
    1C        C  575   3.111   4.467   2.642
    1C        C  576   2.930   4.357   2.767
    1C        C  577   2.989   4.399   2.888
    1C        C  578   2.825   4.271   3.017
    1C        C  579   2.932   4.363   3.012
    1C        C  580   2.776   4.223   3.140
    1C        C  581   2.826   4.274   3.262
    1C        C  582   2.692   4.113   3.387
    1C        C  583   2.778   4.225   3.385
    1C        C  584   2.658   4.052   3.510
    1C        C  585   2.696   4.115   3.630
    1C        C  586   2.600   3.932   3.758
    1C        C  587   2.663   4.059   3.755
    1C        C  588   2.569   3.866   3.879
    1C        C  589   2.600   3.932   4.000
    1C        C  590   2.536   3.732   4.128
    1C        C  591   2.577   3.867   4.123
    1C        C  592   2.524   3.666   4.253
    1C        C  593   2.539   3.739   4.373
    1C        C  594   2.512   3.532   4.493
    1C        C  595   2.522   3.673   4.497
    1C        C  596   2.513   3.464   4.617
    1C        C  597   2.504   3.536   4.738
    1C        C  598   2.525   3.324   4.859
    1C        C  599   2.519   3.465   4.859
    1C        C  600   2.523   3.246   4.976
    1C        C  601   3.192   4.441   2.042
    1C        C  602   2.982   4.387   2.157
    1C        C  603   3.115   4.441   2.159
    1C        C  604   2.926   4.355   2.284
    1C        C  605   2.991   4.393   2.404
    1C        C  606   2.822   4.263   2.528
    1C        C  607   2.926   4.359   2.524
    1C        C  608   2.771   4.216   2.650
    1C        C  609   2.819   4.269   2.772
    1C        C  610   2.686   4.108   2.896
    1C        C  611   2.772   4.220   2.896
    1C        C  612   2.649   4.053   3.021
    1C        C  613   2.686   4.114   3.142
    1C        C  614   2.594   3.924   3.266
    1C        C  615   2.653   4.053   3.265
    1C        C  616   2.566   3.863   3.390
    1C        C  617   2.593   3.926   3.514
    1C        C  618   2.529   3.728   3.638
    1C        C  619   2.569   3.864   3.638
    1C        C  620   2.510   3.660   3.761
    1C        C  621   2.530   3.731   3.881
    1C        C  622   2.511   3.523   4.009
    1C        C  623   2.521   3.664   4.005
    1C        C  624   2.511   3.452   4.131
    1C        C  625   2.509   3.525   4.252
    1C        C  626   2.531   3.315   4.377
    1C        C  627   2.509   3.455   4.375
    1C        C  628   2.555   3.252   4.501
    1C        C  629   2.538   3.325   4.621
    1C        C  630   2.595   3.117   4.742
    1C        C  631   2.546   3.250   4.741
    1C        C  632   2.615   3.048   4.865
    1C        C  633   2.558   3.110   4.980
    1C        C  634   2.781   4.300   2.052
    1C        C  635   2.894   4.383   2.045
    1C        C  636   2.745   4.230   2.167
    1C        C  637   2.810   4.273   2.285
    1C        C  638   2.676   4.108   2.409
    1C        C  639   2.766   4.217   2.407
    1C        C  640   2.639   4.048   2.531
    1C        C  641   2.680   4.108   2.652
    1C        C  642   2.584   3.920   2.774
    1C        C  643   2.645   4.047   2.775
    1C        C  644   2.562   3.856   2.898
    1C        C  645   2.590   3.924   3.019
    1C        C  646   2.529   3.725   3.149
    1C        C  647   2.567   3.861   3.143
    1C        C  648   2.514   3.654   3.270
    1C        C  649   2.528   3.727   3.391
    1C        C  650   2.512   3.519   3.517
    1C        C  651   2.517   3.660   3.515
    1C        C  652   2.507   3.450   3.640
    1C        C  653   2.496   3.519   3.763
    1C        C  654   2.522   3.311   3.888
    1C        C  655   2.503   3.451   3.887
    1C        C  656   2.535   3.239   4.009
    1C        C  657   2.527   3.312   4.130
    1C        C  658   2.594   3.114   4.255
    1C        C  659   2.545   3.247   4.254
    1C        C  660   2.631   3.054   4.377
    1C        C  661   2.598   3.117   4.499
    1C        C  662   2.707   2.935   4.624
    1C        C  663   2.629   3.053   4.621
    1C        C  664   2.745   2.872   4.745
    1C        C  665   2.697   2.931   4.865
    1C        C  666   2.739   2.873   4.985
    1C        C  667   2.686   4.021   2.053
    1C        C  668   2.683   4.103   2.167
    1C        C  669   2.590   3.910   2.292
    1C        C  670   2.646   4.041   2.288
    1C        C  671   2.563   3.845   2.414
    1C        C  672   2.588   3.916   2.534
    1C        C  673   2.511   3.716   2.661
    1C        C  674   2.557   3.849   2.655
    1C        C  675   2.504   3.647   2.784
    1C        C  676   2.521   3.721   2.903
    1C        C  677   2.508   3.512   3.026
    1C        C  678   2.519   3.653   3.027
    1C        C  679   2.506   3.444   3.150
    1C        C  680   2.502   3.514   3.273
    1C        C  681   2.528   3.305   3.397
    1C        C  682   2.507   3.445   3.396
    1C        C  683   2.545   3.240   3.522
    1C        C  684   2.530   3.310   3.643
    1C        C  685   2.601   3.113   3.771
    1C        C  686   2.550   3.244   3.767
    1C        C  687   2.630   3.049   3.894
    1C        C  688   2.588   3.109   4.015
    1C        C  689   2.704   2.932   4.136
    1C        C  690   2.613   3.040   4.136
    1C        C  691   2.752   2.879   4.258
    1C        C  692   2.710   2.936   4.380
    1C        C  693   2.751   2.879   4.503
    1C        C  694   2.629   3.893   2.055
    1C        C  695   2.530   3.704   2.175
    1C        C  696   2.580   3.836   2.173
    1C        C  697   2.513   3.638   2.299
    1C        C  698   2.521   3.710   2.419
    1C        C  699   2.487   3.501   2.541
    1C        C  700   2.499   3.642   2.541
    1C        C  701   2.501   3.434   2.664
    1C        C  702   2.503   3.506   2.786
    1C        C  703   2.530   3.296   2.909
    1C        C  704   2.505   3.435   2.908
    1C        C  705   2.546   3.233   3.034
    1C        C  706   2.531   3.305   3.155
    1C        C  707   2.596   3.103   3.278
    1C        C  708   2.544   3.234   3.276
    1C        C  709   2.628   3.043   3.402
    1C        C  710   2.597   3.108   3.524
    1C        C  711   2.709   2.932   3.648
    1C        C  712   2.632   3.050   3.648
    1C        C  713   2.754   2.876   3.770
    1C        C  714   2.709   2.932   3.892
    1C        C  715   2.752   2.877   4.015
    1C        C  716   2.446   3.498   2.061
    1C        C  717   2.487   3.633   2.062
    1C        C  718   2.466   3.422   2.180
    1C        C  719   2.485   3.498   2.299
    1C        C  720   2.507   3.288   2.420
    1C        C  721   2.484   3.427   2.421
    1C        C  722   2.536   3.223   2.542
    1C        C  723   2.524   3.294   2.663
    1C        C  724   2.587   3.093   2.788
    1C        C  725   2.541   3.226   2.786
    1C        C  726   2.623   3.035   2.912
    1C        C  727   2.596   3.101   3.034
    1C        C  728   2.707   2.921   3.159
    1C        C  729   2.626   3.037   3.156
    1C        C  730   2.751   2.868   3.282
    1C        C  731   2.706   2.925   3.403
    1C        C  732   2.753   2.876   3.526
    1C        C  733   2.487   3.196   2.071
    1C        C  734   2.484   3.280   2.183
    1C        C  735   2.572   3.079   2.304
    1C        C  736   2.519   3.211   2.302
    1C        C  737   2.606   3.017   2.426
    1C        C  738   2.580   3.088   2.545
    1C        C  739   2.690   2.905   2.667
    1C        C  740   2.615   3.025   2.667
    1C        C  741   2.740   2.857   2.790
    1C        C  742   2.700   2.917   2.912
    1C        C  743   2.750   2.869   3.035
    1C        C  744   2.540   3.067   2.070
    1C        C  745   2.678   2.893   2.188
    1C        C  746   2.602   3.012   2.183
    1C        C  747   2.728   2.837   2.307
    1C        C  748   2.684   2.898   2.426
    1C        C  749   2.737   2.848   2.547
    1C        C  750   2.737   2.840   2.073
    1C        C  751   3.664   2.299   1.991
    1C        O  752   3.681   2.183   2.037
    1C        O  753   3.697   2.308   1.855
    1C        C  754   4.653   3.058   2.009
    1C        O  755   4.671   3.047   1.885
    1C        O  756   4.729   2.958   2.071
    1C        C  757   4.473   4.224   1.978
    1C        O  758   4.530   4.317   2.042
    1C        O  759   4.464   4.221   1.839
    1C        C  760   3.597   4.675   1.950
    1C        O  761   3.658   4.785   1.956
    1C        O  762   3.531   4.664   1.827
    1C        C  763   2.881   4.505   1.962
    1C        O  764   2.930   4.516   1.846
    1C        O  765   2.857   4.622   2.034
    1C        C  766   2.328   3.474   1.975
    1C        O  767   2.330   3.468   1.849
    1C        O  768   2.194   3.478   2.014
    1C        C  769   4.717   3.585   5.032
    1C        O  770   4.736   3.594   5.156
    1C        O  771   4.844   3.597   4.973
    1C        C  772   4.265   4.422   5.060
    1C        O  773   4.220   4.426   5.178
    1C        O  774   4.379   4.500   5.044
    1C        C  775   4.138   2.502   5.051
    1C        O  776   4.156   2.380   5.027
    1C        O  777   4.156   2.519   5.189
    1C        C  778   2.906   4.521   5.073
    1C        O  779   2.810   4.604   5.067
    1C        O  780   2.953   4.472   5.196
    1C        C  781   2.468   3.029   5.066
    1C        O  782   2.359   2.990   5.019
    1C        O  783   2.504   2.972   5.188
    1C        C  784   2.398   4.001   5.032
    1C        O  785   2.288   4.036   4.981
    1C        O  786   2.393   4.023   5.171
    1C        C  787   2.950   2.418   2.003
    1C        O  788   2.936   2.434   1.878
    1C        O  789   2.919   2.292   2.052
    1C        C  790   3.165   2.354   5.036
    1C        O  791   3.102   2.262   4.977
    1C        O  792   3.190   2.320   5.170
    1C        H  793   4.287   3.018   5.064
    1C        H  794   4.198   2.801   5.073
    1C        H  795   4.514   3.123   5.054
    1C        H  796   4.497   3.370   5.063
    1C        H  797   4.555   3.806   5.049
    1C        H  798   4.438   3.992   5.050
    1C        H  799   4.270   4.149   5.051
    1C        H  800   4.051   4.560   5.010
    1C        H  801   3.818   4.598   5.035
    1C        H  802   3.590   4.645   5.029
    1C        H  803   3.390   4.532   5.050
    1C        H  804   3.166   4.438   5.041
    1C        H  805   3.888   2.480   5.062
    1C        H  806   3.680   2.467   5.072
    1C        H  807   2.987   2.538   5.052
    1C        H  808   3.436   2.514   5.069
    1C        H  809   2.839   2.722   5.078
    1C        H  810   2.694   2.891   5.080
    1C        H  811   2.457   3.276   5.054
    1C        H  812   2.553   3.498   5.068
    1C        H  813   2.507   3.742   5.059
    1C        H  814   2.605   4.168   5.052
    1C        H  815   2.776   4.293   5.055
    1C        H  816   2.706   2.877   1.977
    1C        H  817   2.813   2.670   1.982
    1C        H  818   3.202   2.408   1.993
    1C        H  819   3.430   2.459   1.978
    1C        H  820   3.854   2.507   1.968
    1C        H  821   4.011   2.685   1.982
    1C        H  822   4.234   2.722   1.971
    1C        H  823   4.422   2.872   1.978
    1C        H  824   4.575   3.305   1.968
    1C        H  825   4.497   3.509   1.962
    1C        H  826   4.548   3.751   1.964
    1C        H  827   3.787   4.478   1.951
    1C        H  828   3.957   4.377   1.948
    1C        H  829   4.123   4.213   1.957
    1C        H  830   4.486   3.952   1.966
    1C        H  831   2.657   3.832   1.972
    1C        H  832   2.743   4.051   1.968
    1C        H  833   2.710   4.295   1.973
    1C        H  834   3.361   4.519   1.948
    1C        H  835   3.145   4.445   1.945
    1C        H  836   2.540   3.014   1.977
    1C        H  837   2.503   3.251   1.980
    1C        H  838   2.468   3.690   1.974
    2V3OU   H29  839   2.800   3.547   3.639
    2V3OU   C27  840   2.785   3.502   3.741
    2V3OU   H27  841   2.735   3.573   3.812
    2V3OU   H28  842   2.732   3.404   3.738
    2V3OU   O11  843   2.916   3.473   3.792
    2V3OU   C15  844   2.926   3.392   3.903
    2V3OU   C13  845   3.054   3.369   3.955
    2V3OU   C14  846   3.075   3.266   4.047
    2V3OU   C16  847   2.979   3.182   4.102
    2V3OU    H6  848   2.991   3.108   4.183
    2V3OU   C12  849   3.212   3.231   4.091
    2V3OU    O2  850   3.235   3.128   4.159
    2V3OU   C10  851   3.325   3.301   4.028
    2V3OU    C8  852   3.455   3.264   4.057
    2V3OU   O10  853   3.490   3.146   4.115
    2V3OU   H26  854   3.402   3.112   4.138
    2V3OU    C6  855   3.563   3.351   4.021
    2V3OU    C5  856   3.536   3.468   3.950
    2V3OU    C4  857   3.700   3.293   4.015
    2V3OU    H4  858   3.722   3.221   4.099
    2V3OU    H5  859   3.709   3.226   3.925
    2V3OU    C2  860   3.813   3.397   4.014
    2V3OU    O6  861   3.802   3.473   4.134
    2V3OU   H21  862   3.759   3.556   4.105
    2V3OU    C3  863   3.781   3.493   3.899
    2V3OU    H2  864   3.862   3.571   3.898
    2V3OU    H3  865   3.774   3.441   3.800
    2V3OU   C25  866   3.949   3.327   4.006
    2V3OU    O7  867   3.995   3.296   3.897
    2V3OU   C26  868   4.028   3.290   4.131
    2V3OU   H22  869   4.063   3.381   4.186
    2V3OU   H23  870   4.115   3.225   4.104
    2V3OU    O8  871   3.959   3.207   4.221
    2V3OU   H24  872   3.921   3.266   4.289
    2V3OU    C1  873   3.647   3.563   3.916
    2V3OU    H1  874   3.621   3.617   3.820
    2V3OU    O3  875   3.655   3.661   4.020
    2V3OU   C19  876   3.613   3.797   4.005
    2V3OU    H9  877   3.513   3.807   3.953
    2V3OU    O4  878   3.711   3.845   3.916
    2V3OU   C20  879   3.842   3.873   3.967
    2V3OU   H10  880   3.901   3.779   3.988
    2V3OU   C24  881   3.609   3.861   4.144
    2V3OU   H16  882   3.543   3.795   4.206
    2V3OU   H17  883   3.559   3.960   4.128
    2V3OU   C23  884   3.750   3.877   4.200
    2V3OU   H15  885   3.790   3.772   4.218
    2V3OU    N1  886   3.734   3.958   4.319
    2V3OU   H19  887   3.810   3.923   4.375
    2V3OU   H20  888   3.646   3.932   4.358
    2V3OU   C21  889   3.850   3.946   4.101
    2V3OU   H11  890   3.957   3.927   4.134
    2V3OU    O5  891   3.835   4.086   4.091
    2V3OU   H18  892   3.788   4.100   4.175
    2V3OU   C22  893   3.908   3.951   3.856
    2V3OU   H12  894   3.858   4.051   3.844
    2V3OU   H13  895   3.902   3.894   3.759
    2V3OU   H14  896   4.019   3.954   3.876
    2V3OU   C11  897   3.160   3.471   3.947
    2V3OU    O1  898   3.133   3.590   3.920
    2V3OU    C9  899   3.299   3.421   3.957
    2V3OU    C7  900   3.402   3.503   3.913
    2V3OU    O9  901   3.384   3.618   3.840
    2V3OU   H25  902   3.288   3.629   3.826
    2V3OU   C17  903   2.827   3.314   3.968
    2V3OU    H7  904   2.731   3.362   3.986
    2V3OU   C18  905   2.850   3.213   4.060
    2V3OU    H8  906   2.782   3.176   4.138
    3SOL     OW  907   2.913   4.163   5.391
    3SOL    HW1  908   2.839   4.231   5.387
    3SOL    HW2  909   2.997   4.202   5.353
    4SOL     OW  910   6.471   6.955   6.553
    4SOL    HW1  911   6.373   6.960   6.571
    4SOL    HW2  912   6.513   0.023   6.572
    5SOL     OW  913   4.893   1.784   2.741
    5SOL    HW1  914   4.824   1.712   2.750
    5SOL    HW2  915   4.899   1.835   2.827
    6SOL     OW  916   4.837   2.533   3.175
    6SOL    HW1  917   4.929   2.560   3.203
    6SOL    HW2  918   4.815   2.576   3.088
    7SOL     OW  919   0.898   3.906   3.735
    7SOL    HW1  920   0.977   3.903   3.796
    7SOL    HW2  921   0.848   3.820   3.741
    8SOL     OW  922   2.815   2.218   5.558
    8SOL    HW1  923   2.823   2.120   5.573
    8SOL    HW2  924   2.879   2.246   5.487
    9SOL     OW  925   6.240   1.945   6.146
    9SOL    HW1  926   6.229   1.847   6.161
    9SOL    HW2  927   6.252   1.992   6.234
   10SOL     OW  928   3.216   4.899   4.188
   10SOL    HW1  929   3.286   4.958   4.229
   10SOL    HW2  930   3.196   4.932   4.095
   11SOL     OW  931   1.842   1.411   6.804
   11SOL    HW1  932   1.875   1.464   6.882
   11SOL    HW2  933   1.862   1.314   6.818
   12SOL     OW  934   2.880   4.749   3.915
   12SOL    HW1  935   2.852   4.734   3.820
   12SOL    HW2  936   2.980   4.742   3.921
   13SOL     OW  937   4.013   6.125   3.080
   13SOL    HW1  938   4.019   6.216   3.039
   13SOL    HW2  939   4.033   6.130   3.177
   14SOL     OW  940   4.307   3.801   6.711
   14SOL    HW1  941   4.321   3.703   6.698
   14SOL    HW2  942   4.392   3.850   6.691
   15SOL     OW  943   0.726   6.636   6.477
   15SOL    HW1  944   0.760   6.708   6.538
   15SOL    HW2  945   0.804   6.585   6.440
   16SOL     OW  946   6.070   2.643   6.255
   16SOL    HW1  947   6.145   2.706   6.277
   16SOL    HW2  948   6.019   2.678   6.177
   17SOL     OW  949   5.034   0.541   6.591
   17SOL    HW1  950   4.954   0.492   6.556
   17SOL    HW2  951   5.006   0.631   6.624
   18SOL     OW  952   3.823   1.039   4.947
   18SOL    HW1  953   3.731   1.063   4.977
   18SOL    HW2  954   3.891   1.079   5.008
   19SOL     OW  955   0.853   2.451   1.953
   19SOL    HW1  956   0.907   2.462   1.869
   19SOL    HW2  957   0.913   2.422   2.027
   20SOL     OW  958   5.051   1.870   5.104
   20SOL    HW1  959   5.114   1.856   5.028
   20SOL    HW2  960   5.036   1.969   5.117
   21SOL     OW  961   2.833   0.405   3.149
   21SOL    HW1  962   2.910   0.371   3.095
   21SOL    HW2  963   2.866   0.441   3.236
   22SOL     OW  964   1.049   6.492   6.637
   22SOL    HW1  965   1.052   6.520   6.541
   22SOL    HW2  966   1.094   6.403   6.647
   23SOL     OW  967   3.632   5.339   2.274
   23SOL    HW1  968   3.713   5.326   2.331
   23SOL    HW2  969   3.551   5.307   2.323
   24SOL     OW  970   3.559   0.326   2.564
   24SOL    HW1  971   3.638   0.359   2.513
   24SOL    HW2  972   3.582   0.239   2.607
   25SOL     OW  973   2.416   6.819   4.094
   25SOL    HW1  974   2.454   6.873   4.170
   25SOL    HW2  975   2.328   6.780   4.121
   26SOL     OW  976   0.352   2.142   6.946
   26SOL    HW1  977   0.296   2.193   6.880
   26SOL    HW2  978   0.446   2.138   6.912
   27SOL     OW  979   1.694   1.328   1.982
   27SOL    HW1  980   1.622   1.388   1.947
   27SOL    HW2  981   1.778   1.381   1.994
   28SOL     OW  982   0.302   1.101   4.635
   28SOL    HW1  983   0.206   1.127   4.632
   28SOL    HW2  984   0.353   1.155   4.567
   29SOL     OW  985   6.493   1.025   1.284
   29SOL    HW1  986   6.510   1.011   1.382
   29SOL    HW2  987   6.525   1.116   1.258
   30SOL     OW  988   3.748   0.404   5.423
   30SOL    HW1  989   3.672   0.417   5.360
   30SOL    HW2  990   3.787   0.313   5.410
   31SOL     OW  991   0.407   2.211   5.433
   31SOL    HW1  992   0.467   2.185   5.509
   31SOL    HW2  993   0.417   2.309   5.416
   32SOL     OW  994   1.633   1.574   2.198
   32SOL    HW1  995   1.709   1.510   2.195
   32SOL    HW2  996   1.635   1.624   2.284
   33SOL     OW  997   0.762   4.376   4.958
   33SOL    HW1  998   0.712   4.462   4.957
   33SOL    HW2  999   0.860   4.394   4.970
   34SOL     OW 1000   2.227   5.707   4.897
   34SOL    HW1 1001   2.205   5.710   4.799
   34SOL    HW2 1002   2.288   5.630   4.915
   35SOL     OW 1003   4.312   1.902   5.485
   35SOL    HW1 1004   4.224   1.926   5.443
   35SOL    HW2 1005   4.304   1.816   5.534
   36SOL     OW 1006   5.175   1.449   3.623
   36SOL    HW1 1007   5.184   1.435   3.722
   36SOL    HW2 1008   5.177   1.361   3.577
   37SOL     OW 1009   2.035   1.577   4.911
   37SOL    HW1 1010   1.997   1.636   4.840
   37SOL    HW2 1011   2.030   1.624   4.999
   38SOL     OW 1012   2.140   3.927   1.892
   38SOL    HW1 1013   2.106   3.833   1.887
   38SOL    HW2 1014   2.202   3.945   1.816
   39SOL     OW 1015   6.255   4.790   6.066
   39SOL    HW1 1016   6.314   4.791   6.147
   39SOL    HW2 1017   6.305   4.749   5.989
   40SOL     OW 1018   3.556   1.804   6.694
   40SOL    HW1 1019   3.572   1.887   6.640
   40SOL    HW2 1020   3.616   1.731   6.661
   41SOL     OW 1021   6.446   3.355   2.801
   41SOL    HW1 1022   6.444   3.408   2.716
   41SOL    HW2 1023   6.409   3.410   2.875
   42SOL     OW 1024   3.187   6.056   4.418
   42SOL    HW1 1025   3.216   6.039   4.324
   42SOL    HW2 1026   3.094   6.022   4.430
   43SOL     OW 1027   4.318   0.273   5.551
   43SOL    HW1 1028   4.228   0.312   5.570
   43SOL    HW2 1029   4.379   0.289   5.629
   44SOL     OW 1030   5.927   2.452   4.988
   44SOL    HW1 1031   5.989   2.520   5.027
   44SOL    HW2 1032   5.868   2.416   5.060
   45SOL     OW 1033   4.046   5.340   1.154
   45SOL    HW1 1034   3.959   5.347   1.105
   45SOL    HW2 1035   4.063   5.244   1.180
   46SOL     OW 1036   0.621   2.742   4.089
   46SOL    HW1 1037   0.686   2.756   4.164
   46SOL    HW2 1038   0.564   2.662   4.110
   47SOL     OW 1039   4.488   3.815   1.456
   47SOL    HW1 1040   4.586   3.836   1.464
   47SOL    HW2 1041   4.477   3.719   1.432
   48SOL     OW 1042   0.265   2.711   6.301
   48SOL    HW1 1043   0.214   2.735   6.219
   48SOL    HW2 1044   0.208   2.655   6.361
   49SOL     OW 1045   5.531   2.828   1.163
   49SOL    HW1 1046   5.474   2.895   1.210
   49SOL    HW2 1047   5.627   2.855   1.169
   50SOL     OW 1048   5.949   1.422   5.347
   50SOL    HW1 1049   5.876   1.488   5.363
   50SOL    HW2 1050   5.947   1.351   5.418
   51SOL     OW 1051   2.069   6.231   3.107
   51SOL    HW1 1052   2.135   6.158   3.089
   51SOL    HW2 1053   2.008   6.241   3.028
   52SOL     OW 1054   5.109   3.205   1.847
   52SOL    HW1 1055   5.085   3.142   1.773
   52SOL    HW2 1056   5.060   3.179   1.930
   53SOL     OW 1057   5.573   0.174   3.524
   53SOL    HW1 1058   5.671   0.159   3.511
   53SOL    HW2 1059   5.556   0.272   3.539
   54SOL     OW 1060   5.323   6.884   0.169
   54SOL    HW1 1061   5.223   6.884   0.172
   54SOL    HW2 1062   5.354   6.804   0.119
   55SOL     OW 1063   2.496   2.178   5.370
   55SOL    HW1 1064   2.415   2.124   5.346
   55SOL    HW2 1065   2.532   2.147   5.457
   56SOL     OW 1066   1.516   1.918   1.006
   56SOL    HW1 1067   1.497   1.877   1.095
   56SOL    HW2 1068   1.473   2.008   1.002
   57SOL     OW 1069   3.424   1.145   0.426
   57SOL    HW1 1070   3.358   1.128   0.353
   57SOL    HW2 1071   3.454   1.058   0.465
   58SOL     OW 1072   0.555   6.779   5.749
   58SOL    HW1 1073   0.610   6.730   5.682
   58SOL    HW2 1074   0.611   6.800   5.830
   59SOL     OW 1075   6.474   3.628   5.966
   59SOL    HW1 1076   6.414   3.666   6.036
   59SOL    HW2 1077   6.491   3.531   5.985
   60SOL     OW 1078   5.163   2.501   4.044
   60SOL    HW1 1079   5.101   2.424   4.058
   60SOL    HW2 1080   5.157   2.532   3.949
   61SOL     OW 1081   7.012   0.989   4.352
   61SOL    HW1 1082   6.968   0.952   4.271
   61SOL    HW2 1083   0.028   0.915   4.407
   62SOL     OW 1084   1.865   1.048   1.336
   62SOL    HW1 1085   1.965   1.037   1.342
   62SOL    HW2 1086   1.837   1.125   1.393
   63SOL     OW 1087   3.979   0.216   4.071
   63SOL    HW1 1088   4.032   0.150   4.016
   63SOL    HW2 1089   3.923   0.167   4.137
   64SOL     OW 1090   0.473   3.670   6.508
   64SOL    HW1 1091   0.429   3.758   6.489
   64SOL    HW2 1092   0.572   3.680   6.497
   65SOL     OW 1093   1.064   6.023   5.648
   65SOL    HW1 1094   1.089   6.116   5.622
   65SOL    HW2 1095   1.046   5.969   5.566
   66SOL     OW 1096   3.288   6.931   3.282
   66SOL    HW1 1097   3.370   6.981   3.256
   66SOL    HW2 1098   3.274   6.854   3.219
   67SOL     OW 1099   0.291   3.111   6.083
   67SOL    HW1 1100   0.274   3.128   5.986
   67SOL    HW2 1101   0.209   3.072   6.125
   68SOL     OW 1102   0.002   1.693   5.990
   68SOL    HW1 1103   0.079   1.742   6.032
   68SOL    HW2 1104   0.037   1.618   5.934
   69SOL     OW 1105   2.199   3.115   5.782
   69SOL    HW1 1106   2.277   3.168   5.815
   69SOL    HW2 1107   2.121   3.177   5.768
   70SOL     OW 1108   5.597   5.093   4.882
   70SOL    HW1 1109   5.628   5.051   4.797
   70SOL    HW2 1110   5.620   5.033   4.959
   71SOL     OW 1111   4.449   1.640   3.200
   71SOL    HW1 1112   4.490   1.662   3.289
   71SOL    HW2 1113   4.438   1.541   3.191
   72SOL     OW 1114   0.199   1.051   3.291
   72SOL    HW1 1115   0.116   1.079   3.340
   72SOL    HW2 1116   0.203   1.099   3.204
   73SOL     OW 1117   2.977   0.049   1.011
   73SOL    HW1 1118   2.994   0.022   0.916
   73SOL    HW2 1119   2.911   0.123   1.013
   74SOL     OW 1120   2.753   1.220   6.437
   74SOL    HW1 1121   2.782   1.124   6.436
   74SOL    HW2 1122   2.752   1.255   6.343
   75SOL     OW 1123   3.644   1.453   1.589
   75SOL    HW1 1124   3.584   1.382   1.553
   75SOL    HW2 1125   3.595   1.541   1.591
   76SOL     OW 1126   2.022   4.029   5.938
   76SOL    HW1 1127   1.994   4.017   6.033
   76SOL    HW2 1128   2.094   4.098   5.933
   77SOL     OW 1129   1.861   5.803   3.102
   77SOL    HW1 1130   1.908   5.890   3.087
   77SOL    HW2 1131   1.833   5.796   3.198
   78SOL     OW 1132   4.023   1.301   1.317
   78SOL    HW1 1133   3.987   1.394   1.308
   78SOL    HW2 1134   4.069   1.275   1.231
   79SOL     OW 1135   2.546   5.863   1.835
   79SOL    HW1 1136   2.460   5.858   1.785
   79SOL    HW2 1137   2.551   5.951   1.883
   80SOL     OW 1138   4.193   1.744   4.641
   80SOL    HW1 1139   4.214   1.842   4.651
   80SOL    HW2 1140   4.266   1.690   4.683
   81SOL     OW 1141   2.336   6.548   0.991
   81SOL    HW1 1142   2.301   6.485   0.921
   81SOL    HW2 1143   2.397   6.498   1.053
   82SOL     OW 1144   7.002   6.181   1.939
   82SOL    HW1 1145   6.903   6.177   1.947
   82SOL    HW2 1146   0.010   6.129   1.859
   83SOL     OW 1147   0.215   1.807   6.135
   83SOL    HW1 1148   0.305   1.775   6.109
   83SOL    HW2 1149   0.190   1.887   6.080
   84SOL     OW 1150   6.708   4.164   2.836
   84SOL    HW1 1151   6.782   4.230   2.824
   84SOL    HW2 1152   6.671   4.172   2.928
   85SOL     OW 1153   1.190   0.404   3.396
   85SOL    HW1 1154   1.250   0.483   3.408
   85SOL    HW2 1155   1.245   0.321   3.385
   86SOL     OW 1156   6.852   1.107   6.666
   86SOL    HW1 1157   6.850   1.201   6.632
   86SOL    HW2 1158   6.909   1.051   6.606
   87SOL     OW 1159   3.589   4.014   0.805
   87SOL    HW1 1160   3.568   3.918   0.789
   87SOL    HW2 1161   3.658   4.045   0.739
   88SOL     OW 1162   3.074   2.257   6.414
   88SOL    HW1 1163   2.990   2.265   6.359
   88SOL    HW2 1164   3.095   2.346   6.454
   89SOL     OW 1165   3.339   3.672   0.900
   89SOL    HW1 1166   3.410   3.693   0.833
   89SOL    HW2 1167   3.250   3.667   0.854
   90SOL     OW 1168   4.807   4.660   2.427
   90SOL    HW1 1169   4.767   4.569   2.430
   90SOL    HW2 1170   4.771   4.715   2.502
   91SOL     OW 1171   5.842   4.697   6.125
   91SOL    HW1 1172   5.745   4.712   6.108
   91SOL    HW2 1173   5.892   4.701   6.039
   92SOL     OW 1174   5.240   4.059   0.937
   92SOL    HW1 1175   5.275   4.135   0.882
   92SOL    HW2 1176   5.169   4.011   0.885
   93SOL     OW 1177   3.356   3.588   0.390
   93SOL    HW1 1178   3.368   3.649   0.312
   93SOL    HW2 1179   3.332   3.497   0.358
   94SOL     OW 1180   2.548   6.136   0.887
   94SOL    HW1 1181   2.531   6.222   0.840
   94SOL    HW2 1182   2.495   6.063   0.845
   95SOL     OW 1183   1.577   0.993   3.203
   95SOL    HW1 1184   1.487   0.954   3.220
   95SOL    HW2 1185   1.608   1.043   3.284
   96SOL     OW 1186   5.113   5.808   6.752
   96SOL    HW1 1187   5.047   5.791   6.679
   96SOL    HW2 1188   5.101   5.740   6.825
   97SOL     OW 1189   2.172   4.261   5.031
   97SOL    HW1 1190   2.228   4.342   5.011
   97SOL    HW2 1191   2.219   4.179   4.998
   98SOL     OW 1192   1.064   2.233   1.114
   98SOL    HW1 1193   0.992   2.259   1.178
   98SOL    HW2 1194   1.154   2.249   1.155
   99SOL     OW 1195   3.359   3.841   2.761
   99SOL    HW1 1196   3.394   3.804   2.675
   99SOL    HW2 1197   3.391   3.936   2.771
  100SOL     OW 1198   6.713   0.271   4.476
  100SOL    HW1 1199   6.794   0.232   4.432
  100SOL    HW2 1200   6.637   0.207   4.470
  101SOL     OW 1201   0.464   5.475   2.508
  101SOL    HW1 1202   0.408   5.393   2.520
  101SOL    HW2 1203   0.416   5.539   2.448
  102SOL     OW 1204   3.444   5.742   2.634
  102SOL    HW1 1205   3.471   5.833   2.601
  102SOL    HW2 1206   3.479   5.673   2.572
  103SOL     OW 1207   1.818   1.850   2.330
  103SOL    HW1 1208   1.766   1.804   2.402
  103SOL    HW2 1209   1.797   1.808   2.242
  104SOL     OW 1210   1.519   5.027   2.254
  104SOL    HW1 1211   1.535   5.033   2.156
  104SOL    HW2 1212   1.486   4.935   2.278
  105SOL     OW 1213   4.973   1.741   5.880
  105SOL    HW1 1214   4.952   1.831   5.920
  105SOL    HW2 1215   5.026   1.754   5.796
  106SOL     OW 1216   4.736   5.011   2.217
  106SOL    HW1 1217   4.650   5.053   2.189
  106SOL    HW2 1218   4.736   4.914   2.191
  107SOL     OW 1219   6.270   0.754   6.605
  107SOL    HW1 1220   6.294   0.771   6.701
  107SOL    HW2 1221   6.220   0.668   6.598
  108SOL     OW 1222   3.576   6.967   5.691
  108SOL    HW1 1223   3.600   6.991   5.597
  108SOL    HW2 1224   3.484   6.929   5.694
  109SOL     OW 1225   2.927   0.536   2.324
  109SOL    HW1 1226   2.905   0.484   2.241
  109SOL    HW2 1227   2.842   0.565   2.368
  110SOL     OW 1228   2.188   5.301   4.995
  110SOL    HW1 1229   2.151   5.365   4.928
  110SOL    HW2 1230   2.163   5.208   4.970
  111SOL     OW 1231   0.953   1.391   2.710
  111SOL    HW1 1232   0.911   1.482   2.704
  111SOL    HW2 1233   0.906   1.337   2.780
  112SOL     OW 1234   5.014   6.796   6.614
  112SOL    HW1 1235   5.058   6.852   6.543
  112SOL    HW2 1236   4.921   6.829   6.630
  113SOL     OW 1237   0.165   6.231   2.585
  113SOL    HW1 1238   0.209   6.204   2.500
  113SOL    HW2 1239   0.078   6.183   2.594
  114SOL     OW 1240   1.395   5.431   1.931
  114SOL    HW1 1241   1.396   5.345   1.981
  114SOL    HW2 1242   1.332   5.424   1.853
  115SOL     OW 1243   6.076   0.670   3.381
  115SOL    HW1 1244   6.165   0.715   3.377
  115SOL    HW2 1245   6.026   0.687   3.296
  116SOL     OW 1246   0.173   6.097   1.245
  116SOL    HW1 1247   0.182   6.007   1.202
  116SOL    HW2 1248   0.185   6.087   1.344
  117SOL     OW 1249   2.336   0.741   0.366
  117SOL    HW1 1250   2.308   0.802   0.292
  117SOL    HW2 1251   2.428   0.706   0.347
  118SOL     OW 1252   1.788   1.985   3.249
  118SOL    HW1 1253   1.757   2.074   3.284
  118SOL    HW2 1254   1.754   1.973   3.156
  119SOL     OW 1255   0.180   6.953   6.387
  119SOL    HW1 1256   0.260   6.898   6.362
  119SOL    HW2 1257   0.104   6.893   6.411
  120SOL     OW 1258   4.546   0.590   4.405
  120SOL    HW1 1259   4.613   0.647   4.452
  120SOL    HW2 1260   4.469   0.647   4.377
  121SOL     OW 1261   1.929   4.087   0.278
  121SOL    HW1 1262   1.907   4.183   0.262
  121SOL    HW2 1263   1.910   4.033   0.196
  122SOL     OW 1264   1.590   3.363   0.062
  122SOL    HW1 1265   1.530   3.435   0.028
  122SOL    HW2 1266   1.654   3.402   0.129
  123SOL     OW 1267   1.184   0.905   2.104
  123SOL    HW1 1268   1.278   0.918   2.136
  123SOL    HW2 1269   1.133   0.852   2.171
  124SOL     OW 1270   3.308   1.928   0.566
  124SOL    HW1 1271   3.287   2.016   0.522
  124SOL    HW2 1272   3.242   1.911   0.639
  125SOL     OW 1273   3.151   2.568   0.412
  125SOL    HW1 1274   3.089   2.644   0.432
  125SOL    HW2 1275   3.154   2.553   0.313
  126SOL     OW 1276   3.488   3.164   3.185
  126SOL    HW1 1277   3.510   3.223   3.107
  126SOL    HW2 1278   3.559   3.171   3.254
  127SOL     OW 1279   6.559   6.310   5.999
  127SOL    HW1 1280   6.597   6.282   5.912
  127SOL    HW2 1281   6.570   6.409   6.011
  128SOL     OW 1282   5.320   3.481   2.165
  128SOL    HW1 1283   5.396   3.418   2.152
  128SOL    HW2 1284   5.252   3.467   2.093
  129SOL     OW 1285   3.130   4.404   1.086
  129SOL    HW1 1286   3.168   4.311   1.079
  129SOL    HW2 1287   3.197   4.464   1.128
  130SOL     OW 1288   6.454   0.860   4.754
  130SOL    HW1 1289   6.508   0.803   4.816
  130SOL    HW2 1290   6.465   0.827   4.660
  131SOL     OW 1291   6.093   1.018   4.544
  131SOL    HW1 1292   6.085   1.115   4.521
  131SOL    HW2 1293   6.127   1.008   4.637
  132SOL     OW 1294   3.453   3.287   1.473
  132SOL    HW1 1295   3.381   3.288   1.404
  132SOL    HW2 1296   3.418   3.249   1.558
  133SOL     OW 1297   5.258   1.605   3.438
  133SOL    HW1 1298   5.219   1.534   3.497
  133SOL    HW2 1299   5.190   1.676   3.421
  134SOL     OW 1300   0.740   0.279   2.404
  134SOL    HW1 1301   0.748   0.330   2.319
  134SOL    HW2 1302   0.796   0.323   2.475
  135SOL     OW 1303   5.126   3.178   4.266
  135SOL    HW1 1304   5.216   3.221   4.263
  135SOL    HW2 1305   5.137   3.080   4.285
  136SOL     OW 1306   2.588   6.379   4.178
  136SOL    HW1 1307   2.584   6.469   4.134
  136SOL    HW2 1308   2.568   6.308   4.110
  137SOL     OW 1309   4.074   0.924   4.415
  137SOL    HW1 1310   4.027   0.997   4.463
  137SOL    HW2 1311   4.063   0.838   4.466
  138SOL     OW 1312   0.941   4.469   3.342
  138SOL    HW1 1313   0.848   4.493   3.314
  138SOL    HW2 1314   0.999   4.461   3.261
  139SOL     OW 1315   2.476   5.680   6.504
  139SOL    HW1 1316   2.386   5.709   6.471
  139SOL    HW2 1317   2.485   5.581   6.493
  140SOL     OW 1318   1.939   6.309   2.837
  140SOL    HW1 1319   1.921   6.392   2.785
  140SOL    HW2 1320   1.970   6.236   2.775
  141SOL     OW 1321   6.801   2.980   5.738
  141SOL    HW1 1322   6.713   2.935   5.725
  141SOL    HW2 1323   6.836   3.011   5.650
  142SOL     OW 1324   2.407   3.766   1.615
  142SOL    HW1 1325   2.334   3.698   1.611
  142SOL    HW2 1326   2.373   3.849   1.660
  143SOL     OW 1327   5.851   5.430   1.237
  143SOL    HW1 1328   5.855   5.426   1.137
  143SOL    HW2 1329   5.894   5.515   1.268
  144SOL     OW 1330   3.087   4.890   4.422
  144SOL    HW1 1331   3.159   4.851   4.479
  144SOL    HW2 1332   3.110   4.880   4.326
  145SOL     OW 1333   1.395   5.164   1.960
  145SOL    HW1 1334   1.493   5.166   1.980
  145SOL    HW2 1335   1.353   5.090   2.012
  146SOL     OW 1336   5.107   0.854   5.607
  146SOL    HW1 1337   5.201   0.851   5.643
  146SOL    HW2 1338   5.103   0.915   5.528
  147SOL     OW 1339   4.932   1.221   5.022
  147SOL    HW1 1340   4.989   1.228   4.939
  147SOL    HW2 1341   4.990   1.233   5.102
  148SOL     OW 1342   1.137   5.544   1.256
  148SOL    HW1 1343   1.070   5.471   1.273
  148SOL    HW2 1344   1.153   5.594   1.341
  149SOL     OW 1345   3.119   1.827   4.931
  149SOL    HW1 1346   3.153   1.890   5.001
  149SOL    HW2 1347   3.186   1.819   4.858
  150SOL     OW 1348   4.398   0.743   6.202
  150SOL    HW1 1349   4.360   0.835   6.209
  150SOL    HW2 1350   4.494   0.748   6.173
  151SOL     OW 1351   3.808   0.777   1.962
  151SOL    HW1 1352   3.893   0.750   1.916
  151SOL    HW2 1353   3.745   0.816   1.895
  152SOL     OW 1354   6.928   1.565   0.621
  152SOL    HW1 1355   6.862   1.567   0.696
  152SOL    HW2 1356   6.993   1.490   0.636
  153SOL     OW 1357   2.388   0.129   3.584
  153SOL    HW1 1358   2.394   0.128   3.484
  153SOL    HW2 1359   2.439   0.207   3.620
  154SOL     OW 1360   6.626   2.376   6.979
  154SOL    HW1 1361   6.717   2.391   6.940
  154SOL    HW2 1362   6.607   2.446   0.027
  155SOL     OW 1363   1.083   6.726   2.078
  155SOL    HW1 1364   1.128   6.680   2.154
  155SOL    HW2 1365   1.023   6.798   2.113
  156SOL     OW 1366   6.316   1.375   0.271
  156SOL    HW1 1367   6.398   1.388   0.216
  156SOL    HW2 1368   6.333   1.406   0.364
  157SOL     OW 1369   5.915   2.725   6.975
  157SOL    HW1 1370   5.894   2.719   0.051
  157SOL    HW2 1371   5.996   2.670   6.955
  158SOL     OW 1372   1.424   2.380   1.636
  158SOL    HW1 1373   1.441   2.282   1.636
  158SOL    HW2 1374   1.391   2.409   1.726
  159SOL     OW 1375   4.289   4.682   1.103
  159SOL    HW1 1376   4.372   4.691   1.050
  159SOL    HW2 1377   4.249   4.772   1.119
  160SOL     OW 1378   6.717   0.253   1.696
  160SOL    HW1 1379   6.761   0.170   1.661
  160SOL    HW2 1380   6.771   0.333   1.669
  161SOL     OW 1381   1.479   6.875   1.819
  161SOL    HW1 1382   1.514   6.873   1.725
  161SOL    HW2 1383   1.555   6.864   1.883
  162SOL     OW 1384   2.567   6.887   0.167
  162SOL    HW1 1385   2.520   6.822   0.107
  162SOL    HW2 1386   2.618   6.838   0.237
  163SOL     OW 1387   0.629   4.982   3.286
  163SOL    HW1 1388   0.587   5.039   3.216
  163SOL    HW2 1389   0.702   4.927   3.245
  164SOL     OW 1390   0.805   2.374   2.629
  164SOL    HW1 1391   0.828   2.388   2.725
  164SOL    HW2 1392   0.705   2.366   2.619
  165SOL     OW 1393   6.254   5.538   1.361
  165SOL    HW1 1394   6.298   5.524   1.273
  165SOL    HW2 1395   6.178   5.603   1.351
  166SOL     OW 1396   6.666   3.545   1.866
  166SOL    HW1 1397   6.609   3.488   1.808
  166SOL    HW2 1398   6.612   3.577   1.944
  167SOL     OW 1399   5.670   1.588   6.376
  167SOL    HW1 1400   5.710   1.497   6.386
  167SOL    HW2 1401   5.571   1.583   6.390
  168SOL     OW 1402   4.084   2.154   1.495
  168SOL    HW1 1403   4.136   2.135   1.412
  168SOL    HW2 1404   4.057   2.250   1.497
  169SOL     OW 1405   6.205   3.291   6.867
  169SOL    HW1 1406   6.259   3.352   6.809
  169SOL    HW2 1407   6.121   3.337   6.894
  170SOL     OW 1408   0.001   5.648   3.215
  170SOL    HW1 1409   0.050   5.668   3.301
  170SOL    HW2 1410   6.935   5.696   3.214
  171SOL     OW 1411   1.842   3.666   6.731
  171SOL    HW1 1412   1.745   3.688   6.737
  171SOL    HW2 1413   1.853   3.576   6.689
  172SOL     OW 1414   6.383   2.474   2.069
  172SOL    HW1 1415   6.355   2.566   2.043
  172SOL    HW2 1416   6.332   2.407   2.016
  173SOL     OW 1417   5.959   1.604   4.500
  173SOL    HW1 1418   5.991   1.669   4.431
  173SOL    HW2 1419   6.034   1.583   4.563
  174SOL     OW 1420   5.219   4.975   4.548
  174SOL    HW1 1421   5.217   4.875   4.557
  174SOL    HW2 1422   5.127   5.011   4.555
  175SOL     OW 1423   2.926   0.687   1.721
  175SOL    HW1 1424   2.986   0.629   1.776
  175SOL    HW2 1425   2.945   0.783   1.741
  176SOL     OW 1426   4.949   4.603   3.589
  176SOL    HW1 1427   4.851   4.620   3.586
  176SOL    HW2 1428   4.978   4.590   3.683
  177SOL     OW 1429   5.243   2.667   5.051
  177SOL    HW1 1430   5.165   2.619   5.012
  177SOL    HW2 1431   5.212   2.754   5.090
  178SOL     OW 1432   3.363   4.939   4.592
  178SOL    HW1 1433   3.306   4.962   4.671
  178SOL    HW2 1434   3.457   4.970   4.608
  179SOL     OW 1435   4.428   6.461   6.572
  179SOL    HW1 1436   4.484   6.484   6.493
  179SOL    HW2 1437   4.410   6.363   6.573
  180SOL     OW 1438   2.372   6.635   0.081
  180SOL    HW1 1439   2.372   6.618   0.180
  180SOL    HW2 1440   2.369   6.548   0.032
  181SOL     OW 1441   3.688   2.677   5.743
  181SOL    HW1 1442   3.671   2.735   5.664
  181SOL    HW2 1443   3.744   2.598   5.716
  182SOL     OW 1444   5.089   2.859   6.737
  182SOL    HW1 1445   5.052   2.790   6.674
  182SOL    HW2 1446   5.048   2.948   6.716
  183SOL     OW 1447   4.058   2.250   3.774
  183SOL    HW1 1448   4.082   2.303   3.855
  183SOL    HW2 1449   4.138   2.201   3.741
  184SOL     OW 1450   0.423   6.674   3.714
  184SOL    HW1 1451   0.426   6.736   3.792
  184SOL    HW2 1452   0.372   6.717   3.639
  185SOL     OW 1453   1.069   1.719   3.551
  185SOL    HW1 1454   1.106   1.641   3.601
  185SOL    HW2 1455   0.977   1.741   3.586
  186SOL     OW 1456   5.620   6.694   4.344
  186SOL    HW1 1457   5.639   6.610   4.395
  186SOL    HW2 1458   5.522   6.705   4.331
  187SOL     OW 1459   4.769   6.017   2.241
  187SOL    HW1 1460   4.703   6.015   2.316
  187SOL    HW2 1461   4.730   5.974   2.160
  188SOL     OW 1462   1.086   2.449   3.247
  188SOL    HW1 1463   1.131   2.521   3.299
  188SOL    HW2 1464   1.060   2.484   3.157
  189SOL     OW 1465   0.125   4.705   6.460
  189SOL    HW1 1466   0.079   4.634   6.513
  189SOL    HW2 1467   0.061   4.746   6.395
  190SOL     OW 1468   5.900   4.948   6.839
  190SOL    HW1 1469   5.842   5.020   6.800
  190SOL    HW2 1470   5.984   4.989   6.875
  191SOL     OW 1471   6.839   1.315   5.604
  191SOL    HW1 1472   6.844   1.344   5.508
  191SOL    HW2 1473   6.765   1.248   5.614
  192SOL     OW 1474   0.335   4.796   1.512
  192SOL    HW1 1475   0.300   4.889   1.502
  192SOL    HW2 1476   0.434   4.797   1.498
  193SOL     OW 1477   4.953   4.290   5.282
  193SOL    HW1 1478   4.956   4.190   5.281
  193SOL    HW2 1479   4.862   4.320   5.313
  194SOL     OW 1480   4.288   0.449   2.314
  194SOL    HW1 1481   4.211   0.427   2.255
  194SOL    HW2 1482   4.341   0.367   2.333
  195SOL     OW 1483   1.989   0.705   3.822
  195SOL    HW1 1484   1.918   0.696   3.752
  195SOL    HW2 1485   2.079   0.711   3.778
  196SOL     OW 1486   3.388   7.016   0.108
  196SOL    HW1 1487   3.441   0.011   0.024
  196SOL    HW2 1488   3.375   0.082   0.156
  197SOL     OW 1489   3.081   6.036   0.009
  197SOL    HW1 1490   2.995   5.984   0.001
  197SOL    HW2 1491   3.079   6.112   6.965
  198SOL     OW 1492   4.663   6.906   0.850
  198SOL    HW1 1493   4.655   6.998   0.890
  198SOL    HW2 1494   4.676   6.914   0.752
  199SOL     OW 1495   6.668   0.898   2.658
  199SOL    HW1 1496   6.607   0.869   2.584
  199SOL    HW2 1497   6.739   0.828   2.672
  200SOL     OW 1498   0.802   3.947   2.597
  200SOL    HW1 1499   0.831   3.877   2.661
  200SOL    HW2 1500   0.830   3.921   2.504
  201SOL     OW 1501   2.995   6.638   6.022
  201SOL    HW1 1502   3.093   6.635   6.005
  201SOL    HW2 1503   2.946   6.604   5.942
  202SOL     OW 1504   4.826   0.552   5.151
  202SOL    HW1 1505   4.851   0.640   5.190
  202SOL    HW2 1506   4.745   0.516   5.197
  203SOL     OW 1507   4.825   2.406   5.233
  203SOL    HW1 1508   4.804   2.454   5.318
  203SOL    HW2 1509   4.876   2.467   5.172
  204SOL     OW 1510   0.492   0.153   6.568
  204SOL    HW1 1511   0.557   0.225   6.594
  204SOL    HW2 1512   0.485   0.149   6.469
  205SOL     OW 1513   1.107   1.161   1.698
  205SOL    HW1 1514   1.143   1.145   1.606
  205SOL    HW2 1515   1.176   1.135   1.766
  206SOL     OW 1516   0.573   4.819   2.725
  206SOL    HW1 1517   0.523   4.906   2.725
  206SOL    HW2 1518   0.518   4.750   2.772
  207SOL     OW 1519   3.838   0.669   5.389
  207SOL    HW1 1520   3.918   0.681   5.330
  207SOL    HW2 1521   3.820   0.571   5.399
  208SOL     OW 1522   5.149   3.668   5.988
  208SOL    HW1 1523   5.086   3.744   6.008
  208SOL    HW2 1524   5.176   3.673   5.892
  209SOL     OW 1525   1.048   5.531   5.599
  209SOL    HW1 1526   1.045   5.451   5.658
  209SOL    HW2 1527   0.955   5.562   5.579
  210SOL     OW 1528   4.076   2.232   2.666
  210SOL    HW1 1529   4.098   2.138   2.640
  210SOL    HW2 1530   4.161   2.284   2.678
  211SOL     OW 1531   0.784   6.452   3.404
  211SOL    HW1 1532   0.858   6.432   3.468
  211SOL    HW2 1533   0.728   6.371   3.390
  212SOL     OW 1534   1.928   4.246   1.972
  212SOL    HW1 1535   1.968   4.270   2.060
  212SOL    HW2 1536   1.996   4.257   1.900
  213SOL     OW 1537   4.459   0.998   6.881
  213SOL    HW1 1538   4.484   1.056   6.958
  213SOL    HW2 1539   4.461   1.051   6.797
  214SOL     OW 1540   2.484   5.870   2.549
  214SOL    HW1 1541   2.571   5.821   2.564
  214SOL    HW2 1542   2.502   5.968   2.547
  215SOL     OW 1543   3.080   4.037   1.730
  215SOL    HW1 1544   3.032   3.954   1.702
  215SOL    HW2 1545   3.110   4.028   1.825
  216SOL     OW 1546   1.397   6.714   4.669
  216SOL    HW1 1547   1.496   6.703   4.661
  216SOL    HW2 1548   1.372   6.721   4.765
  217SOL     OW 1549   2.228   2.770   5.056
  217SOL    HW1 1550   2.296   2.836   5.023
  217SOL    HW2 1551   2.175   2.811   5.131
  218SOL     OW 1552   1.329   2.366   5.407
  218SOL    HW1 1553   1.286   2.286   5.366
  218SOL    HW2 1554   1.384   2.413   5.337
  219SOL     OW 1555   3.456   4.902   6.054
  219SOL    HW1 1556   3.546   4.899   6.098
  219SOL    HW2 1557   3.418   4.994   6.063
  220SOL     OW 1558   3.389   5.488   0.022
  220SOL    HW1 1559   3.484   5.519   0.031
  220SOL    HW2 1560   3.328   5.567   0.032
  221SOL     OW 1561   6.220   4.156   2.657
  221SOL    HW1 1562   6.233   4.217   2.579
  221SOL    HW2 1563   6.134   4.178   2.703
  222SOL     OW 1564   2.211   5.053   5.637
  222SOL    HW1 1565   2.271   5.132   5.648
  222SOL    HW2 1566   2.133   5.077   5.579
  223SOL     OW 1567   0.408   3.647   0.575
  223SOL    HW1 1568   0.428   3.662   0.478
  223SOL    HW2 1569   0.346   3.569   0.585
  224SOL     OW 1570   3.138   2.199   3.841
  224SOL    HW1 1571   3.128   2.169   3.935
  224SOL    HW2 1572   3.078   2.277   3.824
  225SOL     OW 1573   5.324   1.729   6.216
  225SOL    HW1 1574   5.350   1.691   6.127
  225SOL    HW2 1575   5.360   1.670   6.289
  226SOL     OW 1576   0.384   6.606   6.874
  226SOL    HW1 1577   0.306   6.577   6.929
  226SOL    HW2 1578   0.403   6.703   6.891
  227SOL     OW 1579   1.003   4.629   2.568
  227SOL    HW1 1580   1.007   4.678   2.655
  227SOL    HW2 1581   1.048   4.541   2.577
  228SOL     OW 1582   2.943   6.946   3.906
  228SOL    HW1 1583   2.874   6.939   3.834
  228SOL    HW2 1584   2.912   6.896   3.987
  229SOL     OW 1585   6.076   5.529   0.725
  229SOL    HW1 1586   6.136   5.605   0.752
  229SOL    HW2 1587   6.121   5.475   0.655
  230SOL     OW 1588   3.268   4.877   3.544
  230SOL    HW1 1589   3.282   4.891   3.445
  230SOL    HW2 1590   3.355   4.890   3.591
  231SOL     OW 1591   6.269   2.457   5.886
  231SOL    HW1 1592   6.199   2.435   5.955
  231SOL    HW2 1593   6.323   2.535   5.917
  232SOL     OW 1594   0.465   4.445   6.300
  232SOL    HW1 1595   0.405   4.489   6.233
  232SOL    HW2 1596   0.461   4.496   6.387
  233SOL     OW 1597   2.541   1.215   4.589
  233SOL    HW1 1598   2.577   1.260   4.671
  233SOL    HW2 1599   2.564   1.269   4.508
  234SOL     OW 1600   2.630   5.792   5.219
  234SOL    HW1 1601   2.665   5.859   5.154
  234SOL    HW2 1602   2.704   5.762   5.279
  235SOL     OW 1603   3.595   3.052   2.892
  235SOL    HW1 1604   3.657   3.002   2.832
  235SOL    HW2 1605   3.645   3.086   2.971
  236SOL     OW 1606   5.847   3.211   6.710
  236SOL    HW1 1607   5.777   3.199   6.781
  236SOL    HW2 1608   5.926   3.155   6.732
  237SOL     OW 1609   0.107   6.765   0.477
  237SOL    HW1 1610   0.112   6.686   0.539
  237SOL    HW2 1611   0.192   6.771   0.425
  238SOL     OW 1612   6.874   2.962   0.379
  238SOL    HW1 1613   6.828   3.010   0.453
  238SOL    HW2 1614   6.830   2.984   0.292
  239SOL     OW 1615   6.720   4.528   0.416
  239SOL    HW1 1616   6.753   4.540   0.322
  239SOL    HW2 1617   6.718   4.617   0.462
  240SOL     OW 1618   0.581   3.241   5.122
  240SOL    HW1 1619   0.634   3.157   5.119
  240SOL    HW2 1620   0.485   3.219   5.138
  241SOL     OW 1621   0.840   0.722   3.706
  241SOL    HW1 1622   0.778   0.680   3.774
  241SOL    HW2 1623   0.884   0.651   3.652
  242SOL     OW 1624   1.866   2.775   5.902
  242SOL    HW1 1625   1.852   2.679   5.881
  242SOL    HW2 1626   1.962   2.799   5.890
  243SOL     OW 1627   4.745   0.328   5.638
  243SOL    HW1 1628   4.762   0.234   5.610
  243SOL    HW2 1629   4.827   0.365   5.681
  244SOL     OW 1630   4.779   2.910   4.234
  244SOL    HW1 1631   4.839   2.846   4.282
  244SOL    HW2 1632   4.707   2.859   4.187
  245SOL     OW 1633   6.777   3.070   4.673
  245SOL    HW1 1634   6.701   3.102   4.728
  245SOL    HW2 1635   6.764   3.096   4.577
  246SOL     OW 1636   5.454   3.446   3.588
  246SOL    HW1 1637   5.377   3.388   3.616
  246SOL    HW2 1638   5.530   3.433   3.651
  247SOL     OW 1639   2.703   1.680   2.561
  247SOL    HW1 1640   2.757   1.606   2.522
  247SOL    HW2 1641   2.699   1.670   2.661
  248SOL     OW 1642   4.435   2.281   4.138
  248SOL    HW1 1643   4.505   2.338   4.094
  248SOL    HW2 1644   4.478   2.222   4.206
  249SOL     OW 1645   3.716   0.211   4.893
  249SOL    HW1 1646   3.643   0.169   4.947
  249SOL    HW2 1647   3.694   0.308   4.877
  250SOL     OW 1648   5.346   1.949   5.504
  250SOL    HW1 1649   5.369   1.986   5.594
  250SOL    HW2 1650   5.279   2.010   5.459
  251SOL     OW 1651   4.001   4.131   6.158
  251SOL    HW1 1652   4.082   4.164   6.207
  251SOL    HW2 1653   3.974   4.198   6.089
  252SOL     OW 1654   0.075   1.469   5.867
  252SOL    HW1 1655   0.014   1.412   5.922
  252SOL    HW2 1656   0.094   1.423   5.780
  253SOL     OW 1657   2.549   4.403   6.976
  253SOL    HW1 1658   2.504   4.435   6.893
  253SOL    HW2 1659   2.491   4.420   0.034
  254SOL     OW 1660   6.640   2.468   3.577
  254SOL    HW1 1661   6.604   2.557   3.604
  254SOL    HW2 1662   6.644   2.464   3.477
  255SOL     OW 1663   2.674   1.845   4.102
  255SOL    HW1 1664   2.671   1.924   4.041
  255SOL    HW2 1665   2.735   1.864   4.179
  256SOL     OW 1666   6.571   4.666   6.693
  256SOL    HW1 1667   6.594   4.685   6.597
  256SOL    HW2 1668   6.566   4.567   6.706
  257SOL     OW 1669   3.566   4.978   5.566
  257SOL    HW1 1670   3.610   4.951   5.652
  257SOL    HW2 1671   3.467   4.982   5.578
  258SOL     OW 1672   5.339   3.543   4.981
  258SOL    HW1 1673   5.287   3.627   4.970
  258SOL    HW2 1674   5.434   3.565   5.006
  259SOL     OW 1675   1.849   2.736   2.571
  259SOL    HW1 1676   1.928   2.689   2.611
  259SOL    HW2 1677   1.773   2.732   2.636
  260SOL     OW 1678   4.573   0.136   0.934
  260SOL    HW1 1679   4.502   0.072   0.964
  260SOL    HW2 1680   4.550   0.169   0.842
  261SOL     OW 1681   0.374   3.583   1.001
  261SOL    HW1 1682   0.424   3.661   1.038
  261SOL    HW2 1683   0.335   3.529   1.075
  262SOL     OW 1684   0.882   3.886   2.328
  262SOL    HW1 1685   0.952   3.877   2.257
  262SOL    HW2 1686   0.833   3.799   2.337
  263SOL     OW 1687   0.224   1.748   4.580
  263SOL    HW1 1688   0.194   1.658   4.613
  263SOL    HW2 1689   0.323   1.754   4.589
  264SOL     OW 1690   6.373   4.105   6.034
  264SOL    HW1 1691   6.432   4.183   6.015
  264SOL    HW2 1692   6.359   4.052   5.950
  265SOL     OW 1693   5.228   4.210   3.482
  265SOL    HW1 1694   5.243   4.258   3.395
  265SOL    HW2 1695   5.165   4.133   3.467
  266SOL     OW 1696   3.665   2.881   6.779
  266SOL    HW1 1697   3.673   2.975   6.745
  266SOL    HW2 1698   3.730   2.823   6.731
  267SOL     OW 1699   0.810   3.199   0.170
  267SOL    HW1 1700   0.755   3.282   0.159
  267SOL    HW2 1701   0.751   3.125   0.205
  268SOL     OW 1702   4.903   5.388   5.257
  268SOL    HW1 1703   4.956   5.308   5.229
  268SOL    HW2 1704   4.830   5.360   5.319
  269SOL     OW 1705   1.558   2.290   0.284
  269SOL    HW1 1706   1.582   2.193   0.291
  269SOL    HW2 1707   1.490   2.312   0.354
  270SOL     OW 1708   5.537   0.959   1.927
  270SOL    HW1 1709   5.612   1.025   1.923
  270SOL    HW2 1710   5.571   0.872   1.962
  271SOL     OW 1711   2.222   2.180   1.113
  271SOL    HW1 1712   2.191   2.270   1.142
  271SOL    HW2 1713   2.231   2.121   1.193
  272SOL     OW 1714   3.725   5.429   3.893
  272SOL    HW1 1715   3.661   5.361   3.857
  272SOL    HW2 1716   3.764   5.481   3.818
  273SOL     OW 1717   0.944   5.705   5.214
  273SOL    HW1 1718   0.935   5.615   5.171
  273SOL    HW2 1719   0.877   5.713   5.288
  274SOL     OW 1720   5.364   2.442   3.780
  274SOL    HW1 1721   5.299   2.516   3.765
  274SOL    HW2 1722   5.456   2.479   3.787
  275SOL     OW 1723   1.228   5.791   6.503
  275SOL    HW1 1724   1.143   5.762   6.458
  275SOL    HW2 1725   1.287   5.711   6.515
  276SOL     OW 1726   6.440   5.312   4.324
  276SOL    HW1 1727   6.410   5.407   4.319
  276SOL    HW2 1728   6.538   5.307   4.303
  277SOL     OW 1729   3.073   0.884   6.056
  277SOL    HW1 1730   3.130   0.853   5.981
  277SOL    HW2 1731   2.982   0.842   6.048
  278SOL     OW 1732   5.653   3.532   2.328
  278SOL    HW1 1733   5.651   3.475   2.410
  278SOL    HW2 1734   5.623   3.478   2.249
  279SOL     OW 1735   6.454   3.262   3.887
  279SOL    HW1 1736   6.489   3.173   3.860
  279SOL    HW2 1737   6.479   3.330   3.818
  280SOL     OW 1738   4.871   6.965   3.899
  280SOL    HW1 1739   4.898   6.970   3.802
  280SOL    HW2 1740   4.940   6.914   3.950
  281SOL     OW 1741   3.251   5.189   3.613
  281SOL    HW1 1742   3.293   5.100   3.634
  281SOL    HW2 1743   3.214   5.228   3.698
  282SOL     OW 1744   3.483   2.068   5.446
  282SOL    HW1 1745   3.475   2.158   5.403
  282SOL    HW2 1746   3.468   2.077   5.544
  283SOL     OW 1747   6.006   0.345   5.422
  283SOL    HW1 1748   6.005   0.414   5.349
  283SOL    HW2 1749   5.990   0.390   5.510
  284SOL     OW 1750   1.222   4.423   4.203
  284SOL    HW1 1751   1.310   4.450   4.242
  284SOL    HW2 1752   1.152   4.487   4.233
  285SOL     OW 1753   5.484   6.382   0.504
  285SOL    HW1 1754   5.574   6.340   0.500
  285SOL    HW2 1755   5.454   6.390   0.599
  286SOL     OW 1756   3.928   5.044   5.741
  286SOL    HW1 1757   3.853   5.102   5.776
  286SOL    HW2 1758   3.982   5.097   5.676
  287SOL     OW 1759   1.650   5.463   6.498
  287SOL    HW1 1760   1.563   5.419   6.520
  287SOL    HW2 1761   1.703   5.405   6.436
  288SOL     OW 1762   4.184   0.752   0.796
  288SOL    HW1 1763   4.224   0.666   0.828
  288SOL    HW2 1764   4.109   0.778   0.858
  289SOL     OW 1765   1.413   5.480   5.892
  289SOL    HW1 1766   1.454   5.425   5.964
  289SOL    HW2 1767   1.425   5.577   5.913
  290SOL     OW 1768   4.414   0.684   3.696
  290SOL    HW1 1769   4.341   0.630   3.655
  290SOL    HW2 1770   4.431   0.765   3.639
  291SOL     OW 1771   3.884   1.000   3.796
  291SOL    HW1 1772   3.820   0.928   3.768
  291SOL    HW2 1773   3.975   0.961   3.809
  292SOL     OW 1774   4.355   1.176   3.626
  292SOL    HW1 1775   4.350   1.270   3.592
  292SOL    HW2 1776   4.409   1.174   3.710
  293SOL     OW 1777   4.262   6.070   1.446
  293SOL    HW1 1778   4.228   6.058   1.352
  293SOL    HW2 1779   4.339   6.135   1.445
  294SOL     OW 1780   6.365   5.648   6.748
  294SOL    HW1 1781   6.332   5.560   6.714
  294SOL    HW2 1782   6.384   5.709   6.671
  295SOL     OW 1783   1.980   2.235   5.954
  295SOL    HW1 1784   1.917   2.158   5.944
  295SOL    HW2 1785   2.044   2.236   5.878
  296SOL     OW 1786   6.542   2.213   1.149
  296SOL    HW1 1787   6.544   2.282   1.222
  296SOL    HW2 1788   6.487   2.246   1.073
  297SOL     OW 1789   3.991   4.889   3.355
  297SOL    HW1 1790   4.084   4.919   3.374
  297SOL    HW2 1791   3.985   4.857   3.260
  298SOL     OW 1792   4.207   0.398   0.262
  298SOL    HW1 1793   4.207   0.457   0.182
  298SOL    HW2 1794   4.169   0.309   0.238
  299SOL     OW 1795   3.647   1.776   0.319
  299SOL    HW1 1796   3.670   1.802   0.413
  299SOL    HW2 1797   3.589   1.695   0.320
  300SOL     OW 1798   3.894   0.854   2.877
  300SOL    HW1 1799   3.847   0.852   2.966
  300SOL    HW2 1800   3.842   0.800   2.811
  301SOL     OW 1801   5.081   0.896   1.435
  301SOL    HW1 1802   5.116   0.985   1.464
  301SOL    HW2 1803   5.156   0.841   1.400
  302SOL     OW 1804   0.969   0.576   2.016
  302SOL    HW1 1805   0.972   0.669   1.980
  302SOL    HW2 1806   0.917   0.517   1.954
  303SOL     OW 1807   6.153   6.310   1.652
  303SOL    HW1 1808   6.104   6.265   1.726
  303SOL    HW2 1809   6.174   6.404   1.678
  304SOL     OW 1810   1.992   6.147   6.386
  304SOL    HW1 1811   1.933   6.104   6.318
  304SOL    HW2 1812   2.027   6.078   6.449
  305SOL     OW 1813   1.680   3.227   0.879
  305SOL    HW1 1814   1.759   3.185   0.924
  305SOL    HW2 1815   1.614   3.156   0.854
  306SOL     OW 1816   0.277   1.267   2.688
  306SOL    HW1 1817   0.329   1.352   2.685
  306SOL    HW2 1818   0.313   1.209   2.761
  307SOL     OW 1819   3.781   3.786   0.049
  307SOL    HW1 1820   3.698   3.793   7.013
  307SOL    HW2 1821   3.848   3.729   0.003
  308SOL     OW 1822   6.314   2.887   4.291
  308SOL    HW1 1823   6.320   2.986   4.278
  308SOL    HW2 1824   6.219   2.860   4.303
  309SOL     OW 1825   1.608   6.500   0.620
  309SOL    HW1 1826   1.631   6.411   0.580
  309SOL    HW2 1827   1.603   6.491   0.720
  310SOL     OW 1828   5.223   6.414   4.020
  310SOL    HW1 1829   5.260   6.482   4.083
  310SOL    HW2 1830   5.257   6.323   4.045
  311SOL     OW 1831   2.472   4.427   2.607
  311SOL    HW1 1832   2.485   4.417   2.705
  311SOL    HW2 1833   2.387   4.381   2.579
  312SOL     OW 1834   4.003   2.173   4.192
  312SOL    HW1 1835   3.920   2.146   4.239
  312SOL    HW2 1836   4.009   2.125   4.104
  313SOL     OW 1837   3.179   3.590   2.801
  313SOL    HW1 1838   3.082   3.575   2.784
  313SOL    HW2 1839   3.196   3.688   2.812
  314SOL     OW 1840   1.926   5.017   4.649
  314SOL    HW1 1841   1.926   4.982   4.743
  314SOL    HW2 1842   1.965   4.948   4.588
  315SOL     OW 1843   0.551   2.122   3.763
  315SOL    HW1 1844   0.631   2.061   3.764
  315SOL    HW2 1845   0.473   2.074   3.804
  316SOL     OW 1846   3.972   1.125   4.589
  316SOL    HW1 1847   4.049   1.178   4.624
  316SOL    HW2 1848   3.889   1.181   4.593
  317SOL     OW 1849   1.251   1.779   1.345
  317SOL    HW1 1850   1.210   1.863   1.310
  317SOL    HW2 1851   1.216   1.700   1.295
  318SOL     OW 1852   6.062   0.886   6.393
  318SOL    HW1 1853   6.129   0.901   6.320
  318SOL    HW2 1854   6.019   0.796   6.381
  319SOL     OW 1855   6.691   2.202   3.604
  319SOL    HW1 1856   6.700   2.289   3.653
  319SOL    HW2 1857   6.597   2.169   3.614
  320SOL     OW 1858   6.323   3.502   6.711
  320SOL    HW1 1859   6.359   3.502   6.805
  320SOL    HW2 1860   6.399   3.495   6.646
  321SOL     OW 1861   4.130   2.187   0.426
  321SOL    HW1 1862   4.209   2.230   0.470
  321SOL    HW2 1863   4.086   2.253   0.365
  322SOL     OW 1864   3.878   3.005   4.446
  322SOL    HW1 1865   3.939   3.075   4.482
  322SOL    HW2 1866   3.861   2.937   4.517
  323SOL     OW 1867   1.286   2.203   4.870
  323SOL    HW1 1868   1.188   2.184   4.864
  323SOL    HW2 1869   1.335   2.149   4.802
  324SOL     OW 1870   2.318   6.875   3.585
  324SOL    HW1 1871   2.403   6.846   3.629
  324SOL    HW2 1872   2.322   6.973   3.568
  325SOL     OW 1873   0.919   3.790   2.812
  325SOL    HW1 1874   0.997   3.804   2.873
  325SOL    HW2 1875   0.851   3.734   2.859
  326SOL     OW 1876   1.069   4.244   6.107
  326SOL    HW1 1877   1.093   4.199   6.021
  326SOL    HW2 1878   1.037   4.337   6.089
  327SOL     OW 1879   2.323   4.553   3.013
  327SOL    HW1 1880   2.247   4.556   3.078
  327SOL    HW2 1881   2.408   4.572   3.061
  328SOL     OW 1882   1.907   4.480   1.606
  328SOL    HW1 1883   1.973   4.555   1.604
  328SOL    HW2 1884   1.873   4.468   1.699
  329SOL     OW 1885   2.510   3.701   5.829
  329SOL    HW1 1886   2.472   3.626   5.881
  329SOL    HW2 1887   2.502   3.682   5.731
  330SOL     OW 1888   3.417   6.073   0.267
  330SOL    HW1 1889   3.507   6.101   0.302
  330SOL    HW2 1890   3.427   5.989   0.213
  331SOL     OW 1891   5.615   5.623   1.174
  331SOL    HW1 1892   5.603   5.670   1.086
  331SOL    HW2 1893   5.709   5.589   1.181
  332SOL     OW 1894   6.021   2.373   3.978
  332SOL    HW1 1895   6.069   2.458   4.002
  332SOL    HW2 1896   5.945   2.359   4.042
  333SOL     OW 1897   4.074   0.921   5.307
  333SOL    HW1 1898   4.150   0.877   5.354
  333SOL    HW2 1899   4.079   0.899   5.209
  334SOL     OW 1900   3.522   2.155   0.494
  334SOL    HW1 1901   3.425   2.181   0.490
  334SOL    HW2 1902   3.578   2.230   0.459
  335SOL     OW 1903   3.867   0.565   6.689
  335SOL    HW1 1904   3.876   0.502   6.612
  335SOL    HW2 1905   3.908   0.653   6.664
  336SOL     OW 1906   2.906   0.814   2.948
  336SOL    HW1 1907   2.891   0.774   2.858
  336SOL    HW2 1908   2.996   0.856   2.952
  337SOL     OW 1909   0.620   2.996   5.643
  337SOL    HW1 1910   0.545   2.973   5.706
  337SOL    HW2 1911   0.707   2.967   5.684
  338SOL     OW 1912   3.099   2.778   1.560
  338SOL    HW1 1913   3.039   2.853   1.535
  338SOL    HW2 1914   3.047   2.709   1.611
  339SOL     OW 1915   4.670   4.868   4.945
  339SOL    HW1 1916   4.766   4.870   4.971
  339SOL    HW2 1917   4.663   4.843   4.848
  340SOL     OW 1918   4.828   3.005   4.641
  340SOL    HW1 1919   4.810   3.072   4.569
  340SOL    HW2 1920   4.813   3.047   4.730
  341SOL     OW 1921   4.888   6.663   4.608
  341SOL    HW1 1922   4.881   6.611   4.693
  341SOL    HW2 1923   4.877   6.600   4.530
  342SOL     OW 1924   4.633   2.958   0.357
  342SOL    HW1 1925   4.726   2.978   0.327
  342SOL    HW2 1926   4.596   2.883   0.302
  343SOL     OW 1927   0.352   6.470   2.529
  343SOL    HW1 1928   0.273   6.474   2.591
  343SOL    HW2 1929   0.328   6.415   2.449
  344SOL     OW 1930   0.688   2.942   2.009
  344SOL    HW1 1931   0.655   2.851   2.036
  344SOL    HW2 1932   0.753   2.976   2.077
  345SOL     OW 1933   6.045   2.309   4.283
  345SOL    HW1 1934   6.120   2.374   4.289
  345SOL    HW2 1935   6.077   2.218   4.310
  346SOL     OW 1936   1.688   0.592   2.480
  346SOL    HW1 1937   1.786   0.574   2.470
  346SOL    HW2 1938   1.660   0.572   2.573
  347SOL     OW 1939   2.898   5.453   0.329
  347SOL    HW1 1940   2.806   5.485   0.354
  347SOL    HW2 1941   2.897   5.353   0.319
  348SOL     OW 1942   4.988   4.473   3.341
  348SOL    HW1 1943   4.954   4.512   3.426
  348SOL    HW2 1944   5.087   4.485   3.336
  349SOL     OW 1945   6.773   4.728   2.244
  349SOL    HW1 1946   6.754   4.725   2.145
  349SOL    HW2 1947   6.770   4.635   2.281
  350SOL     OW 1948   2.790   2.970   0.997
  350SOL    HW1 1949   2.745   2.882   1.004
  350SOL    HW2 1950   2.884   2.962   1.030
  351SOL     OW 1951   2.278   3.521   0.649
  351SOL    HW1 1952   2.305   3.589   0.717
  351SOL    HW2 1953   2.352   3.507   0.584
  352SOL     OW 1954   3.552   6.712   3.647
  352SOL    HW1 1955   3.523   6.755   3.732
  352SOL    HW2 1956   3.619   6.770   3.601
  353SOL     OW 1957   2.686   0.022   6.667
  353SOL    HW1 1958   2.781   0.005   6.694
  353SOL    HW2 1959   2.675   0.000   6.570
  354SOL     OW 1960   4.599   2.323   1.399
  354SOL    HW1 1961   4.606   2.224   1.409
  354SOL    HW2 1962   4.691   2.364   1.406
  355SOL     OW 1963   1.716   3.861   2.817
  355SOL    HW1 1964   1.774   3.854   2.899
  355SOL    HW2 1965   1.632   3.810   2.833
  356SOL     OW 1966   2.695   0.841   5.608
  356SOL    HW1 1967   2.652   0.905   5.545
  356SOL    HW2 1968   2.709   0.886   5.697
  357SOL     OW 1969   6.195   5.946   4.946
  357SOL    HW1 1970   6.219   5.948   5.043
  357SOL    HW2 1971   6.191   5.851   4.916
  358SOL     OW 1972   4.990   6.655   1.048
  358SOL    HW1 1973   4.992   6.753   1.065
  358SOL    HW2 1974   4.959   6.637   0.955
  359SOL     OW 1975   3.450   1.410   1.917
  359SOL    HW1 1976   3.530   1.467   1.933
  359SOL    HW2 1977   3.385   1.421   1.992
  360SOL     OW 1978   1.800   3.520   4.909
  360SOL    HW1 1979   1.899   3.534   4.915
  360SOL    HW2 1980   1.759   3.595   4.857
  361SOL     OW 1981   6.616   6.542   2.665
  361SOL    HW1 1982   6.635   6.564   2.570
  361SOL    HW2 1983   6.545   6.471   2.670
  362SOL     OW 1984   3.304   2.796   1.743
  362SOL    HW1 1985   3.240   2.789   1.667
  362SOL    HW2 1986   3.344   2.706   1.761
  363SOL     OW 1987   5.617   4.537   3.518
  363SOL    HW1 1988   5.581   4.482   3.443
  363SOL    HW2 1989   5.557   4.615   3.535
  364SOL     OW 1990   6.861   5.218   6.511
  364SOL    HW1 1991   6.774   5.258   6.537
  364SOL    HW2 1992   6.935   5.266   6.559
  365SOL     OW 1993   4.917   0.241   1.230
  365SOL    HW1 1994   4.922   0.182   1.149
  365SOL    HW2 1995   4.906   0.184   1.312
  366SOL     OW 1996   5.864   2.145   6.600
  366SOL    HW1 1997   5.950   2.157   6.650
  366SOL    HW2 1998   5.877   2.077   6.528
  367SOL     OW 1999   5.617   2.247   6.562
  367SOL    HW1 2000   5.694   2.199   6.604
  367SOL    HW2 2001   5.651   2.319   6.502
  368SOL     OW 2002   0.055   2.541   5.513
  368SOL    HW1 2003   0.056   2.627   5.565
  368SOL    HW2 2004   0.111   2.551   5.431
  369SOL     OW 2005   6.042   5.164   2.808
  369SOL    HW1 2006   6.131   5.209   2.815
  369SOL    HW2 2007   6.030   5.101   2.884
  370SOL     OW 2008   0.753   2.011   4.304
  370SOL    HW1 2009   0.669   1.959   4.319
  370SOL    HW2 2010   0.798   2.029   4.391
  371SOL     OW 2011   1.937   4.642   6.643
  371SOL    HW1 2012   1.986   4.581   6.705
  371SOL    HW2 2013   1.862   4.686   6.691
  372SOL     OW 2014   2.164   6.658   5.661
  372SOL    HW1 2015   2.099   6.597   5.616
  372SOL    HW2 2016   2.240   6.606   5.700
  373SOL     OW 2017   5.689   6.284   5.298
  373SOL    HW1 2018   5.780   6.264   5.261
  373SOL    HW2 2019   5.693   6.368   5.352
  374SOL     OW 2020   2.492   2.051   3.385
  374SOL    HW1 2021   2.460   1.976   3.442
  374SOL    HW2 2022   2.583   2.029   3.349
  375SOL     OW 2023   1.091   3.971   3.948
  375SOL    HW1 2024   1.150   3.897   3.981
  375SOL    HW2 2025   1.145   4.055   3.941
  376SOL     OW 2026   1.263   1.007   5.160
  376SOL    HW1 2027   1.184   1.064   5.136
  376SOL    HW2 2028   1.256   0.980   5.256
  377SOL     OW 2029   1.512   2.016   0.246
  377SOL    HW1 2030   1.413   2.024   0.239
  377SOL    HW2 2031   1.535   1.945   0.314
  378SOL     OW 2032   4.035   1.857   0.479
  378SOL    HW1 2033   4.064   1.950   0.456
  378SOL    HW2 2034   4.116   1.801   0.500
  379SOL     OW 2035   5.612   2.652   0.488
  379SOL    HW1 2036   5.520   2.650   0.450
  379SOL    HW2 2037   5.636   2.561   0.523
  380SOL     OW 2038   2.799   1.496   0.947
  380SOL    HW1 2039   2.858   1.492   1.028
  380SOL    HW2 2040   2.853   1.524   0.868
  381SOL     OW 2041   1.486   3.548   3.619
  381SOL    HW1 2042   1.512   3.643   3.603
  381SOL    HW2 2043   1.390   3.534   3.595
  382SOL     OW 2044   6.109   1.006   0.002
  382SOL    HW1 2045   6.093   1.069   6.946
  382SOL    HW2 2046   6.149   1.056   0.078
  383SOL     OW 2047   3.328   3.015   6.614
  383SOL    HW1 2048   3.322   2.995   6.516
  383SOL    HW2 2049   3.313   2.932   6.667
  384SOL     OW 2050   6.773   5.789   4.487
  384SOL    HW1 2051   6.676   5.790   4.509
  384SOL    HW2 2052   6.825   5.761   4.568
  385SOL     OW 2053   3.093   5.200   5.339
  385SOL    HW1 2054   3.044   5.199   5.426
  385SOL    HW2 2055   3.084   5.110   5.295
  386SOL     OW 2056   2.894   6.075   4.247
  386SOL    HW1 2057   2.919   6.028   4.163
  386SOL    HW2 2058   2.924   6.170   4.242
  387SOL     OW 2059   1.049   5.669   2.597
  387SOL    HW1 2060   1.099   5.594   2.642
  387SOL    HW2 2061   0.957   5.676   2.636
  388SOL     OW 2062   1.814   1.975   6.334
  388SOL    HW1 2063   1.863   1.923   6.404
  388SOL    HW2 2064   1.823   1.930   6.246
  389SOL     OW 2065   3.669   3.417   2.138
  389SOL    HW1 2066   3.719   3.436   2.222
  389SOL    HW2 2067   3.612   3.496   2.115
  390SOL     OW 2068   2.960   1.229   2.741
  390SOL    HW1 2069   2.883   1.221   2.805
  390SOL    HW2 2070   3.020   1.304   2.771
  391SOL     OW 2071   2.530   2.080   6.380
  391SOL    HW1 2072   2.628   2.096   6.389
  391SOL    HW2 2073   2.498   2.116   6.293
  392SOL     OW 2074   2.112   4.670   1.078
  392SOL    HW1 2075   2.043   4.605   1.047
  392SOL    HW2 2076   2.096   4.693   1.174
  393SOL     OW 2077   1.020   4.358   6.531
  393SOL    HW1 2078   1.036   4.456   6.514
  393SOL    HW2 2079   1.052   4.306   6.452
  394SOL     OW 2080   6.945   1.224   6.946
  394SOL    HW1 2081   6.916   1.129   6.933
  394SOL    HW2 2082   6.888   1.285   6.891
  395SOL     OW 2083   4.880   3.548   3.176
  395SOL    HW1 2084   4.909   3.614   3.106
  395SOL    HW2 2085   4.894   3.588   3.267
  396SOL     OW 2086   3.665   4.060   1.962
  396SOL    HW1 2087   3.637   4.071   2.058
  396SOL    HW2 2088   3.764   4.068   1.955
  397SOL     OW 2089   4.488   2.062   5.570
  397SOL    HW1 2090   4.457   2.156   5.577
  397SOL    HW2 2091   4.412   2.003   5.543
  398SOL     OW 2092   0.846   6.279   2.440
  398SOL    HW1 2093   0.883   6.280   2.533
  398SOL    HW2 2094   0.919   6.302   2.375
  399SOL     OW 2095   5.412   6.096   2.835
  399SOL    HW1 2096   5.342   6.093   2.907
  399SOL    HW2 2097   5.371   6.067   2.748
  400SOL     OW 2098   6.331   0.070   5.945
  400SOL    HW1 2099   6.294   0.078   6.037
  400SOL    HW2 2100   6.379   0.154   5.920
  401SOL     OW 2101   4.944   0.776   5.283
  401SOL    HW1 2102   4.987   0.773   5.373
  401SOL    HW2 2103   4.974   0.858   5.235
  402SOL     OW 2104   5.848   0.226   3.462
  402SOL    HW1 2105   5.872   0.168   3.384
  402SOL    HW2 2106   5.929   0.243   3.518
  403SOL     OW 2107   4.299   1.720   4.341
  403SOL    HW1 2108   4.252   1.658   4.403
  403SOL    HW2 2109   4.234   1.787   4.305
  404SOL     OW 2110   1.157   5.843   4.160
  404SOL    HW1 2111   1.191   5.757   4.199
  404SOL    HW2 2112   1.130   5.829   4.065
  405SOL     OW 2113   1.657   3.288   1.885
  405SOL    HW1 2114   1.633   3.208   1.831
  405SOL    HW2 2115   1.754   3.287   1.906
  406SOL     OW 2116   1.344   4.526   4.741
  406SOL    HW1 2117   1.299   4.453   4.791
  406SOL    HW2 2118   1.399   4.582   4.804
  407SOL     OW 2119   1.435   0.693   3.474
  407SOL    HW1 2120   1.495   0.761   3.516
  407SOL    HW2 2121   1.357   0.676   3.534
  408SOL     OW 2122   1.324   2.441   3.000
  408SOL    HW1 2123   1.371   2.418   3.085
  408SOL    HW2 2124   1.241   2.387   2.992
  409SOL     OW 2125   6.801   2.624   0.854
  409SOL    HW1 2126   6.736   2.697   0.875
  409SOL    HW2 2127   6.887   2.664   0.822
  410SOL     OW 2128   1.500   0.971   1.610
  410SOL    HW1 2129   1.469   1.063   1.635
  410SOL    HW2 2130   1.600   0.969   1.608
  411SOL     OW 2131   5.303   0.084   0.765
  411SOL    HW1 2132   5.266   0.158   0.821
  411SOL    HW2 2133   5.231   0.016   0.748
  412SOL     OW 2134   4.775   6.400   3.361
  412SOL    HW1 2135   4.781   6.306   3.328
  412SOL    HW2 2136   4.824   6.460   3.299
  413SOL     OW 2137   5.433   5.185   2.043
  413SOL    HW1 2138   5.363   5.245   2.081
  413SOL    HW2 2139   5.433   5.193   1.943
  414SOL     OW 2140   3.360   5.462   3.689
  414SOL    HW1 2141   3.277   5.437   3.739
  414SOL    HW2 2142   3.377   5.560   3.699
  415SOL     OW 2143   1.375   5.609   6.639
  415SOL    HW1 2144   1.399   5.649   6.728
  415SOL    HW2 2145   1.395   5.511   6.640
  416SOL     OW 2146   5.056   5.508   4.597
  416SOL    HW1 2147   5.075   5.606   4.603
  416SOL    HW2 2148   5.090   5.473   4.509
  417SOL     OW 2149   2.851   5.172   0.271
  417SOL    HW1 2150   2.841   5.084   0.317
  417SOL    HW2 2151   2.928   5.168   0.207
  418SOL     OW 2152   4.167   6.021   0.808
  418SOL    HW1 2153   4.131   5.928   0.797
  418SOL    HW2 2154   4.265   6.017   0.827
  419SOL     OW 2155   1.677   0.567   0.930
  419SOL    HW1 2156   1.722   0.547   0.843
  419SOL    HW2 2157   1.678   0.666   0.945
  420SOL     OW 2158   5.869   1.556   6.783
  420SOL    HW1 2159   5.965   1.584   6.794
  420SOL    HW2 2160   5.827   1.609   6.709
  421SOL     OW 2161   6.883   4.403   6.148
  421SOL    HW1 2162   6.848   4.496   6.163
  421SOL    HW2 2163   6.975   4.396   6.187
  422SOL     OW 2164   5.674   4.071   0.514
  422SOL    HW1 2165   5.680   4.013   0.595
  422SOL    HW2 2166   5.759   4.062   0.461
  423SOL     OW 2167   1.043   2.168   6.933
  423SOL    HW1 2168   0.970   2.237   6.937
  423SOL    HW2 2169   1.079   2.164   6.840
  424SOL     OW 2170   2.423   4.195   0.571
  424SOL    HW1 2171   2.479   4.113   0.561
  424SOL    HW2 2172   2.424   4.225   0.666
  425SOL     OW 2173   5.651   1.315   2.721
  425SOL    HW1 2174   5.591   1.381   2.676
  425SOL    HW2 2175   5.651   1.332   2.819
  426SOL     OW 2176   4.448   1.970   4.175
  426SOL    HW1 2177   4.443   1.879   4.217
  426SOL    HW2 2178   4.469   2.038   4.245
  427SOL     OW 2179   5.230   5.410   3.059
  427SOL    HW1 2180   5.200   5.448   2.971
  427SOL    HW2 2181   5.200   5.470   3.133
  428SOL     OW 2182   4.341   0.707   4.252
  428SOL    HW1 2183   4.243   0.687   4.256
  428SOL    HW2 2184   4.356   0.806   4.259
  429SOL     OW 2185   1.310   3.206   1.463
  429SOL    HW1 2186   1.353   3.204   1.373
  429SOL    HW2 2187   1.264   3.294   1.475
  430SOL     OW 2188   6.851   0.136   5.111
  430SOL    HW1 2189   6.917   0.080   5.161
  430SOL    HW2 2190   6.763   0.089   5.110
  431SOL     OW 2191   3.461   7.010   0.639
  431SOL    HW1 2192   3.539   0.031   0.591
  431SOL    HW2 2193   3.486   6.918   0.669
  432SOL     OW 2194   6.589   1.504   1.066
  432SOL    HW1 2195   6.589   1.564   1.146
  432SOL    HW2 2196   6.507   1.448   1.066
  433SOL     OW 2197   2.497   6.415   5.210
  433SOL    HW1 2198   2.472   6.319   5.200
  433SOL    HW2 2199   2.570   6.438   5.146
  434SOL     OW 2200   3.555   5.980   2.586
  434SOL    HW1 2201   3.533   6.064   2.636
  434SOL    HW2 2202   3.640   5.942   2.620
  435SOL     OW 2203   5.186   2.614   6.439
  435SOL    HW1 2204   5.093   2.579   6.431
  435SOL    HW2 2205   5.225   2.586   6.526
  436SOL     OW 2206   3.124   6.321   1.188
  436SOL    HW1 2207   3.033   6.350   1.156
  436SOL    HW2 2208   3.113   6.261   1.267
  437SOL     OW 2209   1.257   0.737   0.190
  437SOL    HW1 2210   1.186   0.748   0.121
  437SOL    HW2 2211   1.322   0.813   0.184
  438SOL     OW 2212   1.975   3.790   2.649
  438SOL    HW1 2213   2.024   3.725   2.591
  438SOL    HW2 2214   2.038   3.859   2.684
  439SOL     OW 2215   6.036   4.966   3.029
  439SOL    HW1 2216   5.973   4.889   3.040
  439SOL    HW2 2217   6.082   4.984   3.116
  440SOL     OW 2218   1.957   1.183   5.556
  440SOL    HW1 2219   1.869   1.138   5.572
  440SOL    HW2 2220   2.028   1.113   5.549
  441SOL     OW 2221   0.730   2.671   4.382
  441SOL    HW1 2222   0.763   2.605   4.314
  441SOL    HW2 2223   0.786   2.665   4.464
  442SOL     OW 2224   3.225   4.812   5.943
  442SOL    HW1 2225   3.318   4.816   5.978
  442SOL    HW2 2226   3.161   4.840   6.014
  443SOL     OW 2227   5.775   4.042   4.530
  443SOL    HW1 2228   5.822   4.029   4.618
  443SOL    HW2 2229   5.842   4.038   4.456
  444SOL     OW 2230   5.019   1.445   5.335
  444SOL    HW1 2231   4.999   1.498   5.417
  444SOL    HW2 2232   4.945   1.379   5.319
  445SOL     OW 2233   0.830   5.448   2.919
  445SOL    HW1 2234   0.774   5.409   2.846
  445SOL    HW2 2235   0.774   5.510   2.975
  446SOL     OW 2236   3.756   4.885   3.548
  446SOL    HW1 2237   3.823   4.878   3.473
  446SOL    HW2 2238   3.802   4.865   3.634
  447SOL     OW 2239   0.401   2.859   6.116
  447SOL    HW1 2240   0.366   2.948   6.087
  447SOL    HW2 2241   0.351   2.829   6.197
  448SOL     OW 2242   1.824   0.434   3.399
  448SOL    HW1 2243   1.901   0.497   3.393
  448SOL    HW2 2244   1.856   0.340   3.386
  449SOL     OW 2245   3.821   1.483   3.972
  449SOL    HW1 2246   3.849   1.561   4.028
  449SOL    HW2 2247   3.806   1.403   4.031
  450SOL     OW 2248   1.331   5.769   3.849
  450SOL    HW1 2249   1.243   5.744   3.890
  450SOL    HW2 2250   1.318   5.848   3.789
  451SOL     OW 2251   1.679   1.692   3.587
  451SOL    HW1 2252   1.613   1.703   3.513
  451SOL    HW2 2253   1.767   1.662   3.550
  452SOL     OW 2254   6.211   5.937   1.054
  452SOL    HW1 2255   6.261   6.011   1.009
  452SOL    HW2 2256   6.239   5.930   1.149
  453SOL     OW 2257   3.890   0.955   5.698
  453SOL    HW1 2258   3.886   1.051   5.726
  453SOL    HW2 2259   3.966   0.910   5.744
  454SOL     OW 2260   6.720   4.939   6.293
  454SOL    HW1 2261   6.724   4.927   6.392
  454SOL    HW2 2262   6.802   4.987   6.262
  455SOL     OW 2263   6.291   2.554   3.200
  455SOL    HW1 2264   6.336   2.621   3.140
  455SOL    HW2 2265   6.201   2.532   3.164
  456SOL     OW 2266   5.918   6.503   4.250
  456SOL    HW1 2267   5.975   6.509   4.168
  456SOL    HW2 2268   5.839   6.563   4.240
  457SOL     OW 2269   1.653   2.711   4.350
  457SOL    HW1 2270   1.605   2.790   4.313
  457SOL    HW2 2271   1.589   2.635   4.363
  458SOL     OW 2272   4.248   5.749   3.851
  458SOL    HW1 2273   4.229   5.678   3.783
  458SOL    HW2 2274   4.341   5.784   3.838
  459SOL     OW 2275   1.986   6.649   5.140
  459SOL    HW1 2276   1.904   6.597   5.116
  459SOL    HW2 2277   1.986   6.667   5.238
  460SOL     OW 2278   1.760   6.687   3.828
  460SOL    HW1 2279   1.768   6.729   3.738
  460SOL    HW2 2280   1.688   6.618   3.827
  461SOL     OW 2281   6.599   0.183   6.639
  461SOL    HW1 2282   6.665   0.141   6.701
  461SOL    HW2 2283   6.536   0.239   6.693
  462SOL     OW 2284   3.644   2.841   6.312
  462SOL    HW1 2285   3.662   2.746   6.287
  462SOL    HW2 2286   3.714   2.899   6.271
  463SOL     OW 2287   5.915   6.183   3.574
  463SOL    HW1 2288   5.910   6.235   3.660
  463SOL    HW2 2289   5.973   6.233   3.509
  464SOL     OW 2290   2.550   1.859   4.868
  464SOL    HW1 2291   2.516   1.840   4.960
  464SOL    HW2 2292   2.543   1.957   4.850
  465SOL     OW 2293   0.673   2.648   5.763
  465SOL    HW1 2294   0.765   2.669   5.731
  465SOL    HW2 2295   0.624   2.733   5.782
  466SOL     OW 2296   0.640   5.505   2.707
  466SOL    HW1 2297   0.592   5.489   2.621
  466SOL    HW2 2298   0.701   5.584   2.697
  467SOL     OW 2299   2.310   1.129   0.669
  467SOL    HW1 2300   2.356   1.040   0.676
  467SOL    HW2 2301   2.269   1.152   0.757
  468SOL     OW 2302   3.453   0.334   6.082
  468SOL    HW1 2303   3.375   0.276   6.104
  468SOL    HW2 2304   3.511   0.344   6.162
  469SOL     OW 2305   2.477   3.368   6.272
  469SOL    HW1 2306   2.461   3.297   6.341
  469SOL    HW2 2307   2.576   3.378   6.257
  470SOL     OW 2308   4.260   0.333   1.779
  470SOL    HW1 2309   4.206   0.313   1.697
  470SOL    HW2 2310   4.256   0.255   1.841
  471SOL     OW 2311   2.020   2.373   3.849
  471SOL    HW1 2312   1.922   2.355   3.856
  471SOL    HW2 2313   2.062   2.307   3.787
  472SOL     OW 2314   4.809   3.175   6.244
  472SOL    HW1 2315   4.895   3.166   6.294
  472SOL    HW2 2316   4.828   3.191   6.147
  473SOL     OW 2317   1.074   3.100   3.381
  473SOL    HW1 2318   1.027   3.187   3.366
  473SOL    HW2 2319   1.172   3.111   3.365
  474SOL     OW 2320   5.110   5.711   4.346
  474SOL    HW1 2321   5.109   5.801   4.389
  474SOL    HW2 2322   5.200   5.668   4.360
  475SOL     OW 2323   5.587   1.209   6.104
  475SOL    HW1 2324   5.498   1.254   6.112
  475SOL    HW2 2325   5.605   1.156   6.187
  476SOL     OW 2326   0.368   3.299   3.502
  476SOL    HW1 2327   0.394   3.348   3.585
  476SOL    HW2 2328   0.441   3.234   3.478
  477SOL     OW 2329   1.757   5.398   3.576
  477SOL    HW1 2330   1.822   5.374   3.648
  477SOL    HW2 2331   1.780   5.348   3.493
  478SOL     OW 2332   3.238   5.969   2.312
  478SOL    HW1 2333   3.315   5.947   2.372
  478SOL    HW2 2334   3.232   6.068   2.301
  479SOL     OW 2335   4.265   1.964   5.976
  479SOL    HW1 2336   4.329   1.934   5.906
  479SOL    HW2 2337   4.174   1.927   5.955
  480SOL     OW 2338   2.598   0.800   6.983
  480SOL    HW1 2339   2.616   0.834   0.055
  480SOL    HW2 2340   2.520   0.737   6.985
  481SOL     OW 2341   2.142   6.679   0.792
  481SOL    HW1 2342   2.088   6.751   0.835
  481SOL    HW2 2343   2.097   6.591   0.806
  482SOL     OW 2344   4.452   5.001   2.435
  482SOL    HW1 2345   4.373   5.020   2.493
  482SOL    HW2 2346   4.454   5.065   2.358
  483SOL     OW 2347   0.033   1.539   2.166
  483SOL    HW1 2348   0.050   1.539   2.068
  483SOL    HW2 2349   0.104   1.486   2.213
  484SOL     OW 2350   2.039   3.555   4.530
  484SOL    HW1 2351   2.011   3.594   4.442
  484SOL    HW2 2352   2.024   3.623   4.602
  485SOL     OW 2353   3.782   5.377   2.859
  485SOL    HW1 2354   3.789   5.467   2.815
  485SOL    HW2 2355   3.686   5.349   2.862
  486SOL     OW 2356   6.594   1.072   0.343
  486SOL    HW1 2357   6.631   1.163   0.328
  486SOL    HW2 2358   6.519   1.054   0.279
  487SOL     OW 2359   0.664   0.552   1.834
  487SOL    HW1 2360   0.607   0.564   1.753
  487SOL    HW2 2361   0.693   0.642   1.868
  488SOL     OW 2362   1.244   1.838   1.613
  488SOL    HW1 2363   1.262   1.791   1.526
  488SOL    HW2 2364   1.158   1.805   1.652
  489SOL     OW 2365   3.597   6.284   5.649
  489SOL    HW1 2366   3.586   6.191   5.682
  489SOL    HW2 2367   3.590   6.348   5.726
  490SOL     OW 2368   6.468   6.258   2.685
  490SOL    HW1 2369   6.525   6.188   2.642
  490SOL    HW2 2370   6.461   6.240   2.783
  491SOL     OW 2371   0.853   2.920   2.865
  491SOL    HW1 2372   0.791   2.982   2.912
  491SOL    HW2 2373   0.937   2.967   2.841
  492SOL     OW 2374   1.845   0.710   5.365
  492SOL    HW1 2375   1.755   0.731   5.329
  492SOL    HW2 2376   1.876   0.622   5.328
  493SOL     OW 2377   5.239   5.929   5.643
  493SOL    HW1 2378   5.271   6.017   5.678
  493SOL    HW2 2379   5.316   5.879   5.604
  494SOL     OW 2380   0.229   6.504   6.326
  494SOL    HW1 2381   0.225   6.449   6.409
  494SOL    HW2 2382   0.323   6.537   6.313
  495SOL     OW 2383   4.989   5.806   3.600
  495SOL    HW1 2384   4.931   5.887   3.598
  495SOL    HW2 2385   5.066   5.818   3.537
  496SOL     OW 2386   5.167   3.445   1.936
  496SOL    HW1 2387   5.133   3.530   1.896
  496SOL    HW2 2388   5.169   3.373   1.867
  497SOL     OW 2389   2.976   1.219   4.513
  497SOL    HW1 2390   2.961   1.315   4.536
  497SOL    HW2 2391   2.998   1.211   4.416
  498SOL     OW 2392   1.562   3.620   1.623
  498SOL    HW1 2393   1.479   3.654   1.580
  498SOL    HW2 2394   1.565   3.520   1.616
  499SOL     OW 2395   1.802   6.299   4.757
  499SOL    HW1 2396   1.823   6.204   4.733
  499SOL    HW2 2397   1.887   6.349   4.775
  500SOL     OW 2398   0.045   3.263   5.039
  500SOL    HW1 2399   0.036   3.291   4.943
  500SOL    HW2 2400   0.014   3.336   5.099
  501SOL     OW 2401   3.273   5.818   0.831
  501SOL    HW1 2402   3.194   5.807   0.891
  501SOL    HW2 2403   3.357   5.801   0.882
  502SOL     OW 2404   0.357   4.085   6.947
  502SOL    HW1 2405   0.398   4.021   6.882
  502SOL    HW2 2406   0.285   4.138   6.901
  503SOL     OW 2407   0.133   5.326   0.083
  503SOL    HW1 2408   0.036   5.313   0.066
  503SOL    HW2 2409   0.186   5.290   0.006
  504SOL     OW 2410   1.141   5.437   2.230
  504SOL    HW1 2411   1.077   5.373   2.272
  504SOL    HW2 2412   1.141   5.424   2.131
  505SOL     OW 2413   2.971   6.049   5.352
  505SOL    HW1 2414   3.053   6.088   5.311
  505SOL    HW2 2415   2.896   6.054   5.286
  506SOL     OW 2416   2.423   5.016   3.825
  506SOL    HW1 2417   2.469   5.049   3.907
  506SOL    HW2 2418   2.330   5.051   3.821
  507SOL     OW 2419   2.863   6.459   3.231
  507SOL    HW1 2420   2.842   6.493   3.139
  507SOL    HW2 2421   2.962   6.456   3.243
  508SOL     OW 2422   0.098   4.094   2.367
  508SOL    HW1 2423   0.197   4.089   2.356
  508SOL    HW2 2424   0.054   4.084   2.278
  509SOL     OW 2425   3.012   1.517   1.157
  509SOL    HW1 2426   3.079   1.444   1.145
  509SOL    HW2 2427   3.033   1.568   1.241
  510SOL     OW 2428   6.476   4.752   0.151
  510SOL    HW1 2429   6.424   4.826   0.109
  510SOL    HW2 2430   6.485   4.676   0.087
  511SOL     OW 2431   0.822   1.619   5.783
  511SOL    HW1 2432   0.837   1.711   5.820
  511SOL    HW2 2433   0.724   1.601   5.778
  512SOL     OW 2434   6.920   3.331   0.248
  512SOL    HW1 2435   6.890   3.352   0.340
  512SOL    HW2 2436   6.860   3.261   0.209
  513SOL     OW 2437   5.786   0.065   3.178
  513SOL    HW1 2438   5.707   0.029   3.129
  513SOL    HW2 2439   5.869   0.049   3.124
  514SOL     OW 2440   6.816   2.085   3.878
  514SOL    HW1 2441   6.790   2.062   3.784
  514SOL    HW2 2442   6.771   2.021   3.941
  515SOL     OW 2443   1.190   0.489   6.208
  515SOL    HW1 2444   1.105   0.536   6.234
  515SOL    HW2 2445   1.261   0.557   6.191
  516SOL     OW 2446   2.471   4.510   1.825
  516SOL    HW1 2447   2.439   4.466   1.909
  516SOL    HW2 2448   2.563   4.545   1.838
  517SOL     OW 2449   4.135   5.857   1.601
  517SOL    HW1 2450   4.039   5.878   1.620
  517SOL    HW2 2451   4.177   5.934   1.552
  518SOL     OW 2452   3.075   2.100   3.355
  518SOL    HW1 2453   3.173   2.116   3.372
  518SOL    HW2 2454   3.065   2.031   3.284
  519SOL     OW 2455   0.502   0.121   4.765
  519SOL    HW1 2456   0.569   0.056   4.800
  519SOL    HW2 2457   0.523   0.212   4.801
  520SOL     OW 2458   6.471   4.297   0.930
  520SOL    HW1 2459   6.400   4.295   0.859
  520SOL    HW2 2460   6.559   4.277   0.888
  521SOL     OW 2461   6.631   5.304   4.924
  521SOL    HW1 2462   6.712   5.355   4.953
  521SOL    HW2 2463   6.629   5.216   4.971
  522SOL     OW 2464   3.591   3.042   4.562
  522SOL    HW1 2465   3.643   3.003   4.638
  522SOL    HW2 2466   3.654   3.071   4.490
  523SOL     OW 2467   6.925   5.819   1.783
  523SOL    HW1 2468   7.001   5.798   1.721
  523SOL    HW2 2469   6.872   5.736   1.800
  524SOL     OW 2470   0.507   1.761   2.743
  524SOL    HW1 2471   0.441   1.686   2.729
  524SOL    HW2 2472   0.488   1.835   2.679
  525SOL     OW 2473   2.162   3.229   5.489
  525SOL    HW1 2474   2.228   3.154   5.499
  525SOL    HW2 2475   2.198   3.296   5.424
  526SOL     OW 2476   4.039   6.749   3.861
  526SOL    HW1 2477   3.975   6.694   3.806
  526SOL    HW2 2478   4.109   6.689   3.899
  527SOL     OW 2479   5.878   2.872   6.587
  527SOL    HW1 2480   5.833   2.782   6.594
  527SOL    HW2 2481   5.938   2.885   6.666
  528SOL     OW 2482   1.056   2.041   3.495
  528SOL    HW1 2483   1.062   1.958   3.440
  528SOL    HW2 2484   1.121   2.109   3.460
  529SOL     OW 2485   1.697   6.965   4.534
  529SOL    HW1 2486   1.692   0.037   4.570
  529SOL    HW2 2487   1.729   6.968   4.439
  530SOL     OW 2488   3.660   3.206   4.332
  530SOL    HW1 2489   3.613   3.294   4.328
  530SOL    HW2 2490   3.634   3.151   4.252
  531SOL     OW 2491   0.396   1.380   3.224
  531SOL    HW1 2492   0.444   1.293   3.214
  531SOL    HW2 2493   0.415   1.419   3.314
  532SOL     OW 2494   1.161   2.762   6.770
  532SOL    HW1 2495   1.234   2.775   6.703
  532SOL    HW2 2496   1.104   2.844   6.775
  533SOL     OW 2497   4.158   6.911   4.306
  533SOL    HW1 2498   4.169   6.834   4.243
  533SOL    HW2 2499   4.226   6.981   4.284
  534SOL     OW 2500   5.177   6.388   2.764
  534SOL    HW1 2501   5.091   6.438   2.761
  534SOL    HW2 2502   5.243   6.430   2.702
  535SOL     OW 2503   0.888   3.854   4.468
  535SOL    HW1 2504   0.875   3.835   4.371
  535SOL    HW2 2505   0.822   3.923   4.498
  536SOL     OW 2506   6.712   5.293   1.629
  536SOL    HW1 2507   6.688   5.208   1.581
  536SOL    HW2 2508   6.664   5.296   1.716
  537SOL     OW 2509   2.769   6.483   4.699
  537SOL    HW1 2510   2.730   6.524   4.616
  537SOL    HW2 2511   2.719   6.516   4.779
  538SOL     OW 2512   1.459   4.595   3.044
  538SOL    HW1 2513   1.464   4.502   3.006
  538SOL    HW2 2514   1.548   4.619   3.084
  539SOL     OW 2515   1.676   5.860   1.080
  539SOL    HW1 2516   1.603   5.844   1.146
  539SOL    HW2 2517   1.638   5.901   0.997
  540SOL     OW 2518   0.928   0.557   3.051
  540SOL    HW1 2519   0.980   0.492   3.107
  540SOL    HW2 2520   0.977   0.644   3.047
  541SOL     OW 2521   5.386   5.923   4.013
  541SOL    HW1 2522   5.418   5.893   4.103
  541SOL    HW2 2523   5.342   5.847   3.966
  542SOL     OW 2524   6.237   6.595   0.048
  542SOL    HW1 2525   6.138   6.587   0.035
  542SOL    HW2 2526   6.281   6.511   0.017
  543SOL     OW 2527   1.570   3.949   5.511
  543SOL    HW1 2528   1.495   4.005   5.547
  543SOL    HW2 2529   1.571   3.861   5.558
  544SOL     OW 2530   3.374   4.022   0.190
  544SOL    HW1 2531   3.319   4.007   0.272
  544SOL    HW2 2532   3.460   3.972   0.198
  545SOL     OW 2533   2.713   1.363   1.971
  545SOL    HW1 2534   2.692   1.449   2.015
  545SOL    HW2 2535   2.787   1.376   1.906
  546SOL     OW 2536   1.898   2.948   0.539
  546SOL    HW1 2537   1.873   3.044   0.551
  546SOL    HW2 2538   1.938   2.913   0.624
  547SOL     OW 2539   3.261   1.042   0.203
  547SOL    HW1 2540   3.228   1.113   0.141
  547SOL    HW2 2541   3.192   1.023   0.273
  548SOL     OW 2542   3.412   3.182   2.687
  548SOL    HW1 2543   3.474   3.134   2.749
  548SOL    HW2 2544   3.439   3.278   2.680
  549SOL     OW 2545   5.297   2.764   0.618
  549SOL    HW1 2546   5.260   2.671   0.615
  549SOL    HW2 2547   5.227   2.829   0.589
  550SOL     OW 2548   6.959   5.156   3.679
  550SOL    HW1 2549   6.968   5.252   3.705
  550SOL    HW2 2550   6.871   5.121   3.712
  551SOL     OW 2551   0.847   0.346   1.889
  551SOL    HW1 2552   0.844   0.353   1.989
  551SOL    HW2 2553   0.768   0.395   1.851
  552SOL     OW 2554   5.454   4.254   0.211
  552SOL    HW1 2555   5.438   4.303   0.125
  552SOL    HW2 2556   5.409   4.303   0.286
  553SOL     OW 2557   1.875   6.581   2.224
  553SOL    HW1 2558   1.915   6.497   2.188
  553SOL    HW2 2559   1.849   6.567   2.320
  554SOL     OW 2560   5.678   0.214   5.852
  554SOL    HW1 2561   5.589   0.202   5.808
  554SOL    HW2 2562   5.710   0.308   5.837
  555SOL     OW 2563   1.676   5.310   2.864
  555SOL    HW1 2564   1.632   5.388   2.820
  555SOL    HW2 2565   1.628   5.290   2.950
  556SOL     OW 2566   4.786   2.687   3.857
  556SOL    HW1 2567   4.771   2.760   3.790
  556SOL    HW2 2568   4.829   2.609   3.812
  557SOL     OW 2569   0.596   4.919   0.456
  557SOL    HW1 2570   0.578   5.008   0.499
  557SOL    HW2 2571   0.595   4.848   0.527
  558SOL     OW 2572   2.996   3.304   4.455
  558SOL    HW1 2573   2.998   3.349   4.544
  558SOL    HW2 2574   3.068   3.234   4.452
  559SOL     OW 2575   6.500   5.835   0.088
  559SOL    HW1 2576   6.586   5.862   0.045
  559SOL    HW2 2577   6.495   5.736   0.093
  560SOL     OW 2578   4.925   4.269   7.003
  560SOL    HW1 2579   4.985   4.212   6.948
  560SOL    HW2 2580   4.978   4.340   0.028
  561SOL     OW 2581   6.622   1.218   0.782
  561SOL    HW1 2582   6.620   1.315   0.760
  561SOL    HW2 2583   6.625   1.165   0.698
  562SOL     OW 2584   5.445   0.737   5.428
  562SOL    HW1 2585   5.425   0.799   5.504
  562SOL    HW2 2586   5.534   0.694   5.443
  563SOL     OW 2587   2.351   0.592   3.279
  563SOL    HW1 2588   2.431   0.588   3.340
  563SOL    HW2 2589   2.381   0.598   3.184
  564SOL     OW 2590   2.155   2.160   6.639
  564SOL    HW1 2591   2.092   2.122   6.570
  564SOL    HW2 2592   2.118   2.144   6.730
  565SOL     OW 2593   3.706   2.855   5.529
  565SOL    HW1 2594   3.804   2.836   5.521
  565SOL    HW2 2595   3.691   2.930   5.593
  566SOL     OW 2596   6.139   5.177   4.051
  566SOL    HW1 2597   6.123   5.105   4.119
  566SOL    HW2 2598   6.070   5.248   4.061
  567SOL     OW 2599   3.257   2.994   1.926
  567SOL    HW1 2600   3.257   2.917   1.862
  567SOL    HW2 2601   3.182   3.056   1.903
  568SOL     OW 2602   4.252   1.584   0.000
  568SOL    HW1 2603   4.303   1.569   0.085
  568SOL    HW2 2604   4.284   1.668   6.977
  569SOL     OW 2605   1.456   3.352   6.804
  569SOL    HW1 2606   1.432   3.287   6.875
  569SOL    HW2 2607   1.545   3.327   6.765
  570SOL     OW 2608   3.073   6.378   6.987
  570SOL    HW1 2609   2.989   6.348   0.011
  570SOL    HW2 2610   3.150   6.368   0.029
  571SOL     OW 2611   3.177   0.138   2.478
  571SOL    HW1 2612   3.213   0.183   2.560
  571SOL    HW2 2613   3.204   0.041   2.480
  572SOL     OW 2614   2.943   5.194   5.576
  572SOL    HW1 2615   2.894   5.211   5.661
  572SOL    HW2 2616   2.933   5.098   5.549
  573SOL     OW 2617   5.366   1.539   5.596
  573SOL    HW1 2618   5.389   1.503   5.505
  573SOL    HW2 2619   5.423   1.618   5.616
  574SOL     OW 2620   3.510   2.105   4.402
  574SOL    HW1 2621   3.419   2.099   4.442
  574SOL    HW2 2622   3.502   2.112   4.302
  575SOL     OW 2623   5.682   3.898   0.738
  575SOL    HW1 2624   5.699   3.818   0.795
  575SOL    HW2 2625   5.587   3.927   0.750
  576SOL     OW 2626   1.101   2.289   2.894
  576SOL    HW1 2627   1.064   2.216   2.951
  576SOL    HW2 2628   1.140   2.250   2.811
  577SOL     OW 2629   1.705   1.461   2.820
  577SOL    HW1 2630   1.702   1.364   2.795
  577SOL    HW2 2631   1.779   1.506   2.771
  578SOL     OW 2632   6.405   5.151   3.351
  578SOL    HW1 2633   6.427   5.213   3.426
  578SOL    HW2 2634   6.462   5.069   3.357
  579SOL     OW 2635   1.518   2.801   2.216
  579SOL    HW1 2636   1.541   2.733   2.284
  579SOL    HW2 2637   1.494   2.887   2.261
  580SOL     OW 2638   6.752   4.883   6.921
  580SOL    HW1 2639   6.663   4.892   6.876
  580SOL    HW2 2640   6.821   4.933   6.869
  581SOL     OW 2641   3.230   2.912   2.943
  581SOL    HW1 2642   3.202   2.990   2.998
  581SOL    HW2 2643   3.314   2.873   2.981
  582SOL     OW 2644   5.478   6.351   2.477
  582SOL    HW1 2645   5.445   6.415   2.546
  582SOL    HW2 2646   5.480   6.397   2.388
  583SOL     OW 2647   3.299   5.175   5.769
  583SOL    HW1 2648   3.211   5.193   5.814
  583SOL    HW2 2649   3.302   5.080   5.739
  584SOL     OW 2650   2.142   3.821   6.289
  584SOL    HW1 2651   2.150   3.723   6.267
  584SOL    HW2 2652   2.216   3.871   6.243
  585SOL     OW 2653   5.753   3.316   6.021
  585SOL    HW1 2654   5.826   3.279   6.079
  585SOL    HW2 2655   5.756   3.271   5.931
  586SOL     OW 2656   3.972   1.600   6.460
  586SOL    HW1 2657   4.024   1.520   6.489
  586SOL    HW2 2658   4.034   1.669   6.423
  587SOL     OW 2659   3.126   1.374   5.172
  587SOL    HW1 2660   3.186   1.320   5.114
  587SOL    HW2 2661   3.067   1.431   5.115
  588SOL     OW 2662   2.764   4.537   0.839
  588SOL    HW1 2663   2.810   4.473   0.901
  588SOL    HW2 2664   2.781   4.509   0.744
  589SOL     OW 2665   3.154   5.345   1.393
  589SOL    HW1 2666   3.062   5.343   1.432
  589SOL    HW2 2667   3.163   5.427   1.335
  590SOL     OW 2668   5.135   3.021   2.794
  590SOL    HW1 2669   5.088   3.108   2.810
  590SOL    HW2 2670   5.197   3.031   2.717
  591SOL     OW 2671   3.557   5.810   3.423
  591SOL    HW1 2672   3.601   5.899   3.425
  591SOL    HW2 2673   3.538   5.783   3.329
  592SOL     OW 2674   3.142   0.551   1.821
  592SOL    HW1 2675   3.151   0.454   1.843
  592SOL    HW2 2676   3.203   0.574   1.745
  593SOL     OW 2677   4.359   2.371   3.578
  593SOL    HW1 2678   4.354   2.430   3.658
  593SOL    HW2 2679   4.386   2.426   3.498
  594SOL     OW 2680   5.407   2.077   6.561
  594SOL    HW1 2681   5.479   2.140   6.532
  594SOL    HW2 2682   5.333   2.128   6.604
  595SOL     OW 2683   6.086   0.492   3.962
  595SOL    HW1 2684   6.063   0.467   3.868
  595SOL    HW2 2685   6.058   0.418   4.024
  596SOL     OW 2686   1.773   4.564   3.093
  596SOL    HW1 2687   1.801   4.486   3.148
  596SOL    HW2 2688   1.799   4.649   3.139
  597SOL     OW 2689   4.064   6.889   6.555
  597SOL    HW1 2690   4.149   6.854   6.594
  597SOL    HW2 2691   4.007   6.812   6.527
  598SOL     OW 2692   2.954   3.936   6.090
  598SOL    HW1 2693   2.935   3.915   5.994
  598SOL    HW2 2694   2.941   3.854   6.145
  599SOL     OW 2695   2.208   6.381   2.822
  599SOL    HW1 2696   2.182   6.284   2.820
  599SOL    HW2 2697   2.198   6.416   2.916
  600SOL     OW 2698   0.983   0.858   0.855
  600SOL    HW1 2699   1.049   0.785   0.836
  600SOL    HW2 2700   1.000   0.896   0.946
  601SOL     OW 2701   3.026   6.176   3.819
  601SOL    HW1 2702   2.957   6.246   3.838
  601SOL    HW2 2703   3.055   6.182   3.724
  602SOL     OW 2704   2.002   2.966   6.380
  602SOL    HW1 2705   2.035   2.891   6.437
  602SOL    HW2 2706   2.066   2.981   6.304
  603SOL     OW 2707   3.716   1.834   3.730
  603SOL    HW1 2708   3.745   1.899   3.660
  603SOL    HW2 2709   3.751   1.743   3.708
  604SOL     OW 2710   0.583   3.375   1.928
  604SOL    HW1 2711   0.634   3.438   1.870
  604SOL    HW2 2712   0.494   3.416   1.952
  605SOL     OW 2713   6.231   6.262   2.533
  605SOL    HW1 2714   6.308   6.236   2.590
  605SOL    HW2 2715   6.261   6.271   2.438
  606SOL     OW 2716   4.993   0.801   6.673
  606SOL    HW1 2717   5.072   0.860   6.653
  606SOL    HW2 2718   4.919   0.856   6.712
  607SOL     OW 2719   5.714   0.705   5.526
  607SOL    HW1 2720   5.784   0.652   5.479
  607SOL    HW2 2721   5.756   0.787   5.566
  608SOL     OW 2722   3.603   6.074   6.568
  608SOL    HW1 2723   3.643   5.982   6.574
  608SOL    HW2 2724   3.668   6.140   6.606
  609SOL     OW 2725   4.083   3.361   3.637
  609SOL    HW1 2726   4.060   3.275   3.593
  609SOL    HW2 2727   4.070   3.353   3.736
  610SOL     OW 2728   5.193   2.970   2.512
  610SOL    HW1 2729   5.254   2.897   2.483
  610SOL    HW2 2730   5.239   3.058   2.499
  611SOL     OW 2731   2.682   0.655   6.733
  611SOL    HW1 2732   2.641   0.651   6.824
  611SOL    HW2 2733   2.629   0.717   6.675
  612SOL     OW 2734   3.816   6.715   6.247
  612SOL    HW1 2735   3.768   6.791   6.291
  612SOL    HW2 2736   3.853   6.654   6.317
  613SOL     OW 2737   4.096   0.000   5.814
  613SOL    HW1 2738   4.104   0.090   5.857
  613SOL    HW2 2739   4.056   6.956   5.879
  614SOL     OW 2740   4.755   4.380   1.501
  614SOL    HW1 2741   4.716   4.392   1.593
  614SOL    HW2 2742   4.713   4.299   1.459
  615SOL     OW 2743   0.296   1.866   0.831
  615SOL    HW1 2744   0.264   1.943   0.776
  615SOL    HW2 2745   0.220   1.802   0.846
  616SOL     OW 2746   0.327   1.984   3.866
  616SOL    HW1 2747   0.339   1.886   3.853
  616SOL    HW2 2748   0.231   2.004   3.883
  617SOL     OW 2749   6.769   3.491   6.351
  617SOL    HW1 2750   6.800   3.510   6.258
  617SOL    HW2 2751   6.798   3.565   6.411
  618SOL     OW 2752   0.082   3.185   6.941
  618SOL    HW1 2753   0.086   3.267   6.997
  618SOL    HW2 2754   0.172   3.140   6.941
  619SOL     OW 2755   4.845   0.374   6.507
  619SOL    HW1 2756   4.763   0.321   6.527
  619SOL    HW2 2757   4.906   0.320   6.449
  620SOL     OW 2758   4.993   2.533   1.985
  620SOL    HW1 2759   4.931   2.596   2.032
  620SOL    HW2 2760   4.964   2.439   2.001
  621SOL     OW 2761   2.482   6.766   5.925
  621SOL    HW1 2762   2.523   6.674   5.921
  621SOL    HW2 2763   2.384   6.758   5.940
  622SOL     OW 2764   0.930   1.642   4.842
  622SOL    HW1 2765   0.854   1.589   4.806
  622SOL    HW2 2766   0.895   1.723   4.889
  623SOL     OW 2767   0.867   6.122   5.860
  623SOL    HW1 2768   0.916   6.203   5.893
  623SOL    HW2 2769   0.930   6.045   5.856
  624SOL     OW 2770   0.080   1.387   0.936
  624SOL    HW1 2771   0.179   1.390   0.954
  624SOL    HW2 2772   0.040   1.309   0.983
  625SOL     OW 2773   1.868   2.114   1.321
  625SOL    HW1 2774   1.915   2.202   1.331
  625SOL    HW2 2775   1.901   2.050   1.390
  626SOL     OW 2776   0.409   5.497   2.856
  626SOL    HW1 2777   0.486   5.480   2.793
  626SOL    HW2 2778   0.426   5.582   2.906
  627SOL     OW 2779   6.361   6.130   0.926
  627SOL    HW1 2780   6.356   6.195   0.850
  627SOL    HW2 2781   6.434   6.158   0.988
  628SOL     OW 2782   5.419   5.739   5.554
  628SOL    HW1 2783   5.453   5.703   5.640
  628SOL    HW2 2784   5.356   5.673   5.512
  629SOL     OW 2785   0.722   0.483   6.263
  629SOL    HW1 2786   0.674   0.543   6.328
  629SOL    HW2 2787   0.738   0.394   6.306
  630SOL     OW 2788   0.819   1.557   0.222
  630SOL    HW1 2789   0.740   1.511   0.263
  630SOL    HW2 2790   0.889   1.490   0.200
  631SOL     OW 2791   3.684   0.805   5.573
  631SOL    HW1 2792   3.750   0.851   5.633
  631SOL    HW2 2793   3.733   0.759   5.499
  632SOL     OW 2794   4.535   2.062   1.388
  632SOL    HW1 2795   4.461   2.017   1.438
  632SOL    HW2 2796   4.623   2.029   1.424
  633SOL     OW 2797   2.658   3.902   6.674
  633SOL    HW1 2798   2.636   3.930   6.768
  633SOL    HW2 2799   2.729   3.962   6.637
  634SOL     OW 2800   3.441   4.137   3.006
  634SOL    HW1 2801   3.418   4.117   2.911
  634SOL    HW2 2802   3.368   4.104   3.066
  635SOL     OW 2803   4.885   6.032   0.812
  635SOL    HW1 2804   4.948   5.971   0.765
  635SOL    HW2 2805   4.891   6.016   0.911
  636SOL     OW 2806   3.479   6.712   6.767
  636SOL    HW1 2807   3.548   6.768   6.722
  636SOL    HW2 2808   3.389   6.734   6.731
  637SOL     OW 2809   0.077   2.765   3.291
  637SOL    HW1 2810   0.041   2.858   3.300
  637SOL    HW2 2811   0.031   2.718   3.217
  638SOL     OW 2812   5.675   3.189   3.690
  638SOL    HW1 2813   5.756   3.233   3.651
  638SOL    HW2 2814   5.604   3.182   3.620
  639SOL     OW 2815   4.977   3.554   2.795
  639SOL    HW1 2816   4.944   3.529   2.704
  639SOL    HW2 2817   5.072   3.524   2.806
  640SOL     OW 2818   0.140   5.114   4.603
  640SOL    HW1 2819   0.116   5.103   4.506
  640SOL    HW2 2820   0.220   5.058   4.623
  641SOL     OW 2821   0.751   4.725   4.842
  641SOL    HW1 2822   0.663   4.709   4.887
  641SOL    HW2 2823   0.750   4.814   4.797
  642SOL     OW 2824   0.043   3.435   4.418
  642SOL    HW1 2825   0.080   3.488   4.341
  642SOL    HW2 2826   0.027   3.341   4.388
  643SOL     OW 2827   6.102   0.337   6.330
  643SOL    HW1 2828   6.173   0.291   6.277
  643SOL    HW2 2829   6.033   0.270   6.360
  644SOL     OW 2830   1.573   0.043   4.272
  644SOL    HW1 2831   1.658   7.013   4.258
  644SOL    HW2 2832   1.500   7.000   4.298
  645SOL     OW 2833   4.369   7.011   5.185
  645SOL    HW1 2834   4.307   0.063   5.216
  645SOL    HW2 2835   4.459   0.003   5.226
  646SOL     OW 2836   3.124   0.384   4.839
  646SOL    HW1 2837   3.117   0.483   4.831
  646SOL    HW2 2838   3.167   0.361   4.927
  647SOL     OW 2839   5.085   1.807   4.834
  647SOL    HW1 2840   5.089   1.707   4.831
  647SOL    HW2 2841   5.008   1.840   4.780
  648SOL     OW 2842   0.343   3.856   4.013
  648SOL    HW1 2843   0.429   3.851   4.063
  648SOL    HW2 2844   0.329   3.949   3.979
  649SOL     OW 2845   2.339   4.014   1.202
  649SOL    HW1 2846   2.253   3.968   1.225
  649SOL    HW2 2847   2.330   4.112   1.222
  650SOL     OW 2848   6.130   3.892   1.076
  650SOL    HW1 2849   6.171   3.819   1.021
  650SOL    HW2 2850   6.136   3.979   1.026
  651SOL     OW 2851   1.724   6.791   5.976
  651SOL    HW1 2852   1.741   6.872   6.032
  651SOL    HW2 2853   1.632   6.756   5.996
  652SOL     OW 2854   5.014   0.211   3.846
  652SOL    HW1 2855   5.022   0.154   3.928
  652SOL    HW2 2856   5.096   0.200   3.789
  653SOL     OW 2857   0.987   5.708   0.282
  653SOL    HW1 2858   1.063   5.656   0.242
  653SOL    HW2 2859   0.930   5.746   0.208
  654SOL     OW 2860   0.656   5.985   0.078
  654SOL    HW1 2861   0.732   5.961   0.017
  654SOL    HW2 2862   0.668   5.941   0.166
  655SOL     OW 2863   6.938   5.774   1.201
  655SOL    HW1 2864   6.932   5.737   1.294
  655SOL    HW2 2865   6.857   5.829   1.182
  656SOL     OW 2866   2.764   5.719   0.731
  656SOL    HW1 2867   2.731   5.783   0.662
  656SOL    HW2 2868   2.850   5.678   0.701
  657SOL     OW 2869   2.702   3.422   1.183
  657SOL    HW1 2870   2.718   3.326   1.161
  657SOL    HW2 2871   2.615   3.431   1.232
  658SOL     OW 2872   1.728   3.968   6.611
  658SOL    HW1 2873   1.809   3.919   6.644
  658SOL    HW2 2874   1.679   4.007   6.689
  659SOL     OW 2875   2.214   6.040   4.693
  659SOL    HW1 2876   2.270   6.116   4.727
  659SOL    HW2 2877   2.253   5.953   4.724
  660SOL     OW 2878   5.836   3.820   2.730
  660SOL    HW1 2879   5.772   3.895   2.719
  660SOL    HW2 2880   5.878   3.799   2.641
  661SOL     OW 2881   4.864   3.906   3.679
  661SOL    HW1 2882   4.937   3.936   3.618
  661SOL    HW2 2883   4.874   3.808   3.697
  662SOL     OW 2884   4.070   0.407   5.542
  662SOL    HW1 2885   4.042   0.463   5.621
  662SOL    HW2 2886   3.995   0.347   5.516
  663SOL     OW 2887   1.822   3.932   0.089
  663SOL    HW1 2888   1.790   3.994   0.017
  663SOL    HW2 2889   1.750   3.866   0.111
  664SOL     OW 2890   0.675   5.154   6.533
  664SOL    HW1 2891   0.686   5.245   6.574
  664SOL    HW2 2892   0.584   5.146   6.493
  665SOL     OW 2893   4.692   5.137   1.018
  665SOL    HW1 2894   4.622   5.115   0.950
  665SOL    HW2 2895   4.670   5.093   1.104
  666SOL     OW 2896   4.437   2.277   2.228
  666SOL    HW1 2897   4.366   2.326   2.279
  666SOL    HW2 2898   4.513   2.255   2.289
  667SOL     OW 2899   6.539   4.148   3.740
  667SOL    HW1 2900   6.554   4.121   3.645
  667SOL    HW2 2901   6.609   4.107   3.798
  668SOL     OW 2902   5.291   6.010   6.682
  668SOL    HW1 2903   5.251   6.095   6.647
  668SOL    HW2 2904   5.218   5.951   6.718
  669SOL     OW 2905   3.778   6.101   2.871
  669SOL    HW1 2906   3.679   6.100   2.866
  669SOL    HW2 2907   3.807   6.113   2.966
  670SOL     OW 2908   2.723   3.159   1.754
  670SOL    HW1 2909   2.800   3.095   1.762
  670SOL    HW2 2910   2.747   3.246   1.799
  671SOL     OW 2911   2.521   5.777   6.769
  671SOL    HW1 2912   2.522   5.774   6.669
  671SOL    HW2 2913   2.426   5.788   6.800
  672SOL     OW 2914   0.559   4.668   1.700
  672SOL    HW1 2915   0.598   4.726   1.772
  672SOL    HW2 2916   0.595   4.695   1.611
  673SOL     OW 2917   6.631   0.690   1.206
  673SOL    HW1 2918   6.607   0.778   1.248
  673SOL    HW2 2919   6.728   0.671   1.219
  674SOL     OW 2920   6.581   3.767   4.813
  674SOL    HW1 2921   6.617   3.834   4.748
  674SOL    HW2 2922   6.486   3.747   4.791
  675SOL     OW 2923   0.107   1.026   4.986
  675SOL    HW1 2924   0.206   1.042   4.992
  675SOL    HW2 2925   0.088   0.965   4.909
  676SOL     OW 2926   4.037   5.487   2.371
  676SOL    HW1 2927   4.013   5.524   2.282
  676SOL    HW2 2928   3.955   5.475   2.426
  677SOL     OW 2929   6.141   1.787   6.386
  677SOL    HW1 2930   6.218   1.799   6.449
  677SOL    HW2 2931   6.081   1.715   6.421
  678SOL     OW 2932   1.245   1.617   5.125
  678SOL    HW1 2933   1.235   1.630   5.027
  678SOL    HW2 2934   1.263   1.705   5.169
  679SOL     OW 2935   4.969   1.419   4.028
  679SOL    HW1 2936   4.888   1.416   3.970
  679SOL    HW2 2937   5.021   1.502   4.008
  680SOL     OW 2938   5.284   5.598   6.185
  680SOL    HW1 2939   5.384   5.604   6.174
  680SOL    HW2 2940   5.240   5.667   6.128
  681SOL     OW 2941   5.678   6.683   1.647
  681SOL    HW1 2942   5.611   6.660   1.577
  681SOL    HW2 2943   5.639   6.664   1.737
  682SOL     OW 2944   1.606   6.777   0.070
  682SOL    HW1 2945   1.640   6.684   0.084
  682SOL    HW2 2946   1.668   6.826   0.009
  683SOL     OW 2947   3.505   2.076   6.582
  683SOL    HW1 2948   3.445   2.063   6.661
  683SOL    HW2 2949   3.466   2.146   6.522
  684SOL     OW 2950   6.113   0.996   6.658
  684SOL    HW1 2951   6.167   0.916   6.687
  684SOL    HW2 2952   6.104   0.996   6.559
  685SOL     OW 2953   4.618   0.642   4.695
  685SOL    HW1 2954   4.673   0.685   4.624
  685SOL    HW2 2955   4.666   0.562   4.731
  686SOL     OW 2956   6.147   3.175   3.291
  686SOL    HW1 2957   6.106   3.199   3.203
  686SOL    HW2 2958   6.162   3.259   3.344
  687SOL     OW 2959   0.073   2.967   4.474
  687SOL    HW1 2960   0.171   2.973   4.487
  687SOL    HW2 2961   0.039   2.881   4.514
  688SOL     OW 2962   1.790   2.969   6.786
  688SOL    HW1 2963   1.731   3.006   6.858
  688SOL    HW2 2964   1.735   2.911   6.726
  689SOL     OW 2965   0.149   4.512   6.201
  689SOL    HW1 2966   0.162   4.576   6.277
  689SOL    HW2 2967   0.212   4.536   6.126
  690SOL     OW 2968   0.678   4.077   3.760
  690SOL    HW1 2969   0.728   3.995   3.730
  690SOL    HW2 2970   0.741   4.138   3.808
  691SOL     OW 2971   2.382   0.869   6.193
  691SOL    HW1 2972   2.403   0.932   6.268
  691SOL    HW2 2973   2.465   0.848   6.141
  692SOL     OW 2974   3.513   6.246   3.202
  692SOL    HW1 2975   3.502   6.271   3.105
  692SOL    HW2 2976   3.559   6.321   3.250
  693SOL     OW 2977   6.378   1.465   3.198
  693SOL    HW1 2978   6.317   1.506   3.265
  693SOL    HW2 2979   6.460   1.521   3.189
  694SOL     OW 2980   3.543   6.725   2.589
  694SOL    HW1 2981   3.600   6.643   2.588
  694SOL    HW2 2982   3.519   6.750   2.495
  695SOL     OW 2983   4.546   4.915   5.536
  695SOL    HW1 2984   4.532   4.838   5.597
  695SOL    HW2 2985   4.612   4.891   5.465
  696SOL     OW 2986   3.034   5.323   2.074
  696SOL    HW1 2987   2.966   5.252   2.053
  696SOL    HW2 2988   3.126   5.285   2.066
  697SOL     OW 2989   1.886   3.057   4.829
  697SOL    HW1 2990   1.951   3.123   4.866
  697SOL    HW2 2991   1.923   3.017   4.746
  698SOL     OW 2992   5.342   0.085   6.731
  698SOL    HW1 2993   5.330   7.013   6.696
  698SOL    HW2 2994   5.315   0.089   6.827
  699SOL     OW 2995   1.228   4.283   6.705
  699SOL    HW1 2996   1.285   4.216   6.658
  699SOL    HW2 2997   1.141   4.292   6.656
  700SOL     OW 2998   2.847   1.435   3.905
  700SOL    HW1 2999   2.883   1.517   3.949
  700SOL    HW2 3000   2.753   1.453   3.874
  701SOL     OW 3001   6.363   4.193   5.327
  701SOL    HW1 3002   6.386   4.151   5.414
  701SOL    HW2 3003   6.284   4.145   5.287
  702SOL     OW 3004   6.432   6.564   6.375
  702SOL    HW1 3005   6.460   6.470   6.393
  702SOL    HW2 3006   6.341   6.579   6.412
  703SOL     OW 3007   3.712   3.548   6.349
  703SOL    HW1 3008   3.784   3.569   6.282
  703SOL    HW2 3009   3.754   3.514   6.433
  704SOL     OW 3010   1.212   1.199   6.036
  704SOL    HW1 3011   1.259   1.216   5.950
  704SOL    HW2 3012   1.214   1.101   6.057
  705SOL     OW 3013   5.821   6.882   3.380
  705SOL    HW1 3014   5.749   6.879   3.449
  705SOL    HW2 3015   5.828   6.976   3.344
  706SOL     OW 3016   3.686   1.884   4.205
  706SOL    HW1 3017   3.725   1.956   4.263
  706SOL    HW2 3018   3.638   1.926   4.128
  707SOL     OW 3019   4.739   0.380   2.825
  707SOL    HW1 3020   4.656   0.354   2.775
  707SOL    HW2 3021   4.819   0.340   2.781
  708SOL     OW 3022   4.177   0.471   1.074
  708SOL    HW1 3023   4.137   0.548   1.125
  708SOL    HW2 3024   4.164   0.387   1.126
  709SOL     OW 3025   1.185   5.267   0.555
  709SOL    HW1 3026   1.190   5.367   0.555
  709SOL    HW2 3027   1.270   5.229   0.518
  710SOL     OW 3028   4.080   3.473   2.674
  710SOL    HW1 3029   4.112   3.496   2.582
  710SOL    HW2 3030   4.086   3.555   2.732
  711SOL     OW 3031   0.275   2.575   6.036
  711SOL    HW1 3032   0.364   2.614   6.062
  711SOL    HW2 3033   0.260   2.489   6.084
  712SOL     OW 3034   3.483   4.273   0.820
  712SOL    HW1 3035   3.541   4.193   0.838
  712SOL    HW2 3036   3.517   4.351   0.873
  713SOL     OW 3037   3.174   3.065   0.001
  713SOL    HW1 3038   3.129   3.130   0.061
  713SOL    HW2 3039   3.252   3.109   6.976
  714SOL     OW 3040   5.959   4.687   4.571
  714SOL    HW1 3041   5.948   4.779   4.608
  714SOL    HW2 3042   5.950   4.690   4.472
  715SOL     OW 3043   5.482   6.026   0.577
  715SOL    HW1 3044   5.564   6.028   0.634
  715SOL    HW2 3045   5.401   6.039   0.633
  716SOL     OW 3046   1.153   6.987   0.697
  716SOL    HW1 3047   1.123   0.062   0.694
  716SOL    HW2 3048   1.082   6.932   0.741
  717SOL     OW 3049   5.456   4.974   6.173
  717SOL    HW1 3050   5.451   5.052   6.234
  717SOL    HW2 3051   5.391   4.987   6.097
  718SOL     OW 3052   4.457   2.295   5.868
  718SOL    HW1 3053   4.505   2.209   5.886
  718SOL    HW2 3054   4.373   2.298   5.923
  719SOL     OW 3055   6.768   2.466   1.114
  719SOL    HW1 3056   6.760   2.512   1.026
  719SOL    HW2 3057   6.794   2.532   1.184
  720SOL     OW 3058   3.579   0.631   6.628
  720SOL    HW1 3059   3.614   0.613   6.536
  720SOL    HW2 3060   3.514   0.559   6.653
  721SOL     OW 3061   2.570   0.541   4.396
  721SOL    HW1 3062   2.474   0.523   4.418
  721SOL    HW2 3063   2.622   0.553   4.481
  722SOL     OW 3064   2.524   6.986   4.503
  722SOL    HW1 3065   2.600   0.026   4.478
  722SOL    HW2 3066   2.463   0.013   4.567
  723SOL     OW 3067   2.068   3.426   3.303
  723SOL    HW1 3068   2.093   3.379   3.218
  723SOL    HW2 3069   1.970   3.415   3.320
  724SOL     OW 3070   1.365   2.619   4.929
  724SOL    HW1 3071   1.299   2.673   4.980
  724SOL    HW2 3072   1.328   2.597   4.839
  725SOL     OW 3073   3.333   5.902   0.567
  725SOL    HW1 3074   3.407   5.845   0.531
  725SOL    HW2 3075   3.325   5.888   0.666
  726SOL     OW 3076   4.530   4.686   0.669
  726SOL    HW1 3077   4.620   4.724   0.648
  726SOL    HW2 3078   4.480   4.670   0.584
  727SOL     OW 3079   5.468   5.363   5.981
  727SOL    HW1 3080   5.370   5.377   5.989
  727SOL    HW2 3081   5.516   5.430   6.038
  728SOL     OW 3082   6.978   3.612   4.852
  728SOL    HW1 3083   6.975   3.614   4.752
  728SOL    HW2 3084   6.894   3.570   4.888
  729SOL     OW 3085   1.121   1.916   0.298
  729SOL    HW1 3086   1.134   1.819   0.281
  729SOL    HW2 3087   1.024   1.934   0.315
  730SOL     OW 3088   5.577   1.608   2.467
  730SOL    HW1 3089   5.636   1.538   2.428
  730SOL    HW2 3090   5.567   1.683   2.402
  731SOL     OW 3091   5.765   4.314   5.763
  731SOL    HW1 3092   5.862   4.338   5.760
  731SOL    HW2 3093   5.749   4.234   5.705
  732SOL     OW 3094   0.754   3.005   0.836
  732SOL    HW1 3095   0.685   2.935   0.818
  732SOL    HW2 3096   0.709   3.089   0.867
  733SOL     OW 3097   5.849   5.741   5.444
  733SOL    HW1 3098   5.835   5.666   5.508
  733SOL    HW2 3099   5.783   5.814   5.461
  734SOL     OW 3100   6.777   4.137   2.502
  734SOL    HW1 3101   6.696   4.128   2.560
  734SOL    HW2 3102   6.859   4.140   2.558
  735SOL     OW 3103   4.045   2.742   0.421
  735SOL    HW1 3104   4.094   2.681   0.483
  735SOL    HW2 3105   3.997   2.812   0.474
  736SOL     OW 3106   0.582   0.126   2.587
  736SOL    HW1 3107   0.625   0.185   2.519
  736SOL    HW2 3108   0.631   0.039   2.591
  737SOL     OW 3109   4.862   2.362   6.094
  737SOL    HW1 3110   4.765   2.344   6.110
  737SOL    HW2 3111   4.908   2.277   6.069
  738SOL     OW 3112   1.850   3.903   2.357
  738SOL    HW1 3113   1.784   3.889   2.283
  738SOL    HW2 3114   1.943   3.893   2.321
  739SOL     OW 3115   4.062   0.143   4.674
  739SOL    HW1 3116   3.980   0.106   4.629
  739SOL    HW2 3117   4.123   0.182   4.605
  740SOL     OW 3118   4.824   0.347   0.760
  740SOL    HW1 3119   4.731   0.378   0.779
  740SOL    HW2 3120   4.890   0.418   0.787
  741SOL     OW 3121   2.153   6.458   3.471
  741SOL    HW1 3122   2.112   6.375   3.508
  741SOL    HW2 3123   2.087   6.505   3.412
  742SOL     OW 3124   2.060   6.412   1.314
  742SOL    HW1 3125   1.982   6.369   1.358
  742SOL    HW2 3126   2.106   6.346   1.254
  743SOL     OW 3127   0.105   4.431   4.414
  743SOL    HW1 3128   0.128   4.359   4.479
  743SOL    HW2 3129   0.010   4.460   4.428
  744SOL     OW 3130   5.448   0.305   6.553
  744SOL    HW1 3131   5.397   0.233   6.600
  744SOL    HW2 3132   5.485   0.369   6.620
  745SOL     OW 3133   1.258   5.176   4.768
  745SOL    HW1 3134   1.318   5.256   4.776
  745SOL    HW2 3135   1.205   5.182   4.684
  746SOL     OW 3136   0.538   5.283   6.033
  746SOL    HW1 3137   0.532   5.374   6.073
  746SOL    HW2 3138   0.550   5.290   5.935
  747SOL     OW 3139   3.997   6.631   5.040
  747SOL    HW1 3140   3.909   6.657   5.079
  747SOL    HW2 3141   4.070   6.649   5.106
  748SOL     OW 3142   3.553   4.897   2.398
  748SOL    HW1 3143   3.613   4.817   2.394
  748SOL    HW2 3144   3.520   4.919   2.306
  749SOL     OW 3145   6.538   4.590   5.025
  749SOL    HW1 3146   6.443   4.560   5.016
  749SOL    HW2 3147   6.568   4.579   5.119
  750SOL     OW 3148   2.118   2.399   1.252
  750SOL    HW1 3149   2.155   2.491   1.265
  750SOL    HW2 3150   2.018   2.404   1.246
  751SOL     OW 3151   4.270   2.464   6.702
  751SOL    HW1 3152   4.187   2.421   6.666
  751SOL    HW2 3153   4.297   2.418   6.787
  752SOL     OW 3154   3.536   1.421   2.424
  752SOL    HW1 3155   3.634   1.405   2.429
  752SOL    HW2 3156   3.490   1.366   2.495
  753SOL     OW 3157   1.772   3.367   4.460
  753SOL    HW1 3158   1.867   3.335   4.466
  753SOL    HW2 3159   1.760   3.419   4.376
  754SOL     OW 3160   5.419   3.088   5.926
  754SOL    HW1 3161   5.409   3.185   5.951
  754SOL    HW2 3162   5.384   3.031   6.001
  755SOL     OW 3163   1.668   4.929   5.815
  755SOL    HW1 3164   1.757   4.900   5.850
  755SOL    HW2 3165   1.672   4.939   5.716
  756SOL     OW 3166   3.631   0.248   1.420
  756SOL    HW1 3167   3.682   0.241   1.506
  756SOL    HW2 3168   3.646   0.338   1.380
  757SOL     OW 3169   0.799   6.809   3.612
  757SOL    HW1 3170   0.805   6.897   3.659
  757SOL    HW2 3171   0.810   6.735   3.679
  758SOL     OW 3172   4.066   0.441   2.134
  758SOL    HW1 3173   4.084   0.464   2.038
  758SOL    HW2 3174   4.009   0.513   2.175
  759SOL     OW 3175   0.944   1.163   0.853
  759SOL    HW1 3176   0.976   1.096   0.920
  759SOL    HW2 3177   0.977   1.139   0.762
  760SOL     OW 3178   5.154   0.365   5.549
  760SOL    HW1 3179   5.133   0.343   5.453
  760SOL    HW2 3180   5.104   0.304   5.609
  761SOL     OW 3181   5.584   3.005   5.717
  761SOL    HW1 3182   5.513   3.029   5.783
  761SOL    HW2 3183   5.543   2.989   5.628
  762SOL     OW 3184   2.377   0.368   4.705
  762SOL    HW1 3185   2.349   0.377   4.609
  762SOL    HW2 3186   2.377   0.458   4.748
  763SOL     OW 3187   3.835   4.553   6.735
  763SOL    HW1 3188   3.765   4.613   6.697
  763SOL    HW2 3189   3.925   4.594   6.722
  764SOL     OW 3190   4.526   1.273   4.137
  764SOL    HW1 3191   4.485   1.357   4.101
  764SOL    HW2 3192   4.623   1.288   4.154
  765SOL     OW 3193   1.293   6.237   1.361
  765SOL    HW1 3194   1.195   6.254   1.353
  765SOL    HW2 3195   1.342   6.283   1.287
  766SOL     OW 3196   2.109   4.127   6.747
  766SOL    HW1 3197   2.200   4.133   6.706
  766SOL    HW2 3198   2.070   4.037   6.729
  767SOL     OW 3199   6.032   6.137   2.338
  767SOL    HW1 3200   6.000   6.128   2.433
  767SOL    HW2 3201   5.973   6.201   2.289
  768SOL     OW 3202   1.820   6.357   1.433
  768SOL    HW1 3203   1.871   6.363   1.519
  768SOL    HW2 3204   1.763   6.275   1.434
  769SOL     OW 3205   3.036   0.388   4.557
  769SOL    HW1 3206   3.074   0.409   4.647
  769SOL    HW2 3207   3.095   0.324   4.509
  770SOL     OW 3208   2.128   3.431   2.933
  770SOL    HW1 3209   2.118   3.411   2.836
  770SOL    HW2 3210   2.120   3.345   2.985
  771SOL     OW 3211   2.191   5.545   2.276
  771SOL    HW1 3212   2.109   5.501   2.312
  771SOL    HW2 3213   2.259   5.554   2.350
  772SOL     OW 3214   5.560   5.076   0.705
  772SOL    HW1 3215   5.555   5.049   0.609
  772SOL    HW2 3216   5.522   5.167   0.716
  773SOL     OW 3217   0.507   3.811   4.319
  773SOL    HW1 3218   0.586   3.765   4.278
  773SOL    HW2 3219   0.524   3.909   4.322
  774SOL     OW 3220   1.667   1.834   1.509
  774SOL    HW1 3221   1.608   1.814   1.587
  774SOL    HW2 3222   1.686   1.750   1.459
  775SOL     OW 3223   0.686   2.625   2.502
  775SOL    HW1 3224   0.718   2.543   2.550
  775SOL    HW2 3225   0.629   2.598   2.424
  776SOL     OW 3226   0.871   6.728   5.882
  776SOL    HW1 3227   0.968   6.704   5.880
  776SOL    HW2 3228   0.860   6.826   5.864
  777SOL     OW 3229   3.161   5.075   1.294
  777SOL    HW1 3230   3.194   5.163   1.329
  777SOL    HW2 3231   3.201   5.058   1.204
  778SOL     OW 3232   3.300   1.012   2.992
  778SOL    HW1 3233   3.242   1.034   2.913
  778SOL    HW2 3234   3.311   1.093   3.049
  779SOL     OW 3235   0.503   2.385   2.636
  779SOL    HW1 3236   0.501   2.475   2.681
  779SOL    HW2 3237   0.428   2.329   2.671
  780SOL     OW 3238   5.905   3.818   3.537
  780SOL    HW1 3239   5.806   3.824   3.551
  780SOL    HW2 3240   5.928   3.851   3.445
  781SOL     OW 3241   5.475   0.836   0.058
  781SOL    HW1 3242   5.449   0.745   0.025
  781SOL    HW2 3243   5.395   0.897   0.053
  782SOL     OW 3244   1.652   4.047   6.894
  782SOL    HW1 3245   1.612   4.137   6.906
  782SOL    HW2 3246   1.580   3.980   6.876
  783SOL     OW 3247   3.729   4.946   0.979
  783SOL    HW1 3248   3.686   5.016   1.037
  783SOL    HW2 3249   3.660   4.880   0.951
  784SOL     OW 3250   5.258   6.566   0.293
  784SOL    HW1 3251   5.350   6.591   0.266
  784SOL    HW2 3252   5.225   6.491   0.236
  785SOL     OW 3253   0.395   2.795   2.461
  785SOL    HW1 3254   0.340   2.725   2.415
  785SOL    HW2 3255   0.402   2.772   2.558
  786SOL     OW 3256   1.055   1.024   1.077
  786SOL    HW1 3257   1.112   1.099   1.110
  786SOL    HW2 3258   0.979   1.010   1.141
  787SOL     OW 3259   3.136   0.609   6.335
  787SOL    HW1 3260   3.181   0.567   6.257
  787SOL    HW2 3261   3.038   0.594   6.329
  788SOL     OW 3262   3.450   2.953   5.430
  788SOL    HW1 3263   3.536   2.918   5.469
  788SOL    HW2 3264   3.380   2.953   5.501
  789SOL     OW 3265   5.853   3.786   0.979
  789SOL    HW1 3266   5.877   3.704   1.032
  789SOL    HW2 3267   5.915   3.860   1.005
  790SOL     OW 3268   2.057   1.172   4.448
  790SOL    HW1 3269   2.076   1.126   4.361
  790SOL    HW2 3270   2.142   1.184   4.499
  791SOL     OW 3271   3.573   5.277   3.733
  791SOL    HW1 3272   3.511   5.204   3.762
  791SOL    HW2 3273   3.521   5.352   3.693
  792SOL     OW 3274   0.525   0.371   1.605
  792SOL    HW1 3275   0.605   0.345   1.551
  792SOL    HW2 3276   0.496   0.292   1.660
  793SOL     OW 3277   5.133   5.351   4.091
  793SOL    HW1 3278   5.085   5.437   4.106
  793SOL    HW2 3279   5.102   5.310   4.006
  794SOL     OW 3280   3.002   3.767   5.185
  794SOL    HW1 3281   2.940   3.819   5.126
  794SOL    HW2 3282   3.096   3.787   5.161
  795SOL     OW 3283   3.595   6.266   4.536
  795SOL    HW1 3284   3.634   6.345   4.582
  795SOL    HW2 3285   3.497   6.281   4.523
  796SOL     OW 3286   0.863   1.856   5.885
  796SOL    HW1 3287   0.913   1.897   5.809
  796SOL    HW2 3288   0.891   1.900   5.971
  797SOL     OW 3289   5.082   2.684   1.572
  797SOL    HW1 3290   5.006   2.684   1.636
  797SOL    HW2 3291   5.168   2.674   1.622
  798SOL     OW 3292   4.637   0.166   2.111
  798SOL    HW1 3293   4.603   0.081   2.151
  798SOL    HW2 3294   4.736   0.170   2.122
  799SOL     OW 3295   6.387   0.841   5.524
  799SOL    HW1 3296   6.427   0.931   5.505
  799SOL    HW2 3297   6.400   0.818   5.620
  800SOL     OW 3298   5.263   1.962   2.941
  800SOL    HW1 3299   5.215   1.902   3.006
  800SOL    HW2 3300   5.356   1.930   2.927
  801SOL     OW 3301   1.789   3.367   4.138
  801SOL    HW1 3302   1.859   3.391   4.071
  801SOL    HW2 3303   1.699   3.387   4.101
  802SOL     OW 3304   4.588   0.790   0.402
  802SOL    HW1 3305   4.500   0.828   0.371
  802SOL    HW2 3306   4.657   0.862   0.400
  803SOL     OW 3307   6.681   6.699   5.351
  803SOL    HW1 3308   6.703   6.768   5.420
  803SOL    HW2 3309   6.744   6.708   5.274
  804SOL     OW 3310   5.585   5.748   6.737
  804SOL    HW1 3311   5.500   5.696   6.748
  804SOL    HW2 3312   5.571   5.841   6.770
  805SOL     OW 3313   3.231   1.163   5.645
  805SOL    HW1 3314   3.265   1.113   5.566
  805SOL    HW2 3315   3.155   1.222   5.618
  806SOL     OW 3316   5.378   0.985   3.805
  806SOL    HW1 3317   5.467   0.952   3.774
  806SOL    HW2 3318   5.341   0.922   3.874
  807SOL     OW 3319   0.422   2.038   4.751
  807SOL    HW1 3320   0.336   2.001   4.786
  807SOL    HW2 3321   0.408   2.076   4.660
  808SOL     OW 3322   4.537   3.185   5.964
  808SOL    HW1 3323   4.554   3.142   6.052
  808SOL    HW2 3324   4.457   3.245   5.971
  809SOL     OW 3325   6.942   5.448   1.940
  809SOL    HW1 3326   0.012   5.487   1.930
  809SOL    HW2 3327   6.949   5.349   1.953
  810SOL     OW 3328   3.202   2.910   0.812
  810SOL    HW1 3329   3.215   2.811   0.820
  810SOL    HW2 3330   3.249   2.956   0.887
  811SOL     OW 3331   4.267   5.524   4.881
  811SOL    HW1 3332   4.244   5.621   4.882
  811SOL    HW2 3333   4.204   5.475   4.941
  812SOL     OW 3334   0.712   1.480   1.653
  812SOL    HW1 3335   0.810   1.478   1.631
  812SOL    HW2 3336   0.658   1.482   1.569
  813SOL     OW 3337   3.233   5.996   5.147
  813SOL    HW1 3338   3.278   5.920   5.101
  813SOL    HW2 3339   3.301   6.063   5.175
  814SOL     OW 3340   5.758   6.576   2.753
  814SOL    HW1 3341   5.756   6.506   2.824
  814SOL    HW2 3342   5.774   6.532   2.664
  815SOL     OW 3343   0.339   4.195   3.100
  815SOL    HW1 3344   0.276   4.270   3.123
  815SOL    HW2 3345   0.325   4.169   3.005
  816SOL     OW 3346   6.193   6.900   0.085
  816SOL    HW1 3347   6.225   6.807   0.064
  816SOL    HW2 3348   6.272   6.957   0.108
  817SOL     OW 3349   2.198   3.595   1.621
  817SOL    HW1 3350   2.100   3.612   1.630
  817SOL    HW2 3351   2.231   3.546   1.702
  818SOL     OW 3352   6.057   2.627   1.588
  818SOL    HW1 3353   5.982   2.639   1.523
  818SOL    HW2 3354   6.086   2.531   1.589
  819SOL     OW 3355   5.633   3.042   2.942
  819SOL    HW1 3356   5.587   3.131   2.946
  819SOL    HW2 3357   5.565   2.970   2.950
  820SOL     OW 3358   2.825   3.030   5.791
  820SOL    HW1 3359   2.820   2.932   5.773
  820SOL    HW2 3360   2.750   3.057   5.851
  821SOL     OW 3361   1.652   3.992   0.407
  821SOL    HW1 3362   1.714   4.012   0.331
  821SOL    HW2 3363   1.702   3.945   0.480
  822SOL     OW 3364   1.991   4.196   4.784
  822SOL    HW1 3365   2.051   4.121   4.753
  822SOL    HW2 3366   2.030   4.239   4.865
  823SOL     OW 3367   5.049   4.041   6.462
  823SOL    HW1 3368   5.134   4.062   6.511
  823SOL    HW2 3369   4.975   4.027   6.528
  824SOL     OW 3370   5.614   1.292   5.126
  824SOL    HW1 3371   5.703   1.270   5.086
  824SOL    HW2 3372   5.546   1.299   5.053
  825SOL     OW 3373   1.465   4.018   1.354
  825SOL    HW1 3374   1.464   4.024   1.254
  825SOL    HW2 3375   1.441   3.925   1.382
  826SOL     OW 3376   4.931   2.997   5.760
  826SOL    HW1 3377   5.001   3.057   5.799
  826SOL    HW2 3378   4.968   2.905   5.748
  827SOL     OW 3379   3.369   4.210   5.892
  827SOL    HW1 3380   3.342   4.131   5.946
  827SOL    HW2 3381   3.311   4.288   5.915
  828SOL     OW 3382   5.386   6.437   6.152
  828SOL    HW1 3383   5.324   6.376   6.103
  828SOL    HW2 3384   5.381   6.528   6.111
  829SOL     OW 3385   3.100   3.234   3.550
  829SOL    HW1 3386   3.156   3.313   3.524
  829SOL    HW2 3387   3.122   3.205   3.643
  830SOL     OW 3388   4.669   4.388   7.014
  830SOL    HW1 3389   4.707   4.468   6.968
  830SOL    HW2 3390   4.719   4.306   6.984
  831SOL     OW 3391   5.443   0.980   6.631
  831SOL    HW1 3392   5.361   0.955   6.682
  831SOL    HW2 3393   5.524   0.962   6.687
  832SOL     OW 3394   2.706   0.529   1.616
  832SOL    HW1 3395   2.773   0.592   1.654
  832SOL    HW2 3396   2.696   0.450   1.676
  833SOL     OW 3397   0.423   3.782   6.171
  833SOL    HW1 3398   0.413   3.833   6.256
  833SOL    HW2 3399   0.510   3.805   6.127
  834SOL     OW 3400   3.090   3.868   0.950
  834SOL    HW1 3401   3.099   3.801   0.877
  834SOL    HW2 3402   2.994   3.880   0.974
  835SOL     OW 3403   3.332   0.221   4.643
  835SOL    HW1 3404   3.243   0.241   4.683
  835SOL    HW2 3405   3.324   0.143   4.581
  836SOL     OW 3406   3.897   6.689   6.561
  836SOL    HW1 3407   3.933   6.610   6.512
  836SOL    HW2 3408   3.824   6.660   6.623
  837SOL     OW 3409   5.569   6.594   0.281
  837SOL    HW1 3410   5.605   6.554   0.197
  837SOL    HW2 3411   5.584   6.532   0.357
  838SOL     OW 3412   2.009   0.173   4.634
  838SOL    HW1 3413   2.056   0.148   4.719
  838SOL    HW2 3414   1.914   0.197   4.655
  839SOL     OW 3415   2.743   2.349   2.314
  839SOL    HW1 3416   2.644   2.348   2.305
  839SOL    HW2 3417   2.784   2.377   2.228
  840SOL     OW 3418   6.225   6.928   6.666
  840SOL    HW1 3419   6.164   6.972   6.731
  840SOL    HW2 3420   6.241   6.833   6.694
  841SOL     OW 3421   4.577   4.777   0.217
  841SOL    HW1 3422   4.508   4.744   0.281
  841SOL    HW2 3423   4.536   4.790   0.127
  842SOL     OW 3424   4.232   6.257   4.754
  842SOL    HW1 3425   4.187   6.293   4.672
  842SOL    HW2 3426   4.216   6.319   4.831
  843SOL     OW 3427   2.168   1.456   0.165
  843SOL    HW1 3428   2.237   1.470   0.237
  843SOL    HW2 3429   2.104   1.533   0.165
  844SOL     OW 3430   6.131   0.556   1.069
  844SOL    HW1 3431   6.041   0.601   1.064
  844SOL    HW2 3432   6.203   0.624   1.054
  845SOL     OW 3433   5.713   4.553   5.219
  845SOL    HW1 3434   5.709   4.456   5.195
  845SOL    HW2 3435   5.676   4.567   5.310
  846SOL     OW 3436   2.371   1.692   0.287
  846SOL    HW1 3437   2.461   1.648   0.286
  846SOL    HW2 3438   2.338   1.703   0.193
  847SOL     OW 3439   1.572   3.748   0.979
  847SOL    HW1 3440   1.621   3.671   0.940
  847SOL    HW2 3441   1.491   3.769   0.923
  848SOL     OW 3442   5.831   0.647   6.545
  848SOL    HW1 3443   5.763   0.646   6.471
  848SOL    HW2 3444   5.794   0.699   6.622
  849SOL     OW 3445   0.673   4.878   5.654
  849SOL    HW1 3446   0.687   4.899   5.558
  849SOL    HW2 3447   0.576   4.888   5.677
  850SOL     OW 3448   5.683   1.424   4.028
  850SOL    HW1 3449   5.743   1.396   3.953
  850SOL    HW2 3450   5.595   1.378   4.020
  851SOL     OW 3451   0.762   1.482   2.289
  851SOL    HW1 3452   0.842   1.480   2.349
  851SOL    HW2 3453   0.770   1.559   2.226
  852SOL     OW 3454   1.229   2.368   0.314
  852SOL    HW1 3455   1.267   2.314   0.390
  852SOL    HW2 3456   1.220   2.310   0.233
  853SOL     OW 3457   1.929   4.207   2.306
  853SOL    HW1 3458   1.872   4.135   2.344
  853SOL    HW2 3459   1.884   4.296   2.318
  854SOL     OW 3460   4.508   6.273   1.986
  854SOL    HW1 3461   4.544   6.182   1.970
  854SOL    HW2 3462   4.419   6.282   1.942
  855SOL     OW 3463   0.338   0.335   1.256
  855SOL    HW1 3464   0.377   0.400   1.321
  855SOL    HW2 3465   0.411   0.293   1.202
  856SOL     OW 3466   1.528   1.841   5.126
  856SOL    HW1 3467   1.592   1.856   5.051
  856SOL    HW2 3468   1.502   1.930   5.165
  857SOL     OW 3469   6.206   4.299   2.434
  857SOL    HW1 3470   6.239   4.349   2.353
  857SOL    HW2 3471   6.114   4.330   2.457
  858SOL     OW 3472   2.758   3.734   1.422
  858SOL    HW1 3473   2.835   3.724   1.360
  858SOL    HW2 3474   2.686   3.787   1.377
  859SOL     OW 3475   4.951   5.854   6.546
  859SOL    HW1 3476   5.018   5.908   6.495
  859SOL    HW2 3477   4.917   5.779   6.489
  860SOL     OW 3478   4.352   3.912   0.483
  860SOL    HW1 3479   4.296   3.989   0.513
  860SOL    HW2 3480   4.389   3.931   0.392
  861SOL     OW 3481   2.798   0.453   4.220
  861SOL    HW1 3482   2.754   0.484   4.305
  861SOL    HW2 3483   2.729   0.411   4.161
  862SOL     OW 3484   0.572   4.231   6.082
  862SOL    HW1 3485   0.551   4.326   6.108
  862SOL    HW2 3486   0.644   4.231   6.013
  863SOL     OW 3487   0.425   6.923   0.173
  863SOL    HW1 3488   0.365   6.937   0.252
  863SOL    HW2 3489   0.385   6.966   0.092
  864SOL     OW 3490   4.221   5.095   3.965
  864SOL    HW1 3491   4.206   5.071   3.869
  864SOL    HW2 3492   4.208   5.014   4.022
  865SOL     OW 3493   1.655   6.250   6.270
  865SOL    HW1 3494   1.558   6.226   6.272
  865SOL    HW2 3495   1.674   6.316   6.343
  866SOL     OW 3496   1.626   2.344   1.874
  866SOL    HW1 3497   1.625   2.288   1.792
  866SOL    HW2 3498   1.640   2.440   1.850
  867SOL     OW 3499   4.024   3.090   0.666
  867SOL    HW1 3500   3.970   3.031   0.606
  867SOL    HW2 3501   4.029   3.048   0.757
  868SOL     OW 3502   5.998   6.943   1.167
  868SOL    HW1 3503   5.962   0.008   1.129
  868SOL    HW2 3504   6.080   6.917   1.116
  869SOL     OW 3505   6.605   5.570   3.042
  869SOL    HW1 3506   6.514   5.598   3.070
  869SOL    HW2 3507   6.618   5.589   2.945
  870SOL     OW 3508   5.252   3.480   0.749
  870SOL    HW1 3509   5.165   3.430   0.756
  870SOL    HW2 3510   5.252   3.554   0.815
  871SOL     OW 3511   5.085   3.876   3.233
  871SOL    HW1 3512   5.125   3.785   3.245
  871SOL    HW2 3513   5.001   3.869   3.180
  872SOL     OW 3514   6.058   4.561   3.808
  872SOL    HW1 3515   6.025   4.494   3.875
  872SOL    HW2 3516   5.998   4.560   3.727
  873SOL     OW 3517   5.812   6.738   4.137
  873SOL    HW1 3518   5.739   6.750   4.205
  873SOL    HW2 3519   5.852   6.827   4.115
  874SOL     OW 3520   1.066   4.793   5.377
  874SOL    HW1 3521   1.077   4.693   5.373
  874SOL    HW2 3522   1.096   4.826   5.466
  875SOL     OW 3523   3.876   2.909   0.547
  875SOL    HW1 3524   3.837   2.934   0.459
  875SOL    HW2 3525   3.807   2.864   0.603
  876SOL     OW 3526   0.360   5.696   3.129
  876SOL    HW1 3527   0.411   5.723   3.211
  876SOL    HW2 3528   0.341   5.777   3.074
  877SOL     OW 3529   3.840   3.724   0.328
  877SOL    HW1 3530   3.815   3.729   0.231
  877SOL    HW2 3531   3.909   3.793   0.348
  878SOL     OW 3532   4.407   6.051   5.548
  878SOL    HW1 3533   4.435   5.956   5.561
  878SOL    HW2 3534   4.322   6.068   5.599
  879SOL     OW 3535   3.088   2.129   1.970
  879SOL    HW1 3536   3.072   2.039   2.009
  879SOL    HW2 3537   3.020   2.193   2.005
  880SOL     OW 3538   3.013   4.010   5.610
  880SOL    HW1 3539   2.938   3.964   5.658
  880SOL    HW2 3540   2.975   4.084   5.554
  881SOL     OW 3541   4.503   4.566   5.430
  881SOL    HW1 3542   4.595   4.536   5.407
  881SOL    HW2 3543   4.477   4.530   5.519
  882SOL     OW 3544   1.374   1.512   4.352
  882SOL    HW1 3545   1.429   1.532   4.271
  882SOL    HW2 3546   1.307   1.585   4.366
  883SOL     OW 3547   4.621   5.427   6.207
  883SOL    HW1 3548   4.597   5.524   6.218
  883SOL    HW2 3549   4.643   5.388   6.297
  884SOL     OW 3550   0.242   3.421   0.559
  884SOL    HW1 3551   0.281   3.432   0.468
  884SOL    HW2 3552   0.181   3.342   0.560
  885SOL     OW 3553   5.115   6.462   6.929
  885SOL    HW1 3554   5.212   6.448   6.951
  885SOL    HW2 3555   5.078   6.378   6.890
  886SOL     OW 3556   3.291   0.283   0.517
  886SOL    HW1 3557   3.332   0.368   0.552
  886SOL    HW2 3558   3.356   0.208   0.529
  887SOL     OW 3559   4.427   0.354   4.350
  887SOL    HW1 3560   4.429   0.328   4.253
  887SOL    HW2 3561   4.471   0.443   4.362
  888SOL     OW 3562   5.980   6.484   3.120
  888SOL    HW1 3563   5.929   6.462   3.202
  888SOL    HW2 3564   6.078   6.475   3.138
  889SOL     OW 3565   1.362   6.314   5.383
  889SOL    HW1 3566   1.265   6.324   5.407
  889SOL    HW2 3567   1.378   6.356   5.294
  890SOL     OW 3568   2.163   5.075   2.040
  890SOL    HW1 3569   2.085   5.081   2.102
  890SOL    HW2 3570   2.245   5.048   2.091
  891SOL     OW 3571   6.711   4.061   1.726
  891SOL    HW1 3572   6.741   3.967   1.714
  891SOL    HW2 3573   6.611   4.064   1.723
  892SOL     OW 3574   4.247   3.843   0.155
  892SOL    HW1 3575   4.229   3.853   0.057
  892SOL    HW2 3576   4.315   3.910   0.183
  893SOL     OW 3577   2.169   1.009   2.333
  893SOL    HW1 3578   2.158   1.006   2.233
  893SOL    HW2 3579   2.246   0.951   2.360
  894SOL     OW 3580   1.072   2.621   4.363
  894SOL    HW1 3581   1.012   2.645   4.439
  894SOL    HW2 3582   1.144   2.690   4.353
  895SOL     OW 3583   1.408   5.392   4.605
  895SOL    HW1 3584   1.482   5.392   4.672
  895SOL    HW2 3585   1.444   5.372   4.514
  896SOL     OW 3586   5.254   0.116   2.252
  896SOL    HW1 3587   5.248   0.050   2.177
  896SOL    HW2 3588   5.263   0.068   2.339
  897SOL     OW 3589   5.699   0.923   0.145
  897SOL    HW1 3590   5.611   0.878   0.127
  897SOL    HW2 3591   5.769   0.883   0.087
  898SOL     OW 3592   4.429   5.690   2.712
  898SOL    HW1 3593   4.424   5.727   2.805
  898SOL    HW2 3594   4.341   5.652   2.686
  899SOL     OW 3595   6.882   4.633   6.948
  899SOL    HW1 3596   6.822   4.708   6.921
  899SOL    HW2 3597   6.974   4.651   6.914
  900SOL     OW 3598   4.998   6.516   1.895
  900SOL    HW1 3599   4.906   6.516   1.935
  900SOL    HW2 3600   5.038   6.607   1.905
  901SOL     OW 3601   0.906   1.035   5.418
  901SOL    HW1 3602   0.935   1.093   5.494
  901SOL    HW2 3603   0.830   0.977   5.447
  902SOL     OW 3604   0.556   2.544   6.212
  902SOL    HW1 3605   0.501   2.479   6.265
  902SOL    HW2 3606   0.576   2.624   6.268
  903SOL     OW 3607   6.782   3.846   6.152
  903SOL    HW1 3608   6.812   3.774   6.090
  903SOL    HW2 3609   6.702   3.816   6.203
  904SOL     OW 3610   1.376   2.309   3.893
  904SOL    HW1 3611   1.436   2.370   3.944
  904SOL    HW2 3612   1.346   2.353   3.808
  905SOL     OW 3613   4.072   3.181   6.029
  905SOL    HW1 3614   4.045   3.179   5.933
  905SOL    HW2 3615   4.100   3.089   6.058
  906SOL     OW 3616   0.656   4.004   5.624
  906SOL    HW1 3617   0.622   3.913   5.652
  906SOL    HW2 3618   0.701   3.996   5.535
  907SOL     OW 3619   5.630   3.200   3.322
  907SOL    HW1 3620   5.642   3.288   3.277
  907SOL    HW2 3621   5.717   3.150   3.322
  908SOL     OW 3622   1.750   6.285   3.803
  908SOL    HW1 3623   1.673   6.349   3.796
  908SOL    HW2 3624   1.728   6.214   3.869
  909SOL     OW 3625   2.264   6.533   1.501
  909SOL    HW1 3626   2.234   6.515   1.407
  909SOL    HW2 3627   2.324   6.613   1.501
  910SOL     OW 3628   2.551   0.296   0.755
  910SOL    HW1 3629   2.525   0.199   0.760
  910SOL    HW2 3630   2.537   0.339   0.844
  911SOL     OW 3631   7.020   5.569   1.036
  911SOL    HW1 3632   6.976   5.645   1.085
  911SOL    HW2 3633   0.019   5.495   1.100
  912SOL     OW 3634   6.604   1.074   4.640
  912SOL    HW1 3635   6.529   1.061   4.574
  912SOL    HW2 3636   6.570   1.056   4.732
  913SOL     OW 3637   2.313   0.211   3.096
  913SOL    HW1 3638   2.280   0.116   3.098
  913SOL    HW2 3639   2.351   0.235   3.185
  914SOL     OW 3640   2.607   5.547   5.071
  914SOL    HW1 3641   2.586   5.627   5.126
  914SOL    HW2 3642   2.523   5.512   5.030
  915SOL     OW 3643   1.392   3.192   0.272
  915SOL    HW1 3644   1.482   3.223   0.302
  915SOL    HW2 3645   1.369   3.236   0.185
  916SOL     OW 3646   1.716   2.798   1.997
  916SOL    HW1 3647   1.664   2.813   2.082
  916SOL    HW2 3648   1.653   2.783   1.921
  917SOL     OW 3649   5.274   0.642   1.437
  917SOL    HW1 3650   5.233   0.590   1.362
  917SOL    HW2 3651   5.374   0.637   1.430
  918SOL     OW 3652   2.476   6.194   6.703
  918SOL    HW1 3653   2.547   6.133   6.740
  918SOL    HW2 3654   2.518   6.281   6.677
  919SOL     OW 3655   6.520   5.745   2.550
  919SOL    HW1 3656   6.570   5.789   2.475
  919SOL    HW2 3657   6.423   5.771   2.546
  920SOL     OW 3658   1.452   6.665   3.154
  920SOL    HW1 3659   1.411   6.750   3.122
  920SOL    HW2 3660   1.447   6.661   3.254
  921SOL     OW 3661   4.377   4.653   4.060
  921SOL    HW1 3662   4.413   4.621   4.148
  921SOL    HW2 3663   4.404   4.588   3.988
  922SOL     OW 3664   3.165   2.740   6.367
  922SOL    HW1 3665   3.221   2.822   6.354
  922SOL    HW2 3666   3.073   2.766   6.394
  923SOL     OW 3667   2.847   4.993   6.498
  923SOL    HW1 3668   2.833   4.979   6.596
  923SOL    HW2 3669   2.919   4.932   6.466
  924SOL     OW 3670   6.100   2.947   1.883
  924SOL    HW1 3671   6.066   3.008   1.955
  924SOL    HW2 3672   6.060   2.856   1.896
  925SOL     OW 3673   6.682   1.803   5.513
  925SOL    HW1 3674   6.769   1.786   5.466
  925SOL    HW2 3675   6.662   1.727   5.574
  926SOL     OW 3676   6.376   0.888   6.933
  926SOL    HW1 3677   6.359   0.874   0.010
  926SOL    HW2 3678   6.351   0.982   6.908
  927SOL     OW 3679   5.323   4.532   3.931
  927SOL    HW1 3680   5.304   4.486   3.844
  927SOL    HW2 3681   5.400   4.595   3.920
  928SOL     OW 3682   2.003   0.289   0.343
  928SOL    HW1 3683   2.013   0.191   0.330
  928SOL    HW2 3684   2.089   0.335   0.324
  929SOL     OW 3685   0.423   1.473   0.572
  929SOL    HW1 3686   0.377   1.562   0.568
  929SOL    HW2 3687   0.422   1.430   0.482
  930SOL     OW 3688   5.592   5.758   4.976
  930SOL    HW1 3689   5.580   5.855   4.994
  930SOL    HW2 3690   5.656   5.719   5.043
  931SOL     OW 3691   5.879   3.703   3.223
  931SOL    HW1 3692   5.853   3.711   3.126
  931SOL    HW2 3693   5.910   3.792   3.256
  932SOL     OW 3694   2.300   6.966   2.117
  932SOL    HW1 3695   2.214   7.015   2.132
  932SOL    HW2 3696   2.291   6.904   2.040
  933SOL     OW 3697   0.790   5.716   2.703
  933SOL    HW1 3698   0.822   5.730   2.796
  933SOL    HW2 3699   0.761   5.803   2.664
  934SOL     OW 3700   1.737   0.717   4.573
  934SOL    HW1 3701   1.682   0.778   4.516
  934SOL    HW2 3702   1.678   0.647   4.614
  935SOL     OW 3703   4.918   3.550   5.449
  935SOL    HW1 3704   4.989   3.563   5.518
  935SOL    HW2 3705   4.948   3.588   5.362
  936SOL     OW 3706   1.470   0.850   6.352
  936SOL    HW1 3707   1.477   0.947   6.375
  936SOL    HW2 3708   1.562   0.811   6.343
  937SOL     OW 3709   4.639   1.858   5.024
  937SOL    HW1 3710   4.583   1.829   5.101
  937SOL    HW2 3711   4.726   1.809   5.024
  938SOL     OW 3712   0.341   5.291   6.617
  938SOL    HW1 3713   0.412   5.356   6.591
  938SOL    HW2 3714   0.338   5.216   6.550
  939SOL     OW 3715   4.610   1.584   4.675
  939SOL    HW1 3716   4.618   1.680   4.648
  939SOL    HW2 3717   4.701   1.547   4.694
  940SOL     OW 3718   0.184   3.234   2.570
  940SOL    HW1 3719   0.267   3.179   2.574
  940SOL    HW2 3720   0.208   3.331   2.579
  941SOL     OW 3721   6.636   0.463   4.027
  941SOL    HW1 3722   6.602   0.369   4.038
  941SOL    HW2 3723   6.628   0.512   4.114
  942SOL     OW 3724   4.777   0.820   4.068
  942SOL    HW1 3725   4.849   0.776   4.014
  942SOL    HW2 3726   4.740   0.898   4.018
  943SOL     OW 3727   1.062   2.940   3.960
  943SOL    HW1 3728   0.986   2.987   3.914
  943SOL    HW2 3729   1.052   2.949   4.059
  944SOL     OW 3730   6.448   3.505   6.295
  944SOL    HW1 3731   6.454   3.411   6.261
  944SOL    HW2 3732   6.357   3.520   6.333
  945SOL     OW 3733   6.852   3.940   5.782
  945SOL    HW1 3734   6.945   3.907   5.798
  945SOL    HW2 3735   6.855   4.036   5.753
  946SOL     OW 3736   5.138   2.435   5.994
  946SOL    HW1 3737   5.063   2.386   6.038
  946SOL    HW2 3738   5.183   2.494   6.062
  947SOL     OW 3739   3.366   2.913   4.540
  947SOL    HW1 3740   3.326   2.894   4.630
  947SOL    HW2 3741   3.452   2.962   4.552
  948SOL     OW 3742   4.270   0.397   0.593
  948SOL    HW1 3743   4.333   0.403   0.515
  948SOL    HW2 3744   4.178   0.421   0.563
  949SOL     OW 3745   0.105   6.103   6.357
  949SOL    HW1 3746   0.088   6.150   6.270
  949SOL    HW2 3747   0.120   6.006   6.341
  950SOL     OW 3748   4.045   4.999   1.723
  950SOL    HW1 3749   4.010   4.948   1.644
  950SOL    HW2 3750   4.133   5.040   1.699
  951SOL     OW 3751   1.546   1.051   2.694
  951SOL    HW1 3752   1.512   1.100   2.613
  951SOL    HW2 3753   1.470   1.036   2.758
  952SOL     OW 3754   5.560   1.743   2.220
  952SOL    HW1 3755   5.536   1.705   2.131
  952SOL    HW2 3756   5.494   1.815   2.244
  953SOL     OW 3757   5.170   6.203   4.984
  953SOL    HW1 3758   5.200   6.289   4.942
  953SOL    HW2 3759   5.209   6.126   4.933
  954SOL     OW 3760   4.944   5.718   0.502
  954SOL    HW1 3761   5.004   5.678   0.432
  954SOL    HW2 3762   4.899   5.799   0.464
  955SOL     OW 3763   6.949   4.851   3.485
  955SOL    HW1 3764   6.887   4.925   3.459
  955SOL    HW2 3765   0.010   4.891   3.527
  956SOL     OW 3766   0.788   2.169   2.336
  956SOL    HW1 3767   0.742   2.101   2.394
  956SOL    HW2 3768   0.814   2.127   2.250
  957SOL     OW 3769   0.899   4.738   4.564
  957SOL    HW1 3770   0.906   4.706   4.658
  957SOL    HW2 3771   0.957   4.819   4.552
  958SOL     OW 3772   4.633   2.470   2.146
  958SOL    HW1 3773   4.551   2.413   2.147
  958SOL    HW2 3774   4.663   2.486   2.240
  959SOL     OW 3775   2.599   4.692   3.043
  959SOL    HW1 3776   2.559   4.675   2.953
  959SOL    HW2 3777   2.600   4.607   3.095
  960SOL     OW 3778   6.906   5.910   3.657
  960SOL    HW1 3779   6.884   5.819   3.692
  960SOL    HW2 3780   6.924   5.905   3.559
  961SOL     OW 3781   5.021   0.196   3.152
  961SOL    HW1 3782   4.935   0.190   3.101
  961SOL    HW2 3783   5.011   0.152   3.241
  962SOL     OW 3784   1.569   1.112   4.132
  962SOL    HW1 3785   1.517   1.190   4.096
  962SOL    HW2 3786   1.622   1.141   4.211
  963SOL     OW 3787   6.269   1.669   6.079
  963SOL    HW1 3788   6.204   1.702   6.011
  963SOL    HW2 3789   6.352   1.724   6.075
  964SOL     OW 3790   6.484   3.746   1.036
  964SOL    HW1 3791   6.518   3.776   0.947
  964SOL    HW2 3792   6.492   3.822   1.101
  965SOL     OW 3793   5.411   1.854   0.928
  965SOL    HW1 3794   5.457   1.770   0.959
  965SOL    HW2 3795   5.329   1.869   0.983
  966SOL     OW 3796   5.900   2.107   2.441
  966SOL    HW1 3797   5.810   2.074   2.414
  966SOL    HW2 3798   5.948   2.145   2.361
  967SOL     OW 3799   2.764   5.038   1.560
  967SOL    HW1 3800   2.792   5.026   1.465
  967SOL    HW2 3801   2.665   5.022   1.568
  968SOL     OW 3802   4.331   2.315   2.721
  968SOL    HW1 3803   4.354   2.338   2.627
  968SOL    HW2 3804   4.401   2.353   2.782
  969SOL     OW 3805   3.774   6.268   6.664
  969SOL    HW1 3806   3.782   6.198   6.735
  969SOL    HW2 3807   3.865   6.287   6.626
  970SOL     OW 3808   4.566   1.057   4.639
  970SOL    HW1 3809   4.471   1.024   4.645
  970SOL    HW2 3810   4.568   1.143   4.589
  971SOL     OW 3811   0.109   2.000   2.923
  971SOL    HW1 3812   0.027   1.954   2.957
  971SOL    HW2 3813   0.089   2.046   2.837
  972SOL     OW 3814   5.329   4.246   1.332
  972SOL    HW1 3815   5.283   4.267   1.246
  972SOL    HW2 3816   5.261   4.217   1.400
  973SOL     OW 3817   7.009   4.289   0.122
  973SOL    HW1 3818   6.964   4.229   0.056
  973SOL    HW2 3819   0.083   4.304   0.095
  974SOL     OW 3820   5.167   0.380   2.227
  974SOL    HW1 3821   5.117   0.400   2.311
  974SOL    HW2 3822   5.218   0.295   2.238
  975SOL     OW 3823   1.819   6.032   6.195
  975SOL    HW1 3824   1.757   6.106   6.222
  975SOL    HW2 3825   1.824   6.027   6.096
  976SOL     OW 3826   6.610   3.039   2.259
  976SOL    HW1 3827   6.522   3.057   2.304
  976SOL    HW2 3828   6.680   3.020   2.328
  977SOL     OW 3829   1.792   0.511   3.695
  977SOL    HW1 3830   1.693   0.500   3.694
  977SOL    HW2 3831   1.830   0.481   3.608
  978SOL     OW 3832   4.387   4.361   5.586
  978SOL    HW1 3833   4.406   4.297   5.660
  978SOL    HW2 3834   4.338   4.314   5.513
  979SOL     OW 3835   6.925   1.817   1.410
  979SOL    HW1 3836   6.835   1.860   1.407
  979SOL    HW2 3837   6.968   1.825   1.320
  980SOL     OW 3838   4.002   2.027   3.956
  980SOL    HW1 3839   4.081   1.973   3.926
  980SOL    HW2 3840   4.007   2.119   3.917
  981SOL     OW 3841   1.668   1.555   4.970
  981SOL    HW1 3842   1.701   1.639   4.925
  981SOL    HW2 3843   1.733   1.529   5.042
  982SOL     OW 3844   2.971   1.729   3.044
  982SOL    HW1 3845   3.047   1.704   3.105
  982SOL    HW2 3846   2.959   1.828   3.046
  983SOL     OW 3847   5.600   2.435   3.905
  983SOL    HW1 3848   5.641   2.361   3.852
  983SOL    HW2 3849   5.613   2.522   3.856
  984SOL     OW 3850   2.721   1.152   3.783
  984SOL    HW1 3851   2.625   1.162   3.808
  984SOL    HW2 3852   2.775   1.222   3.830
  985SOL     OW 3853   4.774   4.895   6.383
  985SOL    HW1 3854   4.710   4.868   6.312
  985SOL    HW2 3855   4.817   4.814   6.423
  986SOL     OW 3856   5.247   4.350   0.383
  986SOL    HW1 3857   5.199   4.284   0.325
  986SOL    HW2 3858   5.306   4.301   0.448
  987SOL     OW 3859   4.795   6.914   1.711
  987SOL    HW1 3860   4.794   6.937   1.808
  987SOL    HW2 3861   4.714   6.953   1.667
  988SOL     OW 3862   3.720   2.913   2.505
  988SOL    HW1 3863   3.658   2.872   2.572
  988SOL    HW2 3864   3.669   2.933   2.421
  989SOL     OW 3865   6.382   1.314   5.597
  989SOL    HW1 3866   6.409   1.409   5.608
  989SOL    HW2 3867   6.422   1.259   5.670
  990SOL     OW 3868   4.365   1.210   2.111
  990SOL    HW1 3869   4.459   1.182   2.132
  990SOL    HW2 3870   4.352   1.210   2.012
  991SOL     OW 3871   1.547   2.635   5.476
  991SOL    HW1 3872   1.623   2.673   5.423
  991SOL    HW2 3873   1.460   2.663   5.434
  992SOL     OW 3874   0.810   3.050   1.593
  992SOL    HW1 3875   0.756   3.000   1.525
  992SOL    HW2 3876   0.854   2.986   1.655
  993SOL     OW 3877   1.115   4.618   1.797
  993SOL    HW1 3878   1.113   4.549   1.870
  993SOL    HW2 3879   1.105   4.573   1.709
  994SOL     OW 3880   3.081   3.930   2.781
  994SOL    HW1 3881   3.169   3.936   2.735
  994SOL    HW2 3882   3.017   3.877   2.725
  995SOL     OW 3883   3.773   2.580   6.538
  995SOL    HW1 3884   3.836   2.643   6.493
  995SOL    HW2 3885   3.806   2.486   6.527
  996SOL     OW 3886   1.893   4.768   4.333
  996SOL    HW1 3887   1.893   4.670   4.311
  996SOL    HW2 3888   1.805   4.793   4.373
  997SOL     OW 3889   0.290   0.569   2.770
  997SOL    HW1 3890   0.318   0.611   2.856
  997SOL    HW2 3891   0.365   0.514   2.733
  998SOL     OW 3892   4.206   6.625   4.198
  998SOL    HW1 3893   4.118   6.626   4.246
  998SOL    HW2 3894   4.275   6.585   4.257
  999SOL     OW 3895   5.344   4.849   2.020
  999SOL    HW1 3896   5.357   4.895   2.108
  999SOL    HW2 3897   5.289   4.767   2.033
 1000SOL     OW 3898   0.991   0.810   1.896
 1000SOL    HW1 3899   0.894   0.808   1.920
 1000SOL    HW2 3900   1.037   0.880   1.950
 1001SOL     OW 3901   5.749   0.165   0.828
 1001SOL    HW1 3902   5.792   0.225   0.761
 1001SOL    HW2 3903   5.765   0.069   0.802
 1002SOL     OW 3904   6.506   2.153   6.864
 1002SOL    HW1 3905   6.548   2.242   6.881
 1002SOL    HW2 3906   6.425   2.142   6.921
 1003SOL     OW 3907   2.189   6.289   1.679
 1003SOL    HW1 3908   2.091   6.272   1.682
 1003SOL    HW2 3909   2.208   6.367   1.619
 1004SOL     OW 3910   0.274   0.025   1.458
 1004SOL    HW1 3911   0.205   0.079   1.409
 1004SOL    HW2 3912   0.319   6.983   1.394
 1005SOL     OW 3913   0.653   1.760   3.016
 1005SOL    HW1 3914   0.648   1.811   2.930
 1005SOL    HW2 3915   0.579   1.693   3.018
 1006SOL     OW 3916   1.736   5.040   0.835
 1006SOL    HW1 3917   1.673   5.039   0.913
 1006SOL    HW2 3918   1.790   4.956   0.835
 1007SOL     OW 3919   5.411   6.896   4.127
 1007SOL    HW1 3920   5.482   6.966   4.136
 1007SOL    HW2 3921   5.332   6.934   4.080
 1008SOL     OW 3922   2.181   3.115   5.151
 1008SOL    HW1 3923   2.125   3.052   5.205
 1008SOL    HW2 3924   2.244   3.063   5.094
 1009SOL     OW 3925   0.033   6.196   4.622
 1009SOL    HW1 3926   0.073   6.263   4.685
 1009SOL    HW2 3927   0.063   6.104   4.648
 1010SOL     OW 3928   3.575   2.329   6.028
 1010SOL    HW1 3929   3.559   2.258   6.096
 1010SOL    HW2 3930   3.491   2.345   5.976
 1011SOL     OW 3931   2.604   5.157   2.175
 1011SOL    HW1 3932   2.521   5.104   2.192
 1011SOL    HW2 3933   2.593   5.249   2.212
 1012SOL     OW 3934   6.226   0.176   0.578
 1012SOL    HW1 3935   6.209   0.264   0.534
 1012SOL    HW2 3936   6.324   0.159   0.585
 1013SOL     OW 3937   0.949   1.499   5.995
 1013SOL    HW1 3938   0.915   1.525   5.904
 1013SOL    HW2 3939   1.046   1.523   6.002
 1014SOL     OW 3940   4.768   6.108   0.023
 1014SOL    HW1 3941   4.853   6.160   0.025
 1014SOL    HW2 3942   4.703   6.154   6.982
 1015SOL     OW 3943   2.209   6.495   5.332
 1015SOL    HW1 3944   2.207   6.587   5.293
 1015SOL    HW2 3945   2.260   6.435   5.270
 1016SOL     OW 3946   3.557   3.414   0.172
 1016SOL    HW1 3947   3.498   3.492   0.191
 1016SOL    HW2 3948   3.653   3.441   0.186
 1017SOL     OW 3949   4.262   2.751   1.343
 1017SOL    HW1 3950   4.186   2.769   1.405
 1017SOL    HW2 3951   4.349   2.767   1.390
 1018SOL     OW 3952   1.540   3.021   4.485
 1018SOL    HW1 3953   1.586   3.075   4.555
 1018SOL    HW2 3954   1.454   2.985   4.521
 1019SOL     OW 3955   0.498   0.146   0.004
 1019SOL    HW1 3956   0.452   0.115   6.941
 1019SOL    HW2 3957   0.539   0.068   0.050
 1020SOL     OW 3958   0.883   6.549   0.991
 1020SOL    HW1 3959   0.968   6.577   1.035
 1020SOL    HW2 3960   0.895   6.459   0.950
 1021SOL     OW 3961   5.766   1.138   1.236
 1021SOL    HW1 3962   5.770   1.121   1.138
 1021SOL    HW2 3963   5.858   1.129   1.275
 1022SOL     OW 3964   4.015   4.427   5.955
 1022SOL    HW1 3965   3.949   4.422   5.880
 1022SOL    HW2 3966   4.065   4.513   5.951
 1023SOL     OW 3967   0.634   6.807   1.996
 1023SOL    HW1 3968   0.665   6.740   2.064
 1023SOL    HW2 3969   0.677   6.895   2.014
 1024SOL     OW 3970   6.121   3.550   3.906
 1024SOL    HW1 3971   6.156   3.574   3.996
 1024SOL    HW2 3972   6.133   3.452   3.890
 1025SOL     OW 3973   3.076   3.349   0.423
 1025SOL    HW1 3974   3.175   3.351   0.410
 1025SOL    HW2 3975   3.033   3.405   0.352
 1026SOL     OW 3976   2.394   2.922   1.769
 1026SOL    HW1 3977   2.417   3.002   1.714
 1026SOL    HW2 3978   2.309   2.940   1.819
 1027SOL     OW 3979   3.036   6.224   0.877
 1027SOL    HW1 3980   2.995   6.296   0.933
 1027SOL    HW2 3981   2.964   6.163   0.845
 1028SOL     OW 3982   3.720   6.091   0.044
 1028SOL    HW1 3983   3.734   6.111   0.141
 1028SOL    HW2 3984   3.628   6.120   0.017
 1029SOL     OW 3985   1.626   0.475   0.012
 1029SOL    HW1 3986   1.567   0.421   6.974
 1029SOL    HW2 3987   1.572   0.517   0.085
 1030SOL     OW 3988   3.645   4.090   1.504
 1030SOL    HW1 3989   3.592   4.009   1.479
 1030SOL    HW2 3990   3.741   4.065   1.516
 1031SOL     OW 3991   5.058   5.415   1.033
 1031SOL    HW1 3992   5.138   5.371   0.993
 1031SOL    HW2 3993   4.983   5.414   0.966
 1032SOL     OW 3994   1.823   1.753   4.885
 1032SOL    HW1 3995   1.827   1.828   4.818
 1032SOL    HW2 3996   1.894   1.768   4.955
 1033SOL     OW 3997   1.457   6.389   1.190
 1033SOL    HW1 3998   1.510   6.337   1.124
 1033SOL    HW2 3999   1.518   6.434   1.255
 1034SOL     OW 4000   0.637   5.636   4.559
 1034SOL    HW1 4001   0.571   5.653   4.485
 1034SOL    HW2 4002   0.654   5.722   4.608
 1035SOL     OW 4003   0.939   1.006   3.256
 1035SOL    HW1 4004   0.971   1.093   3.219
 1035SOL    HW2 4005   0.996   0.979   3.333
 1036SOL     OW 4006   2.554   1.006   2.122
 1036SOL    HW1 4007   2.533   0.914   2.089
 1036SOL    HW2 4008   2.495   1.072   2.075
 1037SOL     OW 4009   2.112   0.628   0.922
 1037SOL    HW1 4010   2.035   0.690   0.907
 1037SOL    HW2 4011   2.137   0.628   1.019
 1038SOL     OW 4012   1.317   0.122   5.320
 1038SOL    HW1 4013   1.389   0.119   5.252
 1038SOL    HW2 4014   1.235   0.164   5.280
 1039SOL     OW 4015   2.846   2.760   5.753
 1039SOL    HW1 4016   2.766   2.714   5.715
 1039SOL    HW2 4017   2.889   2.702   5.822
 1040SOL     OW 4018   4.814   2.968   2.319
 1040SOL    HW1 4019   4.746   2.912   2.366
 1040SOL    HW2 4020   4.780   2.991   2.228
 1041SOL     OW 4021   6.489   0.136   4.386
 1041SOL    HW1 4022   6.455   0.046   4.414
 1041SOL    HW2 4023   6.416   0.203   4.392
 1042SOL     OW 4024   3.853   4.942   2.306
 1042SOL    HW1 4025   3.780   4.986   2.358
 1042SOL    HW2 4026   3.814   4.900   2.224
 1043SOL     OW 4027   4.038   1.275   5.043
 1043SOL    HW1 4028   4.136   1.291   5.030
 1043SOL    HW2 4029   3.985   1.350   5.004
 1044SOL     OW 4030   5.055   4.631   2.332
 1044SOL    HW1 4031   5.110   4.680   2.401
 1044SOL    HW2 4032   4.960   4.628   2.363
 1045SOL     OW 4033   3.024   6.010   2.715
 1045SOL    HW1 4034   3.112   6.022   2.761
 1045SOL    HW2 4035   3.015   5.916   2.683
 1046SOL     OW 4036   1.234   6.692   0.497
 1046SOL    HW1 4037   1.290   6.737   0.566
 1046SOL    HW2 4038   1.232   6.748   0.414
 1047SOL     OW 4039   1.225   6.168   2.363
 1047SOL    HW1 4040   1.305   6.153   2.305
 1047SOL    HW2 4041   1.253   6.175   2.459
 1048SOL     OW 4042   4.876   6.180   5.540
 1048SOL    HW1 4043   4.882   6.262   5.597
 1048SOL    HW2 4044   4.781   6.151   5.532
 1049SOL     OW 4045   6.666   4.949   3.738
 1049SOL    HW1 4046   6.573   4.947   3.701
 1049SOL    HW2 4047   6.663   4.985   3.832
 1050SOL     OW 4048   3.682   5.405   0.439
 1050SOL    HW1 4049   3.695   5.497   0.402
 1050SOL    HW2 4050   3.770   5.360   0.450
 1051SOL     OW 4051   2.734   5.329   1.264
 1051SOL    HW1 4052   2.704   5.368   1.351
 1051SOL    HW2 4053   2.653   5.305   1.210
 1052SOL     OW 4054   3.663   0.148   4.192
 1052SOL    HW1 4055   3.726   0.093   4.246
 1052SOL    HW2 4056   3.661   0.114   4.098
 1053SOL     OW 4057   5.038   5.229   3.835
 1053SOL    HW1 4058   5.043   5.242   3.736
 1053SOL    HW2 4059   4.943   5.233   3.865
 1054SOL     OW 4060   2.337   3.922   5.481
 1054SOL    HW1 4061   2.324   4.021   5.487
 1054SOL    HW2 4062   2.430   3.903   5.449
 1055SOL     OW 4063   5.695   6.485   4.524
 1055SOL    HW1 4064   5.640   6.448   4.598
 1055SOL    HW2 4065   5.765   6.418   4.497
 1056SOL     OW 4066   1.514   5.230   5.922
 1056SOL    HW1 4067   1.519   5.178   6.007
 1056SOL    HW2 4068   1.606   5.247   5.888
 1057SOL     OW 4069   3.692   3.704   2.828
 1057SOL    HW1 4070   3.622   3.709   2.756
 1057SOL    HW2 4071   3.739   3.617   2.823
 1058SOL     OW 4072   5.027   1.651   2.098
 1058SOL    HW1 4073   5.117   1.642   2.140
 1058SOL    HW2 4074   5.015   1.745   2.065
 1059SOL     OW 4075   2.226   7.018   1.609
 1059SOL    HW1 4076   2.241   0.043   1.522
 1059SOL    HW2 4077   2.152   0.042   1.658
 1060SOL     OW 4078   0.207   3.605   3.976
 1060SOL    HW1 4079   0.119   3.612   3.929
 1060SOL    HW2 4080   0.252   3.694   3.976
 1061SOL     OW 4081   5.397   3.802   1.696
 1061SOL    HW1 4082   5.397   3.887   1.748
 1061SOL    HW2 4083   5.324   3.805   1.628
 1062SOL     OW 4084   6.110   4.781   5.622
 1062SOL    HW1 4085   6.094   4.697   5.571
 1062SOL    HW2 4086   6.111   4.859   5.560
 1063SOL     OW 4087   1.582   4.822   1.879
 1063SOL    HW1 4088   1.491   4.795   1.909
 1063SOL    HW2 4089   1.641   4.741   1.874
 1064SOL     OW 4090   1.555   4.116   2.298
 1064SOL    HW1 4091   1.462   4.134   2.266
 1064SOL    HW2 4092   1.618   4.122   2.221
 1065SOL     OW 4093   4.896   0.422   4.172
 1065SOL    HW1 4094   4.869   0.443   4.079
 1065SOL    HW2 4095   4.924   0.506   4.219
 1066SOL     OW 4096   5.254   0.553   4.145
 1066SOL    HW1 4097   5.158   0.578   4.131
 1066SOL    HW2 4098   5.266   0.455   4.127
 1067SOL     OW 4099   1.078   3.198   0.019
 1067SOL    HW1 4100   1.111   3.127   0.081
 1067SOL    HW2 4101   1.005   3.250   0.064
 1068SOL     OW 4102   4.931   4.727   2.736
 1068SOL    HW1 4103   4.895   4.817   2.712
 1068SOL    HW2 4104   4.859   4.674   2.780
 1069SOL     OW 4105   5.025   5.164   1.284
 1069SOL    HW1 4106   4.983   5.094   1.226
 1069SOL    HW2 4107   5.122   5.143   1.296
 1070SOL     OW 4108   1.234   1.087   1.454
 1070SOL    HW1 4109   1.207   1.010   1.397
 1070SOL    HW2 4110   1.311   1.061   1.512
 1071SOL     OW 4111   2.908   6.452   3.762
 1071SOL    HW1 4112   2.887   6.384   3.693
 1071SOL    HW2 4113   2.875   6.422   3.851
 1072SOL     OW 4114   1.842   6.200   1.016
 1072SOL    HW1 4115   1.914   6.269   1.011
 1072SOL    HW2 4116   1.870   6.126   1.077
 1073SOL     OW 4117   3.714   6.504   2.627
 1073SOL    HW1 4118   3.732   6.457   2.713
 1073SOL    HW2 4119   3.801   6.536   2.589
 1074SOL     OW 4120   2.746   4.939   0.544
 1074SOL    HW1 4121   2.842   4.946   0.571
 1074SOL    HW2 4122   2.730   4.850   0.502
 1075SOL     OW 4123   4.236   6.555   3.634
 1075SOL    HW1 4124   4.185   6.538   3.718
 1075SOL    HW2 4125   4.334   6.561   3.654
 1076SOL     OW 4126   0.055   4.361   5.100
 1076SOL    HW1 4127   0.067   4.337   5.197
 1076SOL    HW2 4128   0.037   4.278   5.047
 1077SOL     OW 4129   5.726   0.444   0.645
 1077SOL    HW1 4130   5.663   0.439   0.722
 1077SOL    HW2 4131   5.692   0.389   0.569
 1078SOL     OW 4132   1.298   1.028   2.527
 1078SOL    HW1 4133   1.213   1.000   2.573
 1078SOL    HW2 4134   1.276   1.092   2.453
 1079SOL     OW 4135   1.767   6.108   2.470
 1079SOL    HW1 4136   1.682   6.157   2.488
 1079SOL    HW2 4137   1.843   6.155   2.515
 1080SOL     OW 4138   1.898   4.708   3.569
 1080SOL    HW1 4139   1.918   4.700   3.666
 1080SOL    HW2 4140   1.812   4.757   3.556
 1081SOL     OW 4141   0.031   6.886   5.620
 1081SOL    HW1 4142   0.107   6.825   5.600
 1081SOL    HW2 4143   0.050   6.977   5.584
 1082SOL     OW 4144   3.409   1.701   6.453
 1082SOL    HW1 4145   3.501   1.693   6.414
 1082SOL    HW2 4146   3.414   1.696   6.553
 1083SOL     OW 4147   3.948   4.431   1.287
 1083SOL    HW1 4148   3.861   4.393   1.317
 1083SOL    HW2 4149   3.967   4.403   1.193
 1084SOL     OW 4150   6.662   6.049   1.024
 1084SOL    HW1 4151   6.758   6.068   1.041
 1084SOL    HW2 4152   6.647   5.950   1.020
 1085SOL     OW 4153   1.169   4.135   3.615
 1085SOL    HW1 4154   1.099   4.099   3.676
 1085SOL    HW2 4155   1.131   4.149   3.524
 1086SOL     OW 4156   6.688   5.926   2.392
 1086SOL    HW1 4157   6.788   5.920   2.381
 1086SOL    HW2 4158   6.660   6.022   2.390
 1087SOL     OW 4159   6.168   3.499   6.345
 1087SOL    HW1 4160   6.125   3.490   6.254
 1087SOL    HW2 4161   6.133   3.582   6.389
 1088SOL     OW 4162   5.922   4.591   3.583
 1088SOL    HW1 4163   5.878   4.675   3.615
 1088SOL    HW2 4164   5.858   4.540   3.526
 1089SOL     OW 4165   1.184   0.006   4.415
 1089SOL    HW1 4166   1.262   0.022   4.476
 1089SOL    HW2 4167   1.182   0.077   4.345
 1090SOL     OW 4168   1.962   1.565   3.530
 1090SOL    HW1 4169   1.943   1.650   3.480
 1090SOL    HW2 4170   1.967   1.489   3.465
 1091SOL     OW 4171   2.038   2.849   5.227
 1091SOL    HW1 4172   1.985   2.842   5.312
 1091SOL    HW2 4173   1.979   2.829   5.149
 1092SOL     OW 4174   2.051   3.655   0.498
 1092SOL    HW1 4175   2.141   3.650   0.454
 1092SOL    HW2 4176   1.982   3.618   0.435
 1093SOL     OW 4177   2.150   1.929   2.340
 1093SOL    HW1 4178   2.213   1.969   2.407
 1093SOL    HW2 4179   2.164   1.973   2.252
 1094SOL     OW 4180   1.274   6.249   3.277
 1094SOL    HW1 4181   1.205   6.320   3.261
 1094SOL    HW2 4182   1.282   6.232   3.375
 1095SOL     OW 4183   0.200   2.340   5.664
 1095SOL    HW1 4184   0.280   2.348   5.724
 1095SOL    HW2 4185   0.194   2.421   5.606
 1096SOL     OW 4186   3.346   4.538   1.664
 1096SOL    HW1 4187   3.398   4.589   1.733
 1096SOL    HW2 4188   3.380   4.444   1.659
 1097SOL     OW 4189   1.669   3.951   4.136
 1097SOL    HW1 4190   1.642   3.918   4.227
 1097SOL    HW2 4191   1.757   3.998   4.142
 1098SOL     OW 4192   5.436   3.287   0.742
 1098SOL    HW1 4193   5.395   3.377   0.733
 1098SOL    HW2 4194   5.408   3.229   0.666
 1099SOL     OW 4195   3.615   1.621   5.126
 1099SOL    HW1 4196   3.702   1.661   5.097
 1099SOL    HW2 4197   3.597   1.539   5.072
 1100SOL     OW 4198   2.960   1.876   6.951
 1100SOL    HW1 4199   2.938   1.886   0.027
 1100SOL    HW2 4200   2.886   1.826   6.905
 1101SOL     OW 4201   6.317   2.461   0.088
 1101SOL    HW1 4202   6.340   2.366   0.063
 1101SOL    HW2 4203   6.400   2.517   0.082
 1102SOL     OW 4204   0.846   5.989   3.773
 1102SOL    HW1 4205   0.810   6.021   3.685
 1102SOL    HW2 4206   0.812   5.897   3.791
 1103SOL     OW 4207   2.892   1.427   0.480
 1103SOL    HW1 4208   2.920   1.510   0.432
 1103SOL    HW2 4209   2.865   1.357   0.414
 1104SOL     OW 4210   2.256   3.464   5.367
 1104SOL    HW1 4211   2.202   3.537   5.409
 1104SOL    HW2 4212   2.341   3.503   5.330
 1105SOL     OW 4213   5.692   3.544   4.829
 1105SOL    HW1 4214   5.631   3.597   4.888
 1105SOL    HW2 4215   5.676   3.570   4.734
 1106SOL     OW 4216   0.559   2.148   0.173
 1106SOL    HW1 4217   0.475   2.177   0.218
 1106SOL    HW2 4218   0.563   2.188   0.081
 1107SOL     OW 4219   1.650   0.660   6.424
 1107SOL    HW1 4220   1.706   0.578   6.428
 1107SOL    HW2 4221   1.566   0.646   6.476
 1108SOL     OW 4222   2.994   0.459   6.034
 1108SOL    HW1 4223   3.071   0.523   6.034
 1108SOL    HW2 4224   2.958   0.449   5.941
 1109SOL     OW 4225   4.228   6.426   4.992
 1109SOL    HW1 4226   4.248   6.444   5.088
 1109SOL    HW2 4227   4.147   6.478   4.964
 1110SOL     OW 4228   2.619   1.390   2.868
 1110SOL    HW1 4229   2.578   1.479   2.887
 1110SOL    HW2 4230   2.672   1.360   2.948
 1111SOL     OW 4231   5.389   5.254   0.088
 1111SOL    HW1 4232   5.423   5.290   0.175
 1111SOL    HW2 4233   5.460   5.264   0.019
 1112SOL     OW 4234   6.220   0.872   2.464
 1112SOL    HW1 4235   6.186   0.840   2.375
 1112SOL    HW2 4236   6.152   0.930   2.507
 1113SOL     OW 4237   0.457   3.591   3.026
 1113SOL    HW1 4238   0.515   3.613   3.105
 1113SOL    HW2 4239   0.451   3.670   2.966
 1114SOL     OW 4240   4.496   1.464   6.344
 1114SOL    HW1 4241   4.470   1.476   6.440
 1114SOL    HW2 4242   4.582   1.414   6.338
 1115SOL     OW 4243   4.103   3.092   0.157
 1115SOL    HW1 4244   4.018   3.087   0.104
 1115SOL    HW2 4245   4.104   3.176   0.211
 1116SOL     OW 4246   5.274   5.742   5.215
 1116SOL    HW1 4247   5.314   5.832   5.227
 1116SOL    HW2 4248   5.275   5.718   5.118
 1117SOL     OW 4249   2.011   2.939   1.355
 1117SOL    HW1 4250   1.928   2.994   1.343
 1117SOL    HW2 4251   2.012   2.899   1.446
 1118SOL     OW 4252   2.250   4.430   1.442
 1118SOL    HW1 4253   2.203   4.348   1.476
 1118SOL    HW2 4254   2.266   4.494   1.517
 1119SOL     OW 4255   4.690   4.435   1.181
 1119SOL    HW1 4256   4.655   4.499   1.249
 1119SOL    HW2 4257   4.617   4.372   1.155
 1120SOL     OW 4258   5.578   6.659   5.428
 1120SOL    HW1 4259   5.538   6.695   5.512
 1120SOL    HW2 4260   5.506   6.644   5.361
 1121SOL     OW 4261   5.526   4.585   2.575
 1121SOL    HW1 4262   5.514   4.684   2.570
 1121SOL    HW2 4263   5.618   4.565   2.609
 1122SOL     OW 4264   4.527   2.707   6.347
 1122SOL    HW1 4265   4.461   2.631   6.349
 1122SOL    HW2 4266   4.520   2.755   6.260
 1123SOL     OW 4267   5.345   1.595   2.931
 1123SOL    HW1 4268   5.289   1.517   2.900
 1123SOL    HW2 4269   5.379   1.577   3.023
 1124SOL     OW 4270   5.858   4.184   5.337
 1124SOL    HW1 4271   5.879   4.089   5.361
 1124SOL    HW2 4272   5.938   4.226   5.294
 1125SOL     OW 4273   2.834   1.645   5.347
 1125SOL    HW1 4274   2.773   1.617   5.272
 1125SOL    HW2 4275   2.868   1.737   5.329
 1126SOL     OW 4276   5.333   6.671   0.766
 1126SOL    HW1 4277   5.368   6.666   0.860
 1126SOL    HW2 4278   5.377   6.747   0.719
 1127SOL     OW 4279   4.573   5.431   5.296
 1127SOL    HW1 4280   4.558   5.429   5.197
 1127SOL    HW2 4281   4.485   5.435   5.343
 1128SOL     OW 4282   5.759   2.358   5.191
 1128SOL    HW1 4283   5.707   2.432   5.234
 1128SOL    HW2 4284   5.696   2.284   5.166
 1129SOL     OW 4285   3.412   0.416   6.672
 1129SOL    HW1 4286   3.328   0.469   6.657
 1129SOL    HW2 4287   3.403   0.362   6.755
 1130SOL     OW 4288   1.835   4.535   1.117
 1130SOL    HW1 4289   1.804   4.499   1.029
 1130SOL    HW2 4290   1.821   4.466   1.188
 1131SOL     OW 4291   0.386   6.271   5.961
 1131SOL    HW1 4292   0.484   6.275   5.978
 1131SOL    HW2 4293   0.357   6.175   5.960
 1132SOL     OW 4294   5.371   0.245   0.546
 1132SOL    HW1 4295   5.352   0.181   0.620
 1132SOL    HW2 4296   5.332   0.335   0.570
 1133SOL     OW 4297   1.060   1.539   0.611
 1133SOL    HW1 4298   0.984   1.601   0.628
 1133SOL    HW2 4299   1.108   1.566   0.528
 1134SOL     OW 4300   5.004   1.638   1.343
 1134SOL    HW1 4301   4.921   1.692   1.353
 1134SOL    HW2 4302   5.027   1.629   1.246
 1135SOL     OW 4303   2.402   1.189   2.336
 1135SOL    HW1 4304   2.398   1.136   2.251
 1135SOL    HW2 4305   2.347   1.144   2.406
 1136SOL     OW 4306   3.711   5.329   4.827
 1136SOL    HW1 4307   3.665   5.390   4.891
 1136SOL    HW2 4308   3.689   5.355   4.733
 1137SOL     OW 4309   1.376   1.946   6.639
 1137SOL    HW1 4310   1.450   1.981   6.581
 1137SOL    HW2 4311   1.414   1.915   6.726
 1138SOL     OW 4312   0.116   1.414   6.331
 1138SOL    HW1 4313   0.169   1.361   6.266
 1138SOL    HW2 4314   0.030   1.443   6.289
 1139SOL     OW 4315   3.073   5.846   1.284
 1139SOL    HW1 4316   3.110   5.753   1.280
 1139SOL    HW2 4317   3.081   5.889   1.195
 1140SOL     OW 4318   3.460   1.096   1.758
 1140SOL    HW1 4319   3.536   1.114   1.820
 1140SOL    HW2 4320   3.425   1.182   1.722
 1141SOL     OW 4321   6.633   6.539   6.911
 1141SOL    HW1 4322   6.682   6.502   6.832
 1141SOL    HW2 4323   6.699   6.578   6.976
 1142SOL     OW 4324   3.747   0.689   3.984
 1142SOL    HW1 4325   3.784   0.614   4.039
 1142SOL    HW2 4326   3.795   0.774   4.008
 1143SOL     OW 4327   2.193   3.054   2.293
 1143SOL    HW1 4328   2.174   3.128   2.229
 1143SOL    HW2 4329   2.226   3.092   2.379
 1144SOL     OW 4330   6.320   4.470   5.392
 1144SOL    HW1 4331   6.384   4.546   5.380
 1144SOL    HW2 4332   6.363   4.386   5.361
 1145SOL     OW 4333   0.475   4.523   2.187
 1145SOL    HW1 4334   0.424   4.606   2.163
 1145SOL    HW2 4335   0.526   4.539   2.272
 1146SOL     OW 4336   5.723   0.904   1.679
 1146SOL    HW1 4337   5.700   0.845   1.756
 1146SOL    HW2 4338   5.798   0.965   1.704
 1147SOL     OW 4339   1.822   4.491   0.808
 1147SOL    HW1 4340   1.785   4.570   0.857
 1147SOL    HW2 4341   1.753   4.454   0.747
 1148SOL     OW 4342   4.591   7.005   6.605
 1148SOL    HW1 4343   4.668   6.968   6.656
 1148SOL    HW2 4344   4.506   6.965   6.638
 1149SOL     OW 4345   6.446   4.019   3.275
 1149SOL    HW1 4346   6.385   4.034   3.198
 1149SOL    HW2 4347   6.517   3.954   3.250
 1150SOL     OW 4348   2.862   4.350   1.032
 1150SOL    HW1 4349   2.843   4.251   1.029
 1150SOL    HW2 4350   2.960   4.365   1.042
 1151SOL     OW 4351   4.742   5.366   0.031
 1151SOL    HW1 4352   4.798   5.303   6.998
 1151SOL    HW2 4353   4.655   5.322   0.054
 1152SOL     OW 4354   0.530   5.672   5.607
 1152SOL    HW1 4355   0.566   5.584   5.641
 1152SOL    HW2 4356   0.555   5.683   5.511
 1153SOL     OW 4357   1.982   6.903   2.444
 1153SOL    HW1 4358   2.035   6.822   2.417
 1153SOL    HW2 4359   1.913   6.923   2.374
 1154SOL     OW 4360   0.586   3.850   1.858
 1154SOL    HW1 4361   0.660   3.909   1.891
 1154SOL    HW2 4362   0.517   3.841   1.929
 1155SOL     OW 4363   2.946   4.789   0.032
 1155SOL    HW1 4364   3.027   4.775   0.089
 1155SOL    HW2 4365   2.867   4.746   0.075
 1156SOL     OW 4366   1.812   0.824   4.965
 1156SOL    HW1 4367   1.860   0.873   5.038
 1156SOL    HW2 4368   1.879   0.786   4.901
 1157SOL     OW 4369   6.489   1.255   5.042
 1157SOL    HW1 4370   6.448   1.166   5.060
 1157SOL    HW2 4371   6.445   1.325   5.100
 1158SOL     OW 4372   0.317   5.609   5.800
 1158SOL    HW1 4373   0.275   5.535   5.747
 1158SOL    HW2 4374   0.376   5.663   5.740
 1159SOL     OW 4375   4.968   0.069   3.377
 1159SOL    HW1 4376   4.928   0.111   3.459
 1159SOL    HW2 4377   5.050   0.019   3.402
 1160SOL     OW 4378   3.714   3.412   1.618
 1160SOL    HW1 4379   3.650   3.367   1.557
 1160SOL    HW2 4380   3.674   3.418   1.710
 1161SOL     OW 4381   4.982   0.481   6.056
 1161SOL    HW1 4382   4.996   0.570   6.099
 1161SOL    HW2 4383   5.033   0.477   5.970
 1162SOL     OW 4384   3.519   1.911   0.118
 1162SOL    HW1 4385   3.603   1.899   0.172
 1162SOL    HW2 4386   3.540   1.964   0.036
 1163SOL     OW 4387   6.507   3.321   1.733
 1163SOL    HW1 4388   6.419   3.274   1.732
 1163SOL    HW2 4389   6.577   3.260   1.769
 1164SOL     OW 4390   5.601   2.673   4.567
 1164SOL    HW1 4391   5.555   2.628   4.491
 1164SOL    HW2 4392   5.693   2.701   4.539
 1165SOL     OW 4393   1.841   4.488   4.535
 1165SOL    HW1 4394   1.939   4.482   4.518
 1165SOL    HW2 4395   1.797   4.403   4.506
 1166SOL     OW 4396   3.613   0.536   0.412
 1166SOL    HW1 4397   3.541   0.603   0.395
 1166SOL    HW2 4398   3.659   0.557   0.498
 1167SOL     OW 4399   3.693   6.845   6.693
 1167SOL    HW1 4400   3.708   6.937   6.657
 1167SOL    HW2 4401   3.777   6.812   6.737
 1168SOL     OW 4402   6.759   1.045   3.608
 1168SOL    HW1 4403   6.773   0.950   3.635
 1168SOL    HW2 4404   6.843   1.080   3.565
 1169SOL     OW 4405   5.936   3.427   6.528
 1169SOL    HW1 4406   5.887   3.452   6.444
 1169SOL    HW2 4407   5.990   3.344   6.511
 1170SOL     OW 4408   4.879   1.000   2.063
 1170SOL    HW1 4409   4.976   0.985   2.050
 1170SOL    HW2 4410   4.838   1.034   1.978
 1171SOL     OW 4411   2.801   6.665   6.672
 1171SOL    HW1 4412   2.873   6.711   6.620
 1171SOL    HW2 4413   2.721   6.724   6.678
 1172SOL     OW 4414   3.271   4.030   2.257
 1172SOL    HW1 4415   3.219   4.008   2.340
 1172SOL    HW2 4416   3.207   4.050   2.183
 1173SOL     OW 4417   3.331   6.877   5.658
 1173SOL    HW1 4418   3.240   6.841   5.637
 1173SOL    HW2 4419   3.324   6.950   5.726
 1174SOL     OW 4420   3.306   4.299   0.343
 1174SOL    HW1 4421   3.317   4.227   0.275
 1174SOL    HW2 4422   3.376   4.370   0.328
 1175SOL     OW 4423   4.281   2.972   6.782
 1175SOL    HW1 4424   4.185   2.999   6.796
 1175SOL    HW2 4425   4.284   2.875   6.756
 1176SOL     OW 4426   5.343   4.618   1.164
 1176SOL    HW1 4427   5.438   4.587   1.157
 1176SOL    HW2 4428   5.302   4.582   1.248
 1177SOL     OW 4429   6.851   1.799   5.837
 1177SOL    HW1 4430   6.916   1.762   5.903
 1177SOL    HW2 4431   6.831   1.894   5.858
 1178SOL     OW 4432   3.867   2.828   1.302
 1178SOL    HW1 4433   3.926   2.852   1.379
 1178SOL    HW2 4434   3.772   2.851   1.324
 1179SOL     OW 4435   3.017   5.609   0.117
 1179SOL    HW1 4436   3.091   5.657   0.165
 1179SOL    HW2 4437   2.969   5.550   0.181
 1180SOL     OW 4438   2.344   6.476   4.012
 1180SOL    HW1 4439   2.430   6.521   4.034
 1180SOL    HW2 4440   2.353   6.428   3.925
 1181SOL     OW 4441   6.602   2.853   4.864
 1181SOL    HW1 4442   6.697   2.852   4.832
 1181SOL    HW2 4443   6.573   2.948   4.878
 1182SOL     OW 4444   2.558   5.206   3.396
 1182SOL    HW1 4445   2.604   5.261   3.465
 1182SOL    HW2 4446   2.460   5.204   3.415
 1183SOL     OW 4447   3.913   6.408   1.276
 1183SOL    HW1 4448   3.851   6.473   1.319
 1183SOL    HW2 4449   3.875   6.380   1.187
 1184SOL     OW 4450   4.527   0.951   5.953
 1184SOL    HW1 4451   4.495   1.007   5.876
 1184SOL    HW2 4452   4.459   0.955   6.026
 1185SOL     OW 4453   1.759   6.888   0.646
 1185SOL    HW1 4454   1.747   6.986   0.660
 1185SOL    HW2 4455   1.830   6.871   0.577
 1186SOL     OW 4456   6.332   6.060   6.277
 1186SOL    HW1 4457   6.304   6.128   6.344
 1186SOL    HW2 4458   6.282   5.974   6.293
 1187SOL     OW 4459   5.351   6.678   5.610
 1187SOL    HW1 4460   5.350   6.604   5.543
 1187SOL    HW2 4461   5.380   6.642   5.699
 1188SOL     OW 4462   3.275   5.619   6.628
 1188SOL    HW1 4463   3.318   5.529   6.613
 1188SOL    HW2 4464   3.316   5.686   6.566
 1189SOL     OW 4465   5.468   0.620   2.192
 1189SOL    HW1 4466   5.374   0.650   2.172
 1189SOL    HW2 4467   5.532   0.674   2.138
 1190SOL     OW 4468   3.896   4.903   4.211
 1190SOL    HW1 4469   3.876   4.864   4.121
 1190SOL    HW2 4470   3.864   4.998   4.214
 1191SOL     OW 4471   3.896   6.578   4.800
 1191SOL    HW1 4472   3.943   6.582   4.888
 1191SOL    HW2 4473   3.940   6.640   4.735
 1192SOL     OW 4474   5.167   5.888   2.925
 1192SOL    HW1 4475   5.117   5.974   2.926
 1192SOL    HW2 4476   5.121   5.824   2.862
 1193SOL     OW 4477   0.165   0.286   5.390
 1193SOL    HW1 4478   0.260   0.309   5.412
 1193SOL    HW2 4479   0.158   0.264   5.293
 1194SOL     OW 4480   6.533   1.462   0.717
 1194SOL    HW1 4481   6.616   1.500   0.758
 1194SOL    HW2 4482   6.453   1.508   0.756
 1195SOL     OW 4483   6.075   3.226   1.147
 1195SOL    HW1 4484   5.993   3.251   1.096
 1195SOL    HW2 4485   6.149   3.289   1.124
 1196SOL     OW 4486   6.727   4.785   1.983
 1196SOL    HW1 4487   6.643   4.734   1.966
 1196SOL    HW2 4488   6.803   4.744   1.932
 1197SOL     OW 4489   4.301   6.583   4.605
 1197SOL    HW1 4490   4.307   6.668   4.552
 1197SOL    HW2 4491   4.310   6.605   4.703
 1198SOL     OW 4492   1.640   2.711   2.736
 1198SOL    HW1 4493   1.704   2.673   2.802
 1198SOL    HW2 4494   1.550   2.720   2.779
 1199SOL     OW 4495   3.867   3.004   3.439
 1199SOL    HW1 4496   3.938   3.007   3.369
 1199SOL    HW2 4497   3.903   3.040   3.525
 1200SOL     OW 4498   3.867   4.167   4.900
 1200SOL    HW1 4499   3.891   4.125   4.812
 1200SOL    HW2 4500   3.900   4.261   4.903
 1201SOL     OW 4501   0.277   1.349   4.473
 1201SOL    HW1 4502   0.234   1.367   4.561
 1201SOL    HW2 4503   0.214   1.298   4.414
 1202SOL     OW 4504   6.078   1.173   5.953
 1202SOL    HW1 4505   6.122   1.206   6.037
 1202SOL    HW2 4506   6.052   1.252   5.897
 1203SOL     OW 4507   6.556   6.480   1.154
 1203SOL    HW1 4508   6.520   6.543   1.223
 1203SOL    HW2 4509   6.560   6.387   1.192
 1204SOL     OW 4510   4.234   1.619   1.463
 1204SOL    HW1 4511   4.171   1.571   1.524
 1204SOL    HW2 4512   4.306   1.557   1.434
 1205SOL     OW 4513   4.375   3.213   6.743
 1205SOL    HW1 4514   4.349   3.120   6.772
 1205SOL    HW2 4515   4.293   3.270   6.741
 1206SOL     OW 4516   1.107   2.483   4.739
 1206SOL    HW1 4517   1.187   2.530   4.703
 1206SOL    HW2 4518   1.096   2.505   4.836
 1207SOL     OW 4519   0.652   6.614   6.851
 1207SOL    HW1 4520   0.709   6.537   6.824
 1207SOL    HW2 4521   0.556   6.587   6.846
 1208SOL     OW 4522   3.063   3.827   2.238
 1208SOL    HW1 4523   3.159   3.800   2.231
 1208SOL    HW2 4524   3.004   3.749   2.218
 1209SOL     OW 4525   5.269   0.381   4.430
 1209SOL    HW1 4526   5.325   0.360   4.350
 1209SOL    HW2 4527   5.326   0.423   4.500
 1210SOL     OW 4528   4.324   6.905   3.802
 1210SOL    HW1 4529   4.360   6.812   3.814
 1210SOL    HW2 4530   4.266   6.929   3.879
 1211SOL     OW 4531   0.984   3.189   3.635
 1211SOL    HW1 4532   1.051   3.144   3.576
 1211SOL    HW2 4533   0.979   3.286   3.612
 1212SOL     OW 4534   0.082   1.317   5.658
 1212SOL    HW1 4535   0.107   1.229   5.617
 1212SOL    HW2 4536   7.005   1.333   5.643
 1213SOL     OW 4537   5.831   3.028   3.397
 1213SOL    HW1 4538   5.784   2.962   3.455
 1213SOL    HW2 4539   5.848   2.988   3.307
 1214SOL     OW 4540   0.911   2.405   5.292
 1214SOL    HW1 4541   1.010   2.395   5.306
 1214SOL    HW2 4542   0.887   2.502   5.292
 1215SOL     OW 4543   1.906   5.262   1.957
 1215SOL    HW1 4544   2.004   5.276   1.944
 1215SOL    HW2 4545   1.867   5.337   2.010
 1216SOL     OW 4546   0.238   0.965   0.454
 1216SOL    HW1 4547   0.139   0.951   0.457
 1216SOL    HW2 4548   0.263   1.040   0.515
 1217SOL     OW 4549   3.480   5.739   0.991
 1217SOL    HW1 4550   3.496   5.678   1.068
 1217SOL    HW2 4551   3.482   5.686   0.906
 1218SOL     OW 4552   0.892   3.872   5.808
 1218SOL    HW1 4553   0.806   3.838   5.771
 1218SOL    HW2 4554   0.969   3.830   5.760
 1219SOL     OW 4555   5.202   5.312   2.157
 1219SOL    HW1 4556   5.108   5.280   2.155
 1219SOL    HW2 4557   5.206   5.404   2.194
 1220SOL     OW 4558   6.513   4.131   2.639
 1220SOL    HW1 4559   6.413   4.138   2.648
 1220SOL    HW2 4560   6.554   4.140   2.730
 1221SOL     OW 4561   5.656   4.007   6.021
 1221SOL    HW1 4562   5.653   3.922   6.073
 1221SOL    HW2 4563   5.743   4.012   5.971
 1222SOL     OW 4564   0.594   0.421   6.986
 1222SOL    HW1 4565   0.528   0.492   7.011
 1222SOL    HW2 4566   0.552   0.331   6.996
 1223SOL     OW 4567   4.028   1.478   0.751
 1223SOL    HW1 4568   3.980   1.392   0.740
 1223SOL    HW2 4569   3.966   1.546   0.791
 1224SOL     OW 4570   2.864   5.608   6.914
 1224SOL    HW1 4571   2.916   5.650   6.839
 1224SOL    HW2 4572   2.917   5.613   6.998
 1225SOL     OW 4573   3.670   2.532   0.931
 1225SOL    HW1 4574   3.658   2.535   1.031
 1225SOL    HW2 4575   3.633   2.616   0.891
 1226SOL     OW 4576   4.968   6.278   0.889
 1226SOL    HW1 4577   4.898   6.207   0.881
 1226SOL    HW2 4578   5.056   6.243   0.856
 1227SOL     OW 4579   5.601   5.222   6.936
 1227SOL    HW1 4580   5.641   5.314   6.939
 1227SOL    HW2 4581   5.641   5.170   6.861
 1228SOL     OW 4582   3.713   2.788   0.733
 1228SOL    HW1 4583   3.624   2.804   0.775
 1228SOL    HW2 4584   3.780   2.766   0.804
 1229SOL     OW 4585   2.134   5.920   1.191
 1229SOL    HW1 4586   2.168   6.000   1.239
 1229SOL    HW2 4587   2.141   5.840   1.251
 1230SOL     OW 4588   5.618   5.447   2.679
 1230SOL    HW1 4589   5.688   5.428   2.748
 1230SOL    HW2 4590   5.595   5.362   2.631
 1231SOL     OW 4591   1.236   1.820   5.682
 1231SOL    HW1 4592   1.305   1.757   5.719
 1231SOL    HW2 4593   1.185   1.775   5.609
 1232SOL     OW 4594   5.897   1.224   5.168
 1232SOL    HW1 4595   5.909   1.299   5.233
 1232SOL    HW2 4596   5.945   1.245   5.083
 1233SOL     OW 4597   0.456   5.788   4.401
 1233SOL    HW1 4598   0.370   5.785   4.452
 1233SOL    HW2 4599   0.448   5.850   4.324
 1234SOL     OW 4600   6.258   2.635   5.415
 1234SOL    HW1 4601   6.353   2.652   5.441
 1234SOL    HW2 4602   6.244   2.664   5.320
 1235SOL     OW 4603   6.173   4.517   0.962
 1235SOL    HW1 4604   6.163   4.608   0.920
 1235SOL    HW2 4605   6.247   4.520   1.029
 1236SOL     OW 4606   4.000   1.339   1.924
 1236SOL    HW1 4607   4.029   1.248   1.893
 1236SOL    HW2 4608   3.911   1.360   1.884
 1237SOL     OW 4609   1.388   5.425   4.952
 1237SOL    HW1 4610   1.315   5.426   5.021
 1237SOL    HW2 4611   1.434   5.336   4.955
 1238SOL     OW 4612   0.800   0.383   4.910
 1238SOL    HW1 4613   0.847   0.467   4.883
 1238SOL    HW2 4614   0.702   0.393   4.892
 1239SOL     OW 4615   6.345   6.665   5.871
 1239SOL    HW1 4616   6.422   6.655   5.935
 1239SOL    HW2 4617   6.333   6.762   5.850
 1240SOL     OW 4618   6.140   5.338   2.318
 1240SOL    HW1 4619   6.096   5.325   2.230
 1240SOL    HW2 4620   6.199   5.259   2.338
 1241SOL     OW 4621   6.264   4.512   4.941
 1241SOL    HW1 4622   6.183   4.536   4.993
 1241SOL    HW2 4623   6.259   4.554   4.850
 1242SOL     OW 4624   2.116   3.303   0.668
 1242SOL    HW1 4625   2.189   3.371   0.659
 1242SOL    HW2 4626   2.043   3.323   0.603
 1243SOL     OW 4627   6.785   1.466   4.670
 1243SOL    HW1 4628   6.860   1.504   4.616
 1243SOL    HW2 4629   6.713   1.536   4.681
 1244SOL     OW 4630   4.861   6.502   4.831
 1244SOL    HW1 4631   4.789   6.541   4.889
 1244SOL    HW2 4632   4.831   6.414   4.795
 1245SOL     OW 4633   5.653   4.746   0.647
 1245SOL    HW1 4634   5.633   4.708   0.556
 1245SOL    HW2 4635   5.645   4.846   0.643
 1246SOL     OW 4636   3.459   1.073   2.165
 1246SOL    HW1 4637   3.391   1.006   2.137
 1246SOL    HW2 4638   3.545   1.055   2.117
 1247SOL     OW 4639   5.606   0.204   5.487
 1247SOL    HW1 4640   5.605   0.190   5.388
 1247SOL    HW2 4641   5.693   0.244   5.514
 1248SOL     OW 4642   1.008   6.395   3.891
 1248SOL    HW1 4643   0.999   6.318   3.828
 1248SOL    HW2 4644   1.073   6.461   3.853
 1249SOL     OW 4645   0.334   3.499   1.973
 1249SOL    HW1 4646   0.271   3.475   2.047
 1249SOL    HW2 4647   0.282   3.528   1.893
 1250SOL     OW 4648   6.183   4.133   3.792
 1250SOL    HW1 4649   6.258   4.076   3.758
 1250SOL    HW2 4650   6.096   4.086   3.777
 1251SOL     OW 4651   2.227   0.920   2.794
 1251SOL    HW1 4652   2.157   0.933   2.723
 1251SOL    HW2 4653   2.221   0.826   2.829
 1252SOL     OW 4654   3.499   4.660   6.410
 1252SOL    HW1 4655   3.547   4.600   6.474
 1252SOL    HW2 4656   3.457   4.605   6.338
 1253SOL     OW 4657   2.439   0.504   2.492
 1253SOL    HW1 4658   2.422   0.410   2.462
 1253SOL    HW2 4659   2.472   0.503   2.586
 1254SOL     OW 4660   7.010   2.449   3.579
 1254SOL    HW1 4661   6.968   2.370   3.535
 1254SOL    HW2 4662   0.019   2.514   3.508
 1255SOL     OW 4663   5.905   2.681   6.024
 1255SOL    HW1 4664   5.877   2.587   6.045
 1255SOL    HW2 4665   5.846   2.719   5.953
 1256SOL     OW 4666   0.273   6.180   3.917
 1256SOL    HW1 4667   0.261   6.080   3.919
 1256SOL    HW2 4668   0.285   6.209   3.822
 1257SOL     OW 4669   6.606   5.048   4.397
 1257SOL    HW1 4670   6.619   5.107   4.318
 1257SOL    HW2 4671   6.605   5.104   4.480
 1258SOL     OW 4672   2.245   4.819   2.745
 1258SOL    HW1 4673   2.149   4.793   2.739
 1258SOL    HW2 4674   2.258   4.909   2.703
 1259SOL     OW 4675   3.378   6.205   5.210
 1259SOL    HW1 4676   3.470   6.217   5.174
 1259SOL    HW2 4677   3.336   6.295   5.225
 1260SOL     OW 4678   2.906   1.049   1.239
 1260SOL    HW1 4679   2.852   0.970   1.268
 1260SOL    HW2 4680   2.975   1.070   1.308
 1261SOL     OW 4681   0.346   4.515   6.888
 1261SOL    HW1 4682   0.420   4.578   6.912
 1261SOL    HW2 4683   0.318   4.464   6.970
 1262SOL     OW 4684   5.135   5.732   1.520
 1262SOL    HW1 4685   5.150   5.828   1.544
 1262SOL    HW2 4686   5.221   5.681   1.530
 1263SOL     OW 4687   6.748   1.356   1.511
 1263SOL    HW1 4688   6.747   1.426   1.582
 1263SOL    HW2 4689   6.798   1.391   1.431
 1264SOL     OW 4690   0.291   3.953   1.227
 1264SOL    HW1 4691   0.244   3.970   1.140
 1264SOL    HW2 4692   0.276   3.859   1.256
 1265SOL     OW 4693   6.517   5.391   3.752
 1265SOL    HW1 4694   6.420   5.414   3.741
 1265SOL    HW2 4695   6.554   5.361   3.665
 1266SOL     OW 4696   1.077   1.232   3.906
 1266SOL    HW1 4697   1.126   1.253   3.991
 1266SOL    HW2 4698   1.127   1.162   3.855
 1267SOL     OW 4699   5.573   6.709   1.188
 1267SOL    HW1 4700   5.635   6.772   1.236
 1267SOL    HW2 4701   5.616   6.678   1.104
 1268SOL     OW 4702   4.731   2.010   0.108
 1268SOL    HW1 4703   4.762   1.984   0.199
 1268SOL    HW2 4704   4.797   1.979   0.040
 1269SOL     OW 4705   5.987   6.399   5.674
 1269SOL    HW1 4706   5.948   6.490   5.660
 1269SOL    HW2 4707   6.014   6.388   5.769
 1270SOL     OW 4708   2.029   3.291   4.437
 1270SOL    HW1 4709   2.059   3.284   4.342
 1270SOL    HW2 4710   2.077   3.367   4.481
 1271SOL     OW 4711   3.410   1.702   3.475
 1271SOL    HW1 4712   3.399   1.751   3.389
 1271SOL    HW2 4713   3.322   1.693   3.521
 1272SOL     OW 4714   5.829   5.673   0.689
 1272SOL    HW1 4715   5.902   5.614   0.725
 1272SOL    HW2 4716   5.869   5.752   0.644
 1273SOL     OW 4717   0.901   4.291   0.252
 1273SOL    HW1 4718   0.993   4.278   0.213
 1273SOL    HW2 4719   0.876   4.387   0.248
 1274SOL     OW 4720   6.273   2.738   1.204
 1274SOL    HW1 4721   6.200   2.803   1.182
 1274SOL    HW2 4722   6.265   2.710   1.300
 1275SOL     OW 4723   3.635   0.463   4.173
 1275SOL    HW1 4724   3.592   0.376   4.149
 1275SOL    HW2 4725   3.681   0.454   4.262
 1276SOL     OW 4726   6.960   0.795   4.693
 1276SOL    HW1 4727   6.889   0.813   4.625
 1276SOL    HW2 4728   0.022   0.846   4.668
 1277SOL     OW 4729   1.028   6.876   5.605
 1277SOL    HW1 4730   1.058   6.781   5.616
 1277SOL    HW2 4731   1.102   6.929   5.564
 1278SOL     OW 4732   0.987   0.712   5.139
 1278SOL    HW1 4733   0.985   0.660   5.053
 1278SOL    HW2 4734   1.061   0.678   5.197
 1279SOL     OW 4735   3.522   5.058   0.000
 1279SOL    HW1 4736   3.498   5.104   0.086
 1279SOL    HW2 4737   3.456   4.985   7.003
 1280SOL     OW 4738   3.531   6.066   3.846
 1280SOL    HW1 4739   3.513   6.087   3.942
 1280SOL    HW2 4740   3.446   6.036   3.802
 1281SOL     OW 4741   1.547   5.596   2.735
 1281SOL    HW1 4742   1.467   5.539   2.750
 1281SOL    HW2 4743   1.563   5.653   2.816
 1282SOL     OW 4744   0.376   1.050   6.397
 1282SOL    HW1 4745   0.369   0.953   6.418
 1282SOL    HW2 4746   0.472   1.075   6.383
 1283SOL     OW 4747   5.329   3.040   5.228
 1283SOL    HW1 4748   5.425   3.015   5.214
 1283SOL    HW2 4749   5.319   3.140   5.224
 1284SOL     OW 4750   4.358   1.942   2.178
 1284SOL    HW1 4751   4.300   2.000   2.120
 1284SOL    HW2 4752   4.429   1.998   2.221
 1285SOL     OW 4753   4.771   3.240   6.565
 1285SOL    HW1 4754   4.779   3.157   6.510
 1285SOL    HW2 4755   4.727   3.218   6.652
 1286SOL     OW 4756   4.920   3.420   2.210
 1286SOL    HW1 4757   4.923   3.328   2.172
 1286SOL    HW2 4758   4.983   3.427   2.287
 1287SOL     OW 4759   4.710   4.092   5.571
 1287SOL    HW1 4760   4.795   4.084   5.519
 1287SOL    HW2 4761   4.682   4.001   5.602
 1288SOL     OW 4762   5.718   3.288   0.265
 1288SOL    HW1 4763   5.633   3.238   0.281
 1288SOL    HW2 4764   5.794   3.238   0.309
 1289SOL     OW 4765   0.656   5.947   1.432
 1289SOL    HW1 4766   0.730   6.012   1.417
 1289SOL    HW2 4767   0.693   5.858   1.458
 1290SOL     OW 4768   0.983   0.380   6.791
 1290SOL    HW1 4769   0.926   0.449   6.836
 1290SOL    HW2 4770   0.929   0.298   6.774
 1291SOL     OW 4771   0.026   3.770   5.565
 1291SOL    HW1 4772   0.069   3.738   5.650
 1291SOL    HW2 4773   6.977   3.839   5.587
 1292SOL     OW 4774   6.883   6.191   2.639
 1292SOL    HW1 4775   6.933   6.195   2.726
 1292SOL    HW2 4776   6.785   6.185   2.657
 1293SOL     OW 4777   1.265   1.349   6.738
 1293SOL    HW1 4778   1.311   1.415   6.679
 1293SOL    HW2 4779   1.167   1.369   6.740
 1294SOL     OW 4780   1.940   3.676   7.015
 1294SOL    HW1 4781   1.930   3.755   0.053
 1294SOL    HW2 4782   1.902   3.696   6.925
 1295SOL     OW 4783   0.204   3.666   3.084
 1295SOL    HW1 4784   0.297   3.649   3.116
 1295SOL    HW2 4785   0.164   3.581   3.051
 1296SOL     OW 4786   3.546   0.423   5.849
 1296SOL    HW1 4787   3.601   0.506   5.858
 1296SOL    HW2 4788   3.525   0.387   5.940
 1297SOL     OW 4789   6.093   0.778   0.280
 1297SOL    HW1 4790   6.032   0.824   0.344
 1297SOL    HW2 4791   6.049   0.771   0.191
 1298SOL     OW 4792   6.826   4.594   2.829
 1298SOL    HW1 4793   6.891   4.521   2.810
 1298SOL    HW2 4794   6.826   4.614   2.927
 1299SOL     OW 4795   0.365   3.940   3.242
 1299SOL    HW1 4796   0.350   4.024   3.190
 1299SOL    HW2 4797   0.452   3.899   3.216
 1300SOL     OW 4798   3.510   3.669   1.951
 1300SOL    HW1 4799   3.463   3.703   1.870
 1300SOL    HW2 4800   3.568   3.591   1.926
 1301SOL     OW 4801   0.277   5.549   2.287
 1301SOL    HW1 4802   0.190   5.513   2.254
 1301SOL    HW2 4803   0.268   5.648   2.303
 1302SOL     OW 4804   3.643   0.006   5.446
 1302SOL    HW1 4805   3.725   0.053   5.414
 1302SOL    HW2 4806   3.604   6.973   5.371
 1303SOL     OW 4807   4.675   1.652   1.576
 1303SOL    HW1 4808   4.674   1.657   1.676
 1303SOL    HW2 4809   4.585   1.680   1.541
 1304SOL     OW 4810   0.811   0.990   6.626
 1304SOL    HW1 4811   0.719   1.028   6.620
 1304SOL    HW2 4812   0.806   0.892   6.646
 1305SOL     OW 4813   4.894   3.056   0.156
 1305SOL    HW1 4814   4.888   3.094   0.249
 1305SOL    HW2 4815   4.816   3.088   0.102
 1306SOL     OW 4816   0.954   4.279   5.416
 1306SOL    HW1 4817   0.917   4.261   5.507
 1306SOL    HW2 4818   1.018   4.356   5.421
 1307SOL     OW 4819   1.190   3.195   5.199
 1307SOL    HW1 4820   1.222   3.260   5.130
 1307SOL    HW2 4821   1.145   3.243   5.273
 1308SOL     OW 4822   4.289   5.767   5.398
 1308SOL    HW1 4823   4.329   5.789   5.486
 1308SOL    HW2 4824   4.350   5.795   5.324
 1309SOL     OW 4825   5.084   2.908   5.345
 1309SOL    HW1 4826   5.171   2.932   5.302
 1309SOL    HW2 4827   5.083   2.811   5.369
 1310SOL     OW 4828   0.306   4.244   5.001
 1310SOL    HW1 4829   0.375   4.201   5.058
 1310SOL    HW2 4830   0.235   4.178   4.979
 1311SOL     OW 4831   0.279   0.363   4.294
 1311SOL    HW1 4832   0.207   0.294   4.308
 1311SOL    HW2 4833   0.320   0.386   4.383
 1312SOL     OW 4834   0.880   0.340   6.467
 1312SOL    HW1 4835   0.858   0.252   6.426
 1312SOL    HW2 4836   0.979   0.354   6.467
 1313SOL     OW 4837   1.660   4.304   4.204
 1313SOL    HW1 4838   1.744   4.252   4.188
 1313SOL    HW2 4839   1.589   4.272   4.141
 1314SOL     OW 4840   3.897   1.617   5.732
 1314SOL    HW1 4841   3.806   1.641   5.767
 1314SOL    HW2 4842   3.888   1.565   5.648
 1315SOL     OW 4843   0.647   0.588   0.373
 1315SOL    HW1 4844   0.721   0.565   0.437
 1315SOL    HW2 4845   0.685   0.636   0.294
 1316SOL     OW 4846   2.216   6.546   4.347
 1316SOL    HW1 4847   2.134   6.520   4.397
 1316SOL    HW2 4848   2.192   6.600   4.266
 1317SOL     OW 4849   1.362   4.153   4.365
 1317SOL    HW1 4850   1.332   4.225   4.303
 1317SOL    HW2 4851   1.359   4.186   4.459
 1318SOL     OW 4852   0.564   1.059   0.731
 1318SOL    HW1 4853   0.577   0.961   0.716
 1318SOL    HW2 4854   0.643   1.109   0.696
 1319SOL     OW 4855   0.140   0.778   0.072
 1319SOL    HW1 4856   0.188   0.840   0.010
 1319SOL    HW2 4857   0.044   0.805   0.079
 1320SOL     OW 4858   5.446   4.264   0.529
 1320SOL    HW1 4859   5.428   4.305   0.619
 1320SOL    HW2 4860   5.525   4.203   0.536
 1321SOL     OW 4861   4.436   2.359   5.599
 1321SOL    HW1 4862   4.473   2.352   5.692
 1321SOL    HW2 4863   4.467   2.445   5.558
 1322SOL     OW 4864   4.092   0.475   3.982
 1322SOL    HW1 4865   4.187   0.471   4.011
 1322SOL    HW2 4866   4.048   0.388   4.000
 1323SOL     OW 4867   5.438   1.880   4.841
 1323SOL    HW1 4868   5.352   1.833   4.821
 1323SOL    HW2 4869   5.484   1.901   4.755
 1324SOL     OW 4870   0.892   2.778   0.092
 1324SOL    HW1 4871   0.885   2.688   0.135
 1324SOL    HW2 4872   0.949   2.837   0.150
 1325SOL     OW 4873   1.567   6.850   2.451
 1325SOL    HW1 4874   1.586   6.880   2.544
 1325SOL    HW2 4875   1.569   6.929   2.390
 1326SOL     OW 4876   4.628   2.793   4.997
 1326SOL    HW1 4877   4.726   2.807   4.980
 1326SOL    HW2 4878   4.588   2.743   4.920
 1327SOL     OW 4879   1.757   4.617   1.899
 1327SOL    HW1 4880   1.721   4.534   1.855
 1327SOL    HW2 4881   1.805   4.592   1.982
 1328SOL     OW 4882   1.595   2.972   1.233
 1328SOL    HW1 4883   1.615   2.987   1.330
 1328SOL    HW2 4884   1.513   3.024   1.208
 1329SOL     OW 4885   1.386   2.603   0.971
 1329SOL    HW1 4886   1.323   2.652   1.030
 1329SOL    HW2 4887   1.449   2.667   0.927
 1330SOL     OW 4888   6.805   0.914   1.878
 1330SOL    HW1 4889   6.897   0.886   1.905
 1330SOL    HW2 4890   6.799   0.920   1.778
 1331SOL     OW 4891   4.951   2.228   3.503
 1331SOL    HW1 4892   5.022   2.180   3.451
 1331SOL    HW2 4893   4.981   2.238   3.599
 1332SOL     OW 4894   3.069   6.735   0.490
 1332SOL    HW1 4895   3.100   6.729   0.395
 1332SOL    HW2 4896   2.972   6.709   0.495
 1333SOL     OW 4897   3.331   3.033   5.711
 1333SOL    HW1 4898   3.240   3.075   5.722
 1333SOL    HW2 4899   3.354   2.982   5.794
 1334SOL     OW 4900   6.695   2.648   4.614
 1334SOL    HW1 4901   6.627   2.710   4.576
 1334SOL    HW2 4902   6.774   2.700   4.648
 1335SOL     OW 4903   2.728   0.938   3.463
 1335SOL    HW1 4904   2.782   0.923   3.380
 1335SOL    HW2 4905   2.715   0.851   3.510
 1336SOL     OW 4906   2.154   1.113   6.459
 1336SOL    HW1 4907   2.090   1.042   6.431
 1336SOL    HW2 4908   2.129   1.146   6.550
 1337SOL     OW 4909   1.487   1.125   5.059
 1337SOL    HW1 4910   1.527   1.184   5.129
 1337SOL    HW2 4911   1.401   1.086   5.094
 1338SOL     OW 4912   5.681   2.785   6.269
 1338SOL    HW1 4913   5.727   2.696   6.264
 1338SOL    HW2 4914   5.648   2.810   6.178
 1339SOL     OW 4915   0.431   0.599   0.037
 1339SOL    HW1 4916   0.361   0.576   0.104
 1339SOL    HW2 4917   0.390   0.651   6.983
 1340SOL     OW 4918   0.768   1.677   2.080
 1340SOL    HW1 4919   0.857   1.705   2.046
 1340SOL    HW2 4920   0.721   1.623   2.009
 1341SOL     OW 4921   4.811   0.990   5.945
 1341SOL    HW1 4922   4.785   1.047   5.867
 1341SOL    HW2 4923   4.733   0.932   5.970
 1342SOL     OW 4924   1.326   4.924   6.339
 1342SOL    HW1 4925   1.281   4.842   6.304
 1342SOL    HW2 4926   1.423   4.906   6.354
 1343SOL     OW 4927   4.448   6.002   2.394
 1343SOL    HW1 4928   4.377   6.072   2.401
 1343SOL    HW2 4929   4.408   5.917   2.360
 1344SOL     OW 4930   6.831   4.913   4.135
 1344SOL    HW1 4931   6.923   4.899   4.099
 1344SOL    HW2 4932   6.836   4.926   4.234
 1345SOL     OW 4933   1.823   1.480   3.283
 1345SOL    HW1 4934   1.858   1.450   3.194
 1345SOL    HW2 4935   1.771   1.406   3.325
 1346SOL     OW 4936   0.836   6.603   3.810
 1346SOL    HW1 4937   0.902   6.527   3.818
 1346SOL    HW2 4938   0.823   6.645   3.900
 1347SOL     OW 4939   6.311   6.426   4.136
 1347SOL    HW1 4940   6.229   6.425   4.079
 1347SOL    HW2 4941   6.389   6.460   4.082
 1348SOL     OW 4942   5.346   4.915   2.856
 1348SOL    HW1 4943   5.316   4.904   2.951
 1348SOL    HW2 4944   5.445   4.927   2.853
 1349SOL     OW 4945   4.904   2.074   6.667
 1349SOL    HW1 4946   4.974   2.037   6.729
 1349SOL    HW2 4947   4.865   2.000   6.612
 1350SOL     OW 4948   4.867   4.204   6.003
 1350SOL    HW1 4949   4.961   4.200   6.035
 1350SOL    HW2 4950   4.805   4.188   6.080
 1351SOL     OW 4951   6.595   2.165   2.548
 1351SOL    HW1 4952   6.495   2.170   2.555
 1351SOL    HW2 4953   6.631   2.250   2.511
 1352SOL     OW 4954   6.837   0.449   3.036
 1352SOL    HW1 4955   6.739   0.452   3.015
 1352SOL    HW2 4956   6.859   0.522   3.101
 1353SOL     OW 4957   6.440   4.564   6.243
 1353SOL    HW1 4958   6.434   4.656   6.281
 1353SOL    HW2 4959   6.488   4.567   6.155
 1354SOL     OW 4960   0.809   2.053   0.205
 1354SOL    HW1 4961   0.718   2.093   0.214
 1354SOL    HW2 4962   0.814   1.968   0.257
 1355SOL     OW 4963   6.808   2.498   5.482
 1355SOL    HW1 4964   6.905   2.490   5.504
 1355SOL    HW2 4965   6.797   2.553   5.399
 1356SOL     OW 4966   3.261   3.123   3.758
 1356SOL    HW1 4967   3.260   3.065   3.840
 1356SOL    HW2 4968   3.352   3.161   3.745
 1357SOL     OW 4969   1.896   4.344   5.925
 1357SOL    HW1 4970   1.892   4.282   5.847
 1357SOL    HW2 4971   1.823   4.323   5.989
 1358SOL     OW 4972   3.932   1.394   6.060
 1358SOL    HW1 4973   3.869   1.437   6.125
 1358SOL    HW2 4974   4.024   1.431   6.073
 1359SOL     OW 4975   6.736   4.821   1.661
 1359SOL    HW1 4976   6.665   4.792   1.724
 1359SOL    HW2 4977   6.823   4.780   1.688
 1360SOL     OW 4978   4.026   3.530   1.114
 1360SOL    HW1 4979   3.966   3.563   1.041
 1360SOL    HW2 4980   4.116   3.571   1.105
 1361SOL     OW 4981   0.285   6.010   5.568
 1361SOL    HW1 4982   0.197   5.987   5.611
 1361SOL    HW2 4983   0.326   5.926   5.531
 1362SOL     OW 4984   2.952   3.683   4.420
 1362SOL    HW1 4985   3.000   3.715   4.502
 1362SOL    HW2 4986   2.876   3.745   4.400
 1363SOL     OW 4987   6.525   5.927   3.987
 1363SOL    HW1 4988   6.545   5.839   3.944
 1363SOL    HW2 4989   6.595   5.949   4.054
 1364SOL     OW 4990   0.117   2.575   0.217
 1364SOL    HW1 4991   0.169   2.600   0.136
 1364SOL    HW2 4992   0.160   2.617   0.298
 1365SOL     OW 4993   1.048   2.968   5.231
 1365SOL    HW1 4994   1.099   3.054   5.237
 1365SOL    HW2 4995   1.077   2.907   5.305
 1366SOL     OW 4996   1.265   4.297   0.480
 1366SOL    HW1 4997   1.364   4.284   0.469
 1366SOL    HW2 4998   1.235   4.249   0.562
 1367SOL     OW 4999   1.734   5.475   2.604
 1367SOL    HW1 5000   1.674   5.445   2.530
 1367SOL    HW2 5001   1.681   5.528   2.670
 1368SOL     OW 5002   6.969   0.065   3.525
 1368SOL    HW1 5003   0.031   0.016   3.553
 1368SOL    HW2 5004   6.993   0.135   3.457
 1369SOL     OW 5005   1.853   0.223   2.423
 1369SOL    HW1 5006   1.864   0.322   2.431
 1369SOL    HW2 5007   1.860   0.181   2.514
 1370SOL     OW 5008   4.671   1.738   3.528
 1370SOL    HW1 5009   4.571   1.729   3.539
 1370SOL    HW2 5010   4.697   1.834   3.539
 1371SOL     OW 5011   5.688   1.157   4.251
 1371SOL    HW1 5012   5.634   1.130   4.172
 1371SOL    HW2 5013   5.785   1.155   4.228
 1372SOL     OW 5014   1.236   2.048   0.871
 1372SOL    HW1 5015   1.157   2.103   0.845
 1372SOL    HW2 5016   1.298   2.104   0.927
 1373SOL     OW 5017   4.363   2.344   0.487
 1373SOL    HW1 5018   4.399   2.280   0.555
 1373SOL    HW2 5019   4.439   2.387   0.439
 1374SOL     OW 5020   4.211   1.980   1.013
 1374SOL    HW1 5021   4.116   1.983   0.982
 1374SOL    HW2 5022   4.268   1.937   0.942
 1375SOL     OW 5023   0.160   6.671   5.944
 1375SOL    HW1 5024   0.166   6.596   6.010
 1375SOL    HW2 5025   0.065   6.681   5.913
 1376SOL     OW 5026   4.529   4.752   5.147
 1376SOL    HW1 5027   4.555   4.791   5.058
 1376SOL    HW2 5028   4.609   4.707   5.187
 1377SOL     OW 5029   1.022   3.496   4.105
 1377SOL    HW1 5030   0.981   3.451   4.184
 1377SOL    HW2 5031   0.967   3.479   4.023
 1378SOL     OW 5032   5.830   2.396   4.428
 1378SOL    HW1 5033   5.853   2.396   4.526
 1378SOL    HW2 5034   5.914   2.390   4.374
 1379SOL     OW 5035   4.423   6.059   3.418
 1379SOL    HW1 5036   4.334   6.088   3.384
 1379SOL    HW2 5037   4.425   6.066   3.518
 1380SOL     OW 5038   0.649   6.611   3.238
 1380SOL    HW1 5039   0.676   6.543   3.306
 1380SOL    HW2 5040   0.720   6.618   3.168
 1381SOL     OW 5041   5.815   1.887   0.634
 1381SOL    HW1 5042   5.811   1.974   0.683
 1381SOL    HW2 5043   5.835   1.904   0.537
 1382SOL     OW 5044   5.818   3.436   1.165
 1382SOL    HW1 5045   5.892   3.479   1.114
 1382SOL    HW2 5046   5.849   3.413   1.257
 1383SOL     OW 5047   0.746   0.793   1.977
 1383SOL    HW1 5048   0.755   0.771   2.074
 1383SOL    HW2 5049   0.730   0.891   1.967
 1384SOL     OW 5050   4.401   0.769   1.569
 1384SOL    HW1 5051   4.355   0.769   1.480
 1384SOL    HW2 5052   4.500   0.766   1.555
 1385SOL     OW 5053   2.809   4.662   3.345
 1385SOL    HW1 5054   2.896   4.635   3.386
 1385SOL    HW2 5055   2.825   4.726   3.270
 1386SOL     OW 5056   3.010   1.128   4.223
 1386SOL    HW1 5057   3.000   1.033   4.193
 1386SOL    HW2 5058   3.107   1.147   4.239
 1387SOL     OW 5059   3.983   5.158   2.527
 1387SOL    HW1 5060   3.925   5.080   2.548
 1387SOL    HW2 5061   4.028   5.190   2.610
 1388SOL     OW 5062   0.012   0.571   2.808
 1388SOL    HW1 5063   0.111   0.578   2.814
 1388SOL    HW2 5064   7.005   0.475   2.816
 1389SOL     OW 5065   6.508   0.999   3.939
 1389SOL    HW1 5066   6.509   1.077   3.877
 1389SOL    HW2 5067   6.455   1.021   4.020
 1390SOL     OW 5068   6.585   2.669   6.072
 1390SOL    HW1 5069   6.568   2.620   5.987
 1390SOL    HW2 5070   6.663   2.731   6.060
 1391SOL     OW 5071   6.086   6.609   4.915
 1391SOL    HW1 5072   6.029   6.529   4.898
 1391SOL    HW2 5073   6.182   6.587   4.898
 1392SOL     OW 5074   6.186   6.697   5.654
 1392SOL    HW1 5075   6.225   6.789   5.664
 1392SOL    HW2 5076   6.217   6.639   5.729
 1393SOL     OW 5077   6.930   4.122   6.164
 1393SOL    HW1 5078   6.858   4.075   6.112
 1393SOL    HW2 5079   6.898   4.213   6.191
 1394SOL     OW 5080   3.714   5.479   5.705
 1394SOL    HW1 5081   3.711   5.543   5.782
 1394SOL    HW2 5082   3.771   5.517   5.632
 1395SOL     OW 5083   1.954   4.886   4.884
 1395SOL    HW1 5084   1.990   4.805   4.838
 1395SOL    HW2 5085   1.907   4.859   4.968
 1396SOL     OW 5086   0.365   1.652   5.094
 1396SOL    HW1 5087   0.406   1.725   5.040
 1396SOL    HW2 5088   0.374   1.565   5.044
 1397SOL     OW 5089   0.387   6.780   4.464
 1397SOL    HW1 5090   0.375   6.709   4.394
 1397SOL    HW2 5091   0.335   6.861   4.438
 1398SOL     OW 5092   2.867   0.980   6.415
 1398SOL    HW1 5093   2.820   0.897   6.384
 1398SOL    HW2 5094   2.961   0.980   6.382
 1399SOL     OW 5095   3.957   4.798   0.532
 1399SOL    HW1 5096   3.976   4.829   0.625
 1399SOL    HW2 5097   4.027   4.831   0.469
 1400SOL     OW 5098   0.474   1.550   4.096
 1400SOL    HW1 5099   0.555   1.603   4.122
 1400SOL    HW2 5100   0.459   1.477   4.163
 1401SOL     OW 5101   6.489   0.361   4.753
 1401SOL    HW1 5102   6.569   0.402   4.709
 1401SOL    HW2 5103   6.517   0.284   4.810
 1402SOL     OW 5104   5.257   3.611   6.641
 1402SOL    HW1 5105   5.350   3.576   6.635
 1402SOL    HW2 5106   5.238   3.669   6.562
 1403SOL     OW 5107   2.358   1.805   1.126
 1403SOL    HW1 5108   2.444   1.759   1.146
 1403SOL    HW2 5109   2.332   1.865   1.202
 1404SOL     OW 5110   6.466   0.393   6.763
 1404SOL    HW1 5111   6.403   0.367   6.837
 1404SOL    HW2 5112   6.486   0.490   6.770
 1405SOL     OW 5113   2.330   3.111   0.619
 1405SOL    HW1 5114   2.406   3.099   0.684
 1405SOL    HW2 5115   2.278   3.193   0.645
 1406SOL     OW 5116   0.873   5.585   0.627
 1406SOL    HW1 5117   0.827   5.553   0.710
 1406SOL    HW2 5118   0.807   5.632   0.568
 1407SOL     OW 5119   0.692   3.102   3.646
 1407SOL    HW1 5120   0.647   3.120   3.558
 1407SOL    HW2 5121   0.791   3.103   3.632
 1408SOL     OW 5122   5.397   1.429   5.346
 1408SOL    HW1 5123   5.328   1.473   5.288
 1408SOL    HW2 5124   5.458   1.374   5.290
 1409SOL     OW 5125   0.425   0.321   5.123
 1409SOL    HW1 5126   0.472   0.289   5.206
 1409SOL    HW2 5127   0.329   0.293   5.126
 1410SOL     OW 5128   1.643   4.671   6.756
 1410SOL    HW1 5129   1.568   4.638   6.699
 1410SOL    HW2 5130   1.654   4.610   6.835
 1411SOL     OW 5131   3.797   6.623   0.544
 1411SOL    HW1 5132   3.879   6.602   0.597
 1411SOL    HW2 5133   3.720   6.570   0.580
 1412SOL     OW 5134   0.964   2.611   1.096
 1412SOL    HW1 5135   0.953   2.702   1.056
 1412SOL    HW2 5136   1.061   2.598   1.120
 1413SOL     OW 5137   2.349   1.585   5.151
 1413SOL    HW1 5138   2.324   1.656   5.216
 1413SOL    HW2 5139   2.265   1.541   5.116
 1414SOL     OW 5140   2.400   2.011   1.812
 1414SOL    HW1 5141   2.477   2.015   1.748
 1414SOL    HW2 5142   2.430   2.043   1.901
 1415SOL     OW 5143   2.142   1.154   4.773
 1415SOL    HW1 5144   2.207   1.227   4.749
 1415SOL    HW2 5145   2.063   1.194   4.820
 1416SOL     OW 5146   4.216   5.127   4.481
 1416SOL    HW1 5147   4.261   5.151   4.567
 1416SOL    HW2 5148   4.116   5.130   4.494
 1417SOL     OW 5149   2.887   2.262   0.657
 1417SOL    HW1 5150   2.814   2.296   0.598
 1417SOL    HW2 5151   2.947   2.201   0.605
 1418SOL     OW 5152   3.145   3.508   2.445
 1418SOL    HW1 5153   3.147   3.477   2.540
 1418SOL    HW2 5154   3.051   3.530   2.419
 1419SOL     OW 5155   2.864   5.616   3.390
 1419SOL    HW1 5156   2.764   5.618   3.396
 1419SOL    HW2 5157   2.894   5.524   3.366
 1420SOL     OW 5158   2.140   6.426   2.133
 1420SOL    HW1 5159   2.166   6.345   2.186
 1420SOL    HW2 5160   2.217   6.490   2.130
 1421SOL     OW 5161   2.294   4.979   3.233
 1421SOL    HW1 5162   2.393   4.986   3.217
 1421SOL    HW2 5163   2.249   4.946   3.150
 1422SOL     OW 5164   1.399   4.105   6.571
 1422SOL    HW1 5165   1.482   4.144   6.612
 1422SOL    HW2 5166   1.420   4.063   6.483
 1423SOL     OW 5167   4.774   6.969   4.355
 1423SOL    HW1 5168   4.738   6.886   4.312
 1423SOL    HW2 5169   4.700   7.016   4.403
 1424SOL     OW 5170   6.879   3.900   0.087
 1424SOL    HW1 5171   6.865   3.989   0.043
 1424SOL    HW2 5172   6.804   3.883   0.151
 1425SOL     OW 5173   1.831   5.340   5.656
 1425SOL    HW1 5174   1.811   5.411   5.589
 1425SOL    HW2 5175   1.877   5.264   5.611
 1426SOL     OW 5176   2.537   2.959   6.505
 1426SOL    HW1 5177   2.581   2.950   6.594
 1426SOL    HW2 5178   2.482   3.042   6.503
 1427SOL     OW 5179   6.814   0.121   3.728
 1427SOL    HW1 5180   6.873   0.091   3.654
 1427SOL    HW2 5181   6.723   0.082   3.716
 1428SOL     OW 5182   0.564   1.854   0.110
 1428SOL    HW1 5183   0.622   1.866   0.029
 1428SOL    HW2 5184   0.564   1.938   0.164
 1429SOL     OW 5185   4.634   1.559   0.030
 1429SOL    HW1 5186   4.662   1.628   6.985
 1429SOL    HW2 5187   4.608   1.602   0.116
 1430SOL     OW 5188   1.792   5.209   3.882
 1430SOL    HW1 5189   1.864   5.273   3.908
 1430SOL    HW2 5190   1.703   5.254   3.888
 1431SOL     OW 5191   2.865   2.282   0.009
 1431SOL    HW1 5192   2.856   2.374   0.048
 1431SOL    HW2 5193   2.780   2.258   6.982
 1432SOL     OW 5194   2.589   1.705   1.618
 1432SOL    HW1 5195   2.561   1.770   1.547
 1432SOL    HW2 5196   2.653   1.749   1.680
 1433SOL     OW 5197   4.671   0.654   5.393
 1433SOL    HW1 5198   4.596   0.638   5.457
 1433SOL    HW2 5199   4.758   0.634   5.438
 1434SOL     OW 5200   1.392   0.224   5.579
 1434SOL    HW1 5201   1.343   0.179   5.505
 1434SOL    HW2 5202   1.327   0.260   5.646
 1435SOL     OW 5203   6.773   7.002   3.080
 1435SOL    HW1 5204   6.854   0.036   3.059
 1435SOL    HW2 5205   6.743   0.001   3.173
 1436SOL     OW 5206   5.038   3.438   6.345
 1436SOL    HW1 5207   4.949   3.448   6.300
 1436SOL    HW2 5208   5.108   3.486   6.291
 1437SOL     OW 5209   3.123   2.033   5.124
 1437SOL    HW1 5210   3.131   2.123   5.082
 1437SOL    HW2 5211   3.178   2.031   5.208
 1438SOL     OW 5212   2.527   6.740   1.801
 1438SOL    HW1 5213   2.528   6.641   1.786
 1438SOL    HW2 5214   2.605   6.766   1.858
 1439SOL     OW 5215   6.370   5.130   0.711
 1439SOL    HW1 5216   6.406   5.068   0.642
 1439SOL    HW2 5217   6.379   5.089   0.802
 1440SOL     OW 5218   3.017   3.103   6.328
 1440SOL    HW1 5219   2.952   3.176   6.305
 1440SOL    HW2 5220   3.078   3.087   6.251
 1441SOL     OW 5221   6.269   1.866   3.719
 1441SOL    HW1 5222   6.220   1.781   3.737
 1441SOL    HW2 5223   6.279   1.917   3.804
 1442SOL     OW 5224   6.739   5.345   6.771
 1442SOL    HW1 5225   6.720   5.420   6.709
 1442SOL    HW2 5226   6.678   5.352   6.851
 1443SOL     OW 5227   1.244   2.715   3.949
 1443SOL    HW1 5228   1.184   2.794   3.964
 1443SOL    HW2 5229   1.213   2.664   3.868
 1444SOL     OW 5230   4.937   5.422   0.777
 1444SOL    HW1 5231   4.895   5.349   0.723
 1444SOL    HW2 5232   5.020   5.454   0.731
 1445SOL     OW 5233   0.282   3.662   2.808
 1445SOL    HW1 5234   0.325   3.742   2.767
 1445SOL    HW2 5235   0.268   3.678   2.905
 1446SOL     OW 5236   5.105   2.436   0.428
 1446SOL    HW1 5237   5.018   2.388   0.420
 1446SOL    HW2 5238   5.115   2.471   0.521
 1447SOL     OW 5239   6.155   6.763   5.284
 1447SOL    HW1 5240   6.134   6.672   5.320
 1447SOL    HW2 5241   6.095   6.830   5.328
 1448SOL     OW 5242   7.003   2.003   5.523
 1448SOL    HW1 5243   6.987   2.029   5.619
 1448SOL    HW2 5244   6.987   1.905   5.512
 1449SOL     OW 5245   0.639   0.961   6.951
 1449SOL    HW1 5246   0.669   1.023   0.003
 1449SOL    HW2 5247   0.671   0.995   6.863
 1450SOL     OW 5248   0.570   2.114   1.182
 1450SOL    HW1 5249   0.661   2.123   1.224
 1450SOL    HW2 5250   0.559   2.022   1.146
 1451SOL     OW 5251   1.804   0.045   1.962
 1451SOL    HW1 5252   1.765   0.102   2.034
 1451SOL    HW2 5253   1.805   6.970   1.992
 1452SOL     OW 5254   4.660   0.923   4.294
 1452SOL    HW1 5255   4.684   0.882   4.206
 1452SOL    HW2 5256   4.565   0.951   4.293
 1453SOL     OW 5257   0.129   4.236   5.361
 1453SOL    HW1 5258   0.086   4.178   5.431
 1453SOL    HW2 5259   0.227   4.243   5.380
 1454SOL     OW 5260   0.380   3.228   2.207
 1454SOL    HW1 5261   0.292   3.276   2.211
 1454SOL    HW2 5262   0.366   3.131   2.230
 1455SOL     OW 5263   1.084   1.303   1.300
 1455SOL    HW1 5264   1.125   1.296   1.210
 1455SOL    HW2 5265   1.125   1.235   1.361
 1456SOL     OW 5266   6.646   6.452   5.162
 1456SOL    HW1 5267   6.551   6.483   5.161
 1456SOL    HW2 5268   6.692   6.488   5.243
 1457SOL     OW 5269   1.309   6.740   1.386
 1457SOL    HW1 5270   1.283   6.679   1.311
 1457SOL    HW2 5271   1.277   6.702   1.473
 1458SOL     OW 5272   5.754   5.825   3.816
 1458SOL    HW1 5273   5.814   5.771   3.875
 1458SOL    HW2 5274   5.808   5.872   3.747
 1459SOL     OW 5275   2.774   5.612   5.742
 1459SOL    HW1 5276   2.842   5.624   5.669
 1459SOL    HW2 5277   2.820   5.587   5.827
 1460SOL     OW 5278   0.733   6.064   4.972
 1460SOL    HW1 5279   0.737   5.964   4.974
 1460SOL    HW2 5280   0.790   6.098   4.896
 1461SOL     OW 5281   6.692   4.969   3.074
 1461SOL    HW1 5282   6.757   5.021   3.018
 1461SOL    HW2 5283   6.607   4.957   3.024
 1462SOL     OW 5284   1.635   0.025   6.720
 1462SOL    HW1 5285   1.681   6.976   6.664
 1462SOL    HW2 5286   1.538   0.001   6.729
 1463SOL     OW 5287   6.840   5.580   6.473
 1463SOL    HW1 5288   6.842   5.667   6.423
 1463SOL    HW2 5289   6.921   5.574   6.531
 1464SOL     OW 5290   0.360   6.797   1.343
 1464SOL    HW1 5291   0.272   6.802   1.296
 1464SOL    HW2 5292   0.431   6.768   1.278
 1465SOL     OW 5293   1.589   1.187   2.997
 1465SOL    HW1 5294   1.677   1.187   2.951
 1465SOL    HW2 5295   1.582   1.106   3.056
 1466SOL     OW 5296   1.852   2.240   2.024
 1466SOL    HW1 5297   1.768   2.252   1.971
 1466SOL    HW2 5298   1.829   2.226   2.120
 1467SOL     OW 5299   2.090   1.241   2.918
 1467SOL    HW1 5300   2.131   1.254   2.828
 1467SOL    HW2 5301   2.142   1.172   2.969
 1468SOL     OW 5302   4.080   6.472   1.923
 1468SOL    HW1 5303   4.116   6.559   1.957
 1468SOL    HW2 5304   4.005   6.489   1.859
 1469SOL     OW 5305   1.007   1.671   1.677
 1469SOL    HW1 5306   0.928   1.728   1.701
 1469SOL    HW2 5307   0.989   1.625   1.590
 1470SOL     OW 5308   0.971   2.164   2.560
 1470SOL    HW1 5309   0.927   2.161   2.470
 1470SOL    HW2 5310   0.925   2.231   2.618
 1471SOL     OW 5311   0.556   0.251   1.105
 1471SOL    HW1 5312   0.537   0.155   1.085
 1471SOL    HW2 5313   0.654   0.263   1.123
 1472SOL     OW 5314   3.760   5.214   5.848
 1472SOL    HW1 5315   3.828   5.235   5.918
 1472SOL    HW2 5316   3.736   5.298   5.799
 1473SOL     OW 5317   4.257   6.119   5.330
 1473SOL    HW1 5318   4.296   6.077   5.248
 1473SOL    HW2 5319   4.317   6.102   5.408
 1474SOL     OW 5320   5.552   5.436   2.371
 1474SOL    HW1 5321   5.541   5.353   2.426
 1474SOL    HW2 5322   5.643   5.475   2.386
 1475SOL     OW 5323   6.078   0.500   2.182
 1475SOL    HW1 5324   6.101   0.468   2.274
 1475SOL    HW2 5325   6.122   0.441   2.114
 1476SOL     OW 5326   3.075   0.798   1.016
 1476SOL    HW1 5327   3.008   0.816   0.944
 1476SOL    HW2 5328   3.111   0.705   1.005
 1477SOL     OW 5329   3.739   0.123   6.044
 1477SOL    HW1 5330   3.650   0.104   6.087
 1477SOL    HW2 5331   3.724   0.162   5.953
 1478SOL     OW 5332   6.040   5.620   6.398
 1478SOL    HW1 5333   6.002   5.547   6.455
 1478SOL    HW2 5334   6.044   5.705   6.451
 1479SOL     OW 5335   1.397   2.270   0.529
 1479SOL    HW1 5336   1.444   2.310   0.608
 1479SOL    HW2 5337   1.383   2.173   0.544
 1480SOL     OW 5338   3.160   0.759   5.144
 1480SOL    HW1 5339   3.176   0.807   5.058
 1480SOL    HW2 5340   3.243   0.759   5.199
 1481SOL     OW 5341   6.510   2.867   5.742
 1481SOL    HW1 5342   6.542   2.811   5.819
 1481SOL    HW2 5343   6.417   2.840   5.719
 1482SOL     OW 5344   4.788   1.820   1.390
 1482SOL    HW1 5345   4.809   1.912   1.425
 1482SOL    HW2 5346   4.738   1.769   1.460
 1483SOL     OW 5347   5.278   2.005   0.050
 1483SOL    HW1 5348   5.306   1.912   0.023
 1483SOL    HW2 5349   5.306   2.069   7.000
 1484SOL     OW 5350   5.226   4.237   4.865
 1484SOL    HW1 5351   5.183   4.289   4.939
 1484SOL    HW2 5352   5.155   4.200   4.805
 1485SOL     OW 5353   3.702   1.720   3.418
 1485SOL    HW1 5354   3.684   1.763   3.330
 1485SOL    HW2 5355   3.615   1.698   3.463
 1486SOL     OW 5356   4.947   1.578   2.345
 1486SOL    HW1 5357   4.968   1.538   2.256
 1486SOL    HW2 5358   4.941   1.506   2.414
 1487SOL     OW 5359   6.978   2.352   6.255
 1487SOL    HW1 5360   6.907   2.407   6.211
 1487SOL    HW2 5361   6.974   2.364   6.354
 1488SOL     OW 5362   5.220   1.165   3.656
 1488SOL    HW1 5363   5.245   1.112   3.574
 1488SOL    HW2 5364   5.296   1.162   3.721
 1489SOL     OW 5365   4.755   4.936   5.344
 1489SOL    HW1 5366   4.693   5.003   5.303
 1489SOL    HW2 5367   4.812   4.895   5.273
 1490SOL     OW 5368   0.446   3.109   2.557
 1490SOL    HW1 5369   0.495   3.032   2.515
 1490SOL    HW2 5370   0.479   3.195   2.517
 1491SOL     OW 5371   6.615   3.874   2.629
 1491SOL    HW1 5372   6.633   3.886   2.531
 1491SOL    HW2 5373   6.553   3.946   2.660
 1492SOL     OW 5374   5.732   1.070   2.796
 1492SOL    HW1 5375   5.721   1.149   2.735
 1492SOL    HW2 5376   5.815   1.081   2.851
 1493SOL     OW 5377   3.904   6.496   5.345
 1493SOL    HW1 5378   3.851   6.570   5.304
 1493SOL    HW2 5379   3.973   6.534   5.406
 1494SOL     OW 5380   4.986   1.960   6.980
 1494SOL    HW1 5381   5.077   1.992   7.005
 1494SOL    HW2 5382   4.987   1.861   6.968
 1495SOL     OW 5383   6.251   3.538   5.314
 1495SOL    HW1 5384   6.335   3.579   5.349
 1495SOL    HW2 5385   6.258   3.528   5.215
 1496SOL     OW 5386   0.503   1.635   1.323
 1496SOL    HW1 5387   0.534   1.546   1.289
 1496SOL    HW2 5388   0.416   1.659   1.279
 1497SOL     OW 5389   6.356   3.109   2.842
 1497SOL    HW1 5390   6.429   3.046   2.818
 1497SOL    HW2 5391   6.365   3.193   2.787
 1498SOL     OW 5392   2.568   5.220   6.898
 1498SOL    HW1 5393   2.591   5.307   6.854
 1498SOL    HW2 5394   2.574   5.231   6.997
 1499SOL     OW 5395   0.763   2.898   6.130
 1499SOL    HW1 5396   0.663   2.901   6.137
 1499SOL    HW2 5397   0.793   2.807   6.101
 1500SOL     OW 5398   0.062   0.023   0.412
 1500SOL    HW1 5399   0.063   6.950   0.445
 1500SOL    HW2 5400   6.990   0.050   0.388
 1501SOL     OW 5401   5.348   2.489   6.631
 1501SOL    HW1 5402   5.448   2.481   6.623
 1501SOL    HW2 5403   5.326   2.530   6.720
 1502SOL     OW 5404   4.112   0.164   0.214
 1502SOL    HW1 5405   4.074   0.083   0.258
 1502SOL    HW2 5406   4.200   0.143   0.172
 1503SOL     OW 5407   0.494   4.040   1.668
 1503SOL    HW1 5408   0.531   4.130   1.648
 1503SOL    HW2 5409   0.552   3.994   1.736
 1504SOL     OW 5410   0.497   0.276   5.384
 1504SOL    HW1 5411   0.456   0.219   5.455
 1504SOL    HW2 5412   0.596   0.281   5.399
 1505SOL     OW 5413   5.157   0.853   5.051
 1505SOL    HW1 5414   5.192   0.888   4.964
 1505SOL    HW2 5415   5.076   0.798   5.035
 1506SOL     OW 5416   0.689   6.202   0.801
 1506SOL    HW1 5417   0.704   6.138   0.726
 1506SOL    HW2 5418   0.598   6.187   0.839
 1507SOL     OW 5419   1.006   1.996   5.690
 1507SOL    HW1 5420   1.097   1.956   5.688
 1507SOL    HW2 5421   0.961   1.981   5.602
 1508SOL     OW 5422   6.595   1.347   2.053
 1508SOL    HW1 5423   6.592   1.259   2.007
 1508SOL    HW2 5424   6.652   1.341   2.134
 1509SOL     OW 5425   3.671   1.656   5.867
 1509SOL    HW1 5426   3.674   1.687   5.962
 1509SOL    HW2 5427   3.583   1.613   5.849
 1510SOL     OW 5428   4.872   1.893   4.717
 1510SOL    HW1 5429   4.783   1.866   4.681
 1510SOL    HW2 5430   4.861   1.966   4.784
 1511SOL     OW 5431   3.859   2.913   2.228
 1511SOL    HW1 5432   3.828   2.860   2.149
 1511SOL    HW2 5433   3.824   2.871   2.312
 1512SOL     OW 5434   0.350   5.617   1.589
 1512SOL    HW1 5435   0.362   5.581   1.681
 1512SOL    HW2 5436   0.406   5.565   1.525
 1513SOL     OW 5437   3.761   0.781   4.346
 1513SOL    HW1 5438   3.665   0.762   4.327
 1513SOL    HW2 5439   3.786   0.740   4.434
 1514SOL     OW 5440   4.019   1.991   5.695
 1514SOL    HW1 5441   4.092   2.056   5.673
 1514SOL    HW2 5442   4.060   1.903   5.718
 1515SOL     OW 5443   5.941   2.158   3.080
 1515SOL    HW1 5444   5.955   2.078   3.139
 1515SOL    HW2 5445   5.942   2.130   2.985
 1516SOL     OW 5446   6.834   6.418   0.209
 1516SOL    HW1 5447   6.790   6.340   0.165
 1516SOL    HW2 5448   6.790   6.502   0.178
 1517SOL     OW 5449   4.513   6.146   3.149
 1517SOL    HW1 5450   4.550   6.066   3.196
 1517SOL    HW2 5451   4.574   6.173   3.074
 1518SOL     OW 5452   1.414   2.729   6.582
 1518SOL    HW1 5453   1.391   2.634   6.604
 1518SOL    HW2 5454   1.505   2.750   6.619
 1519SOL     OW 5455   6.978   5.298   1.478
 1519SOL    HW1 5456   6.958   5.229   1.409
 1519SOL    HW2 5457   6.894   5.322   1.526
 1520SOL     OW 5458   0.499   4.031   2.127
 1520SOL    HW1 5459   0.429   3.979   2.078
 1520SOL    HW2 5460   0.590   4.003   2.096
 1521SOL     OW 5461   1.889   4.148   6.401
 1521SOL    HW1 5462   1.861   4.063   6.446
 1521SOL    HW2 5463   1.905   4.131   6.304
 1522SOL     OW 5464   6.356   6.355   5.350
 1522SOL    HW1 5465   6.347   6.309   5.262
 1522SOL    HW2 5466   6.315   6.446   5.345
 1523SOL     OW 5467   4.864   5.978   1.090
 1523SOL    HW1 5468   4.856   6.032   1.173
 1523SOL    HW2 5469   4.924   5.900   1.106
 1524SOL     OW 5470   2.392   2.083   2.142
 1524SOL    HW1 5471   2.390   2.068   2.241
 1524SOL    HW2 5472   2.307   2.048   2.102
 1525SOL     OW 5473   6.991   2.592   7.010
 1525SOL    HW1 5474   6.997   2.496   6.981
 1525SOL    HW2 5475   7.017   2.599   0.085
 1526SOL     OW 5476   6.547   0.213   6.382
 1526SOL    HW1 5477   6.606   0.182   6.308
 1526SOL    HW2 5478   6.583   0.182   6.470
 1527SOL     OW 5479   4.101   0.551   5.293
 1527SOL    HW1 5480   4.184   0.600   5.265
 1527SOL    HW2 5481   4.117   0.507   5.381
 1528SOL     OW 5482   4.377   5.363   2.159
 1528SOL    HW1 5483   4.371   5.461   2.137
 1528SOL    HW2 5484   4.335   5.347   2.248
 1529SOL     OW 5485   3.521   0.530   6.965
 1529SOL    HW1 5486   3.614   0.560   6.948
 1529SOL    HW2 5487   3.484   0.580   0.023
 1530SOL     OW 5488   3.268   1.796   1.750
 1530SOL    HW1 5489   3.304   1.804   1.843
 1530SOL    HW2 5490   3.193   1.729   1.750
 1531SOL     OW 5491   4.614   0.899   5.307
 1531SOL    HW1 5492   4.663   0.932   5.226
 1531SOL    HW2 5493   4.651   0.811   5.334
 1532SOL     OW 5494   2.788   3.569   6.326
 1532SOL    HW1 5495   2.740   3.577   6.238
 1532SOL    HW2 5496   2.873   3.622   6.323
 1533SOL     OW 5497   5.729   4.040   6.920
 1533SOL    HW1 5498   5.720   3.942   6.903
 1533SOL    HW2 5499   5.641   4.085   6.904
 1534SOL     OW 5500   2.313   4.716   6.564
 1534SOL    HW1 5501   2.298   4.618   6.554
 1534SOL    HW2 5502   2.255   4.765   6.498
 1535SOL     OW 5503   4.835   6.444   3.855
 1535SOL    HW1 5504   4.899   6.391   3.912
 1535SOL    HW2 5505   4.862   6.437   3.759
 1536SOL     OW 5506   4.020   4.491   5.348
 1536SOL    HW1 5507   4.097   4.456   5.295
 1536SOL    HW2 5508   3.936   4.481   5.296
 1537SOL     OW 5509   4.416   6.744   3.399
 1537SOL    HW1 5510   4.380   6.705   3.314
 1537SOL    HW2 5511   4.345   6.799   3.443
 1538SOL     OW 5512   4.076   5.564   6.430
 1538SOL    HW1 5513   4.165   5.519   6.430
 1538SOL    HW2 5514   4.054   5.597   6.339
 1539SOL     OW 5515   4.316   3.885   1.686
 1539SOL    HW1 5516   4.327   3.983   1.670
 1539SOL    HW2 5517   4.388   3.835   1.637
 1540SOL     OW 5518   1.026   5.880   5.960
 1540SOL    HW1 5519   1.096   5.854   5.894
 1540SOL    HW2 5520   1.001   5.800   6.015
 1541SOL     OW 5521   4.023   3.141   3.254
 1541SOL    HW1 5522   4.058   3.234   3.265
 1541SOL    HW2 5523   4.026   3.116   3.157
 1542SOL     OW 5524   5.857   6.087   2.570
 1542SOL    HW1 5525   5.783   6.104   2.505
 1542SOL    HW2 5526   5.827   6.111   2.662
 1543SOL     OW 5527   3.733   4.662   5.322
 1543SOL    HW1 5528   3.747   4.563   5.309
 1543SOL    HW2 5529   3.695   4.679   5.413
 1544SOL     OW 5530   3.540   3.438   2.992
 1544SOL    HW1 5531   3.509   3.465   2.901
 1544SOL    HW2 5532   3.633   3.401   2.985
 1545SOL     OW 5533   4.745   1.020   3.870
 1545SOL    HW1 5534   4.832   0.987   3.832
 1545SOL    HW2 5535   4.743   1.120   3.868
 1546SOL     OW 5536   3.996   6.192   6.030
 1546SOL    HW1 5537   3.985   6.185   5.930
 1546SOL    HW2 5538   3.908   6.172   6.074
 1547SOL     OW 5539   1.294   3.539   2.886
 1547SOL    HW1 5540   1.263   3.480   2.960
 1547SOL    HW2 5541   1.306   3.485   2.803
 1548SOL     OW 5542   4.791   3.592   5.826
 1548SOL    HW1 5543   4.728   3.516   5.814
 1548SOL    HW2 5544   4.881   3.567   5.790
 1549SOL     OW 5545   4.777   1.393   2.523
 1549SOL    HW1 5546   4.753   1.315   2.580
 1549SOL    HW2 5547   4.767   1.368   2.426
 1550SOL     OW 5548   3.131   4.122   6.871
 1550SOL    HW1 5549   3.175   4.135   6.783
 1550SOL    HW2 5550   3.121   4.211   6.917
 1551SOL     OW 5551   1.795   4.800   6.199
 1551SOL    HW1 5552   1.851   4.830   6.276
 1551SOL    HW2 5553   1.843   4.731   6.146
 1552SOL     OW 5554   0.159   5.968   6.744
 1552SOL    HW1 5555   0.252   5.994   6.716
 1552SOL    HW2 5556   0.163   5.885   6.799
 1553SOL     OW 5557   0.226   1.572   5.563
 1553SOL    HW1 5558   0.184   1.516   5.636
 1553SOL    HW2 5559   0.249   1.513   5.486
 1554SOL     OW 5560   4.214   1.766   3.141
 1554SOL    HW1 5561   4.160   1.683   3.124
 1554SOL    HW2 5562   4.311   1.742   3.142
 1555SOL     OW 5563   5.381   2.178   6.863
 1555SOL    HW1 5564   5.455   2.165   6.797
 1555SOL    HW2 5565   5.298   2.206   6.814
 1556SOL     OW 5566   3.238   1.034   0.861
 1556SOL    HW1 5567   3.203   0.997   0.947
 1556SOL    HW2 5568   3.165   1.083   0.813
 1557SOL     OW 5569   1.927   0.890   6.172
 1557SOL    HW1 5570   1.849   0.947   6.147
 1557SOL    HW2 5571   2.008   0.920   6.122
 1558SOL     OW 5572   4.947   0.441   4.838
 1558SOL    HW1 5573   4.993   0.439   4.750
 1558SOL    HW2 5574   5.012   0.467   4.909
 1559SOL     OW 5575   0.110   2.668   6.781
 1559SOL    HW1 5576   0.073   2.658   6.873
 1559SOL    HW2 5577   0.084   2.757   6.744
 1560SOL     OW 5578   1.561   1.422   5.617
 1560SOL    HW1 5579   1.651   1.437   5.576
 1560SOL    HW2 5580   1.529   1.506   5.660
 1561SOL     OW 5581   6.077   6.383   4.598
 1561SOL    HW1 5582   6.168   6.342   4.592
 1561SOL    HW2 5583   6.019   6.345   4.527
 1562SOL     OW 5584   4.135   5.724   2.463
 1562SOL    HW1 5585   4.138   5.723   2.563
 1562SOL    HW2 5586   4.103   5.635   2.429
 1563SOL     OW 5587   1.973   0.414   6.231
 1563SOL    HW1 5588   1.879   0.411   6.265
 1563SOL    HW2 5589   1.975   0.387   6.135
 1564SOL     OW 5590   1.259   2.912   2.819
 1564SOL    HW1 5591   1.324   2.970   2.769
 1564SOL    HW2 5592   1.171   2.960   2.827
 1565SOL     OW 5593   4.296   4.852   4.849
 1565SOL    HW1 5594   4.309   4.951   4.836
 1565SOL    HW2 5595   4.210   4.824   4.805
 1566SOL     OW 5596   5.234   4.883   3.745
 1566SOL    HW1 5597   5.184   4.919   3.667
 1566SOL    HW2 5598   5.177   4.888   3.827
 1567SOL     OW 5599   5.921   5.523   0.154
 1567SOL    HW1 5600   5.864   5.605   0.154
 1567SOL    HW2 5601   5.874   5.451   0.206
 1568SOL     OW 5602   1.661   5.743   1.502
 1568SOL    HW1 5603   1.758   5.730   1.482
 1568SOL    HW2 5604   1.651   5.798   1.585
 1569SOL     OW 5605   3.842   6.281   3.492
 1569SOL    HW1 5606   3.778   6.267   3.567
 1569SOL    HW2 5607   3.871   6.193   3.456
 1570SOL     OW 5608   2.224   6.313   0.842
 1570SOL    HW1 5609   2.134   6.356   0.850
 1570SOL    HW2 5610   2.221   6.243   0.771
 1571SOL     OW 5611   5.947   1.719   1.998
 1571SOL    HW1 5612   5.924   1.766   2.084
 1571SOL    HW2 5613   6.045   1.731   1.980
 1572SOL     OW 5614   0.421   6.824   0.572
 1572SOL    HW1 5615   0.518   6.799   0.570
 1572SOL    HW2 5616   0.404   6.898   0.507
 1573SOL     OW 5617   6.043   3.588   1.996
 1573SOL    HW1 5618   6.106   3.527   2.045
 1573SOL    HW2 5619   6.041   3.677   2.041
 1574SOL     OW 5620   0.272   0.774   2.520
 1574SOL    HW1 5621   0.288   0.724   2.605
 1574SOL    HW2 5622   0.183   0.820   2.524
 1575SOL     OW 5623   3.119   2.083   0.739
 1575SOL    HW1 5624   3.171   2.164   0.714
 1575SOL    HW2 5625   3.055   2.105   0.812
 1576SOL     OW 5626   1.078   0.323   3.176
 1576SOL    HW1 5627   1.032   0.235   3.186
 1576SOL    HW2 5628   1.095   0.362   3.267
 1577SOL     OW 5629   2.540   0.603   4.948
 1577SOL    HW1 5630   2.480   0.642   4.878
 1577SOL    HW2 5631   2.633   0.638   4.935
 1578SOL     OW 5632   5.856   2.582   5.716
 1578SOL    HW1 5633   5.820   2.643   5.786
 1578SOL    HW2 5634   5.873   2.634   5.632
 1579SOL     OW 5635   0.897   1.794   2.367
 1579SOL    HW1 5636   0.815   1.818   2.315
 1579SOL    HW2 5637   0.950   1.726   2.316
 1580SOL     OW 5638   3.164   3.941   4.240
 1580SOL    HW1 5639   3.113   3.970   4.159
 1580SOL    HW2 5640   3.113   3.965   4.322
 1581SOL     OW 5641   0.123   4.042   4.936
 1581SOL    HW1 5642   0.158   3.974   4.872
 1581SOL    HW2 5643   0.036   4.079   4.902
 1582SOL     OW 5644   2.094   0.206   4.058
 1582SOL    HW1 5645   2.146   0.139   4.006
 1582SOL    HW2 5646   2.038   0.261   3.996
 1583SOL     OW 5647   1.289   4.630   3.260
 1583SOL    HW1 5648   1.329   4.698   3.321
 1583SOL    HW2 5649   1.360   4.593   3.199
 1584SOL     OW 5650   1.438   6.314   5.844
 1584SOL    HW1 5651   1.370   6.347   5.910
 1584SOL    HW2 5652   1.407   6.227   5.805
 1585SOL     OW 5653   5.669   1.291   3.456
 1585SOL    HW1 5654   5.633   1.372   3.503
 1585SOL    HW2 5655   5.596   1.226   3.439
 1586SOL     OW 5656   3.562   4.952   2.119
 1586SOL    HW1 5657   3.584   4.884   2.049
 1586SOL    HW2 5658   3.463   4.968   2.120
 1587SOL     OW 5659   3.007   5.439   6.224
 1587SOL    HW1 5660   2.968   5.380   6.295
 1587SOL    HW2 5661   3.106   5.425   6.221
 1588SOL     OW 5662   4.196   0.989   3.276
 1588SOL    HW1 5663   4.251   1.017   3.197
 1588SOL    HW2 5664   4.120   1.053   3.288
 1589SOL     OW 5665   5.800   3.467   1.486
 1589SOL    HW1 5666   5.707   3.480   1.452
 1589SOL    HW2 5667   5.862   3.530   1.441
 1590SOL     OW 5668   3.959   6.189   5.758
 1590SOL    HW1 5669   3.963   6.226   5.665
 1590SOL    HW2 5670   3.903   6.106   5.758
 1591SOL     OW 5671   6.762   5.025   2.636
 1591SOL    HW1 5672   6.756   5.032   2.537
 1591SOL    HW2 5673   6.858   5.025   2.664
 1592SOL     OW 5674   2.252   4.453   6.544
 1592SOL    HW1 5675   2.158   4.424   6.561
 1592SOL    HW2 5676   2.299   4.383   6.489
 1593SOL     OW 5677   1.377   6.076   4.758
 1593SOL    HW1 5678   1.384   6.111   4.665
 1593SOL    HW2 5679   1.378   5.976   4.756
 1594SOL     OW 5680   0.411   6.086   2.562
 1594SOL    HW1 5681   0.448   6.152   2.497
 1594SOL    HW2 5682   0.339   6.129   2.617
 1595SOL     OW 5683   1.374   5.523   0.612
 1595SOL    HW1 5684   1.374   5.476   0.700
 1595SOL    HW2 5685   1.281   5.523   0.574
 1596SOL     OW 5686   0.106   2.507   3.840
 1596SOL    HW1 5687   0.131   2.410   3.849
 1596SOL    HW2 5688   0.030   2.515   3.775
 1597SOL     OW 5689   1.898   6.406   0.378
 1597SOL    HW1 5690   1.956   6.404   0.460
 1597SOL    HW2 5691   1.842   6.489   0.380
 1598SOL     OW 5692   0.873   3.930   6.326
 1598SOL    HW1 5693   0.827   3.930   6.237
 1598SOL    HW2 5694   0.824   3.990   6.389
 1599SOL     OW 5695   4.987   4.576   5.277
 1599SOL    HW1 5696   5.021   4.482   5.281
 1599SOL    HW2 5697   5.050   4.637   5.324
 1600SOL     OW 5698   4.608   1.650   3.892
 1600SOL    HW1 5699   4.585   1.747   3.887
 1600SOL    HW2 5700   4.680   1.630   3.826
 1601SOL     OW 5701   0.062   4.583   4.748
 1601SOL    HW1 5702   0.144   4.527   4.751
 1601SOL    HW2 5703   0.010   4.571   4.832
 1602SOL     OW 5704   2.938   4.843   3.155
 1602SOL    HW1 5705   3.031   4.811   3.168
 1602SOL    HW2 5706   2.918   4.848   3.057
 1603SOL     OW 5707   0.589   6.255   2.438
 1603SOL    HW1 5708   0.689   6.266   2.439
 1603SOL    HW2 5709   0.554   6.282   2.349
 1604SOL     OW 5710   5.719   5.266   1.916
 1604SOL    HW1 5711   5.715   5.189   1.852
 1604SOL    HW2 5712   5.690   5.234   2.007
 1605SOL     OW 5713   6.949   6.203   1.328
 1605SOL    HW1 5714   0.022   6.197   1.294
 1605SOL    HW2 5715   6.886   6.170   1.258
 1606SOL     OW 5716   3.073   0.675   4.757
 1606SOL    HW1 5717   3.046   0.733   4.833
 1606SOL    HW2 5718   3.115   0.731   4.686
 1607SOL     OW 5719   4.336   0.999   1.112
 1607SOL    HW1 5720   4.318   0.996   1.013
 1607SOL    HW2 5721   4.318   1.092   1.145
 1608SOL     OW 5722   0.841   0.329   3.700
 1608SOL    HW1 5723   0.902   0.381   3.760
 1608SOL    HW2 5724   0.877   0.236   3.687
 1609SOL     OW 5725   3.660   0.111   0.522
 1609SOL    HW1 5726   3.613   0.134   0.436
 1609SOL    HW2 5727   3.724   0.036   0.506
 1610SOL     OW 5728   5.799   4.701   6.873
 1610SOL    HW1 5729   5.701   4.689   6.859
 1610SOL    HW2 5730   5.821   4.799   6.878
 1611SOL     OW 5731   2.213   3.667   1.108
 1611SOL    HW1 5732   2.126   3.716   1.104
 1611SOL    HW2 5733   2.229   3.635   1.202
 1612SOL     OW 5734   2.908   0.591   5.562
 1612SOL    HW1 5735   2.864   0.680   5.567
 1612SOL    HW2 5736   2.981   0.594   5.494
 1613SOL     OW 5737   2.178   5.304   1.877
 1613SOL    HW1 5738   2.180   5.308   1.777
 1613SOL    HW2 5739   2.175   5.209   1.907
 1614SOL     OW 5740   5.789   3.650   0.016
 1614SOL    HW1 5741   5.813   3.740   0.052
 1614SOL    HW2 5742   5.699   3.654   6.995
 1615SOL     OW 5743   6.316   5.004   0.979
 1615SOL    HW1 5744   6.285   4.980   1.071
 1615SOL    HW2 5745   6.270   4.946   0.912
 1616SOL     OW 5746   3.050   0.905   4.914
 1616SOL    HW1 5747   3.061   0.957   4.830
 1616SOL    HW2 5748   3.044   0.967   4.992
 1617SOL     OW 5749   6.141   0.395   2.646
 1617SOL    HW1 5750   6.165   0.299   2.636
 1617SOL    HW2 5751   6.075   0.405   2.720
 1618SOL     OW 5752   1.722   3.835   1.575
 1618SOL    HW1 5753   1.668   3.919   1.571
 1618SOL    HW2 5754   1.660   3.757   1.588
 1619SOL     OW 5755   1.258   2.947   2.471
 1619SOL    HW1 5756   1.207   2.862   2.460
 1619SOL    HW2 5757   1.198   3.025   2.456
 1620SOL     OW 5758   2.734   4.841   1.900
 1620SOL    HW1 5759   2.792   4.835   1.819
 1620SOL    HW2 5760   2.755   4.766   1.962
 1621SOL     OW 5761   0.289   1.174   0.647
 1621SOL    HW1 5762   0.360   1.148   0.712
 1621SOL    HW2 5763   0.314   1.260   0.602
 1622SOL     OW 5764   0.299   2.935   4.819
 1622SOL    HW1 5765   0.244   2.881   4.755
 1622SOL    HW2 5766   0.298   3.031   4.791
 1623SOL     OW 5767   2.154   3.459   5.658
 1623SOL    HW1 5768   2.121   3.379   5.607
 1623SOL    HW2 5769   2.093   3.537   5.640
 1624SOL     OW 5770   2.869   0.387   5.153
 1624SOL    HW1 5771   2.850   0.485   5.149
 1624SOL    HW2 5772   2.846   0.345   5.065
 1625SOL     OW 5773   1.107   5.279   1.543
 1625SOL    HW1 5774   1.104   5.200   1.481
 1625SOL    HW2 5775   1.035   5.344   1.518
 1626SOL     OW 5776   4.102   1.791   6.836
 1626SOL    HW1 5777   4.189   1.826   6.871
 1626SOL    HW2 5778   4.118   1.708   6.784
 1627SOL     OW 5779   0.112   3.421   3.764
 1627SOL    HW1 5780   0.180   3.386   3.828
 1627SOL    HW2 5781   0.020   3.403   3.799
 1628SOL     OW 5782   4.367   4.693   0.401
 1628SOL    HW1 5783   4.290   4.743   0.362
 1628SOL    HW2 5784   4.336   4.605   0.435
 1629SOL     OW 5785   2.651   0.753   4.009
 1629SOL    HW1 5786   2.624   0.799   3.925
 1629SOL    HW2 5787   2.572   0.705   4.048
 1630SOL     OW 5788   1.527   5.634   5.601
 1630SOL    HW1 5789   1.483   5.544   5.607
 1630SOL    HW2 5790   1.581   5.650   5.683
 1631SOL     OW 5791   0.853   2.532   6.335
 1631SOL    HW1 5792   0.919   2.486   6.275
 1631SOL    HW2 5793   0.763   2.532   6.291
 1632SOL     OW 5794   0.093   1.971   6.532
 1632SOL    HW1 5795   0.066   1.954   6.626
 1632SOL    HW2 5796   0.127   1.886   6.491
 1633SOL     OW 5797   5.360   3.182   4.691
 1633SOL    HW1 5798   5.290   3.229   4.745
 1633SOL    HW2 5799   5.415   3.249   4.641
 1634SOL     OW 5800   4.273   5.294   6.246
 1634SOL    HW1 5801   4.306   5.326   6.158
 1634SOL    HW2 5802   4.231   5.204   6.235
 1635SOL     OW 5803   6.778   5.826   5.784
 1635SOL    HW1 5804   6.858   5.877   5.816
 1635SOL    HW2 5805   6.698   5.886   5.785
 1636SOL     OW 5806   2.912   4.278   1.659
 1636SOL    HW1 5807   2.940   4.352   1.720
 1636SOL    HW2 5808   2.958   4.193   1.685
 1637SOL     OW 5809   0.908   0.383   2.615
 1637SOL    HW1 5810   0.912   0.326   2.698
 1637SOL    HW2 5811   0.912   0.480   2.641
 1638SOL     OW 5812   0.313   4.397   3.547
 1638SOL    HW1 5813   0.385   4.351   3.599
 1638SOL    HW2 5814   0.237   4.420   3.608
 1639SOL     OW 5815   4.745   6.962   2.916
 1639SOL    HW1 5816   4.743   0.007   2.840
 1639SOL    HW2 5817   4.803   6.996   2.989
 1640SOL     OW 5818   6.001   1.152   0.457
 1640SOL    HW1 5819   5.911   1.173   0.420
 1640SOL    HW2 5820   6.020   1.213   0.534
 1641SOL     OW 5821   5.015   2.818   3.976
 1641SOL    HW1 5822   4.995   2.905   4.021
 1641SOL    HW2 5823   4.931   2.777   3.941
 1642SOL     OW 5824   5.683   3.466   6.732
 1642SOL    HW1 5825   5.770   3.422   6.710
 1642SOL    HW2 5826   5.659   3.449   6.827
 1643SOL     OW 5827   2.791   5.000   4.016
 1643SOL    HW1 5828   2.813   4.908   4.048
 1643SOL    HW2 5829   2.772   4.998   3.918
 1644SOL     OW 5830   0.078   2.963   1.044
 1644SOL    HW1 5831   0.038   2.985   1.133
 1644SOL    HW2 5832   0.169   3.003   1.038
 1645SOL     OW 5833   3.443   5.704   5.570
 1645SOL    HW1 5834   3.490   5.698   5.481
 1645SOL    HW2 5835   3.365   5.767   5.562
 1646SOL     OW 5836   2.859   5.895   0.338
 1646SOL    HW1 5837   2.781   5.862   0.391
 1646SOL    HW2 5838   2.944   5.867   0.383
 1647SOL     OW 5839   6.329   3.120   4.888
 1647SOL    HW1 5840   6.292   3.168   4.968
 1647SOL    HW2 5841   6.257   3.063   4.847
 1648SOL     OW 5842   5.642   5.229   1.285
 1648SOL    HW1 5843   5.692   5.200   1.203
 1648SOL    HW2 5844   5.639   5.329   1.289
 1649SOL     OW 5845   3.150   0.207   4.343
 1649SOL    HW1 5846   3.083   0.218   4.270
 1649SOL    HW2 5847   3.199   0.121   4.332
 1650SOL     OW 5848   1.872   6.151   5.382
 1650SOL    HW1 5849   1.908   6.061   5.405
 1650SOL    HW2 5850   1.945   6.219   5.391
 1651SOL     OW 5851   0.528   1.676   0.926
 1651SOL    HW1 5852   0.561   1.592   0.884
 1651SOL    HW2 5853   0.447   1.708   0.877
 1652SOL     OW 5854   0.876   3.460   2.590
 1652SOL    HW1 5855   0.857   3.368   2.557
 1652SOL    HW2 5856   0.829   3.475   2.677
 1653SOL     OW 5857   1.320   0.358   0.999
 1653SOL    HW1 5858   1.265   0.288   0.954
 1653SOL    HW2 5859   1.390   0.313   1.055
 1654SOL     OW 5860   6.664   3.457   1.538
 1654SOL    HW1 5861   6.636   3.553   1.543
 1654SOL    HW2 5862   6.606   3.403   1.599
 1655SOL     OW 5863   6.393   2.575   5.180
 1655SOL    HW1 5864   6.398   2.493   5.237
 1655SOL    HW2 5865   6.481   2.588   5.133
 1656SOL     OW 5866   2.362   4.645   1.593
 1656SOL    HW1 5867   2.395   4.623   1.685
 1656SOL    HW2 5868   2.438   4.674   1.535
 1657SOL     OW 5869   6.749   0.882   3.925
 1657SOL    HW1 5870   6.732   0.807   3.862
 1657SOL    HW2 5871   6.671   0.945   3.924
 1658SOL     OW 5872   1.279   0.050   1.155
 1658SOL    HW1 5873   1.227   0.049   1.070
 1658SOL    HW2 5874   1.224   0.093   1.227
 1659SOL     OW 5875   3.685   0.619   5.987
 1659SOL    HW1 5876   3.713   0.715   5.983
 1659SOL    HW2 5877   3.739   0.571   6.055
 1660SOL     OW 5878   1.195   5.169   4.228
 1660SOL    HW1 5879   1.155   5.093   4.279
 1660SOL    HW2 5880   1.286   5.143   4.196
 1661SOL     OW 5881   2.289   1.047   1.678
 1661SOL    HW1 5882   2.236   1.083   1.601
 1661SOL    HW2 5883   2.379   1.092   1.680
 1662SOL     OW 5884   6.725   6.842   3.956
 1662SOL    HW1 5885   6.629   6.818   3.941
 1662SOL    HW2 5886   6.730   6.915   4.024
 1663SOL     OW 5887   3.959   6.519   2.545
 1663SOL    HW1 5888   4.022   6.595   2.527
 1663SOL    HW2 5889   4.011   6.433   2.550
 1664SOL     OW 5890   2.205   6.484   4.683
 1664SOL    HW1 5891   2.160   6.507   4.769
 1664SOL    HW2 5892   2.142   6.501   4.607
 1665SOL     OW 5893   7.005   1.656   3.484
 1665SOL    HW1 5894   7.001   1.709   3.568
 1665SOL    HW2 5895   6.936   1.584   3.486
 1666SOL     OW 5896   5.481   2.977   0.094
 1666SOL    HW1 5897   5.385   2.951   0.086
 1666SOL    HW2 5898   5.538   2.907   0.051
 1667SOL     OW 5899   6.498   6.601   1.708
 1667SOL    HW1 5900   6.437   6.665   1.756
 1667SOL    HW2 5901   6.581   6.649   1.681
 1668SOL     OW 5902   5.678   6.336   5.620
 1668SOL    HW1 5903   5.746   6.385   5.564
 1668SOL    HW2 5904   5.703   6.239   5.625
 1669SOL     OW 5905   0.136   5.834   6.266
 1669SOL    HW1 5906   0.129   5.848   6.167
 1669SOL    HW2 5907   0.206   5.765   6.285
 1670SOL     OW 5908   0.457   4.158   6.330
 1670SOL    HW1 5909   0.535   4.144   6.268
 1670SOL    HW2 5910   0.439   4.256   6.338
 1671SOL     OW 5911   4.909   2.371   1.368
 1671SOL    HW1 5912   4.939   2.331   1.282
 1671SOL    HW2 5913   4.983   2.364   1.435
 1672SOL     OW 5914   1.871   3.054   1.027
 1672SOL    HW1 5915   1.970   3.048   1.036
 1672SOL    HW2 5916   1.831   2.962   1.027
 1673SOL     OW 5917   0.271   2.583   4.057
 1673SOL    HW1 5918   0.357   2.535   4.074
 1673SOL    HW2 5919   0.227   2.543   3.977
 1674SOL     OW 5920   0.356   4.082   2.351
 1674SOL    HW1 5921   0.416   4.094   2.271
 1674SOL    HW2 5922   0.379   4.151   2.420
 1675SOL     OW 5923   4.188   0.665   6.354
 1675SOL    HW1 5924   4.259   0.718   6.309
 1675SOL    HW2 5925   4.209   0.567   6.346
 1676SOL     OW 5926   2.162   2.002   2.029
 1676SOL    HW1 5927   2.136   2.090   1.988
 1676SOL    HW2 5928   2.118   1.928   1.978
 1677SOL     OW 5929   3.100   2.852   5.272
 1677SOL    HW1 5930   3.027   2.784   5.266
 1677SOL    HW2 5931   3.188   2.805   5.283
 1678SOL     OW 5932   4.447   4.545   4.583
 1678SOL    HW1 5933   4.456   4.560   4.681
 1678SOL    HW2 5934   4.369   4.599   4.548
 1679SOL     OW 5935   2.502   2.552   4.768
 1679SOL    HW1 5936   2.506   2.640   4.720
 1679SOL    HW2 5937   2.421   2.502   4.740
 1680SOL     OW 5938   0.268   3.441   4.632
 1680SOL    HW1 5939   0.191   3.456   4.570
 1680SOL    HW2 5940   0.293   3.344   4.630
 1681SOL     OW 5941   6.352   5.948   6.893
 1681SOL    HW1 5942   6.377   5.901   6.978
 1681SOL    HW2 5943   6.267   5.909   6.858
 1682SOL     OW 5944   0.441   1.440   4.869
 1682SOL    HW1 5945   0.453   1.341   4.858
 1682SOL    HW2 5946   0.525   1.480   4.905
 1683SOL     OW 5947   4.279   5.396   1.312
 1683SOL    HW1 5948   4.257   5.473   1.372
 1683SOL    HW2 5949   4.213   5.393   1.237
 1684SOL     OW 5950   1.561   6.219   2.702
 1684SOL    HW1 5951   1.606   6.130   2.712
 1684SOL    HW2 5952   1.525   6.248   2.791
 1685SOL     OW 5953   2.354   0.738   5.737
 1685SOL    HW1 5954   2.376   0.835   5.732
 1685SOL    HW2 5955   2.385   0.692   5.654
 1686SOL     OW 5956   2.696   5.412   4.571
 1686SOL    HW1 5957   2.770   5.438   4.633
 1686SOL    HW2 5958   2.661   5.322   4.596
 1687SOL     OW 5959   2.491   3.536   1.318
 1687SOL    HW1 5960   2.541   3.589   1.387
 1687SOL    HW2 5961   2.395   3.562   1.320
 1688SOL     OW 5962   1.804   2.373   4.567
 1688SOL    HW1 5963   1.858   2.416   4.639
 1688SOL    HW2 5964   1.724   2.328   4.608
 1689SOL     OW 5965   5.428   1.113   2.527
 1689SOL    HW1 5966   5.382   1.201   2.520
 1689SOL    HW2 5967   5.379   1.045   2.472
 1690SOL     OW 5968   1.659   2.719   3.616
 1690SOL    HW1 5969   1.676   2.762   3.704
 1690SOL    HW2 5970   1.741   2.727   3.558
 1691SOL     OW 5971   5.961   3.962   3.287
 1691SOL    HW1 5972   6.011   3.993   3.206
 1691SOL    HW2 5973   5.915   4.039   3.330
 1692SOL     OW 5974   5.946   0.235   1.651
 1692SOL    HW1 5975   6.017   0.300   1.678
 1692SOL    HW2 5976   5.964   0.203   1.558
 1693SOL     OW 5977   0.605   2.336   1.916
 1693SOL    HW1 5978   0.698   2.369   1.934
 1693SOL    HW2 5979   0.545   2.364   1.991
 1694SOL     OW 5980   5.519   0.546   3.469
 1694SOL    HW1 5981   5.427   0.580   3.487
 1694SOL    HW2 5982   5.520   0.492   3.385
 1695SOL     OW 5983   3.160   1.741   6.371
 1695SOL    HW1 5984   3.251   1.725   6.411
 1695SOL    HW2 5985   3.147   1.679   6.294
 1696SOL     OW 5986   4.926   4.390   0.618
 1696SOL    HW1 5987   5.002   4.444   0.656
 1696SOL    HW2 5988   4.843   4.409   0.671
 1697SOL     OW 5989   5.852   6.156   1.510
 1697SOL    HW1 5990   5.839   6.068   1.556
 1697SOL    HW2 5991   5.937   6.198   1.542
 1698SOL     OW 5992   4.411   0.761   7.019
 1698SOL    HW1 5993   4.423   0.836   6.953
 1698SOL    HW2 5994   4.314   0.739   0.005
 1699SOL     OW 5995   2.541   1.262   0.663
 1699SOL    HW1 5996   2.547   1.233   0.759
 1699SOL    HW2 5997   2.448   1.246   0.630
 1700SOL     OW 5998   5.398   2.147   3.332
 1700SOL    HW1 5999   5.437   2.239   3.338
 1700SOL    HW2 6000   5.442   2.087   3.399
 1701SOL     OW 6001   5.103   4.257   5.806
 1701SOL    HW1 6002   5.016   4.271   5.760
 1701SOL    HW2 6003   5.178   4.271   5.742
 1702SOL     OW 6004   0.026   2.922   6.956
 1702SOL    HW1 6005   0.079   2.884   0.011
 1702SOL    HW2 6006   0.050   3.018   6.944
 1703SOL     OW 6007   3.319   2.860   2.154
 1703SOL    HW1 6008   3.290   2.911   2.073
 1703SOL    HW2 6009   3.265   2.777   2.163
 1704SOL     OW 6010   0.847   2.398   1.241
 1704SOL    HW1 6011   0.751   2.421   1.257
 1704SOL    HW2 6012   0.887   2.464   1.177
 1705SOL     OW 6013   3.605   1.952   1.525
 1705SOL    HW1 6014   3.567   2.027   1.579
 1705SOL    HW2 6015   3.555   1.944   1.439
 1706SOL     OW 6016   5.021   1.375   1.437
 1706SOL    HW1 6017   5.024   1.474   1.428
 1706SOL    HW2 6018   4.932   1.342   1.405
 1707SOL     OW 6019   5.306   1.865   2.539
 1707SOL    HW1 6020   5.207   1.848   2.543
 1707SOL    HW2 6021   5.332   1.884   2.444
 1708SOL     OW 6022   5.229   5.139   2.369
 1708SOL    HW1 6023   5.230   5.207   2.442
 1708SOL    HW2 6024   5.251   5.183   2.282
 1709SOL     OW 6025   2.921   5.392   1.526
 1709SOL    HW1 6026   2.824   5.367   1.523
 1709SOL    HW2 6027   2.944   5.425   1.618
 1710SOL     OW 6028   5.519   4.945   3.783
 1710SOL    HW1 6029   5.571   4.975   3.864
 1710SOL    HW2 6030   5.421   4.949   3.803
 1711SOL     OW 6031   1.234   4.718   4.571
 1711SOL    HW1 6032   1.293   4.656   4.623
 1711SOL    HW2 6033   1.189   4.667   4.497
 1712SOL     OW 6034   0.096   3.323   5.897
 1712SOL    HW1 6035   0.062   3.344   5.988
 1712SOL    HW2 6036   0.170   3.386   5.874
 1713SOL     OW 6037   4.162   2.104   2.014
 1713SOL    HW1 6038   4.067   2.105   1.983
 1713SOL    HW2 6039   4.210   2.183   1.976
 1714SOL     OW 6040   3.658   1.883   5.359
 1714SOL    HW1 6041   3.626   1.791   5.382
 1714SOL    HW2 6042   3.585   1.949   5.377
 1715SOL     OW 6043   0.196   4.328   2.775
 1715SOL    HW1 6044   0.213   4.236   2.811
 1715SOL    HW2 6045   0.237   4.335   2.684
 1716SOL     OW 6046   4.313   0.155   2.950
 1716SOL    HW1 6047   4.321   0.190   3.043
 1716SOL    HW2 6048   4.219   0.168   2.917
 1717SOL     OW 6049   2.417   6.041   6.175
 1717SOL    HW1 6050   2.361   5.958   6.176
 1717SOL    HW2 6051   2.384   6.102   6.104
 1718SOL     OW 6052   2.354   2.412   1.824
 1718SOL    HW1 6053   2.448   2.383   1.840
 1718SOL    HW2 6054   2.299   2.397   1.906
 1719SOL     OW 6055   1.877   3.834   0.793
 1719SOL    HW1 6056   1.894   3.888   0.711
 1719SOL    HW2 6057   1.917   3.743   0.783
 1720SOL     OW 6058   0.577   2.808   0.149
 1720SOL    HW1 6059   0.506   2.748   0.112
 1720SOL    HW2 6060   0.648   2.822   0.081
 1721SOL     OW 6061   1.415   6.421   1.559
 1721SOL    HW1 6062   1.501   6.464   1.533
 1721SOL    HW2 6063   1.398   6.341   1.501
 1722SOL     OW 6064   4.180   2.259   4.393
 1722SOL    HW1 6065   4.125   2.228   4.316
 1722SOL    HW2 6066   4.226   2.345   4.370
 1723SOL     OW 6067   6.797   2.677   2.198
 1723SOL    HW1 6068   6.796   2.770   2.162
 1723SOL    HW2 6069   6.712   2.659   2.248
 1724SOL     OW 6070   6.381   2.091   0.471
 1724SOL    HW1 6071   6.426   2.180   0.465
 1724SOL    HW2 6072   6.326   2.086   0.554
 1725SOL     OW 6073   2.570   4.972   6.777
 1725SOL    HW1 6074   2.553   5.055   6.830
 1725SOL    HW2 6075   2.523   4.895   6.821
 1726SOL     OW 6076   4.867   4.691   5.600
 1726SOL    HW1 6077   4.916   4.768   5.559
 1726SOL    HW2 6078   4.801   4.655   5.534
 1727SOL     OW 6079   3.888   3.306   4.471
 1727SOL    HW1 6080   3.958   3.264   4.528
 1727SOL    HW2 6081   3.815   3.240   4.452
 1728SOL     OW 6082   4.997   4.915   5.461
 1728SOL    HW1 6083   5.028   5.000   5.503
 1728SOL    HW2 6084   4.900   4.923   5.437
 1729SOL     OW 6085   2.179   3.999   2.697
 1729SOL    HW1 6086   2.222   4.074   2.646
 1729SOL    HW2 6087   2.186   4.017   2.795
 1730SOL     OW 6088   0.872   7.009   5.781
 1730SOL    HW1 6089   0.810   0.041   5.724
 1730SOL    HW2 6090   0.929   6.951   5.724
 1731SOL     OW 6091   0.356   4.297   2.098
 1731SOL    HW1 6092   0.428   4.234   2.070
 1731SOL    HW2 6093   0.393   4.390   2.100
 1732SOL     OW 6094   2.739   4.617   5.521
 1732SOL    HW1 6095   2.690   4.698   5.488
 1732SOL    HW2 6096   2.727   4.542   5.456
 1733SOL     OW 6097   1.671   4.173   2.044
 1733SOL    HW1 6098   1.606   4.188   1.970
 1733SOL    HW2 6099   1.763   4.201   2.015
 1734SOL     OW 6100   4.962   3.261   1.509
 1734SOL    HW1 6101   4.990   3.169   1.482
 1734SOL    HW2 6102   4.898   3.255   1.586
 1735SOL     OW 6103   5.183   6.215   1.707
 1735SOL    HW1 6104   5.278   6.210   1.735
 1735SOL    HW2 6105   5.124   6.228   1.787
 1736SOL     OW 6106   3.825   2.837   1.008
 1736SOL    HW1 6107   3.868   2.814   1.096
 1736SOL    HW2 6108   3.727   2.845   1.020
 1737SOL     OW 6109   2.062   1.497   4.339
 1737SOL    HW1 6110   2.124   1.467   4.266
 1737SOL    HW2 6111   1.991   1.428   4.352
 1738SOL     OW 6112   1.972   1.874   3.798
 1738SOL    HW1 6113   1.993   1.958   3.748
 1738SOL    HW2 6114   2.036   1.863   3.874
 1739SOL     OW 6115   6.411   2.143   5.420
 1739SOL    HW1 6116   6.344   2.216   5.431
 1739SOL    HW2 6117   6.412   2.113   5.325
 1740SOL     OW 6118   6.402   1.786   5.827
 1740SOL    HW1 6119   6.459   1.849   5.775
 1740SOL    HW2 6120   6.306   1.809   5.813
 1741SOL     OW 6121   1.778   0.677   4.154
 1741SOL    HW1 6122   1.769   0.769   4.115
 1741SOL    HW2 6123   1.691   0.629   4.148
 1742SOL     OW 6124   5.296   0.509   6.124
 1742SOL    HW1 6125   5.380   0.480   6.170
 1742SOL    HW2 6126   5.231   0.544   6.192
 1743SOL     OW 6127   1.287   2.541   1.852
 1743SOL    HW1 6128   1.299   2.524   1.950
 1743SOL    HW2 6129   1.204   2.495   1.819
 1744SOL     OW 6130   0.532   1.301   2.344
 1744SOL    HW1 6131   0.592   1.366   2.297
 1744SOL    HW2 6132   0.574   1.210   2.343
 1745SOL     OW 6133   6.127   0.066   3.449
 1745SOL    HW1 6134   6.144   6.992   3.424
 1745SOL    HW2 6135   6.202   0.124   3.417
 1746SOL     OW 6136   2.222   5.055   4.806
 1746SOL    HW1 6137   2.320   5.052   4.825
 1746SOL    HW2 6138   2.187   4.961   4.800
 1747SOL     OW 6139   5.638   1.760   2.903
 1747SOL    HW1 6140   5.542   1.733   2.896
 1747SOL    HW2 6141   5.648   1.828   2.975
 1748SOL     OW 6142   1.075   0.808   4.461
 1748SOL    HW1 6143   1.096   0.714   4.432
 1748SOL    HW2 6144   1.118   0.826   4.549
 1749SOL     OW 6145   2.867   6.819   4.149
 1749SOL    HW1 6146   2.807   6.768   4.211
 1749SOL    HW2 6147   2.947   6.763   4.127
 1750SOL     OW 6148   5.871   0.149   3.798
 1750SOL    HW1 6149   5.876   0.050   3.804
 1750SOL    HW2 6150   5.940   0.182   3.734
 1751SOL     OW 6151   3.772   6.041   5.109
 1751SOL    HW1 6152   3.739   6.127   5.147
 1751SOL    HW2 6153   3.858   6.057   5.060
 1752SOL     OW 6154   6.808   2.399   1.416
 1752SOL    HW1 6155   6.881   2.461   1.390
 1752SOL    HW2 6156   6.757   2.371   1.334
 1753SOL     OW 6157   0.347   1.737   0.532
 1753SOL    HW1 6158   0.382   1.818   0.485
 1753SOL    HW2 6159   0.249   1.728   0.513
 1754SOL     OW 6160   2.422   3.928   0.961
 1754SOL    HW1 6161   2.410   3.938   1.060
 1754SOL    HW2 6162   2.465   4.011   0.924
 1755SOL     OW 6163   6.331   6.100   1.854
 1755SOL    HW1 6164   6.362   6.177   1.798
 1755SOL    HW2 6165   6.263   6.131   1.920
 1756SOL     OW 6166   4.116   5.079   6.172
 1756SOL    HW1 6167   4.106   5.047   6.078
 1756SOL    HW2 6168   4.134   5.001   6.232
 1757SOL     OW 6169   2.403   5.267   4.519
 1757SOL    HW1 6170   2.401   5.168   4.527
 1757SOL    HW2 6171   2.416   5.308   4.609
 1758SOL     OW 6172   1.973   0.396   3.880
 1758SOL    HW1 6173   2.060   0.440   3.904
 1758SOL    HW2 6174   1.916   0.462   3.831
 1759SOL     OW 6175   2.136   5.501   6.754
 1759SOL    HW1 6176   2.211   5.466   6.697
 1759SOL    HW2 6177   2.052   5.504   6.700
 1760SOL     OW 6178   5.731   1.865   2.627
 1760SOL    HW1 6179   5.809   1.809   2.655
 1760SOL    HW2 6180   5.646   1.821   2.657
 1761SOL     OW 6181   0.357   0.291   0.262
 1761SOL    HW1 6182   0.379   0.207   0.212
 1761SOL    HW2 6183   0.434   0.318   0.319
 1762SOL     OW 6184   0.186   1.890   4.831
 1762SOL    HW1 6185   0.093   1.885   4.866
 1762SOL    HW2 6186   0.196   1.828   4.754
 1763SOL     OW 6187   1.204   3.535   3.919
 1763SOL    HW1 6188   1.138   3.535   3.994
 1763SOL    HW2 6189   1.195   3.450   3.867
 1764SOL     OW 6190   2.062   3.608   2.216
 1764SOL    HW1 6191   2.129   3.559   2.159
 1764SOL    HW2 6192   2.050   3.701   2.181
 1765SOL     OW 6193   3.998   1.099   0.778
 1765SOL    HW1 6194   3.938   1.051   0.842
 1765SOL    HW2 6195   4.075   1.139   0.828
 1766SOL     OW 6196   4.795   3.021   2.846
 1766SOL    HW1 6197   4.706   3.067   2.843
 1766SOL    HW2 6198   4.838   3.026   2.755
 1767SOL     OW 6199   0.198   3.359   2.933
 1767SOL    HW1 6200   0.238   3.293   2.870
 1767SOL    HW2 6201   0.243   3.351   3.022
 1768SOL     OW 6202   3.872   1.432   5.510
 1768SOL    HW1 6203   3.928   1.482   5.444
 1768SOL    HW2 6204   3.925   1.358   5.551
 1769SOL     OW 6205   4.240   2.879   5.937
 1769SOL    HW1 6206   4.154   2.867   5.889
 1769SOL    HW2 6207   4.311   2.907   5.872
 1770SOL     OW 6208   6.666   5.202   4.627
 1770SOL    HW1 6209   6.611   5.257   4.690
 1770SOL    HW2 6210   6.763   5.221   4.643
 1771SOL     OW 6211   2.639   5.291   0.131
 1771SOL    HW1 6212   2.566   5.270   0.196
 1771SOL    HW2 6213   2.726   5.257   0.166
 1772SOL     OW 6214   3.463   6.559   3.223
 1772SOL    HW1 6215   3.551   6.518   3.245
 1772SOL    HW2 6216   3.415   6.584   3.307
 1773SOL     OW 6217   3.219   3.967   6.444
 1773SOL    HW1 6218   3.136   3.996   6.396
 1773SOL    HW2 6219   3.201   3.881   6.492
 1774SOL     OW 6220   4.528   0.425   1.724
 1774SOL    HW1 6221   4.535   0.521   1.750
 1774SOL    HW2 6222   4.433   0.395   1.730
 1775SOL     OW 6223   1.460   5.098   4.133
 1775SOL    HW1 6224   1.465   5.005   4.097
 1775SOL    HW2 6225   1.490   5.162   4.062
 1776SOL     OW 6226   3.304   0.553   5.790
 1776SOL    HW1 6227   3.395   0.512   5.794
 1776SOL    HW2 6228   3.259   0.523   5.706
 1777SOL     OW 6229   3.309   5.301   5.519
 1777SOL    HW1 6230   3.338   5.226   5.578
 1777SOL    HW2 6231   3.213   5.289   5.494
 1778SOL     OW 6232   4.432   2.134   4.935
 1778SOL    HW1 6233   4.488   2.165   5.012
 1778SOL    HW2 6234   4.353   2.194   4.925
 1779SOL     OW 6235   4.968   2.297   4.035
 1779SOL    HW1 6236   5.003   2.241   4.110
 1779SOL    HW2 6237   4.869   2.285   4.028
 1780SOL     OW 6238   2.367   4.663   5.762
 1780SOL    HW1 6239   2.271   4.677   5.738
 1780SOL    HW2 6240   2.418   4.746   5.742
 1781SOL     OW 6241   4.275   5.217   3.533
 1781SOL    HW1 6242   4.213   5.147   3.569
 1781SOL    HW2 6243   4.232   5.307   3.538
 1782SOL     OW 6244   2.763   1.584   3.206
 1782SOL    HW1 6245   2.824   1.637   3.147
 1782SOL    HW2 6246   2.789   1.488   3.203
 1783SOL     OW 6247   1.836   3.469   6.547
 1783SOL    HW1 6248   1.895   3.480   6.467
 1783SOL    HW2 6249   1.857   3.382   6.591
 1784SOL     OW 6250   3.059   0.643   3.800
 1784SOL    HW1 6251   3.014   0.565   3.756
 1784SOL    HW2 6252   3.026   0.653   3.894
 1785SOL     OW 6253   5.078   6.082   3.712
 1785SOL    HW1 6254   5.151   6.014   3.701
 1785SOL    HW2 6255   5.100   6.164   3.659
 1786SOL     OW 6256   1.509   3.035   0.806
 1786SOL    HW1 6257   1.413   3.060   0.804
 1786SOL    HW2 6258   1.530   2.974   0.730
 1787SOL     OW 6259   2.326   1.067   4.554
 1787SOL    HW1 6260   2.404   1.127   4.574
 1787SOL    HW2 6261   2.341   1.019   4.468
 1788SOL     OW 6262   2.818   3.303   0.159
 1788SOL    HW1 6263   2.734   3.300   0.106
 1788SOL    HW2 6264   2.837   3.213   0.197
 1789SOL     OW 6265   6.997   2.251   1.979
 1789SOL    HW1 6266   6.927   2.180   1.989
 1789SOL    HW2 6267   6.961   2.325   1.922
 1790SOL     OW 6268   3.814   5.953   4.320
 1790SOL    HW1 6269   3.912   5.970   4.315
 1790SOL    HW2 6270   3.786   5.944   4.416
 1791SOL     OW 6271   0.097   2.229   4.715
 1791SOL    HW1 6272   0.145   2.161   4.659
 1791SOL    HW2 6273   0.043   2.182   4.785
 1792SOL     OW 6274   0.846   2.513   4.196
 1792SOL    HW1 6275   0.931   2.557   4.167
 1792SOL    HW2 6276   0.814   2.451   4.125
 1793SOL     OW 6277   6.668   0.165   3.278
 1793SOL    HW1 6278   6.592   0.194   3.220
 1793SOL    HW2 6279   6.633   0.135   3.367
 1794SOL     OW 6280   5.227   6.286   6.647
 1794SOL    HW1 6281   5.182   6.372   6.623
 1794SOL    HW2 6282   5.319   6.284   6.607
 1795SOL     OW 6283   0.634   4.340   2.391
 1795SOL    HW1 6284   0.709   4.405   2.402
 1795SOL    HW2 6285   0.656   4.277   2.316
 1796SOL     OW 6286   1.958   1.321   4.881
 1796SOL    HW1 6287   1.986   1.416   4.895
 1796SOL    HW2 6288   1.903   1.314   4.798
 1797SOL     OW 6289   1.262   0.765   6.190
 1797SOL    HW1 6290   1.182   0.815   6.223
 1797SOL    HW2 6291   1.341   0.788   6.246
 1798SOL     OW 6292   4.604   2.588   5.640
 1798SOL    HW1 6293   4.534   2.651   5.608
 1798SOL    HW2 6294   4.590   2.569   5.737
 1799SOL     OW 6295   6.629   1.991   6.541
 1799SOL    HW1 6296   6.659   2.068   6.484
 1799SOL    HW2 6297   6.529   1.991   6.547
 1800SOL     OW 6298   4.525   5.227   3.429
 1800SOL    HW1 6299   4.432   5.208   3.462
 1800SOL    HW2 6300   4.521   5.302   3.362
 1801SOL     OW 6301   1.212   1.249   2.292
 1801SOL    HW1 6302   1.291   1.259   2.232
 1801SOL    HW2 6303   1.128   1.260   2.239
 1802SOL     OW 6304   5.808   5.328   2.893
 1802SOL    HW1 6305   5.908   5.325   2.883
 1802SOL    HW2 6306   5.778   5.252   2.951
 1803SOL     OW 6307   6.703   5.847   0.657
 1803SOL    HW1 6308   6.736   5.923   0.713
 1803SOL    HW2 6309   6.780   5.788   0.632
 1804SOL     OW 6310   2.454   3.474   5.998
 1804SOL    HW1 6311   2.452   3.445   6.093
 1804SOL    HW2 6312   2.408   3.406   5.941
 1805SOL     OW 6313   0.696   4.169   5.853
 1805SOL    HW1 6314   0.691   4.118   5.768
 1805SOL    HW2 6315   0.761   4.245   5.843
 1806SOL     OW 6316   1.465   0.921   1.266
 1806SOL    HW1 6317   1.485   0.832   1.308
 1806SOL    HW2 6318   1.399   0.909   1.192
 1807SOL     OW 6319   5.307   2.327   6.307
 1807SOL    HW1 6320   5.264   2.411   6.340
 1807SOL    HW2 6321   5.240   2.252   6.313
 1808SOL     OW 6322   5.986   3.814   5.083
 1808SOL    HW1 6323   5.921   3.889   5.067
 1808SOL    HW2 6324   5.971   3.742   5.016
 1809SOL     OW 6325   2.190   2.908   4.602
 1809SOL    HW1 6326   2.212   2.978   4.670
 1809SOL    HW2 6327   2.093   2.913   4.579
 1810SOL     OW 6328   2.568   0.418   5.796
 1810SOL    HW1 6329   2.504   0.393   5.868
 1810SOL    HW2 6330   2.518   0.443   5.713
 1811SOL     OW 6331   4.081   4.766   3.055
 1811SOL    HW1 6332   4.022   4.690   3.027
 1811SOL    HW2 6333   4.174   4.733   3.068
 1812SOL     OW 6334   4.461   0.206   6.263
 1812SOL    HW1 6335   4.520   0.127   6.279
 1812SOL    HW2 6336   4.504   0.266   6.195
 1813SOL     OW 6337   4.179   4.939   1.190
 1813SOL    HW1 6338   4.199   5.009   1.122
 1813SOL    HW2 6339   4.091   4.960   1.234
 1814SOL     OW 6340   6.834   0.459   6.957
 1814SOL    HW1 6341   6.767   0.385   6.959
 1814SOL    HW2 6342   6.824   0.511   6.872
 1815SOL     OW 6343   6.884   1.813   1.687
 1815SOL    HW1 6344   6.907   1.837   1.592
 1815SOL    HW2 6345   6.822   1.882   1.724
 1816SOL     OW 6346   1.827   4.155   1.061
 1816SOL    HW1 6347   1.784   4.153   1.152
 1816SOL    HW2 6348   1.924   4.177   1.071
 1817SOL     OW 6349   3.491   6.352   2.948
 1817SOL    HW1 6350   3.572   6.410   2.951
 1817SOL    HW2 6351   3.411   6.406   2.923
 1818SOL     OW 6352   2.652   6.069   2.217
 1818SOL    HW1 6353   2.724   6.116   2.166
 1818SOL    HW2 6354   2.693   6.004   2.281
 1819SOL     OW 6355   0.703   5.346   1.507
 1819SOL    HW1 6356   0.772   5.275   1.490
 1819SOL    HW2 6357   0.676   5.344   1.603
 1820SOL     OW 6358   2.650   0.661   2.386
 1820SOL    HW1 6359   2.626   0.689   2.294
 1820SOL    HW2 6360   2.574   0.610   2.427
 1821SOL     OW 6361   2.564   0.768   1.998
 1821SOL    HW1 6362   2.484   0.709   1.990
 1821SOL    HW2 6363   2.592   0.798   1.907
 1822SOL     OW 6364   1.583   3.686   1.230
 1822SOL    HW1 6365   1.579   3.712   1.134
 1822SOL    HW2 6366   1.633   3.756   1.281
 1823SOL     OW 6367   2.628   5.620   2.594
 1823SOL    HW1 6368   2.644   5.570   2.678
 1823SOL    HW2 6369   2.543   5.587   2.551
 1824SOL     OW 6370   3.455   3.891   1.353
 1824SOL    HW1 6371   3.373   3.886   1.410
 1824SOL    HW2 6372   3.431   3.872   1.258
 1825SOL     OW 6373   1.525   2.468   4.391
 1825SOL    HW1 6374   1.598   2.401   4.379
 1825SOL    HW2 6375   1.440   2.422   4.416
 1826SOL     OW 6376   3.228   0.457   1.345
 1826SOL    HW1 6377   3.285   0.480   1.266
 1826SOL    HW2 6378   3.269   0.381   1.395
 1827SOL     OW 6379   0.056   6.056   1.684
 1827SOL    HW1 6380   0.126   6.017   1.625
 1827SOL    HW2 6381   6.986   6.031   1.649
 1828SOL     OW 6382   1.024   2.540   0.525
 1828SOL    HW1 6383   1.002   2.443   0.535
 1828SOL    HW2 6384   1.085   2.553   0.447
 1829SOL     OW 6385   2.780   0.920   3.200
 1829SOL    HW1 6386   2.823   0.926   3.110
 1829SOL    HW2 6387   2.691   0.874   3.191
 1830SOL     OW 6388   5.984   6.555   3.762
 1830SOL    HW1 6389   5.947   6.607   3.685
 1830SOL    HW2 6390   6.038   6.478   3.727
 1831SOL     OW 6391   5.839   0.562   2.049
 1831SOL    HW1 6392   5.909   0.552   2.121
 1831SOL    HW2 6393   5.800   0.472   2.028
 1832SOL     OW 6394   4.792   1.684   1.120
 1832SOL    HW1 6395   4.752   1.766   1.161
 1832SOL    HW2 6396   4.747   1.603   1.158
 1833SOL     OW 6397   5.372   1.055   0.364
 1833SOL    HW1 6398   5.451   1.005   0.329
 1833SOL    HW2 6399   5.394   1.152   0.371
 1834SOL     OW 6400   2.822   3.389   0.540
 1834SOL    HW1 6401   2.750   3.401   0.472
 1834SOL    HW2 6402   2.912   3.392   0.496
 1835SOL     OW 6403   0.383   4.761   2.067
 1835SOL    HW1 6404   0.350   4.716   1.985
 1835SOL    HW2 6405   0.450   4.832   2.042
 1836SOL     OW 6406   5.162   1.966   1.670
 1836SOL    HW1 6407   5.214   2.001   1.748
 1836SOL    HW2 6408   5.212   1.889   1.630
 1837SOL     OW 6409   0.916   0.177   4.678
 1837SOL    HW1 6410   0.912   0.264   4.726
 1837SOL    HW2 6411   1.008   0.165   4.639
 1838SOL     OW 6412   6.821   1.213   4.698
 1838SOL    HW1 6413   6.805   1.310   4.683
 1838SOL    HW2 6414   6.739   1.162   4.673
 1839SOL     OW 6415   6.078   2.093   4.928
 1839SOL    HW1 6416   6.132   2.174   4.950
 1839SOL    HW2 6417   6.042   2.053   5.012
 1840SOL     OW 6418   4.098   0.108   1.660
 1840SOL    HW1 6419   4.049   0.059   1.588
 1840SOL    HW2 6420   4.169   0.165   1.619
 1841SOL     OW 6421   2.151   1.242   3.244
 1841SOL    HW1 6422   2.073   1.277   3.193
 1841SOL    HW2 6423   2.129   1.240   3.341
 1842SOL     OW 6424   1.812   5.914   0.279
 1842SOL    HW1 6425   1.816   6.014   0.275
 1842SOL    HW2 6426   1.740   5.887   0.343
 1843SOL     OW 6427   6.367   2.176   3.171
 1843SOL    HW1 6428   6.393   2.091   3.217
 1843SOL    HW2 6429   6.355   2.248   3.239
 1844SOL     OW 6430   3.046   6.736   5.358
 1844SOL    HW1 6431   3.039   6.734   5.458
 1844SOL    HW2 6432   3.035   6.643   5.322
 1845SOL     OW 6433   3.241   6.870   4.171
 1845SOL    HW1 6434   3.189   6.900   4.091
 1845SOL    HW2 6435   3.308   6.939   4.196
 1846SOL     OW 6436   3.488   1.692   1.576
 1846SOL    HW1 6437   3.437   1.727   1.498
 1846SOL    HW2 6438   3.435   1.707   1.660
 1847SOL     OW 6439   1.438   0.879   6.734
 1847SOL    HW1 6440   1.455   0.977   6.730
 1847SOL    HW2 6441   1.339   0.862   6.736
 1848SOL     OW 6442   1.619   5.803   3.705
 1848SOL    HW1 6443   1.623   5.709   3.738
 1848SOL    HW2 6444   1.595   5.803   3.608
 1849SOL     OW 6445   4.010   2.423   1.513
 1849SOL    HW1 6446   3.999   2.456   1.419
 1849SOL    HW2 6447   3.923   2.430   1.561
 1850SOL     OW 6448   0.309   2.944   1.713
 1850SOL    HW1 6449   0.364   3.020   1.748
 1850SOL    HW2 6450   0.361   2.859   1.722
 1851SOL     OW 6451   0.432   2.516   0.278
 1851SOL    HW1 6452   0.500   2.541   0.347
 1851SOL    HW2 6453   0.379   2.438   0.310
 1852SOL     OW 6454   6.640   4.429   2.764
 1852SOL    HW1 6455   6.722   4.483   2.784
 1852SOL    HW2 6456   6.593   4.409   2.850
 1853SOL     OW 6457   0.349   2.157   2.729
 1853SOL    HW1 6458   0.368   2.093   2.804
 1853SOL    HW2 6459   0.345   2.106   2.643
 1854SOL     OW 6460   2.383   5.855   2.844
 1854SOL    HW1 6461   2.481   5.879   2.842
 1854SOL    HW2 6462   2.371   5.769   2.893
 1855SOL     OW 6463   4.847   2.856   5.432
 1855SOL    HW1 6464   4.937   2.875   5.392
 1855SOL    HW2 6465   4.827   2.926   5.501
 1856SOL     OW 6466   6.039   4.366   5.801
 1856SOL    HW1 6467   6.096   4.379   5.720
 1856SOL    HW2 6468   6.075   4.420   5.877
 1857SOL     OW 6469   4.624   2.096   5.927
 1857SOL    HW1 6470   4.565   2.032   5.878
 1857SOL    HW2 6471   4.688   2.044   5.985
 1858SOL     OW 6472   5.650   4.054   4.039
 1858SOL    HW1 6473   5.677   3.977   4.096
 1858SOL    HW2 6474   5.597   4.119   4.093
 1859SOL     OW 6475   6.053   2.623   3.645
 1859SOL    HW1 6476   6.103   2.536   3.651
 1859SOL    HW2 6477   6.080   2.671   3.562
 1860SOL     OW 6478   6.930   0.597   5.492
 1860SOL    HW1 6479   6.989   0.624   5.415
 1860SOL    HW2 6480   6.846   0.651   5.489
 1861SOL     OW 6481   6.232   6.742   1.823
 1861SOL    HW1 6482   6.174   6.699   1.754
 1861SOL    HW2 6483   6.201   6.836   1.838
 1862SOL     OW 6484   3.537   0.094   6.248
 1862SOL    HW1 6485   3.439   0.110   6.233
 1862SOL    HW2 6486   3.576   0.172   6.296
 1863SOL     OW 6487   0.864   3.081   3.859
 1863SOL    HW1 6488   0.907   3.134   3.786
 1863SOL    HW2 6489   0.773   3.051   3.830
 1864SOL     OW 6490   1.701   6.735   4.692
 1864SOL    HW1 6491   1.716   6.822   4.644
 1864SOL    HW2 6492   1.769   6.725   4.765
 1865SOL     OW 6493   3.079   6.837   6.997
 1865SOL    HW1 6494   3.172   6.853   0.009
 1865SOL    HW2 6495   3.078   6.755   6.939
 1866SOL     OW 6496   4.994   4.951   3.290
 1866SOL    HW1 6497   5.032   5.040   3.267
 1866SOL    HW2 6498   4.897   4.960   3.311
 1867SOL     OW 6499   0.806   4.047   0.267
 1867SOL    HW1 6500   0.854   4.135   0.266
 1867SOL    HW2 6501   0.734   4.047   0.198
 1868SOL     OW 6502   5.009   2.988   6.069
 1868SOL    HW1 6503   5.066   2.920   6.023
 1868SOL    HW2 6504   4.913   2.974   6.042
 1869SOL     OW 6505   5.972   3.546   5.641
 1869SOL    HW1 6506   5.879   3.517   5.665
 1869SOL    HW2 6507   6.038   3.479   5.677
 1870SOL     OW 6508   1.428   2.879   5.157
 1870SOL    HW1 6509   1.485   2.924   5.088
 1870SOL    HW2 6510   1.473   2.884   5.246
 1871SOL     OW 6511   0.658   0.380   6.616
 1871SOL    HW1 6512   0.739   0.371   6.557
 1871SOL    HW2 6513   0.651   0.474   6.648
 1872SOL     OW 6514   4.170   1.479   6.788
 1872SOL    HW1 6515   4.180   1.515   6.881
 1872SOL    HW2 6516   4.130   1.388   6.792
 1873SOL     OW 6517   5.347   1.327   6.029
 1873SOL    HW1 6518   5.263   1.281   5.999
 1873SOL    HW2 6519   5.388   1.375   5.952
 1874SOL     OW 6520   2.725   1.040   0.569
 1874SOL    HW1 6521   2.685   1.109   0.630
 1874SOL    HW2 6522   2.674   0.955   0.578
 1875SOL     OW 6523   0.072   0.333   0.245
 1875SOL    HW1 6524   0.101   0.428   0.254
 1875SOL    HW2 6525   0.150   0.272   0.263
 1876SOL     OW 6526   3.693   5.795   6.484
 1876SOL    HW1 6527   3.728   5.704   6.509
 1876SOL    HW2 6528   3.711   5.813   6.388
 1877SOL     OW 6529   0.774   1.342   3.230
 1877SOL    HW1 6530   0.827   1.349   3.315
 1877SOL    HW2 6531   0.828   1.377   3.154
 1878SOL     OW 6532   6.857   3.262   3.944
 1878SOL    HW1 6533   6.942   3.222   3.980
 1878SOL    HW2 6534   6.826   3.208   3.866
 1879SOL     OW 6535   1.877   5.024   3.494
 1879SOL    HW1 6536   1.838   5.107   3.454
 1879SOL    HW2 6537   1.804   4.957   3.507
 1880SOL     OW 6538   6.740   0.566   3.810
 1880SOL    HW1 6539   6.701   0.546   3.900
 1880SOL    HW2 6540   6.813   0.500   3.790
 1881SOL     OW 6541   6.676   3.271   2.929
 1881SOL    HW1 6542   6.765   3.295   2.890
 1881SOL    HW2 6543   6.604   3.298   2.865
 1882SOL     OW 6544   1.354   3.846   0.125
 1882SOL    HW1 6545   1.364   3.747   0.121
 1882SOL    HW2 6546   1.325   3.873   0.217
 1883SOL     OW 6547   1.259   2.977   3.751
 1883SOL    HW1 6548   1.289   3.066   3.717
 1883SOL    HW2 6549   1.184   2.991   3.817
 1884SOL     OW 6550   6.344   3.059   6.960
 1884SOL    HW1 6551   6.292   3.136   6.923
 1884SOL    HW2 6552   6.439   3.066   6.930
 1885SOL     OW 6553   0.653   2.158   5.902
 1885SOL    HW1 6554   0.626   2.252   5.924
 1885SOL    HW2 6555   0.751   2.146   5.920
 1886SOL     OW 6556   2.420   0.292   1.193
 1886SOL    HW1 6557   2.493   0.322   1.256
 1886SOL    HW2 6558   2.461   0.236   1.121
 1887SOL     OW 6559   1.671   5.950   5.756
 1887SOL    HW1 6560   1.747   5.891   5.727
 1887SOL    HW2 6561   1.651   6.017   5.685
 1888SOL     OW 6562   3.086   2.502   6.826
 1888SOL    HW1 6563   3.109   2.434   6.896
 1888SOL    HW2 6564   2.987   2.514   6.824
 1889SOL     OW 6565   6.414   3.287   6.137
 1889SOL    HW1 6566   6.361   3.263   6.218
 1889SOL    HW2 6567   6.368   3.252   6.055
 1890SOL     OW 6568   1.829   5.918   4.410
 1890SOL    HW1 6569   1.745   5.890   4.364
 1890SOL    HW2 6570   1.827   6.016   4.426
 1891SOL     OW 6571   6.067   2.522   2.851
 1891SOL    HW1 6572   6.137   2.582   2.813
 1891SOL    HW2 6573   6.060   2.537   2.950
 1892SOL     OW 6574   3.026   1.238   0.871
 1892SOL    HW1 6575   2.985   1.316   0.824
 1892SOL    HW2 6576   3.092   1.270   0.938
 1893SOL     OW 6577   3.410   2.892   0.495
 1893SOL    HW1 6578   3.425   2.813   0.554
 1893SOL    HW2 6579   3.385   2.862   0.403
 1894SOL     OW 6580   3.989   3.728   3.505
 1894SOL    HW1 6581   3.891   3.711   3.501
 1894SOL    HW2 6582   4.007   3.826   3.490
 1895SOL     OW 6583   5.929   1.063   2.160
 1895SOL    HW1 6584   6.012   1.043   2.213
 1895SOL    HW2 6585   5.861   0.992   2.178
 1896SOL     OW 6586   6.656   0.643   1.579
 1896SOL    HW1 6587   6.573   0.644   1.636
 1896SOL    HW2 6588   6.730   0.599   1.630
 1897SOL     OW 6589   1.449   4.390   2.318
 1897SOL    HW1 6590   1.351   4.407   2.319
 1897SOL    HW2 6591   1.468   4.300   2.358
 1898SOL     OW 6592   3.093   4.905   2.615
 1898SOL    HW1 6593   3.192   4.910   2.625
 1898SOL    HW2 6594   3.054   4.997   2.621
 1899SOL     OW 6595   1.166   1.481   2.008
 1899SOL    HW1 6596   1.176   1.445   1.915
 1899SOL    HW2 6597   1.102   1.424   2.060
 1900SOL     OW 6598   1.448   0.574   6.611
 1900SOL    HW1 6599   1.369   0.519   6.637
 1900SOL    HW2 6600   1.450   0.658   6.664
 1901SOL     OW 6601   1.846   2.420   1.261
 1901SOL    HW1 6602   1.829   2.397   1.165
 1901SOL    HW2 6603   1.843   2.519   1.272
 1902SOL     OW 6604   2.317   1.905   4.737
 1902SOL    HW1 6605   2.375   1.863   4.807
 1902SOL    HW2 6606   2.331   2.004   4.738
 1903SOL     OW 6607   6.549   3.418   3.120
 1903SOL    HW1 6608   6.582   3.356   3.049
 1903SOL    HW2 6609   6.550   3.512   3.085
 1904SOL     OW 6610   5.567   6.287   4.693
 1904SOL    HW1 6611   5.574   6.327   4.784
 1904SOL    HW2 6612   5.472   6.263   4.674
 1905SOL     OW 6613   1.459   0.673   4.041
 1905SOL    HW1 6614   1.486   0.755   3.989
 1905SOL    HW2 6615   1.451   0.697   4.138
 1906SOL     OW 6616   1.950   0.484   5.285
 1906SOL    HW1 6617   2.033   0.489   5.229
 1906SOL    HW2 6618   1.894   0.407   5.255
 1907SOL     OW 6619   3.410   6.731   2.819
 1907SOL    HW1 6620   3.465   6.726   2.735
 1907SOL    HW2 6621   3.368   6.642   2.836
 1908SOL     OW 6622   3.595   6.942   5.202
 1908SOL    HW1 6623   3.601   0.009   5.155
 1908SOL    HW2 6624   3.520   6.888   5.163
 1909SOL     OW 6625   0.747   4.440   2.694
 1909SOL    HW1 6626   0.651   4.438   2.721
 1909SOL    HW2 6627   0.805   4.440   2.776
 1910SOL     OW 6628   0.028   2.894   6.209
 1910SOL    HW1 6629   7.000   2.822   6.258
 1910SOL    HW2 6630   0.032   2.872   6.112
 1911SOL     OW 6631   5.679   3.270   5.504
 1911SOL    HW1 6632   5.591   3.277   5.552
 1911SOL    HW2 6633   5.668   3.296   5.409
 1912SOL     OW 6634   3.447   6.122   0.663
 1912SOL    HW1 6635   3.384   6.199   0.677
 1912SOL    HW2 6636   3.395   6.039   0.645
 1913SOL     OW 6637   1.685   5.808   4.746
 1913SOL    HW1 6638   1.643   5.803   4.656
 1913SOL    HW2 6639   1.616   5.792   4.816
 1914SOL     OW 6640   4.222   2.865   6.463
 1914SOL    HW1 6641   4.284   2.803   6.511
 1914SOL    HW2 6642   4.262   2.957   6.461
 1915SOL     OW 6643   4.339   2.159   5.249
 1915SOL    HW1 6644   4.250   2.175   5.292
 1915SOL    HW2 6645   4.368   2.065   5.269
 1916SOL     OW 6646   4.085   5.739   1.161
 1916SOL    HW1 6647   4.147   5.818   1.163
 1916SOL    HW2 6648   4.126   5.666   1.107
 1917SOL     OW 6649   2.916   3.027   5.405
 1917SOL    HW1 6650   2.984   2.977   5.353
 1917SOL    HW2 6651   2.827   2.981   5.397
 1918SOL     OW 6652   0.770   1.163   5.002
 1918SOL    HW1 6653   0.715   1.209   5.072
 1918SOL    HW2 6654   0.725   1.077   4.976
 1919SOL     OW 6655   2.310   0.385   1.501
 1919SOL    HW1 6656   2.271   0.331   1.575
 1919SOL    HW2 6657   2.369   0.327   1.445
 1920SOL     OW 6658   1.403   4.456   2.695
 1920SOL    HW1 6659   1.410   4.357   2.699
 1920SOL    HW2 6660   1.489   4.494   2.660
 1921SOL     OW 6661   1.235   4.869   6.663
 1921SOL    HW1 6662   1.226   4.871   6.762
 1921SOL    HW2 6663   1.325   4.904   6.637
 1922SOL     OW 6664   2.063   4.184   1.222
 1922SOL    HW1 6665   2.027   4.208   1.312
 1922SOL    HW2 6666   2.157   4.220   1.213
 1923SOL     OW 6667   3.391   0.783   5.310
 1923SOL    HW1 6668   3.329   0.840   5.364
 1923SOL    HW2 6669   3.481   0.826   5.305
 1924SOL     OW 6670   4.523   5.486   1.191
 1924SOL    HW1 6671   4.436   5.465   1.235
 1924SOL    HW2 6672   4.527   5.584   1.171
 1925SOL     OW 6673   1.988   4.751   0.536
 1925SOL    HW1 6674   2.027   4.838   0.565
 1925SOL    HW2 6675   1.912   4.767   0.473
 1926SOL     OW 6676   2.217   6.794   3.357
 1926SOL    HW1 6677   2.239   6.813   3.452
 1926SOL    HW2 6678   2.301   6.770   3.308
 1927SOL     OW 6679   2.619   4.985   6.336
 1927SOL    HW1 6680   2.589   4.914   6.401
 1927SOL    HW2 6681   2.712   5.012   6.358
 1928SOL     OW 6682   6.869   4.492   5.799
 1928SOL    HW1 6683   6.964   4.475   5.825
 1928SOL    HW2 6684   6.830   4.561   5.859
 1929SOL     OW 6685   1.412   5.209   1.322
 1929SOL    HW1 6686   1.479   5.259   1.377
 1929SOL    HW2 6687   1.347   5.163   1.382
 1930SOL     OW 6688   3.405   4.094   6.275
 1930SOL    HW1 6689   3.371   4.072   6.184
 1930SOL    HW2 6690   3.369   4.029   6.341
 1931SOL     OW 6691   0.910   4.169   2.309
 1931SOL    HW1 6692   0.891   4.202   2.401
 1931SOL    HW2 6693   0.878   4.075   2.299
 1932SOL     OW 6694   4.860   3.304   3.370
 1932SOL    HW1 6695   4.861   3.403   3.359
 1932SOL    HW2 6696   4.877   3.261   3.281
 1933SOL     OW 6697   2.066   3.037   0.764
 1933SOL    HW1 6698   2.089   3.111   0.701
 1933SOL    HW2 6699   2.075   3.069   0.858
 1934SOL     OW 6700   0.311   0.056   5.157
 1934SOL    HW1 6701   0.313   0.056   5.057
 1934SOL    HW2 6702   0.392   0.009   5.192
 1935SOL     OW 6703   4.068   6.351   3.816
 1935SOL    HW1 6704   3.984   6.298   3.808
 1935SOL    HW2 6705   4.147   6.291   3.804
 1936SOL     OW 6706   6.162   3.726   3.690
 1936SOL    HW1 6707   6.151   3.656   3.761
 1936SOL    HW2 6708   6.089   3.793   3.698
 1937SOL     OW 6709   4.138   6.921   1.143
 1937SOL    HW1 6710   4.050   6.954   1.109
 1937SOL    HW2 6711   4.123   6.838   1.197
 1938SOL     OW 6712   2.265   1.743   1.827
 1938SOL    HW1 6713   2.324   1.820   1.851
 1938SOL    HW2 6714   2.290   1.663   1.882
 1939SOL     OW 6715   6.334   0.327   4.499
 1939SOL    HW1 6716   6.240   0.357   4.485
 1939SOL    HW2 6717   6.351   0.317   4.597
 1940SOL     OW 6718   5.617   4.924   0.939
 1940SOL    HW1 6719   5.677   4.853   0.902
 1940SOL    HW2 6720   5.602   4.994   0.869
 1941SOL     OW 6721   0.846   3.572   4.544
 1941SOL    HW1 6722   0.867   3.660   4.502
 1941SOL    HW2 6723   0.876   3.572   4.639
 1942SOL     OW 6724   5.382   2.269   1.620
 1942SOL    HW1 6725   5.338   2.256   1.532
 1942SOL    HW2 6726   5.411   2.181   1.657
 1943SOL     OW 6727   2.028   6.032   3.877
 1943SOL    HW1 6728   2.089   5.996   3.947
 1943SOL    HW2 6729   2.019   6.131   3.888
 1944SOL     OW 6730   6.347   2.915   0.170
 1944SOL    HW1 6731   6.255   2.882   0.187
 1944SOL    HW2 6732   6.347   2.971   0.086
 1945SOL     OW 6733   3.516   5.123   0.611
 1945SOL    HW1 6734   3.591   5.059   0.627
 1945SOL    HW2 6735   3.546   5.196   0.550
 1946SOL     OW 6736   6.060   6.594   0.859
 1946SOL    HW1 6737   6.144   6.559   0.900
 1946SOL    HW2 6738   5.998   6.519   0.838
 1947SOL     OW 6739   4.883   6.249   4.282
 1947SOL    HW1 6740   4.941   6.256   4.201
 1947SOL    HW2 6741   4.863   6.153   4.300
 1948SOL     OW 6742   5.811   5.232   3.586
 1948SOL    HW1 6743   5.771   5.154   3.538
 1948SOL    HW2 6744   5.902   5.208   3.619
 1949SOL     OW 6745   3.621   3.601   6.057
 1949SOL    HW1 6746   3.575   3.681   6.097
 1949SOL    HW2 6747   3.616   3.606   5.957
 1950SOL     OW 6748   4.262   3.044   0.560
 1950SOL    HW1 6749   4.175   3.048   0.610
 1950SOL    HW2 6750   4.250   2.995   0.474
 1951SOL     OW 6751   5.984   4.253   0.238
 1951SOL    HW1 6752   5.926   4.266   0.157
 1951SOL    HW2 6753   6.035   4.337   0.256
 1952SOL     OW 6754   4.947   3.711   1.407
 1952SOL    HW1 6755   4.868   3.651   1.396
 1952SOL    HW2 6756   5.002   3.679   1.484
 1953SOL     OW 6757   6.393   1.565   5.662
 1953SOL    HW1 6758   6.423   1.592   5.754
 1953SOL    HW2 6759   6.296   1.585   5.651
 1954SOL     OW 6760   6.880   0.720   2.642
 1954SOL    HW1 6761   6.954   0.666   2.683
 1954SOL    HW2 6762   6.835   0.667   2.571
 1955SOL     OW 6763   0.767   1.071   2.565
 1955SOL    HW1 6764   0.776   1.078   2.466
 1955SOL    HW2 6765   0.698   1.003   2.588
 1956SOL     OW 6766   4.795   0.481   1.946
 1956SOL    HW1 6767   4.729   0.430   2.002
 1956SOL    HW2 6768   4.754   0.567   1.917
 1957SOL     OW 6769   5.634   4.333   4.274
 1957SOL    HW1 6770   5.721   4.282   4.277
 1957SOL    HW2 6771   5.619   4.377   4.363
 1958SOL     OW 6772   4.756   1.983   2.078
 1958SOL    HW1 6773   4.828   2.047   2.108
 1958SOL    HW2 6774   4.759   1.901   2.135
 1959SOL     OW 6775   1.396   0.134   4.021
 1959SOL    HW1 6776   1.475   0.107   4.076
 1959SOL    HW2 6777   1.404   0.230   3.995
 1960SOL     OW 6778   0.217   4.924   1.775
 1960SOL    HW1 6779   0.145   4.973   1.727
 1960SOL    HW2 6780   0.236   4.838   1.728
 1961SOL     OW 6781   5.822   4.334   4.552
 1961SOL    HW1 6782   5.775   4.249   4.528
 1961SOL    HW2 6783   5.920   4.318   4.556
 1962SOL     OW 6784   1.190   6.768   2.856
 1962SOL    HW1 6785   1.091   6.758   2.850
 1962SOL    HW2 6786   1.226   6.704   2.924
 1963SOL     OW 6787   1.076   1.953   1.186
 1963SOL    HW1 6788   1.061   2.001   1.272
 1963SOL    HW2 6789   1.049   2.013   1.110
 1964SOL     OW 6790   4.872   4.555   0.995
 1964SOL    HW1 6791   4.847   4.520   1.086
 1964SOL    HW2 6792   4.816   4.510   0.926
 1965SOL     OW 6793   1.830   2.825   5.021
 1965SOL    HW1 6794   1.846   2.911   4.973
 1965SOL    HW2 6795   1.785   2.760   4.960
 1966SOL     OW 6796   0.344   6.311   0.588
 1966SOL    HW1 6797   0.391   6.286   0.673
 1966SOL    HW2 6798   0.307   6.228   0.546
 1967SOL     OW 6799   5.623   2.788   5.386
 1967SOL    HW1 6800   5.631   2.822   5.293
 1967SOL    HW2 6801   5.713   2.758   5.418
 1968SOL     OW 6802   1.403   6.823   5.064
 1968SOL    HW1 6803   1.344   6.825   5.145
 1968SOL    HW2 6804   1.404   6.913   5.022
 1969SOL     OW 6805   2.290   1.937   0.403
 1969SOL    HW1 6806   2.224   1.944   0.327
 1969SOL    HW2 6807   2.319   1.841   0.413
 1970SOL     OW 6808   2.947   6.180   6.435
 1970SOL    HW1 6809   2.870   6.166   6.373
 1970SOL    HW2 6810   2.914   6.188   6.529
 1971SOL     OW 6811   0.640   0.295   6.006
 1971SOL    HW1 6812   0.694   0.258   6.081
 1971SOL    HW2 6813   0.587   0.222   5.963
 1972SOL     OW 6814   5.391   1.954   2.245
 1972SOL    HW1 6815   5.425   2.048   2.244
 1972SOL    HW2 6816   5.326   1.941   2.170
 1973SOL     OW 6817   2.962   2.765   0.393
 1973SOL    HW1 6818   2.989   2.820   0.472
 1973SOL    HW2 6819   2.862   2.758   0.390
 1974SOL     OW 6820   5.560   6.968   4.958
 1974SOL    HW1 6821   5.594   6.954   4.865
 1974SOL    HW2 6822   5.625   6.929   5.023
 1975SOL     OW 6823   1.762   1.646   4.297
 1975SOL    HW1 6824   1.764   1.546   4.292
 1975SOL    HW2 6825   1.856   1.681   4.289
 1976SOL     OW 6826   6.070   6.990   0.546
 1976SOL    HW1 6827   6.138   0.043   0.548
 1976SOL    HW2 6828   6.051   6.966   0.450
 1977SOL     OW 6829   1.746   3.266   4.994
 1977SOL    HW1 6830   1.783   3.210   4.920
 1977SOL    HW2 6831   1.740   3.361   4.965
 1978SOL     OW 6832   1.913   6.242   3.337
 1978SOL    HW1 6833   1.970   6.216   3.259
 1978SOL    HW2 6834   1.889   6.339   3.330
 1979SOL     OW 6835   5.851   4.521   0.170
 1979SOL    HW1 6836   5.785   4.498   0.243
 1979SOL    HW2 6837   5.811   4.498   0.081
 1980SOL     OW 6838   3.589   6.794   4.213
 1980SOL    HW1 6839   3.541   6.861   4.269
 1980SOL    HW2 6840   3.645   6.736   4.271
 1981SOL     OW 6841   6.910   3.018   1.887
 1981SOL    HW1 6842   6.881   2.988   1.978
 1981SOL    HW2 6843   6.967   2.947   1.846
 1982SOL     OW 6844   0.930   4.143   4.334
 1982SOL    HW1 6845   0.844   4.099   4.310
 1982SOL    HW2 6846   1.005   4.076   4.328
 1983SOL     OW 6847   1.055   0.783   2.352
 1983SOL    HW1 6848   1.123   0.711   2.364
 1983SOL    HW2 6849   1.094   0.871   2.377
 1984SOL     OW 6850   4.973   2.152   5.115
 1984SOL    HW1 6851   4.905   2.140   5.188
 1984SOL    HW2 6852   5.003   2.247   5.113
 1985SOL     OW 6853   1.064   6.381   2.283
 1985SOL    HW1 6854   1.138   6.314   2.290
 1985SOL    HW2 6855   1.098   6.471   2.312
 1986SOL     OW 6856   2.932   1.185   6.958
 1986SOL    HW1 6857   2.905   1.089   6.950
 1986SOL    HW2 6858   2.917   1.231   6.870
 1987SOL     OW 6859   1.917   1.874   2.706
 1987SOL    HW1 6860   1.941   1.812   2.631
 1987SOL    HW2 6861   1.895   1.820   2.787
 1988SOL     OW 6862   6.068   3.471   0.531
 1988SOL    HW1 6863   5.997   3.493   0.464
 1988SOL    HW2 6864   6.025   3.437   0.614
 1989SOL     OW 6865   1.808   5.465   4.917
 1989SOL    HW1 6866   1.887   5.420   4.959
 1989SOL    HW2 6867   1.724   5.425   4.953
 1990SOL     OW 6868   3.776   5.691   0.383
 1990SOL    HW1 6869   3.797   5.789   0.376
 1990SOL    HW2 6870   3.814   5.644   0.303
 1991SOL     OW 6871   2.939   4.768   6.793
 1991SOL    HW1 6872   2.946   4.774   6.893
 1991SOL    HW2 6873   2.991   4.843   6.751
 1992SOL     OW 6874   0.401   1.014   0.205
 1992SOL    HW1 6875   0.343   0.989   0.282
 1992SOL    HW2 6876   0.497   1.005   0.232
 1993SOL     OW 6877   3.741   2.470   5.376
 1993SOL    HW1 6878   3.823   2.516   5.410
 1993SOL    HW2 6879   3.767   2.387   5.328
 1994SOL     OW 6880   0.655   1.270   0.321
 1994SOL    HW1 6881   0.555   1.268   0.321
 1994SOL    HW2 6882   0.689   1.232   0.407
 1995SOL     OW 6883   5.648   2.642   3.718
 1995SOL    HW1 6884   5.633   2.733   3.678
 1995SOL    HW2 6885   5.720   2.595   3.666
 1996SOL     OW 6886   2.277   2.878   0.448
 1996SOL    HW1 6887   2.358   2.854   0.396
 1996SOL    HW2 6888   2.287   2.970   0.486
 1997SOL     OW 6889   2.946   2.052   4.865
 1997SOL    HW1 6890   2.986   1.961   4.875
 1997SOL    HW2 6891   3.015   2.121   4.886
 1998SOL     OW 6892   2.860   3.834   0.091
 1998SOL    HW1 6893   2.839   3.742   0.059
 1998SOL    HW2 6894   2.959   3.845   0.097
 1999SOL     OW 6895   2.076   6.098   5.912
 1999SOL    HW1 6896   2.116   6.157   5.982
 1999SOL    HW2 6897   1.995   6.142   5.873
 2000SOL     OW 6898   4.256   2.711   5.336
 2000SOL    HW1 6899   4.196   2.652   5.282
 2000SOL    HW2 6900   4.211   2.799   5.352
 2001SOL     OW 6901   2.776   0.043   1.722
 2001SOL    HW1 6902   2.679   0.022   1.724
 2001SOL    HW2 6903   2.826   6.997   1.777
 2002SOL     OW 6904   0.815   4.564   6.923
 2002SOL    HW1 6905   0.809   4.465   6.906
 2002SOL    HW2 6906   0.891   4.602   6.870
 2003SOL     OW 6907   6.026   5.534   2.722
 2003SOL    HW1 6908   6.035   5.435   2.710
 2003SOL    HW2 6909   5.969   5.571   2.648
 2004SOL     OW 6910   5.045   1.701   4.353
 2004SOL    HW1 6911   4.954   1.733   4.327
 2004SOL    HW2 6912   5.113   1.740   4.290
 2005SOL     OW 6913   0.167   5.123   0.629
 2005SOL    HW1 6914   0.202   5.093   0.540
 2005SOL    HW2 6915   0.067   5.123   0.628
 2006SOL     OW 6916   5.605   0.013   2.805
 2006SOL    HW1 6917   5.696   0.007   2.848
 2006SOL    HW2 6918   5.586   6.949   2.755
 2007SOL     OW 6919   4.555   4.153   0.790
 2007SOL    HW1 6920   4.515   4.242   0.806
 2007SOL    HW2 6921   4.634   4.140   0.850
 2008SOL     OW 6922   1.867   4.130   4.198
 2008SOL    HW1 6923   1.939   4.156   4.133
 2008SOL    HW2 6924   1.908   4.106   4.286
 2009SOL     OW 6925   5.638   6.880   2.440
 2009SOL    HW1 6926   5.578   6.813   2.395
 2009SOL    HW2 6927   5.593   6.969   2.440
 2010SOL     OW 6928   3.093   1.892   2.161
 2010SOL    HW1 6929   3.028   1.823   2.191
 2010SOL    HW2 6930   3.079   1.976   2.213
 2011SOL     OW 6931   0.119   0.312   5.130
 2011SOL    HW1 6932   0.119   0.366   5.046
 2011SOL    HW2 6933   0.082   0.221   5.113
 2012SOL     OW 6934   1.171   4.454   2.015
 2012SOL    HW1 6935   1.179   4.540   2.065
 2012SOL    HW2 6936   1.241   4.390   2.047
 2013SOL     OW 6937   6.610   2.611   2.990
 2013SOL    HW1 6938   6.689   2.632   2.931
 2013SOL    HW2 6939   6.624   2.522   3.034
 2014SOL     OW 6940   2.433   6.303   3.454
 2014SOL    HW1 6941   2.467   6.265   3.368
 2014SOL    HW2 6942   2.353   6.360   3.437
 2015SOL     OW 6943   2.138   0.562   0.279
 2015SOL    HW1 6944   2.235   0.568   0.255
 2015SOL    HW2 6945   2.121   0.611   0.364
 2016SOL     OW 6946   1.587   6.099   5.974
 2016SOL    HW1 6947   1.552   6.192   5.961
 2016SOL    HW2 6948   1.608   6.058   5.885
 2017SOL     OW 6949   3.743   0.246   3.674
 2017SOL    HW1 6950   3.666   0.282   3.621
 2017SOL    HW2 6951   3.732   0.272   3.771
 2018SOL     OW 6952   5.414   2.184   4.321
 2018SOL    HW1 6953   5.401   2.283   4.335
 2018SOL    HW2 6954   5.418   2.139   4.410
 2019SOL     OW 6955   5.278   3.551   6.237
 2019SOL    HW1 6956   5.261   3.581   6.143
 2019SOL    HW2 6957   5.297   3.631   6.294
 2020SOL     OW 6958   1.829   0.019   5.105
 2020SOL    HW1 6959   1.925   7.011   5.102
 2020SOL    HW2 6960   1.771   6.962   5.129
 2021SOL     OW 6961   0.104   6.638   4.645
 2021SOL    HW1 6962   0.186   6.692   4.666
 2021SOL    HW2 6963   0.105   6.612   4.548
 2022SOL     OW 6964   1.457   5.153   3.464
 2022SOL    HW1 6965   1.485   5.089   3.392
 2022SOL    HW2 6966   1.510   5.135   3.547
 2023SOL     OW 6967   6.987   0.741   6.509
 2023SOL    HW1 6968   7.002   0.836   6.482
 2023SOL    HW2 6969   6.996   0.681   6.429
 2024SOL     OW 6970   6.979   5.998   3.082
 2024SOL    HW1 6971   6.887   5.963   3.067
 2024SOL    HW2 6972   6.984   6.045   3.170
 2025SOL     OW 6973   3.323   1.310   3.958
 2025SOL    HW1 6974   3.230   1.293   3.924
 2025SOL    HW2 6975   3.389   1.262   3.900
 2026SOL     OW 6976   6.420   3.591   5.707
 2026SOL    HW1 6977   6.329   3.625   5.688
 2026SOL    HW2 6978   6.442   3.607   5.804
 2027SOL     OW 6979   0.972   0.178   0.375
 2027SOL    HW1 6980   0.900   0.248   0.369
 2027SOL    HW2 6981   1.033   0.187   0.296
 2028SOL     OW 6982   2.988   5.429   4.517
 2028SOL    HW1 6983   2.953   5.335   4.521
 2028SOL    HW2 6984   2.940   5.479   4.444
 2029SOL     OW 6985   6.556   1.647   0.225
 2029SOL    HW1 6986   6.483   1.704   0.264
 2029SOL    HW2 6987   6.625   1.630   0.296
 2030SOL     OW 6988   2.816   0.906   3.795
 2030SOL    HW1 6989   2.909   0.910   3.832
 2030SOL    HW2 6990   2.781   0.999   3.785
 2031SOL     OW 6991   6.838   5.753   1.473
 2031SOL    HW1 6992   6.804   5.674   1.525
 2031SOL    HW2 6993   6.862   5.827   1.536
 2032SOL     OW 6994   4.313   0.868   1.809
 2032SOL    HW1 6995   4.337   0.845   1.715
 2032SOL    HW2 6996   4.364   0.809   1.872
 2033SOL     OW 6997   3.378   2.770   6.705
 2033SOL    HW1 6998   3.451   2.827   6.742
 2033SOL    HW2 6999   3.417   2.695   6.652
 2034SOL     OW 7000   2.220   5.177   5.305
 2034SOL    HW1 7001   2.170   5.135   5.230
 2034SOL    HW2 7002   2.308   5.212   5.271
 2035SOL     OW 7003   6.406   6.283   3.781
 2035SOL    HW1 7004   6.430   6.315   3.874
 2035SOL    HW2 7005   6.400   6.184   3.781
 2036SOL     OW 7006   0.570   3.862   3.029
 2036SOL    HW1 7007   0.581   3.947   2.978
 2036SOL    HW2 7008   0.653   3.807   3.022
 2037SOL     OW 7009   6.552   3.154   5.873
 2037SOL    HW1 7010   6.550   3.075   5.813
 2037SOL    HW2 7011   6.459   3.178   5.900
 2038SOL     OW 7012   2.101   1.864   0.207
 2038SOL    HW1 7013   2.030   1.914   0.158
 2038SOL    HW2 7014   2.146   1.801   0.144
 2039SOL     OW 7015   0.083   5.597   3.497
 2039SOL    HW1 7016   0.112   5.502   3.500
 2039SOL    HW2 7017   7.020   5.608   3.550
 2040SOL     OW 7018   2.121   2.969   6.113
 2040SOL    HW1 7019   2.111   2.919   6.027
 2040SOL    HW2 7020   2.135   3.066   6.094
 2041SOL     OW 7021   0.994   6.436   5.711
 2041SOL    HW1 7022   1.069   6.450   5.776
 2041SOL    HW2 7023   1.022   6.369   5.642
 2042SOL     OW 7024   4.617   6.254   6.849
 2042SOL    HW1 7025   4.611   6.348   6.884
 2042SOL    HW2 7026   4.536   6.203   6.877
 2043SOL     OW 7027   6.197   3.815   3.163
 2043SOL    HW1 7028   6.138   3.752   3.113
 2043SOL    HW2 7029   6.219   3.775   3.252
 2044SOL     OW 7030   7.006   0.733   1.537
 2044SOL    HW1 7031   6.942   0.685   1.597
 2044SOL    HW2 7032   0.037   0.667   1.483
 2045SOL     OW 7033   1.876   5.105   4.195
 2045SOL    HW1 7034   1.812   5.072   4.264
 2045SOL    HW2 7035   1.966   5.120   4.237
 2046SOL     OW 7036   6.857   1.685   4.314
 2046SOL    HW1 7037   6.872   1.587   4.312
 2046SOL    HW2 7038   6.807   1.710   4.397
 2047SOL     OW 7039   0.063   3.199   0.527
 2047SOL    HW1 7040   6.996   3.208   0.479
 2047SOL    HW2 7041   0.056   3.125   0.594
 2048SOL     OW 7042   1.350   6.675   5.682
 2048SOL    HW1 7043   1.399   6.759   5.657
 2048SOL    HW2 7044   1.385   6.599   5.628
 2049SOL     OW 7045   5.865   1.621   4.051
 2049SOL    HW1 7046   5.789   1.561   4.027
 2049SOL    HW2 7047   5.881   1.616   4.150
 2050SOL     OW 7048   6.393   2.644   3.808
 2050SOL    HW1 7049   6.326   2.714   3.833
 2050SOL    HW2 7050   6.444   2.616   3.889
 2051SOL     OW 7051   1.267   6.022   6.781
 2051SOL    HW1 7052   1.351   5.985   6.739
 2051SOL    HW2 7053   1.281   6.032   6.879
 2052SOL     OW 7054   1.933   3.110   1.617
 2052SOL    HW1 7055   1.871   3.121   1.694
 2052SOL    HW2 7056   1.991   3.030   1.630
 2053SOL     OW 7057   6.241   5.901   4.571
 2053SOL    HW1 7058   6.285   5.971   4.627
 2053SOL    HW2 7059   6.171   5.855   4.625
 2054SOL     OW 7060   3.520   4.190   3.442
 2054SOL    HW1 7061   3.488   4.111   3.389
 2054SOL    HW2 7062   3.461   4.268   3.424
 2055SOL     OW 7063   5.358   3.331   4.184
 2055SOL    HW1 7064   5.345   3.287   4.095
 2055SOL    HW2 7065   5.440   3.388   4.181
 2056SOL     OW 7066   4.290   5.619   0.983
 2056SOL    HW1 7067   4.304   5.599   0.886
 2056SOL    HW2 7068   4.366   5.674   1.017
 2057SOL     OW 7069   5.119   4.499   6.003
 2057SOL    HW1 7070   5.111   4.436   5.925
 2057SOL    HW2 7071   5.117   4.447   6.088
 2058SOL     OW 7072   0.657   0.082   3.507
 2058SOL    HW1 7073   0.618   0.003   3.459
 2058SOL    HW2 7074   0.701   0.142   3.441
 2059SOL     OW 7075   1.512   5.890   6.165
 2059SOL    HW1 7076   1.460   5.866   6.083
 2059SOL    HW2 7077   1.573   5.966   6.145
 2060SOL     OW 7078   0.502   3.860   1.451
 2060SOL    HW1 7079   0.419   3.834   1.401
 2060SOL    HW2 7080   0.476   3.915   1.531
 2061SOL     OW 7081   1.759   1.916   2.043
 2061SOL    HW1 7082   1.779   1.920   1.945
 2061SOL    HW2 7083   1.832   1.963   2.093
 2062SOL     OW 7084   6.724   5.416   5.411
 2062SOL    HW1 7085   6.804   5.469   5.386
 2062SOL    HW2 7086   6.673   5.390   5.329
 2063SOL     OW 7087   1.075   6.931   5.157
 2063SOL    HW1 7088   1.127   7.016   5.145
 2063SOL    HW2 7089   0.978   6.948   5.139
 2064SOL     OW 7090   0.034   2.511   4.655
 2064SOL    HW1 7091   7.008   2.555   4.579
 2064SOL    HW2 7092   0.050   2.415   4.634
 2065SOL     OW 7093   6.026   2.387   5.673
 2065SOL    HW1 7094   6.116   2.418   5.703
 2065SOL    HW2 7095   5.960   2.462   5.679
 2066SOL     OW 7096   6.859   4.486   4.902
 2066SOL    HW1 7097   6.774   4.459   4.857
 2066SOL    HW2 7098   6.894   4.410   4.957
 2067SOL     OW 7099   6.933   5.242   0.829
 2067SOL    HW1 7100   6.879   5.325   0.840
 2067SOL    HW2 7101   7.005   5.239   0.899
 2068SOL     OW 7102   2.338   0.431   4.428
 2068SOL    HW1 7103   2.251   0.481   4.430
 2068SOL    HW2 7104   2.322   0.338   4.394
 2069SOL     OW 7105   6.575   2.560   3.978
 2069SOL    HW1 7106   6.635   2.640   3.970
 2069SOL    HW2 7107   6.631   2.478   3.994
 2070SOL     OW 7108   1.297   1.573   0.426
 2070SOL    HW1 7109   1.355   1.549   0.348
 2070SOL    HW2 7110   1.354   1.583   0.507
 2071SOL     OW 7111   5.967   0.764   5.786
 2071SOL    HW1 7112   6.021   0.705   5.846
 2071SOL    HW2 7113   5.878   0.782   5.829
 2072SOL     OW 7114   4.730   5.168   5.014
 2072SOL    HW1 7115   4.725   5.095   4.945
 2072SOL    HW2 7116   4.679   5.140   5.095
 2073SOL     OW 7117   4.426   6.748   5.112
 2073SOL    HW1 7118   4.384   6.740   5.021
 2073SOL    HW2 7119   4.385   6.825   5.160
 2074SOL     OW 7120   2.180   2.549   6.166
 2074SOL    HW1 7121   2.104   2.505   6.215
 2074SOL    HW2 7122   2.249   2.580   6.232
 2075SOL     OW 7123   6.953   2.641   2.759
 2075SOL    HW1 7124   6.947   2.559   2.816
 2075SOL    HW2 7125   0.027   2.671   2.755
 2076SOL     OW 7126   5.252   6.558   6.353
 2076SOL    HW1 7127   5.271   6.515   6.265
 2076SOL    HW2 7128   5.326   6.622   6.376
 2077SOL     OW 7129   6.876   1.829   2.029
 2077SOL    HW1 7130   6.968   1.815   2.066
 2077SOL    HW2 7131   6.831   1.741   2.019
 2078SOL     OW 7132   1.706   5.083   6.524
 2078SOL    HW1 7133   1.657   5.122   6.446
 2078SOL    HW2 7134   1.696   5.144   6.603
 2079SOL     OW 7135   0.271   1.775   3.021
 2079SOL    HW1 7136   0.316   1.784   3.110
 2079SOL    HW2 7137   0.222   1.860   3.000
 2080SOL     OW 7138   2.254   0.575   4.887
 2080SOL    HW1 7139   2.170   0.574   4.833
 2080SOL    HW2 7140   2.269   0.484   4.926
 2081SOL     OW 7141   0.731   6.530   4.434
 2081SOL    HW1 7142   0.713   6.579   4.519
 2081SOL    HW2 7143   0.747   6.434   4.454
 2082SOL     OW 7144   0.872   6.626   3.080
 2082SOL    HW1 7145   0.868   6.686   3.001
 2082SOL    HW2 7146   0.906   6.536   3.052
 2083SOL     OW 7147   1.226   5.555   5.384
 2083SOL    HW1 7148   1.158   5.545   5.457
 2083SOL    HW2 7149   1.317   5.537   5.420
 2084SOL     OW 7150   0.862   4.235   2.567
 2084SOL    HW1 7151   0.795   4.303   2.597
 2084SOL    HW2 7152   0.829   4.143   2.588
 2085SOL     OW 7153   4.731   0.656   1.057
 2085SOL    HW1 7154   4.674   0.630   0.979
 2085SOL    HW2 7155   4.709   0.750   1.084
 2086SOL     OW 7156   3.357   6.723   0.106
 2086SOL    HW1 7157   3.385   6.818   0.103
 2086SOL    HW2 7158   3.437   6.664   0.096
 2087SOL     OW 7159   5.238   1.674   1.664
 2087SOL    HW1 7160   5.234   1.586   1.712
 2087SOL    HW2 7161   5.158   1.729   1.689
 2088SOL     OW 7162   1.047   5.831   6.845
 2088SOL    HW1 7163   1.094   5.905   6.797
 2088SOL    HW2 7164   1.114   5.775   6.895
 2089SOL     OW 7165   4.595   2.790   6.097
 2089SOL    HW1 7166   4.596   2.880   6.053
 2089SOL    HW2 7167   4.689   2.756   6.105
 2090SOL     OW 7168   4.214   3.271   5.646
 2090SOL    HW1 7169   4.203   3.363   5.684
 2090SOL    HW2 7170   4.285   3.222   5.697
 2091SOL     OW 7171   6.672   4.570   0.772
 2091SOL    HW1 7172   6.748   4.511   0.798
 2091SOL    HW2 7173   6.696   4.620   0.689
 2092SOL     OW 7174   5.495   3.650   0.523
 2092SOL    HW1 7175   5.455   3.671   0.613
 2092SOL    HW2 7176   5.547   3.565   0.529
 2093SOL     OW 7177   3.143   2.370   1.731
 2093SOL    HW1 7178   3.190   2.291   1.770
 2093SOL    HW2 7179   3.079   2.407   1.798
 2094SOL     OW 7180   5.810   1.613   1.675
 2094SOL    HW1 7181   5.732   1.550   1.680
 2094SOL    HW2 7182   5.894   1.560   1.664
 2095SOL     OW 7183   5.915   6.435   4.795
 2095SOL    HW1 7184   5.846   6.363   4.788
 2095SOL    HW2 7185   5.987   6.418   4.727
 2096SOL     OW 7186   4.749   5.145   3.643
 2096SOL    HW1 7187   4.715   5.237   3.660
 2096SOL    HW2 7188   4.775   5.136   3.547
 2097SOL     OW 7189   2.943   2.872   6.484
 2097SOL    HW1 7190   2.953   2.961   6.440
 2097SOL    HW2 7191   2.999   2.869   6.567
 2098SOL     OW 7192   4.230   5.577   1.946
 2098SOL    HW1 7193   4.312   5.561   1.891
 2098SOL    HW2 7194   4.150   5.541   1.898
 2099SOL     OW 7195   3.559   1.334   0.308
 2099SOL    HW1 7196   3.495   1.406   0.335
 2099SOL    HW2 7197   3.525   1.245   0.338
 2100SOL     OW 7198   5.875   1.541   0.710
 2100SOL    HW1 7199   5.779   1.557   0.688
 2100SOL    HW2 7200   5.916   1.626   0.745
 2101SOL     OW 7201   0.372   6.583   0.993
 2101SOL    HW1 7202   0.301   6.517   1.017
 2101SOL    HW2 7203   0.333   6.652   0.932
 2102SOL     OW 7204   5.320   3.792   1.985
 2102SOL    HW1 7205   5.337   3.859   1.913
 2102SOL    HW2 7206   5.228   3.755   1.976
 2103SOL     OW 7207   3.208   3.597   6.954
 2103SOL    HW1 7208   3.284   3.586   6.889
 2103SOL    HW2 7209   3.122   3.604   6.904
 2104SOL     OW 7210   1.643   4.593   2.587
 2104SOL    HW1 7211   1.705   4.577   2.664
 2104SOL    HW2 7212   1.646   4.690   2.561
 2105SOL     OW 7213   4.502   4.412   6.419
 2105SOL    HW1 7214   4.581   4.394   6.360
 2105SOL    HW2 7215   4.530   4.408   6.515
 2106SOL     OW 7216   5.191   3.931   1.539
 2106SOL    HW1 7217   5.128   3.902   1.611
 2106SOL    HW2 7218   5.190   4.031   1.532
 2107SOL     OW 7219   6.166   2.158   5.626
 2107SOL    HW1 7220   6.243   2.146   5.688
 2107SOL    HW2 7221   6.112   2.238   5.653
 2108SOL     OW 7222   6.266   5.215   5.186
 2108SOL    HW1 7223   6.328   5.230   5.263
 2108SOL    HW2 7224   6.213   5.298   5.168
 2109SOL     OW 7225   3.831   6.098   2.401
 2109SOL    HW1 7226   3.908   6.101   2.465
 2109SOL    HW2 7227   3.826   6.007   2.360
 2110SOL     OW 7228   2.995   1.073   0.638
 2110SOL    HW1 7229   2.899   1.046   0.638
 2110SOL    HW2 7230   3.004   1.167   0.672
 2111SOL     OW 7231   2.222   3.431   6.490
 2111SOL    HW1 7232   2.260   3.523   6.480
 2111SOL    HW2 7233   2.142   3.434   6.550
 2112SOL     OW 7234   4.810   2.085   0.618
 2112SOL    HW1 7235   4.854   2.118   0.702
 2112SOL    HW2 7236   4.787   2.163   0.560
 2113SOL     OW 7237   2.330   1.245   5.134
 2113SOL    HW1 7238   2.233   1.253   5.157
 2113SOL    HW2 7239   2.350   1.305   5.057
 2114SOL     OW 7240   2.665   1.618   6.472
 2114SOL    HW1 7241   2.747   1.566   6.448
 2114SOL    HW2 7242   2.604   1.622   6.393
 2115SOL     OW 7243   0.655   4.380   2.019
 2115SOL    HW1 7244   0.597   4.444   2.070
 2115SOL    HW2 7245   0.635   4.386   1.922
 2116SOL     OW 7246   1.262   3.482   2.468
 2116SOL    HW1 7247   1.205   3.533   2.533
 2116SOL    HW2 7248   1.217   3.481   2.379
 2117SOL     OW 7249   5.874   4.061   1.436
 2117SOL    HW1 7250   5.859   4.124   1.360
 2117SOL    HW2 7251   5.918   3.978   1.402
 2118SOL     OW 7252   6.613   3.143   3.420
 2118SOL    HW1 7253   6.607   3.084   3.339
 2118SOL    HW2 7254   6.525   3.144   3.467
 2119SOL     OW 7255   2.005   0.060   0.606
 2119SOL    HW1 7256   1.937   0.131   0.590
 2119SOL    HW2 7257   2.051   0.077   0.694
 2120SOL     OW 7258   0.565   3.970   2.708
 2120SOL    HW1 7259   0.657   3.964   2.669
 2120SOL    HW2 7260   0.501   3.920   2.650
 2121SOL     OW 7261   1.369   2.063   5.712
 2121SOL    HW1 7262   1.336   1.969   5.709
 2121SOL    HW2 7263   1.309   2.121   5.655
 2122SOL     OW 7264   5.459   5.987   6.415
 2122SOL    HW1 7265   5.493   5.893   6.411
 2122SOL    HW2 7266   5.406   5.999   6.499
 2123SOL     OW 7267   6.606   5.885   1.371
 2123SOL    HW1 7268   6.594   5.854   1.276
 2123SOL    HW2 7269   6.699   5.866   1.401
 2124SOL     OW 7270   2.799   1.651   0.103
 2124SOL    HW1 7271   2.770   1.684   0.013
 2124SOL    HW2 7272   2.849   1.723   0.150
 2125SOL     OW 7273   0.991   5.898   1.934
 2125SOL    HW1 7274   1.013   5.804   1.906
 2125SOL    HW2 7275   1.027   5.915   2.026
 2126SOL     OW 7276   3.477   2.487   6.839
 2126SOL    HW1 7277   3.436   2.528   6.757
 2126SOL    HW2 7278   3.445   2.536   6.920
 2127SOL     OW 7279   0.839   1.498   5.388
 2127SOL    HW1 7280   0.760   1.462   5.438
 2127SOL    HW2 7281   0.883   1.424   5.337
 2128SOL     OW 7282   6.381   2.824   2.526
 2128SOL    HW1 7283   6.290   2.807   2.488
 2128SOL    HW2 7284   6.395   2.766   2.606
 2129SOL     OW 7285   4.595   4.325   5.113
 2129SOL    HW1 7286   4.507   4.364   5.085
 2129SOL    HW2 7287   4.586   4.283   5.202
 2130SOL     OW 7288   2.910   0.226   2.461
 2130SOL    HW1 7289   2.895   0.267   2.371
 2130SOL    HW2 7290   3.007   0.205   2.473
 2131SOL     OW 7291   5.186   1.135   0.628
 2131SOL    HW1 7292   5.121   1.202   0.665
 2131SOL    HW2 7293   5.137   1.066   0.575
 2132SOL     OW 7294   2.969   2.081   6.772
 2132SOL    HW1 7295   2.980   2.016   6.848
 2132SOL    HW2 7296   3.024   2.051   6.694
 2133SOL     OW 7297   3.486   2.772   0.859
 2133SOL    HW1 7298   3.471   2.866   0.891
 2133SOL    HW2 7299   3.399   2.730   0.835
 2134SOL     OW 7300   0.887   0.998   4.485
 2134SOL    HW1 7301   0.824   1.010   4.408
 2134SOL    HW2 7302   0.946   0.919   4.468
 2135SOL     OW 7303   0.789   1.287   4.449
 2135SOL    HW1 7304   0.727   1.208   4.442
 2135SOL    HW2 7305   0.853   1.286   4.372
 2136SOL     OW 7306   1.284   4.307   4.923
 2136SOL    HW1 7307   1.238   4.304   5.011
 2136SOL    HW2 7308   1.236   4.246   4.859
 2137SOL     OW 7309   6.928   6.239   4.345
 2137SOL    HW1 7310   6.931   6.189   4.258
 2137SOL    HW2 7311   6.981   6.188   4.414
 2138SOL     OW 7312   6.717   1.604   2.011
 2138SOL    HW1 7313   6.661   1.631   1.933
 2138SOL    HW2 7314   6.694   1.510   2.038
 2139SOL     OW 7315   3.770   0.601   2.728
 2139SOL    HW1 7316   3.675   0.602   2.695
 2139SOL    HW2 7317   3.774   0.557   2.817
 2140SOL     OW 7318   3.080   5.772   3.193
 2140SOL    HW1 7319   3.028   5.771   3.108
 2140SOL    HW2 7320   3.114   5.680   3.213
 2141SOL     OW 7321   0.230   3.952   0.948
 2141SOL    HW1 7322   0.132   3.934   0.957
 2141SOL    HW2 7323   0.267   3.896   0.874
 2142SOL     OW 7324   1.220   2.126   2.672
 2142SOL    HW1 7325   1.146   2.160   2.614
 2142SOL    HW2 7326   1.202   2.031   2.696
 2143SOL     OW 7327   3.477   5.030   1.386
 2143SOL    HW1 7328   3.491   4.953   1.324
 2143SOL    HW2 7329   3.406   5.007   1.452
 2144SOL     OW 7330   1.257   6.997   2.950
 2144SOL    HW1 7331   1.241   6.905   2.916
 2144SOL    HW2 7332   1.283   0.036   2.875
 2145SOL     OW 7333   3.756   5.888   3.780
 2145SOL    HW1 7334   3.835   5.890   3.843
 2145SOL    HW2 7335   3.679   5.935   3.822
 2146SOL     OW 7336   2.908   3.282   2.329
 2146SOL    HW1 7337   2.960   3.197   2.321
 2146SOL    HW2 7338   2.824   3.275   2.275
 2147SOL     OW 7339   0.065   0.536   6.992
 2147SOL    HW1 7340   0.086   0.625   0.013
 2147SOL    HW2 7341   6.987   0.518   7.001
 2148SOL     OW 7342   5.158   2.923   4.325
 2148SOL    HW1 7343   5.087   2.892   4.388
 2148SOL    HW2 7344   5.238   2.864   4.333
 2149SOL     OW 7345   3.682   1.006   1.322
 2149SOL    HW1 7346   3.773   0.965   1.311
 2149SOL    HW2 7347   3.649   1.037   1.233
 2150SOL     OW 7348   2.085   2.597   2.661
 2150SOL    HW1 7349   2.154   2.581   2.591
 2150SOL    HW2 7350   2.128   2.636   2.742
 2151SOL     OW 7351   1.679   1.532   3.986
 2151SOL    HW1 7352   1.691   1.628   3.962
 2151SOL    HW2 7353   1.586   1.503   3.963
 2152SOL     OW 7354   3.574   6.415   1.191
 2152SOL    HW1 7355   3.574   6.322   1.228
 2152SOL    HW2 7356   3.646   6.423   1.122
 2153SOL     OW 7357   3.853   0.036   3.043
 2153SOL    HW1 7358   3.815   6.971   3.078
 2153SOL    HW2 7359   3.794   0.112   3.070
 2154SOL     OW 7360   5.026   0.451   4.573
 2154SOL    HW1 7361   5.088   0.442   4.496
 2154SOL    HW2 7362   4.941   0.495   4.543
 2155SOL     OW 7363   1.957   5.689   0.242
 2155SOL    HW1 7364   1.885   5.758   0.249
 2155SOL    HW2 7365   2.010   5.704   0.159
 2156SOL     OW 7366   2.728   0.143   2.649
 2156SOL    HW1 7367   2.694   0.234   2.669
 2156SOL    HW2 7368   2.768   0.141   2.557
 2157SOL     OW 7369   5.942   1.381   3.288
 2157SOL    HW1 7370   5.982   1.439   3.359
 2157SOL    HW2 7371   5.852   1.417   3.262
 2158SOL     OW 7372   4.429   6.086   0.920
 2158SOL    HW1 7373   4.514   6.071   0.870
 2158SOL    HW2 7374   4.450   6.123   1.011
 2159SOL     OW 7375   1.779   5.553   5.489
 2159SOL    HW1 7376   1.792   5.514   5.398
 2159SOL    HW2 7377   1.687   5.591   5.497
 2160SOL     OW 7378   4.247   3.094   1.466
 2160SOL    HW1 7379   4.255   3.143   1.553
 2160SOL    HW2 7380   4.322   3.122   1.405
 2161SOL     OW 7381   5.494   2.640   3.468
 2161SOL    HW1 7382   5.542   2.613   3.551
 2161SOL    HW2 7383   5.398   2.612   3.474
 2162SOL     OW 7384   3.011   0.703   0.073
 2162SOL    HW1 7385   2.969   0.763   0.005
 2162SOL    HW2 7386   3.098   0.742   0.103
 2163SOL     OW 7387   0.361   5.552   6.060
 2163SOL    HW1 7388   0.293   5.497   6.109
 2163SOL    HW2 7389   0.333   5.562   5.965
 2164SOL     OW 7390   1.469   2.565   0.133
 2164SOL    HW1 7391   1.463   2.571   0.033
 2164SOL    HW2 7392   1.487   2.470   0.160
 2165SOL     OW 7393   0.961   1.744   2.664
 2165SOL    HW1 7394   1.061   1.743   2.668
 2165SOL    HW2 7395   0.931   1.807   2.593
 2166SOL     OW 7396   2.226   2.154   5.361
 2166SOL    HW1 7397   2.242   2.235   5.417
 2166SOL    HW2 7398   2.136   2.160   5.318
 2167SOL     OW 7399   1.896   1.035   3.364
 2167SOL    HW1 7400   1.839   0.954   3.354
 2167SOL    HW2 7401   1.964   1.019   3.435
 2168SOL     OW 7402   0.209   2.247   3.808
 2168SOL    HW1 7403   0.291   2.197   3.836
 2168SOL    HW2 7404   0.170   2.204   3.726
 2169SOL     OW 7405   5.884   2.180   5.780
 2169SOL    HW1 7406   5.937   2.143   5.857
 2169SOL    HW2 7407   5.943   2.239   5.725
 2170SOL     OW 7408   5.793   4.877   5.811
 2170SOL    HW1 7409   5.720   4.865   5.878
 2170SOL    HW2 7410   5.877   4.833   5.845
 2171SOL     OW 7411   6.187   3.219   0.857
 2171SOL    HW1 7412   6.196   3.122   0.833
 2171SOL    HW2 7413   6.234   3.236   0.944
 2172SOL     OW 7414   2.374   1.697   0.603
 2172SOL    HW1 7415   2.424   1.695   0.690
 2172SOL    HW2 7416   2.438   1.708   0.528
 2173SOL     OW 7417   3.932   0.156   5.627
 2173SOL    HW1 7418   3.993   0.109   5.691
 2173SOL    HW2 7419   3.838   0.149   5.659
 2174SOL     OW 7420   5.989   5.139   6.025
 2174SOL    HW1 7421   5.970   5.220   5.969
 2174SOL    HW2 7422   5.916   5.127   6.092
 2175SOL     OW 7423   3.338   2.118   3.460
 2175SOL    HW1 7424   3.430   2.149   3.484
 2175SOL    HW2 7425   3.303   2.056   3.531
 2176SOL     OW 7426   0.714   2.698   0.782
 2176SOL    HW1 7427   0.654   2.619   0.769
 2176SOL    HW2 7428   0.760   2.719   0.696
 2177SOL     OW 7429   6.530   0.462   2.921
 2177SOL    HW1 7430   6.435   0.493   2.923
 2177SOL    HW2 7431   6.585   0.530   2.872
 2178SOL     OW 7432   2.041   4.510   0.471
 2178SOL    HW1 7433   2.061   4.441   0.541
 2178SOL    HW2 7434   2.023   4.598   0.516
 2179SOL     OW 7435   2.082   5.454   4.800
 2179SOL    HW1 7436   2.012   5.524   4.810
 2179SOL    HW2 7437   2.071   5.407   4.712
 2180SOL     OW 7438   2.961   3.582   2.144
 2180SOL    HW1 7439   2.930   3.596   2.050
 2180SOL    HW2 7440   2.907   3.510   2.187
 2181SOL     OW 7441   5.308   4.697   6.033
 2181SOL    HW1 7442   5.234   4.629   6.041
 2181SOL    HW2 7443   5.300   4.745   5.946
 2182SOL     OW 7444   5.990   3.228   4.769
 2182SOL    HW1 7445   5.992   3.306   4.832
 2182SOL    HW2 7446   5.933   3.156   4.807
 2183SOL     OW 7447   3.560   3.756   6.271
 2183SOL    HW1 7448   3.617   3.674   6.274
 2183SOL    HW2 7449   3.567   3.804   6.359
 2184SOL     OW 7450   3.651   1.184   5.226
 2184SOL    HW1 7451   3.684   1.263   5.176
 2184SOL    HW2 7452   3.725   1.147   5.283
 2185SOL     OW 7453   1.470   2.396   0.808
 2185SOL    HW1 7454   1.426   2.466   0.863
 2185SOL    HW2 7455   1.546   2.436   0.756
 2186SOL     OW 7456   0.188   4.837   2.587
 2186SOL    HW1 7457   0.180   4.842   2.487
 2186SOL    HW2 7458   0.183   4.742   2.616
 2187SOL     OW 7459   0.817   1.934   1.436
 2187SOL    HW1 7460   0.722   1.961   1.451
 2187SOL    HW2 7461   0.827   1.893   1.345
 2188SOL     OW 7462   5.493   5.854   4.273
 2188SOL    HW1 7463   5.582   5.811   4.252
 2188SOL    HW2 7464   5.430   5.784   4.307
 2189SOL     OW 7465   1.662   6.371   6.521
 2189SOL    HW1 7466   1.747   6.406   6.560
 2189SOL    HW2 7467   1.584   6.415   6.566
 2190SOL     OW 7468   0.214   2.415   1.854
 2190SOL    HW1 7469   0.252   2.328   1.823
 2190SOL    HW2 7470   0.151   2.399   1.930
 2191SOL     OW 7471   3.050   1.660   6.125
 2191SOL    HW1 7472   3.126   1.699   6.074
 2191SOL    HW2 7473   2.992   1.607   6.063
 2192SOL     OW 7474   3.653   0.011   3.936
 2192SOL    HW1 7475   3.727   6.969   3.962
 2192SOL    HW2 7476   3.605   6.995   3.856
 2193SOL     OW 7477   6.909   6.408   6.053
 2193SOL    HW1 7478   6.874   6.464   5.978
 2193SOL    HW2 7479   7.001   6.440   6.078
 2194SOL     OW 7480   2.407   4.480   6.765
 2194SOL    HW1 7481   2.353   4.476   6.681
 2194SOL    HW2 7482   2.442   4.573   6.776
 2195SOL     OW 7483   0.751   6.498   2.824
 2195SOL    HW1 7484   0.784   6.423   2.880
 2195SOL    HW2 7485   0.787   6.489   2.731
 2196SOL     OW 7486   3.210   0.420   5.539
 2196SOL    HW1 7487   3.181   0.337   5.492
 2196SOL    HW2 7488   3.193   0.499   5.480
 2197SOL     OW 7489   4.851   3.582   1.703
 2197SOL    HW1 7490   4.834   3.529   1.786
 2197SOL    HW2 7491   4.798   3.544   1.627
 2198SOL     OW 7492   6.440   1.915   0.075
 2198SOL    HW1 7493   6.427   1.855   0.155
 2198SOL    HW2 7494   6.508   1.984   0.096
 2199SOL     OW 7495   5.312   1.000   1.774
 2199SOL    HW1 7496   5.398   0.959   1.805
 2199SOL    HW2 7497   5.248   0.927   1.748
 2200SOL     OW 7498   4.168   0.362   4.832
 2200SOL    HW1 7499   4.122   0.400   4.913
 2200SOL    HW2 7500   4.117   0.283   4.798
 2201SOL     OW 7501   6.755   2.918   2.086
 2201SOL    HW1 7502   6.707   2.969   2.157
 2201SOL    HW2 7503   6.688   2.875   2.025
 2202SOL     OW 7504   3.728   5.390   4.166
 2202SOL    HW1 7505   3.635   5.422   4.184
 2202SOL    HW2 7506   3.743   5.383   4.068
 2203SOL     OW 7507   2.105   2.245   1.934
 2203SOL    HW1 7508   2.008   2.227   1.953
 2203SOL    HW2 7509   2.130   2.335   1.968
 2204SOL     OW 7510   3.501   1.368   0.053
 2204SOL    HW1 7511   3.495   1.339   0.148
 2204SOL    HW2 7512   3.571   1.438   0.043
 2205SOL     OW 7513   1.728   6.981   6.226
 2205SOL    HW1 7514   1.813   6.963   6.275
 2205SOL    HW2 7515   1.741   0.038   6.164
 2206SOL     OW 7516   3.103   4.290   5.260
 2206SOL    HW1 7517   3.056   4.375   5.234
 2206SOL    HW2 7518   3.078   4.218   5.196
 2207SOL     OW 7519   1.923   3.953   6.205
 2207SOL    HW1 7520   2.013   3.912   6.219
 2207SOL    HW2 7521   1.852   3.883   6.212
 2208SOL     OW 7522   1.864   4.838   2.293
 2208SOL    HW1 7523   1.842   4.932   2.267
 2208SOL    HW2 7524   1.944   4.839   2.354
 2209SOL     OW 7525   1.246   5.633   6.100
 2209SOL    HW1 7526   1.262   5.723   6.058
 2209SOL    HW2 7527   1.326   5.606   6.154
 2210SOL     OW 7528   0.319   5.117   3.892
 2210SOL    HW1 7529   0.413   5.086   3.905
 2210SOL    HW2 7530   0.300   5.130   3.795
 2211SOL     OW 7531   5.434   1.183   6.880
 2211SOL    HW1 7532   5.527   1.145   6.875
 2211SOL    HW2 7533   5.409   1.198   6.976
 2212SOL     OW 7534   1.851   6.219   0.714
 2212SOL    HW1 7535   1.861   6.179   0.805
 2212SOL    HW2 7536   1.926   6.187   0.656
 2213SOL     OW 7537   3.975   2.829   5.513
 2213SOL    HW1 7538   4.011   2.907   5.463
 2213SOL    HW2 7539   3.992   2.745   5.461
 2214SOL     OW 7540   4.841   1.161   5.379
 2214SOL    HW1 7541   4.800   1.115   5.300
 2214SOL    HW2 7542   4.932   1.123   5.396
 2215SOL     OW 7543   6.737   2.064   5.948
 2215SOL    HW1 7544   6.654   2.061   6.003
 2215SOL    HW2 7545   6.817   2.065   6.008
 2216SOL     OW 7546   1.791   0.635   6.899
 2216SOL    HW1 7547   1.864   0.600   6.840
 2216SOL    HW2 7548   1.741   0.559   6.939
 2217SOL     OW 7549   3.224   0.257   1.873
 2217SOL    HW1 7550   3.193   0.242   1.967
 2217SOL    HW2 7551   3.196   0.179   1.816
 2218SOL     OW 7552   1.242   6.767   1.105
 2218SOL    HW1 7553   1.164   6.822   1.073
 2218SOL    HW2 7554   1.311   6.827   1.145
 2219SOL     OW 7555   0.825   4.083   3.494
 2219SOL    HW1 7556   0.781   4.105   3.581
 2219SOL    HW2 7557   0.758   4.091   3.420
 2220SOL     OW 7558   0.101   1.222   4.332
 2220SOL    HW1 7559   0.100   1.248   4.235
 2220SOL    HW2 7560   0.060   1.131   4.342
 2221SOL     OW 7561   6.899   0.839   0.121
 2221SOL    HW1 7562   6.828   0.826   0.053
 2221SOL    HW2 7563   6.862   0.823   0.212
 2222SOL     OW 7564   3.780   0.619   0.620
 2222SOL    HW1 7565   3.827   0.552   0.677
 2222SOL    HW2 7566   3.828   0.707   0.624
 2223SOL     OW 7567   5.408   6.745   3.799
 2223SOL    HW1 7568   5.443   6.654   3.822
 2223SOL    HW2 7569   5.476   6.794   3.744
 2224SOL     OW 7570   2.137   4.532   1.883
 2224SOL    HW1 7571   2.156   4.518   1.980
 2224SOL    HW2 7572   2.157   4.627   1.859
 2225SOL     OW 7573   6.081   5.687   2.928
 2225SOL    HW1 7574   6.059   5.635   2.846
 2225SOL    HW2 7575   5.997   5.724   2.967
 2226SOL     OW 7576   4.132   3.321   0.791
 2226SOL    HW1 7577   4.067   3.256   0.751
 2226SOL    HW2 7578   4.218   3.274   0.810
 2227SOL     OW 7579   6.109   4.567   0.224
 2227SOL    HW1 7580   6.014   4.560   0.193
 2227SOL    HW2 7581   6.110   4.571   0.324
 2228SOL     OW 7582   3.064   5.774   0.520
 2228SOL    HW1 7583   3.157   5.803   0.540
 2228SOL    HW2 7584   3.042   5.691   0.572
 2229SOL     OW 7585   4.189   1.410   4.331
 2229SOL    HW1 7586   4.117   1.452   4.387
 2229SOL    HW2 7587   4.236   1.340   4.384
 2230SOL     OW 7588   0.515   6.048   4.503
 2230SOL    HW1 7589   0.531   5.950   4.502
 2230SOL    HW2 7590   0.426   6.068   4.461
 2231SOL     OW 7591   1.866   1.469   1.163
 2231SOL    HW1 7592   1.870   1.525   1.081
 2231SOL    HW2 7593   1.860   1.373   1.138
 2232SOL     OW 7594   1.126   2.338   3.992
 2232SOL    HW1 7595   1.225   2.332   3.978
 2232SOL    HW2 7596   1.079   2.333   3.904
 2233SOL     OW 7597   2.844   4.469   0.563
 2233SOL    HW1 7598   2.815   4.531   0.489
 2233SOL    HW2 7599   2.826   4.375   0.536
 2234SOL     OW 7600   5.042   2.341   1.618
 2234SOL    HW1 7601   5.077   2.281   1.690
 2234SOL    HW2 7602   5.088   2.430   1.623
 2235SOL     OW 7603   1.716   0.146   0.282
 2235SOL    HW1 7604   1.737   0.213   0.353
 2235SOL    HW2 7605   1.781   0.155   0.207
 2236SOL     OW 7606   1.040   4.480   0.519
 2236SOL    HW1 7607   0.979   4.501   0.442
 2236SOL    HW2 7608   1.113   4.419   0.488
 2237SOL     OW 7609   5.653   3.849   4.220
 2237SOL    HW1 7610   5.583   3.855   4.291
 2237SOL    HW2 7611   5.637   3.767   4.164
 2238SOL     OW 7612   6.728   5.944   3.010
 2238SOL    HW1 7613   6.750   5.861   2.958
 2238SOL    HW2 7614   6.638   5.977   2.984
 2239SOL     OW 7615   3.829   5.164   3.787
 2239SOL    HW1 7616   3.745   5.207   3.753
 2239SOL    HW2 7617   3.864   5.215   3.864
 2240SOL     OW 7618   5.767   5.883   4.120
 2240SOL    HW1 7619   5.729   5.883   4.027
 2240SOL    HW2 7620   5.759   5.792   4.159
 2241SOL     OW 7621   0.417   6.511   2.151
 2241SOL    HW1 7622   0.388   6.569   2.074
 2241SOL    HW2 7623   0.351   6.437   2.163
 2242SOL     OW 7624   5.681   2.395   2.961
 2242SOL    HW1 7625   5.772   2.379   2.923
 2242SOL    HW2 7626   5.648   2.485   2.931
 2243SOL     OW 7627   2.798   6.126   5.149
 2243SOL    HW1 7628   2.786   6.219   5.182
 2243SOL    HW2 7629   2.865   6.125   5.075
 2244SOL     OW 7630   3.542   0.609   3.131
 2244SOL    HW1 7631   3.532   0.662   3.047
 2244SOL    HW2 7632   3.630   0.630   3.174
 2245SOL     OW 7633   0.204   2.261   1.155
 2245SOL    HW1 7634   0.253   2.290   1.073
 2245SOL    HW2 7635   0.250   2.298   1.236
 2246SOL     OW 7636   1.430   1.755   4.723
 2246SOL    HW1 7637   1.428   1.715   4.814
 2246SOL    HW2 7638   1.521   1.743   4.683
 2247SOL     OW 7639   2.334   2.610   6.373
 2247SOL    HW1 7640   2.278   2.659   6.440
 2247SOL    HW2 7641   2.426   2.650   6.371
 2248SOL     OW 7642   4.474   3.751   6.125
 2248SOL    HW1 7643   4.550   3.801   6.085
 2248SOL    HW2 7644   4.502   3.708   6.211
 2249SOL     OW 7645   5.236   6.536   3.228
 2249SOL    HW1 7646   5.166   6.593   3.271
 2249SOL    HW2 7647   5.326   6.564   3.260
 2250SOL     OW 7648   5.356   3.765   1.146
 2250SOL    HW1 7649   5.280   3.822   1.175
 2250SOL    HW2 7650   5.345   3.673   1.182
 2251SOL     OW 7651   5.992   1.592   0.425
 2251SOL    HW1 7652   5.957   1.523   0.362
 2251SOL    HW2 7653   5.959   1.574   0.517
 2252SOL     OW 7654   6.269   2.482   4.348
 2252SOL    HW1 7655   6.222   2.521   4.426
 2252SOL    HW2 7656   6.288   2.554   4.281
 2253SOL     OW 7657   1.167   3.298   6.772
 2253SOL    HW1 7658   1.098   3.268   6.838
 2253SOL    HW2 7659   1.252   3.321   6.819
 2254SOL     OW 7660   2.164   2.764   5.493
 2254SOL    HW1 7661   2.199   2.848   5.454
 2254SOL    HW2 7662   2.213   2.742   5.577
 2255SOL     OW 7663   6.607   2.305   0.599
 2255SOL    HW1 7664   6.626   2.207   0.600
 2255SOL    HW2 7665   6.526   2.322   0.543
 2256SOL     OW 7666   4.081   5.589   1.401
 2256SOL    HW1 7667   4.004   5.611   1.461
 2256SOL    HW2 7668   4.077   5.647   1.319
 2257SOL     OW 7669   0.393   2.959   4.493
 2257SOL    HW1 7670   0.433   2.881   4.542
 2257SOL    HW2 7671   0.431   2.964   4.401
 2258SOL     OW 7672   1.063   5.968   4.722
 2258SOL    HW1 7673   1.069   5.918   4.809
 2258SOL    HW2 7674   1.153   5.967   4.678
 2259SOL     OW 7675   4.320   3.348   6.049
 2259SOL    HW1 7676   4.285   3.410   6.119
 2259SOL    HW2 7677   4.255   3.274   6.033
 2260SOL     OW 7678   4.612   4.434   3.148
 2260SOL    HW1 7679   4.540   4.483   3.198
 2260SOL    HW2 7680   4.700   4.480   3.163
 2261SOL     OW 7681   5.894   6.776   0.959
 2261SOL    HW1 7682   5.893   6.811   1.052
 2261SOL    HW2 7683   5.970   6.711   0.948
 2262SOL     OW 7684   6.103   3.133   2.475
 2262SOL    HW1 7685   6.113   3.101   2.569
 2262SOL    HW2 7686   6.040   3.210   2.472
 2263SOL     OW 7687   2.524   5.609   6.113
 2263SOL    HW1 7688   2.608   5.565   6.144
 2263SOL    HW2 7689   2.531   5.708   6.130
 2264SOL     OW 7690   3.115   3.991   2.456
 2264SOL    HW1 7691   3.051   4.033   2.520
 2264SOL    HW2 7692   3.064   3.938   2.388
 2265SOL     OW 7693   0.306   0.615   3.639
 2265SOL    HW1 7694   0.362   0.544   3.596
 2265SOL    HW2 7695   0.317   0.701   3.589
 2266SOL     OW 7696   6.315   1.385   1.080
 2266SOL    HW1 7697   6.249   1.310   1.077
 2266SOL    HW2 7698   6.325   1.417   1.175
 2267SOL     OW 7699   5.510   2.683   5.009
 2267SOL    HW1 7700   5.538   2.775   5.036
 2267SOL    HW2 7701   5.410   2.677   5.010
 2268SOL     OW 7702   6.685   4.826   0.354
 2268SOL    HW1 7703   6.711   4.906   0.300
 2268SOL    HW2 7704   6.651   4.755   0.292
 2269SOL     OW 7705   6.013   5.773   5.634
 2269SOL    HW1 7706   5.934   5.778   5.573
 2269SOL    HW2 7707   6.044   5.865   5.656
 2270SOL     OW 7708   3.972   3.605   6.960
 2270SOL    HW1 7709   4.033   3.682   6.940
 2270SOL    HW2 7710   4.022   3.535   7.011
 2271SOL     OW 7711   6.076   4.172   1.167
 2271SOL    HW1 7712   6.109   4.232   1.241
 2271SOL    HW2 7713   5.977   4.183   1.158
 2272SOL     OW 7714   5.984   2.109   4.660
 2272SOL    HW1 7715   6.016   2.077   4.749
 2272SOL    HW2 7716   5.910   2.050   4.627
 2273SOL     OW 7717   1.871   1.584   1.633
 2273SOL    HW1 7718   1.941   1.639   1.677
 2273SOL    HW2 7719   1.897   1.563   1.539
 2274SOL     OW 7720   0.989   3.329   5.760
 2274SOL    HW1 7721   1.053   3.327   5.683
 2274SOL    HW2 7722   1.038   3.359   5.842
 2275SOL     OW 7723   5.160   0.026   4.693
 2275SOL    HW1 7724   5.096   0.082   4.744
 2275SOL    HW2 7725   5.112   7.001   4.618
 2276SOL     OW 7726   3.319   5.222   1.581
 2276SOL    HW1 7727   3.253   5.260   1.516
 2276SOL    HW2 7728   3.279   5.141   1.625
 2277SOL     OW 7729   2.988   3.831   4.696
 2277SOL    HW1 7730   2.976   3.758   4.763
 2277SOL    HW2 7731   3.078   3.872   4.707
 2278SOL     OW 7732   4.736   6.677   3.969
 2278SOL    HW1 7733   4.808   6.730   4.013
 2278SOL    HW2 7734   4.775   6.618   3.899
 2279SOL     OW 7735   5.432   5.293   4.386
 2279SOL    HW1 7736   5.524   5.255   4.398
 2279SOL    HW2 7737   5.415   5.361   4.457
 2280SOL     OW 7738   6.349   6.305   5.080
 2280SOL    HW1 7739   6.374   6.386   5.026
 2280SOL    HW2 7740   6.252   6.285   5.068
 2281SOL     OW 7741   3.824   0.962   1.763
 2281SOL    HW1 7742   3.823   1.034   1.693
 2281SOL    HW2 7743   3.918   0.948   1.795
 2282SOL     OW 7744   5.699   6.664   5.092
 2282SOL    HW1 7745   5.697   6.638   4.995
 2282SOL    HW2 7746   5.780   6.625   5.135
 2283SOL     OW 7747   6.809   4.383   1.054
 2283SOL    HW1 7748   6.859   4.332   0.985
 2283SOL    HW2 7749   6.760   4.459   1.011
 2284SOL     OW 7750   2.100   1.662   0.483
 2284SOL    HW1 7751   2.198   1.667   0.502
 2284SOL    HW2 7752   2.084   1.683   0.387
 2285SOL     OW 7753   2.049   3.477   6.901
 2285SOL    HW1 7754   2.016   3.398   6.952
 2285SOL    HW2 7755   2.007   3.560   6.937
 2286SOL     OW 7756   6.252   6.704   4.346
 2286SOL    HW1 7757   6.244   6.642   4.268
 2286SOL    HW2 7758   6.182   6.682   4.414
 2287SOL     OW 7759   2.478   2.341   2.214
 2287SOL    HW1 7760   2.463   2.250   2.175
 2287SOL    HW2 7761   2.476   2.409   2.142
 2288SOL     OW 7762   6.691   5.320   4.234
 2288SOL    HW1 7763   6.685   5.414   4.269
 2288SOL    HW2 7764   6.654   5.317   4.141
 2289SOL     OW 7765   6.461   3.652   2.626
 2289SOL    HW1 7766   6.380   3.668   2.682
 2289SOL    HW2 7767   6.518   3.734   2.626
 2290SOL     OW 7768   2.082   3.684   1.866
 2290SOL    HW1 7769   1.993   3.661   1.827
 2290SOL    HW2 7770   2.132   3.600   1.888
 2291SOL     OW 7771   2.153   2.217   0.359
 2291SOL    HW1 7772   2.252   2.207   0.375
 2291SOL    HW2 7773   2.105   2.137   0.395
 2292SOL     OW 7774   5.010   2.808   3.675
 2292SOL    HW1 7775   5.025   2.876   3.746
 2292SOL    HW2 7776   5.010   2.717   3.715
 2293SOL     OW 7777   6.452   0.196   1.233
 2293SOL    HW1 7778   6.397   0.266   1.277
 2293SOL    HW2 7779   6.535   0.179   1.287
 2294SOL     OW 7780   3.285   1.773   5.961
 2294SOL    HW1 7781   3.327   1.703   5.904
 2294SOL    HW2 7782   3.285   1.861   5.912
 2295SOL     OW 7783   0.137   1.193   3.059
 2295SOL    HW1 7784   0.135   1.275   3.002
 2295SOL    HW2 7785   0.090   1.119   3.013
 2296SOL     OW 7786   2.611   4.923   3.182
 2296SOL    HW1 7787   2.660   4.988   3.123
 2296SOL    HW2 7788   2.603   4.835   3.135
 2297SOL     OW 7789   4.892   4.462   6.278
 2297SOL    HW1 7790   4.973   4.411   6.251
 2297SOL    HW2 7791   4.898   4.555   6.241
 2298SOL     OW 7792   3.643   3.665   3.137
 2298SOL    HW1 7793   3.630   3.566   3.142
 2298SOL    HW2 7794   3.674   3.689   3.045
 2299SOL     OW 7795   5.027   4.326   5.038
 2299SOL    HW1 7796   5.026   4.317   5.138
 2299SOL    HW2 7797   4.939   4.297   5.001
 2300SOL     OW 7798   2.817   6.618   3.435
 2300SOL    HW1 7799   2.841   6.574   3.349
 2300SOL    HW2 7800   2.752   6.560   3.485
 2301SOL     OW 7801   3.643   2.874   3.827
 2301SOL    HW1 7802   3.646   2.776   3.810
 2301SOL    HW2 7803   3.731   2.904   3.865
 2302SOL     OW 7804   3.347   0.212   1.406
 2302SOL    HW1 7805   3.446   0.216   1.391
 2302SOL    HW2 7806   3.302   0.184   1.321
 2303SOL     OW 7807   2.316   3.126   1.218
 2303SOL    HW1 7808   2.390   3.101   1.280
 2303SOL    HW2 7809   2.232   3.142   1.271
 2304SOL     OW 7810   5.369   5.639   4.352
 2304SOL    HW1 7811   5.366   5.584   4.435
 2304SOL    HW2 7812   5.376   5.578   4.272
 2305SOL     OW 7813   2.057   0.581   3.436
 2305SOL    HW1 7814   2.111   0.544   3.512
 2305SOL    HW2 7815   2.115   0.588   3.355
 2306SOL     OW 7816   1.723   5.421   1.665
 2306SOL    HW1 7817   1.712   5.485   1.741
 2306SOL    HW2 7818   1.742   5.329   1.701
 2307SOL     OW 7819   0.395   3.246   5.478
 2307SOL    HW1 7820   0.359   3.330   5.437
 2307SOL    HW2 7821   0.473   3.213   5.425
 2308SOL     OW 7822   2.823   4.736   1.000
 2308SOL    HW1 7823   2.783   4.665   0.942
 2308SOL    HW2 7824   2.814   4.710   1.096
 2309SOL     OW 7825   1.980   0.867   4.712
 2309SOL    HW1 7826   1.918   0.941   4.735
 2309SOL    HW2 7827   1.940   0.810   4.640
 2310SOL     OW 7828   5.683   6.130   2.845
 2310SOL    HW1 7829   5.706   6.203   2.909
 2310SOL    HW2 7830   5.583   6.123   2.837
 2311SOL     OW 7831   2.909   5.955   6.769
 2311SOL    HW1 7832   2.811   5.938   6.767
 2311SOL    HW2 7833   2.958   5.870   6.791
 2312SOL     OW 7834   4.438   5.791   3.371
 2312SOL    HW1 7835   4.346   5.760   3.350
 2312SOL    HW2 7836   4.435   5.884   3.408
 2313SOL     OW 7837   4.964   5.052   2.417
 2313SOL    HW1 7838   5.061   5.071   2.403
 2313SOL    HW2 7839   4.922   5.028   2.330
 2314SOL     OW 7840   4.026   6.857   2.746
 2314SOL    HW1 7841   3.928   6.840   2.750
 2314SOL    HW2 7842   4.048   6.943   2.791
 2315SOL     OW 7843   5.097   3.395   5.810
 2315SOL    HW1 7844   5.130   3.454   5.736
 2315SOL    HW2 7845   5.050   3.451   5.878
 2316SOL     OW 7846   5.048   2.265   3.780
 2316SOL    HW1 7847   5.003   2.300   3.862
 2316SOL    HW2 7848   5.125   2.207   3.806
 2317SOL     OW 7849   0.091   5.323   3.458
 2317SOL    HW1 7850   0.052   5.244   3.504
 2317SOL    HW2 7851   0.165   5.294   3.397
 2318SOL     OW 7852   0.458   2.891   3.277
 2318SOL    HW1 7853   0.471   2.978   3.324
 2318SOL    HW2 7854   0.418   2.824   3.340
 2319SOL     OW 7855   1.537   4.707   4.823
 2319SOL    HW1 7856   1.465   4.745   4.881
 2319SOL    HW2 7857   1.617   4.686   4.879
 2320SOL     OW 7858   1.238   2.861   4.510
 2320SOL    HW1 7859   1.246   2.845   4.411
 2320SOL    HW2 7860   1.161   2.922   4.527
 2321SOL     OW 7861   3.532   1.051   5.001
 2321SOL    HW1 7862   3.490   1.122   4.945
 2321SOL    HW2 7863   3.527   1.078   5.098
 2322SOL     OW 7864   2.306   1.784   5.319
 2322SOL    HW1 7865   2.380   1.771   5.385
 2322SOL    HW2 7866   2.338   1.841   5.244
 2323SOL     OW 7867   2.541   4.559   2.353
 2323SOL    HW1 7868   2.530   4.491   2.427
 2323SOL    HW2 7869   2.466   4.626   2.359
 2324SOL     OW 7870   0.639   6.091   2.765
 2324SOL    HW1 7871   0.568   6.158   2.741
 2324SOL    HW2 7872   0.694   6.071   2.684
 2325SOL     OW 7873   0.997   3.908   1.849
 2325SOL    HW1 7874   1.009   3.820   1.803
 2325SOL    HW2 7875   0.984   3.980   1.781
 2326SOL     OW 7876   2.654   3.953   6.112
 2326SOL    HW1 7877   2.613   4.039   6.080
 2326SOL    HW2 7878   2.716   3.973   6.188
 2327SOL     OW 7879   5.217   2.390   4.779
 2327SOL    HW1 7880   5.252   2.397   4.686
 2327SOL    HW2 7881   5.293   2.374   4.842
 2328SOL     OW 7882   5.062   1.664   3.990
 2328SOL    HW1 7883   5.101   1.724   4.060
 2328SOL    HW2 7884   5.086   1.698   3.900
 2329SOL     OW 7885   1.620   5.271   4.810
 2329SOL    HW1 7886   1.662   5.255   4.721
 2329SOL    HW2 7887   1.679   5.234   4.882
 2330SOL     OW 7888   0.289   4.595   1.883
 2330SOL    HW1 7889   0.231   4.524   1.843
 2330SOL    HW2 7890   0.359   4.621   1.817
 2331SOL     OW 7891   6.003   4.848   6.600
 2331SOL    HW1 7892   5.954   4.883   6.680
 2331SOL    HW2 7893   5.996   4.915   6.526
 2332SOL     OW 7894   4.746   2.092   5.538
 2332SOL    HW1 7895   4.752   2.187   5.565
 2332SOL    HW2 7896   4.651   2.061   5.547
 2333SOL     OW 7897   0.490   4.775   3.070
 2333SOL    HW1 7898   0.574   4.761   3.122
 2333SOL    HW2 7899   0.501   4.854   3.010
 2334SOL     OW 7900   2.602   6.704   6.961
 2334SOL    HW1 7901   2.534   6.655   7.015
 2334SOL    HW2 7902   2.667   6.638   6.923
 2335SOL     OW 7903   6.177   1.245   3.143
 2335SOL    HW1 7904   6.118   1.315   3.184
 2335SOL    HW2 7905   6.164   1.245   3.044
 2336SOL     OW 7906   4.565   1.560   5.289
 2336SOL    HW1 7907   4.495   1.504   5.333
 2336SOL    HW2 7908   4.604   1.510   5.212
 2337SOL     OW 7909   4.985   0.925   3.652
 2337SOL    HW1 7910   4.926   0.887   3.581
 2337SOL    HW2 7911   5.067   0.964   3.610
 2338SOL     OW 7912   1.023   0.124   6.549
 2338SOL    HW1 7913   0.962   0.152   6.624
 2338SOL    HW2 7914   1.087   0.198   6.529
 2339SOL     OW 7915   3.387   3.714   5.272
 2339SOL    HW1 7916   3.330   3.726   5.190
 2339SOL    HW2 7917   3.438   3.798   5.289
 2340SOL     OW 7918   4.749   6.717   5.761
 2340SOL    HW1 7919   4.658   6.751   5.784
 2340SOL    HW2 7920   4.750   6.690   5.665
 2341SOL     OW 7921   5.436   3.965   0.752
 2341SOL    HW1 7922   5.397   3.913   0.677
 2341SOL    HW2 7923   5.368   3.977   0.824
 2342SOL     OW 7924   0.385   6.381   5.387
 2342SOL    HW1 7925   0.451   6.308   5.405
 2342SOL    HW2 7926   0.425   6.469   5.412
 2343SOL     OW 7927   1.725   6.750   1.181
 2343SOL    HW1 7928   1.802   6.803   1.217
 2343SOL    HW2 7929   1.646   6.809   1.168
 2344SOL     OW 7930   1.991   1.495   1.412
 2344SOL    HW1 7931   1.940   1.470   1.329
 2344SOL    HW2 7932   2.089   1.491   1.393
 2345SOL     OW 7933   1.643   6.649   5.584
 2345SOL    HW1 7934   1.688   6.655   5.495
 2345SOL    HW2 7935   1.603   6.559   5.596
 2346SOL     OW 7936   4.610   2.901   5.224
 2346SOL    HW1 7937   4.706   2.891   5.252
 2346SOL    HW2 7938   4.602   2.885   5.126
 2347SOL     OW 7939   1.757   4.450   2.372
 2347SOL    HW1 7940   1.721   4.497   2.453
 2347SOL    HW2 7941   1.688   4.388   2.336
 2348SOL     OW 7942   2.340   6.008   3.462
 2348SOL    HW1 7943   2.391   6.093   3.448
 2348SOL    HW2 7944   2.265   6.025   3.526
 2349SOL     OW 7945   0.975   6.287   6.990
 2349SOL    HW1 7946   1.028   6.263   0.050
 2349SOL    HW2 7947   1.005   6.376   6.955
 2350SOL     OW 7948   3.918   6.705   5.771
 2350SOL    HW1 7949   3.862   6.765   5.828
 2350SOL    HW2 7950   4.005   6.688   5.817
 2351SOL     OW 7951   3.391   5.213   3.388
 2351SOL    HW1 7952   3.445   5.297   3.377
 2351SOL    HW2 7953   3.337   5.219   3.472
 2352SOL     OW 7954   0.686   4.502   3.272
 2352SOL    HW1 7955   0.601   4.451   3.258
 2352SOL    HW2 7956   0.688   4.537   3.365
 2353SOL     OW 7957   2.694   4.675   4.473
 2353SOL    HW1 7958   2.776   4.648   4.423
 2353SOL    HW2 7959   2.634   4.729   4.414
 2354SOL     OW 7960   3.778   2.036   6.504
 2354SOL    HW1 7961   3.682   2.054   6.528
 2354SOL    HW2 7962   3.829   2.012   6.587
 2355SOL     OW 7963   0.357   6.063   0.491
 2355SOL    HW1 7964   0.434   6.090   0.434
 2355SOL    HW2 7965   0.292   6.010   0.436
 2356SOL     OW 7966   2.348   3.998   1.744
 2356SOL    HW1 7967   2.412   4.007   1.820
 2356SOL    HW2 7968   2.326   4.089   1.708
 2357SOL     OW 7969   4.367   5.389   3.953
 2357SOL    HW1 7970   4.340   5.298   3.984
 2357SOL    HW2 7971   4.285   5.443   3.934
 2358SOL     OW 7972   3.182   6.478   4.177
 2358SOL    HW1 7973   3.251   6.527   4.231
 2358SOL    HW2 7974   3.225   6.438   4.096
 2359SOL     OW 7975   2.165   1.006   6.060
 2359SOL    HW1 7976   2.184   1.103   6.052
 2359SOL    HW2 7977   2.247   0.958   6.091
 2360SOL     OW 7978   4.341   4.754   6.690
 2360SOL    HW1 7979   4.389   4.678   6.735
 2360SOL    HW2 7980   4.326   4.827   6.756
 2361SOL     OW 7981   2.793   6.687   3.817
 2361SOL    HW1 7982   2.706   6.715   3.775
 2361SOL    HW2 7983   2.832   6.611   3.765
 2362SOL     OW 7984   4.252   6.372   5.444
 2362SOL    HW1 7985   4.237   6.280   5.409
 2362SOL    HW2 7986   4.273   6.434   5.369
 2363SOL     OW 7987   4.777   2.601   5.434
 2363SOL    HW1 7988   4.722   2.562   5.508
 2363SOL    HW2 7989   4.802   2.694   5.457
 2364SOL     OW 7990   5.924   2.102   2.162
 2364SOL    HW1 7991   6.016   2.077   2.131
 2364SOL    HW2 7992   5.870   2.019   2.176
 2365SOL     OW 7993   5.605   4.552   5.787
 2365SOL    HW1 7994   5.678   4.615   5.762
 2365SOL    HW2 7995   5.643   4.461   5.804
 2366SOL     OW 7996   1.050   4.096   5.858
 2366SOL    HW1 7997   1.137   4.056   5.829
 2366SOL    HW2 7998   0.976   4.032   5.839
 2367SOL     OW 7999   0.872   3.147   6.123
 2367SOL    HW1 8000   0.816   3.064   6.122
 2367SOL    HW2 8001   0.883   3.181   6.030
 2368SOL     OW 8002   4.472   1.140   5.050
 2368SOL    HW1 8003   4.405   1.141   5.124
 2368SOL    HW2 8004   4.545   1.075   5.073
 2369SOL     OW 8005   2.171   1.867   4.000
 2369SOL    HW1 8006   2.206   1.799   4.064
 2369SOL    HW2 8007   2.228   1.949   4.003
 2370SOL     OW 8008   4.662   3.113   0.590
 2370SOL    HW1 8009   4.639   3.043   0.523
 2370SOL    HW2 8010   4.599   3.190   0.582
 2371SOL     OW 8011   1.457   5.846   2.533
 2371SOL    HW1 8012   1.482   5.759   2.576
 2371SOL    HW2 8013   1.385   5.830   2.465
 2372SOL     OW 8014   0.290   1.445   6.877
 2372SOL    HW1 8015   0.338   1.459   6.790
 2372SOL    HW2 8016   0.246   1.355   6.876
 2373SOL     OW 8017   6.722   1.255   6.262
 2373SOL    HW1 8018   6.682   1.210   6.182
 2373SOL    HW2 8019   6.649   1.282   6.325
 2374SOL     OW 8020   6.081   5.853   3.371
 2374SOL    HW1 8021   6.038   5.782   3.426
 2374SOL    HW2 8022   6.181   5.848   3.382
 2375SOL     OW 8023   0.931   0.691   4.116
 2375SOL    HW1 8024   0.923   0.790   4.113
 2375SOL    HW2 8025   1.008   0.661   4.059
 2376SOL     OW 8026   6.290   2.684   2.785
 2376SOL    HW1 8027   6.368   2.635   2.746
 2376SOL    HW2 8028   6.320   2.740   2.862
 2377SOL     OW 8029   3.209   3.655   4.558
 2377SOL    HW1 8030   3.210   3.686   4.463
 2377SOL    HW2 8031   3.133   3.591   4.571
 2378SOL     OW 8032   5.565   2.055   0.104
 2378SOL    HW1 8033   5.598   2.146   0.082
 2378SOL    HW2 8034   5.490   2.061   0.170
 2379SOL     OW 8035   6.451   3.810   6.925
 2379SOL    HW1 8036   6.431   3.794   0.001
 2379SOL    HW2 8037   6.480   3.724   6.883
 2380SOL     OW 8038   6.201   1.305   5.405
 2380SOL    HW1 8039   6.114   1.270   5.439
 2380SOL    HW2 8040   6.266   1.312   5.480
 2381SOL     OW 8041   1.597   4.319   5.388
 2381SOL    HW1 8042   1.642   4.249   5.334
 2381SOL    HW2 8043   1.662   4.360   5.451
 2382SOL     OW 8044   2.357   5.635   2.504
 2382SOL    HW1 8045   2.385   5.729   2.521
 2382SOL    HW2 8046   2.285   5.610   2.568
 2383SOL     OW 8047   5.694   6.328   6.479
 2383SOL    HW1 8048   5.760   6.261   6.513
 2383SOL    HW2 8049   5.738   6.387   6.410
 2384SOL     OW 8050   1.375   2.499   1.293
 2384SOL    HW1 8051   1.443   2.459   1.232
 2384SOL    HW2 8052   1.326   2.427   1.341
 2385SOL     OW 8053   0.681   0.959   0.289
 2385SOL    HW1 8054   0.605   0.924   0.344
 2385SOL    HW2 8055   0.707   0.891   0.221
 2386SOL     OW 8056   3.043   5.664   4.277
 2386SOL    HW1 8057   3.116   5.718   4.320
 2386SOL    HW2 8058   2.963   5.662   4.337
 2387SOL     OW 8059   6.735   3.435   4.519
 2387SOL    HW1 8060   6.814   3.491   4.491
 2387SOL    HW2 8061   6.745   3.343   4.481
 2388SOL     OW 8062   0.565   1.587   5.739
 2388SOL    HW1 8063   0.516   1.511   5.779
 2388SOL    HW2 8064   0.501   1.660   5.714
 2389SOL     OW 8065   4.300   4.714   3.718
 2389SOL    HW1 8066   4.365   4.783   3.687
 2389SOL    HW2 8067   4.314   4.696   3.815
 2390SOL     OW 8068   3.706   3.797   4.668
 2390SOL    HW1 8069   3.638   3.809   4.595
 2390SOL    HW2 8070   3.776   3.868   4.659
 2391SOL     OW 8071   3.605   3.958   6.074
 2391SOL    HW1 8072   3.555   3.926   6.155
 2391SOL    HW2 8073   3.586   3.897   5.997
 2392SOL     OW 8074   2.977   4.095   6.331
 2392SOL    HW1 8075   2.978   4.029   6.256
 2392SOL    HW2 8076   2.885   4.130   6.345
 2393SOL     OW 8077   3.910   5.054   1.247
 2393SOL    HW1 8078   3.883   5.061   1.344
 2393SOL    HW2 8079   3.833   5.081   1.190
 2394SOL     OW 8080   0.890   3.894   4.191
 2394SOL    HW1 8081   0.986   3.918   4.175
 2394SOL    HW2 8082   0.847   3.870   4.104
 2395SOL     OW 8083   6.943   3.208   6.588
 2395SOL    HW1 8084   6.939   3.245   6.495
 2395SOL    HW2 8085   7.002   3.266   6.644
 2396SOL     OW 8086   5.890   6.377   0.782
 2396SOL    HW1 8087   5.880   6.409   0.687
 2396SOL    HW2 8088   5.800   6.350   0.817
 2397SOL     OW 8089   6.793   4.752   0.603
 2397SOL    HW1 8090   6.803   4.802   0.689
 2397SOL    HW2 8091   6.750   4.812   0.535
 2398SOL     OW 8092   2.869   4.865   4.981
 2398SOL    HW1 8093   2.966   4.885   4.971
 2398SOL    HW2 8094   2.848   4.777   4.937
 2399SOL     OW 8095   3.652   2.098   3.257
 2399SOL    HW1 8096   3.641   2.123   3.353
 2399SOL    HW2 8097   3.737   2.136   3.222
 2400SOL     OW 8098   2.829   3.818   0.615
 2400SOL    HW1 8099   2.814   3.729   0.658
 2400SOL    HW2 8100   2.904   3.811   0.549
 2401SOL     OW 8101   3.296   0.449   4.201
 2401SOL    HW1 8102   3.244   0.412   4.278
 2401SOL    HW2 8103   3.352   0.377   4.160
 2402SOL     OW 8104   0.258   1.516   3.913
 2402SOL    HW1 8105   0.173   1.535   3.961
 2402SOL    HW2 8106   0.335   1.525   3.976
 2403SOL     OW 8107   2.849   3.057   0.309
 2403SOL    HW1 8108   2.781   2.984   0.308
 2403SOL    HW2 8109   2.871   3.082   0.404
 2404SOL     OW 8110   5.563   2.041   1.622
 2404SOL    HW1 8111   5.616   1.991   1.691
 2404SOL    HW2 8112   5.527   1.977   1.554
 2405SOL     OW 8113   3.247   4.177   5.643
 2405SOL    HW1 8114   3.222   4.082   5.625
 2405SOL    HW2 8115   3.294   4.184   5.731
 2406SOL     OW 8116   2.214   0.196   4.300
 2406SOL    HW1 8117   2.214   0.098   4.318
 2406SOL    HW2 8118   2.166   0.214   4.214
 2407SOL     OW 8119   4.446   2.449   3.332
 2407SOL    HW1 8120   4.508   2.519   3.366
 2407SOL    HW2 8121   4.408   2.477   3.244
 2408SOL     OW 8122   2.968   4.843   2.884
 2408SOL    HW1 8123   3.018   4.850   2.798
 2408SOL    HW2 8124   2.881   4.795   2.868
 2409SOL     OW 8125   2.473   2.771   1.313
 2409SOL    HW1 8126   2.437   2.851   1.264
 2409SOL    HW2 8127   2.467   2.691   1.254
 2410SOL     OW 8128   6.192   3.732   5.654
 2410SOL    HW1 8129   6.205   3.772   5.563
 2410SOL    HW2 8130   6.097   3.704   5.666
 2411SOL     OW 8131   3.115   3.516   5.645
 2411SOL    HW1 8132   3.098   3.510   5.744
 2411SOL    HW2 8133   3.145   3.426   5.612
 2412SOL     OW 8134   2.714   2.665   0.460
 2412SOL    HW1 8135   2.732   2.596   0.530
 2412SOL    HW2 8136   2.650   2.733   0.495
 2413SOL     OW 8137   5.690   3.749   6.144
 2413SOL    HW1 8138   5.633   3.671   6.118
 2413SOL    HW2 8139   5.646   3.801   6.217
 2414SOL     OW 8140   5.604   3.610   3.408
 2414SOL    HW1 8141   5.552   3.538   3.454
 2414SOL    HW2 8142   5.699   3.606   3.437
 2415SOL     OW 8143   1.988   0.080   1.743
 2415SOL    HW1 8144   1.936   0.103   1.661
 2415SOL    HW2 8145   1.925   0.068   1.820
 2416SOL     OW 8146   1.396   2.024   4.707
 2416SOL    HW1 8147   1.375   2.052   4.613
 2416SOL    HW2 8148   1.391   1.925   4.715
 2417SOL     OW 8149   5.171   2.149   0.858
 2417SOL    HW1 8150   5.076   2.180   0.860
 2417SOL    HW2 8151   5.183   2.084   0.782
 2418SOL     OW 8152   3.337   3.190   4.890
 2418SOL    HW1 8153   3.404   3.235   4.950
 2418SOL    HW2 8154   3.247   3.195   4.932
 2419SOL     OW 8155   1.528   0.206   4.460
 2419SOL    HW1 8156   1.493   0.156   4.539
 2419SOL    HW2 8157   1.554   0.142   4.388
 2420SOL     OW 8158   3.807   6.485   1.761
 2420SOL    HW1 8159   3.778   6.410   1.702
 2420SOL    HW2 8160   3.734   6.504   1.828
 2421SOL     OW 8161   3.448   6.820   3.910
 2421SOL    HW1 8162   3.491   6.832   4.000
 2421SOL    HW2 8163   3.357   6.862   3.911
 2422SOL     OW 8164   4.871   0.180   0.528
 2422SOL    HW1 8165   4.841   0.234   0.607
 2422SOL    HW2 8166   4.956   0.219   0.492
 2423SOL     OW 8167   2.017   5.072   1.555
 2423SOL    HW1 8168   2.093   5.025   1.510
 2423SOL    HW2 8169   2.041   5.169   1.568
 2424SOL     OW 8170   5.580   6.761   6.857
 2424SOL    HW1 8171   5.677   6.751   6.877
 2424SOL    HW2 8172   5.568   6.805   6.768
 2425SOL     OW 8173   5.949   6.691   6.029
 2425SOL    HW1 8174   5.999   6.647   6.103
 2425SOL    HW2 8175   5.966   6.790   6.032
 2426SOL     OW 8176   1.114   5.419   4.411
 2426SOL    HW1 8177   1.137   5.393   4.317
 2426SOL    HW2 8178   1.120   5.339   4.470
 2427SOL     OW 8179   5.284   5.863   0.447
 2427SOL    HW1 8180   5.370   5.912   0.431
 2427SOL    HW2 8181   5.235   5.905   0.524
 2428SOL     OW 8182   0.493   0.441   2.667
 2428SOL    HW1 8183   0.566   0.503   2.638
 2428SOL    HW2 8184   0.524   0.388   2.746
 2429SOL     OW 8185   6.123   4.885   3.485
 2429SOL    HW1 8186   6.153   4.790   3.494
 2429SOL    HW2 8187   6.127   4.930   3.574
 2430SOL     OW 8188   5.461   3.147   0.288
 2430SOL    HW1 8189   5.474   3.086   0.210
 2430SOL    HW2 8190   5.424   3.234   0.258
 2431SOL     OW 8191   4.667   0.998   0.856
 2431SOL    HW1 8192   4.648   1.046   0.942
 2431SOL    HW2 8193   4.752   0.945   0.865
 2432SOL     OW 8194   3.120   6.553   2.363
 2432SOL    HW1 8195   3.057   6.620   2.323
 2432SOL    HW2 8196   3.103   6.545   2.461
 2433SOL     OW 8197   1.719   6.544   0.087
 2433SOL    HW1 8198   1.700   6.479   0.160
 2433SOL    HW2 8199   1.796   6.510   0.033
 2434SOL     OW 8200   5.579   1.929   3.098
 2434SOL    HW1 8201   5.610   1.854   3.157
 2434SOL    HW2 8202   5.509   1.982   3.147
 2435SOL     OW 8203   5.278   4.995   0.088
 2435SOL    HW1 8204   5.349   5.065   0.096
 2435SOL    HW2 8205   5.229   5.007   0.001
 2436SOL     OW 8206   1.805   6.738   1.597
 2436SOL    HW1 8207   1.813   6.638   1.608
 2436SOL    HW2 8208   1.888   6.773   1.553
 2437SOL     OW 8209   4.991   6.733   1.525
 2437SOL    HW1 8210   4.933   6.748   1.605
 2437SOL    HW2 8211   4.934   6.709   1.446
 2438SOL     OW 8212   4.168   0.926   4.166
 2438SOL    HW1 8213   4.188   1.004   4.106
 2438SOL    HW2 8214   4.197   0.948   4.259
 2439SOL     OW 8215   0.833   4.199   0.610
 2439SOL    HW1 8216   0.812   4.181   0.514
 2439SOL    HW2 8217   0.836   4.112   0.660
 2440SOL     OW 8218   4.009   6.481   6.009
 2440SOL    HW1 8219   4.073   6.537   5.956
 2440SOL    HW2 8220   4.051   6.393   6.030
 2441SOL     OW 8221   6.117   1.210   6.815
 2441SOL    HW1 8222   6.028   1.255   6.811
 2441SOL    HW2 8223   6.117   1.129   6.757
 2442SOL     OW 8224   5.209   5.579   3.263
 2442SOL    HW1 8225   5.252   5.529   3.338
 2442SOL    HW2 8226   5.257   5.666   3.250
 2443SOL     OW 8227   3.281   0.231   6.501
 2443SOL    HW1 8228   3.355   0.294   6.526
 2443SOL    HW2 8229   3.291   0.146   6.554
 2444SOL     OW 8230   3.720   3.640   0.551
 2444SOL    HW1 8231   3.765   3.679   0.471
 2444SOL    HW2 8232   3.784   3.579   0.598
 2445SOL     OW 8233   6.218   1.697   1.937
 2445SOL    HW1 8234   6.243   1.731   1.846
 2445SOL    HW2 8235   6.249   1.603   1.947
 2446SOL     OW 8236   1.025   3.133   4.988
 2446SOL    HW1 8237   1.000   3.228   4.971
 2446SOL    HW2 8238   1.092   3.129   5.063
 2447SOL     OW 8239   2.736   1.246   1.196
 2447SOL    HW1 8240   2.666   1.205   1.256
 2447SOL    HW2 8241   2.814   1.184   1.188
 2448SOL     OW 8242   6.667   1.072   4.320
 2448SOL    HW1 8243   6.671   1.170   4.339
 2448SOL    HW2 8244   6.725   1.024   4.386
 2449SOL     OW 8245   0.751   3.972   2.024
 2449SOL    HW1 8246   0.808   3.899   2.062
 2449SOL    HW2 8247   0.809   4.049   1.998
 2450SOL     OW 8248   3.631   4.534   6.166
 2450SOL    HW1 8249   3.640   4.621   6.215
 2450SOL    HW2 8250   3.628   4.551   6.068
 2451SOL     OW 8251   1.762   0.171   3.750
 2451SOL    HW1 8252   1.834   0.234   3.776
 2451SOL    HW2 8253   1.796   0.108   3.680
 2452SOL     OW 8254   2.675   2.058   3.916
 2452SOL    HW1 8255   2.596   2.072   3.856
 2452SOL    HW2 8256   2.715   2.146   3.941
 2453SOL     OW 8257   0.700   3.648   0.660
 2453SOL    HW1 8258   0.601   3.656   0.671
 2453SOL    HW2 8259   0.741   3.612   0.744
 2454SOL     OW 8260   2.728   0.245   0.080
 2454SOL    HW1 8261   2.804   0.307   0.099
 2454SOL    HW2 8262   2.742   0.158   0.127
 2455SOL     OW 8263   3.826   0.383   0.372
 2455SOL    HW1 8264   3.746   0.438   0.395
 2455SOL    HW2 8265   3.798   0.291   0.349
 2456SOL     OW 8266   6.744   2.768   6.626
 2456SOL    HW1 8267   6.739   2.822   6.542
 2456SOL    HW2 8268   6.788   2.822   6.698
 2457SOL     OW 8269   6.713   0.926   6.508
 2457SOL    HW1 8270   6.784   0.858   6.493
 2457SOL    HW2 8271   6.748   1.000   6.566
 2458SOL     OW 8272   1.547   6.517   3.837
 2458SOL    HW1 8273   1.470   6.512   3.901
 2458SOL    HW2 8274   1.517   6.485   3.747
 2459SOL     OW 8275   3.102   6.034   5.926
 2459SOL    HW1 8276   3.099   6.104   5.998
 2459SOL    HW2 8277   3.049   5.954   5.955
 2460SOL     OW 8278   1.443   1.528   1.133
 2460SOL    HW1 8279   1.356   1.572   1.111
 2460SOL    HW2 8280   1.426   1.434   1.163
 2461SOL     OW 8281   5.339   0.701   3.274
 2461SOL    HW1 8282   5.413   0.636   3.294
 2461SOL    HW2 8283   5.251   0.656   3.291
 2462SOL     OW 8284   2.115   5.486   0.001
 2462SOL    HW1 8285   2.122   5.476   6.923
 2462SOL    HW2 8286   2.162   5.569   0.030
 2463SOL     OW 8287   5.856   1.889   6.829
 2463SOL    HW1 8288   5.838   1.829   6.751
 2463SOL    HW2 8289   5.794   1.967   6.826
 2464SOL     OW 8290   1.920   4.079   2.606
 2464SOL    HW1 8291   1.905   4.167   2.651
 2464SOL    HW2 8292   2.012   4.047   2.626
 2465SOL     OW 8293   0.988   6.892   6.712
 2465SOL    HW1 8294   0.894   6.859   6.704
 2465SOL    HW2 8295   1.003   6.967   6.648
 2466SOL     OW 8296   2.502   1.703   3.197
 2466SOL    HW1 8297   2.533   1.625   3.250
 2466SOL    HW2 8298   2.405   1.695   3.178
 2467SOL     OW 8299   5.228   1.657   4.567
 2467SOL    HW1 8300   5.185   1.672   4.477
 2467SOL    HW2 8301   5.309   1.714   4.575
 2468SOL     OW 8302   4.638   6.690   1.912
 2468SOL    HW1 8303   4.540   6.683   1.892
 2468SOL    HW2 8304   4.669   6.783   1.892
 2469SOL     OW 8305   4.216   3.590   5.172
 2469SOL    HW1 8306   4.311   3.619   5.176
 2469SOL    HW2 8307   4.167   3.643   5.103
 2470SOL     OW 8308   4.601   4.160   6.209
 2470SOL    HW1 8309   4.561   4.089   6.151
 2470SOL    HW2 8310   4.685   4.126   6.250
 2471SOL     OW 8311   2.914   6.037   0.631
 2471SOL    HW1 8312   2.864   6.026   0.717
 2471SOL    HW2 8313   2.948   5.948   0.600
 2472SOL     OW 8314   4.604   2.204   3.369
 2472SOL    HW1 8315   4.549   2.278   3.408
 2472SOL    HW2 8316   4.638   2.231   3.279
 2473SOL     OW 8317   1.762   3.994   4.822
 2473SOL    HW1 8318   1.803   3.957   4.905
 2473SOL    HW2 8319   1.811   4.076   4.794
 2474SOL     OW 8320   0.235   6.050   1.494
 2474SOL    HW1 8321   0.300   6.123   1.515
 2474SOL    HW2 8322   0.281   5.962   1.496
 2475SOL     OW 8323   3.476   0.358   2.897
 2475SOL    HW1 8324   3.404   0.388   2.960
 2475SOL    HW2 8325   3.565   0.371   2.940
 2476SOL     OW 8326   6.669   1.187   2.599
 2476SOL    HW1 8327   6.663   1.093   2.632
 2476SOL    HW2 8328   6.577   1.222   2.580
 2477SOL     OW 8329   4.478   1.356   2.391
 2477SOL    HW1 8330   4.573   1.361   2.360
 2477SOL    HW2 8331   4.424   1.301   2.327
 2478SOL     OW 8332   6.229   1.071   1.839
 2478SOL    HW1 8333   6.260   0.984   1.801
 2478SOL    HW2 8334   6.213   1.061   1.937
 2479SOL     OW 8335   1.165   3.501   2.198
 2479SOL    HW1 8336   1.248   3.545   2.163
 2479SOL    HW2 8337   1.086   3.528   2.142
 2480SOL     OW 8338   4.774   3.917   0.663
 2480SOL    HW1 8339   4.845   3.977   0.699
 2480SOL    HW2 8340   4.740   3.857   0.735
 2481SOL     OW 8341   3.457   6.532   0.351
 2481SOL    HW1 8342   3.422   6.623   0.375
 2481SOL    HW2 8343   3.466   6.525   0.252
 2482SOL     OW 8344   5.404   4.114   6.169
 2482SOL    HW1 8345   5.465   4.192   6.153
 2482SOL    HW2 8346   5.457   4.037   6.205
 2483SOL     OW 8347   1.984   1.111   0.641
 2483SOL    HW1 8348   2.028   1.104   0.730
 2483SOL    HW2 8349   1.993   1.205   0.607
 2484SOL     OW 8350   3.303   0.788   0.143
 2484SOL    HW1 8351   3.330   0.775   0.048
 2484SOL    HW2 8352   3.282   0.885   0.158
 2485SOL     OW 8353   6.344   3.541   1.460
 2485SOL    HW1 8354   6.397   3.467   1.418
 2485SOL    HW2 8355   6.321   3.517   1.554
 2486SOL     OW 8356   2.153   4.852   4.288
 2486SOL    HW1 8357   2.069   4.819   4.332
 2486SOL    HW2 8358   2.202   4.913   4.351
 2487SOL     OW 8359   3.842   6.116   0.315
 2487SOL    HW1 8360   3.864   6.033   0.366
 2487SOL    HW2 8361   3.769   6.165   0.362
 2488SOL     OW 8362   1.668   4.852   2.481
 2488SOL    HW1 8363   1.670   4.950   2.503
 2488SOL    HW2 8364   1.730   4.833   2.405
 2489SOL     OW 8365   1.539   5.798   3.429
 2489SOL    HW1 8366   1.570   5.889   3.399
 2489SOL    HW2 8367   1.453   5.776   3.384
 2490SOL     OW 8368   0.012   4.717   1.668
 2490SOL    HW1 8369   0.060   4.678   1.589
 2490SOL    HW2 8370   6.986   4.644   1.718
 2491SOL     OW 8371   2.103   5.339   0.913
 2491SOL    HW1 8372   2.018   5.294   0.940
 2491SOL    HW2 8373   2.180   5.300   0.964
 2492SOL     OW 8374   4.375   2.629   1.113
 2492SOL    HW1 8375   4.316   2.682   1.174
 2492SOL    HW2 8376   4.324   2.550   1.078
 2493SOL     OW 8377   5.800   0.495   1.650
 2493SOL    HW1 8378   5.713   0.509   1.696
 2493SOL    HW2 8379   5.824   0.398   1.652
 2494SOL     OW 8380   5.313   4.153   2.699
 2494SOL    HW1 8381   5.297   4.074   2.640
 2494SOL    HW2 8382   5.253   4.228   2.672
 2495SOL     OW 8383   5.405   0.534   4.622
 2495SOL    HW1 8384   5.459   0.454   4.645
 2495SOL    HW2 8385   5.464   0.614   4.614
 2496SOL     OW 8386   6.654   3.405   5.963
 2496SOL    HW1 8387   6.617   3.336   6.025
 2496SOL    HW2 8388   6.635   3.380   5.869
 2497SOL     OW 8389   0.281   0.682   0.670
 2497SOL    HW1 8390   0.255   0.771   0.632
 2497SOL    HW2 8391   0.338   0.633   0.605
 2498SOL     OW 8392   2.512   1.575   4.225
 2498SOL    HW1 8393   2.595   1.616   4.187
 2498SOL    HW2 8394   2.531   1.480   4.251
 2499SOL     OW 8395   6.289   2.734   2.040
 2499SOL    HW1 8396   6.247   2.763   2.126
 2499SOL    HW2 8397   6.218   2.704   1.976
 2500SOL     OW 8398   4.384   3.068   7.019
 2500SOL    HW1 8399   4.288   3.093   0.008
 2500SOL    HW2 8400   4.395   3.008   6.940
 2501SOL     OW 8401   5.888   4.993   0.689
 2501SOL    HW1 8402   5.800   5.038   0.707
 2501SOL    HW2 8403   5.960   5.038   0.741
 2502SOL     OW 8404   1.264   6.048   3.719
 2502SOL    HW1 8405   1.284   6.124   3.658
 2502SOL    HW2 8406   1.225   5.971   3.667
 2503SOL     OW 8407   2.597   6.005   4.185
 2503SOL    HW1 8408   2.528   5.959   4.240
 2503SOL    HW2 8409   2.685   6.002   4.233
 2504SOL     OW 8410   3.837   5.651   4.556
 2504SOL    HW1 8411   3.859   5.665   4.653
 2504SOL    HW2 8412   3.739   5.631   4.547
 2505SOL     OW 8413   1.377   6.288   2.928
 2505SOL    HW1 8414   1.330   6.211   2.969
 2505SOL    HW2 8415   1.331   6.373   2.953
 2506SOL     OW 8416   6.184   3.999   5.164
 2506SOL    HW1 8417   6.230   4.062   5.102
 2506SOL    HW2 8418   6.116   3.946   5.112
 2507SOL     OW 8419   1.185   4.196   0.750
 2507SOL    HW1 8420   1.284   4.201   0.768
 2507SOL    HW2 8421   1.161   4.102   0.723
 2508SOL     OW 8422   2.575   1.270   2.609
 2508SOL    HW1 8423   2.601   1.306   2.698
 2508SOL    HW2 8424   2.562   1.345   2.545
 2509SOL     OW 8425   6.558   2.631   1.545
 2509SOL    HW1 8426   6.558   2.590   1.636
 2509SOL    HW2 8427   6.646   2.676   1.528
 2510SOL     OW 8428   3.079   4.254   1.408
 2510SOL    HW1 8429   3.109   4.340   1.366
 2510SOL    HW2 8430   3.003   4.273   1.471
 2511SOL     OW 8431   2.856   2.252   4.357
 2511SOL    HW1 8432   2.759   2.265   4.379
 2511SOL    HW2 8433   2.908   2.240   4.441
 2512SOL     OW 8434   5.265   4.324   5.303
 2512SOL    HW1 8435   5.277   4.309   5.401
 2512SOL    HW2 8436   5.354   4.343   5.261
 2513SOL     OW 8437   1.412   3.920   5.275
 2513SOL    HW1 8438   1.484   3.904   5.343
 2513SOL    HW2 8439   1.449   3.906   5.183
 2514SOL     OW 8440   6.190   3.454   4.796
 2514SOL    HW1 8441   6.179   3.460   4.697
 2514SOL    HW2 8442   6.100   3.447   4.840
 2515SOL     OW 8443   1.769   6.629   0.419
 2515SOL    HW1 8444   1.760   6.724   0.389
 2515SOL    HW2 8445   1.705   6.612   0.495
 2516SOL     OW 8446   6.135   1.235   2.644
 2516SOL    HW1 8447   6.040   1.265   2.659
 2516SOL    HW2 8448   6.196   1.314   2.655
 2517SOL     OW 8449   0.850   5.733   5.672
 2517SOL    HW1 8450   0.803   5.687   5.747
 2517SOL    HW2 8451   0.891   5.819   5.705
 2518SOL     OW 8452   1.091   4.679   0.105
 2518SOL    HW1 8453   1.129   4.600   0.057
 2518SOL    HW2 8454   1.134   4.687   0.195
 2519SOL     OW 8455   4.335   6.707   3.132
 2519SOL    HW1 8456   4.269   6.731   3.062
 2519SOL    HW2 8457   4.424   6.747   3.109
 2520SOL     OW 8458   2.434   2.302   0.375
 2520SOL    HW1 8459   2.406   2.331   0.467
 2520SOL    HW2 8460   2.504   2.364   0.340
 2521SOL     OW 8461   1.323   0.461   5.091
 2521SOL    HW1 8462   1.307   0.554   5.059
 2521SOL    HW2 8463   1.412   0.457   5.137
 2522SOL     OW 8464   0.291   3.655   5.201
 2522SOL    HW1 8465   0.221   3.633   5.269
 2522SOL    HW2 8466   0.247   3.671   5.112
 2523SOL     OW 8467   7.011   2.810   1.391
 2523SOL    HW1 8468   0.055   2.887   1.395
 2523SOL    HW2 8469   6.945   2.818   1.465
 2524SOL     OW 8470   0.952   6.562   4.959
 2524SOL    HW1 8471   1.043   6.602   4.962
 2524SOL    HW2 8472   0.926   6.545   4.863
 2525SOL     OW 8473   1.065   2.112   5.236
 2525SOL    HW1 8474   1.146   2.164   5.209
 2525SOL    HW2 8475   0.999   2.113   5.161
 2526SOL     OW 8476   1.611   4.101   5.798
 2526SOL    HW1 8477   1.542   4.172   5.789
 2526SOL    HW2 8478   1.588   4.042   5.876
 2527SOL     OW 8479   4.989   5.819   4.953
 2527SOL    HW1 8480   5.019   5.817   5.048
 2527SOL    HW2 8481   4.920   5.748   4.939
 2528SOL     OW 8482   5.553   5.019   1.423
 2528SOL    HW1 8483   5.584   5.099   1.371
 2528SOL    HW2 8484   5.466   4.987   1.386
 2529SOL     OW 8485   6.943   6.759   5.848
 2529SOL    HW1 8486   6.968   6.792   5.757
 2529SOL    HW2 8487   6.879   6.683   5.839
 2530SOL     OW 8488   2.495   6.956   5.726
 2530SOL    HW1 8489   2.558   0.011   5.745
 2530SOL    HW2 8490   2.489   6.897   5.807
 2531SOL     OW 8491   4.862   5.799   4.288
 2531SOL    HW1 8492   4.945   5.752   4.315
 2531SOL    HW2 8493   4.786   5.734   4.283
 2532SOL     OW 8494   0.931   6.739   1.251
 2532SOL    HW1 8495   0.871   6.743   1.330
 2532SOL    HW2 8496   0.955   6.831   1.221
 2533SOL     OW 8497   3.143   6.567   3.266
 2533SOL    HW1 8498   3.114   6.655   3.230
 2533SOL    HW2 8499   3.174   6.578   3.361
 2534SOL     OW 8500   3.487   0.351   3.605
 2534SOL    HW1 8501   3.428   0.395   3.538
 2534SOL    HW2 8502   3.483   0.401   3.692
 2535SOL     OW 8503   3.245   1.954   5.382
 2535SOL    HW1 8504   3.273   1.859   5.399
 2535SOL    HW2 8505   3.326   2.012   5.379
 2536SOL     OW 8506   0.719   2.326   4.759
 2536SOL    HW1 8507   0.709   2.411   4.810
 2536SOL    HW2 8508   0.784   2.339   4.685
 2537SOL     OW 8509   3.564   0.351   6.339
 2537SOL    HW1 8510   3.494   0.388   6.399
 2537SOL    HW2 8511   3.653   0.391   6.361
 2538SOL     OW 8512   0.977   4.915   5.155
 2538SOL    HW1 8513   1.043   4.988   5.138
 2538SOL    HW2 8514   1.002   4.864   5.237
 2539SOL     OW 8515   5.262   1.070   5.183
 2539SOL    HW1 8516   5.223   0.998   5.126
 2539SOL    HW2 8517   5.359   1.050   5.200
 2540SOL     OW 8518   3.946   0.941   2.474
 2540SOL    HW1 8519   3.925   1.000   2.552
 2540SOL    HW2 8520   3.963   0.998   2.393
 2541SOL     OW 8521   2.511   6.979   5.084
 2541SOL    HW1 8522   2.566   6.940   5.010
 2541SOL    HW2 8523   2.442   6.912   5.112
 2542SOL     OW 8524   4.639   1.838   6.183
 2542SOL    HW1 8525   4.694   1.784   6.246
 2542SOL    HW2 8526   4.577   1.897   6.234
 2543SOL     OW 8527   1.141   1.235   2.824
 2543SOL    HW1 8528   1.232   1.253   2.861
 2543SOL    HW2 8529   1.115   1.308   2.761
 2544SOL     OW 8530   0.340   5.862   0.898
 2544SOL    HW1 8531   0.290   5.855   0.984
 2544SOL    HW2 8532   0.302   5.798   0.832
 2545SOL     OW 8533   2.135   1.009   1.287
 2545SOL    HW1 8534   2.206   1.006   1.218
 2545SOL    HW2 8535   2.151   1.087   1.349
 2546SOL     OW 8536   0.029   1.508   1.255
 2546SOL    HW1 8537   7.012   1.567   1.185
 2546SOL    HW2 8538   0.019   1.412   1.228
 2547SOL     OW 8539   6.244   4.290   0.555
 2547SOL    HW1 8540   6.195   4.373   0.528
 2547SOL    HW2 8541   6.236   4.277   0.654
 2548SOL     OW 8542   2.360   6.476   5.794
 2548SOL    HW1 8543   2.366   6.465   5.695
 2548SOL    HW2 8544   2.452   6.479   5.833
 2549SOL     OW 8545   1.970   0.882   0.885
 2549SOL    HW1 8546   1.878   0.894   0.922
 2549SOL    HW2 8547   2.030   0.955   0.920
 2550SOL     OW 8548   0.130   0.342   5.932
 2550SOL    HW1 8549   0.118   0.397   5.848
 2550SOL    HW2 8550   0.181   0.259   5.911
 2551SOL     OW 8551   3.586   4.737   0.880
 2551SOL    HW1 8552   3.489   4.716   0.893
 2551SOL    HW2 8553   3.631   4.660   0.834
 2552SOL     OW 8554   2.163   5.897   5.730
 2552SOL    HW1 8555   2.120   5.962   5.793
 2552SOL    HW2 8556   2.166   5.936   5.638
 2553SOL     OW 8557   4.137   2.944   6.177
 2553SOL    HW1 8558   4.195   2.913   6.101
 2553SOL    HW2 8559   4.184   2.929   6.264
 2554SOL     OW 8560   2.194   5.842   0.934
 2554SOL    HW1 8561   2.108   5.836   0.884
 2554SOL    HW2 8562   2.176   5.853   1.032
 2555SOL     OW 8563   5.746   0.051   6.543
 2555SOL    HW1 8564   5.703   0.069   6.455
 2555SOL    HW2 8565   5.719   0.123   6.608
 2556SOL     OW 8566   4.684   5.704   0.260
 2556SOL    HW1 8567   4.731   5.753   0.186
 2556SOL    HW2 8568   4.601   5.754   0.285
 2557SOL     OW 8569   2.716   3.382   6.090
 2557SOL    HW1 8570   2.701   3.294   6.045
 2557SOL    HW2 8571   2.813   3.395   6.107
 2558SOL     OW 8572   4.568   2.541   5.903
 2558SOL    HW1 8573   4.556   2.442   5.911
 2558SOL    HW2 8574   4.589   2.580   5.993
 2559SOL     OW 8575   6.270   4.264   4.010
 2559SOL    HW1 8576   6.230   4.244   3.920
 2559SOL    HW2 8577   6.199   4.260   4.080
 2560SOL     OW 8578   5.811   3.164   4.263
 2560SOL    HW1 8579   5.750   3.163   4.343
 2560SOL    HW2 8580   5.761   3.198   4.184
 2561SOL     OW 8581   2.742   6.407   5.044
 2561SOL    HW1 8582   2.706   6.356   4.967
 2561SOL    HW2 8583   2.842   6.413   5.036
 2562SOL     OW 8584   0.930   5.274   2.323
 2562SOL    HW1 8585   0.834   5.296   2.341
 2562SOL    HW2 8586   0.939   5.176   2.305
 2563SOL     OW 8587   4.039   2.158   0.687
 2563SOL    HW1 8588   3.958   2.215   0.702
 2563SOL    HW2 8589   4.060   2.154   0.590
 2564SOL     OW 8590   1.846   6.263   5.805
 2564SOL    HW1 8591   1.774   6.231   5.743
 2564SOL    HW2 8592   1.890   6.343   5.766
 2565SOL     OW 8593   0.381   6.902   6.843
 2565SOL    HW1 8594   0.337   6.990   6.856
 2565SOL    HW2 8595   0.404   6.890   6.746
 2566SOL     OW 8596   2.261   6.995   0.953
 2566SOL    HW1 8597   2.204   0.008   1.028
 2566SOL    HW2 8598   2.286   6.900   0.970
 2567SOL     OW 8599   0.719   1.477   1.220
 2567SOL    HW1 8600   0.718   1.404   1.289
 2567SOL    HW2 8601   0.735   1.437   1.130
 2568SOL     OW 8602   3.168   6.557   0.260
 2568SOL    HW1 8603   3.216   6.497   0.323
 2568SOL    HW2 8604   3.235   6.605   0.203
 2569SOL     OW 8605   2.881   1.385   1.759
 2569SOL    HW1 8606   2.816   1.361   1.686
 2569SOL    HW2 8607   2.962   1.328   1.751
 2570SOL     OW 8608   5.523   0.209   6.076
 2570SOL    HW1 8609   5.451   0.162   6.026
 2570SOL    HW2 8610   5.603   0.220   6.017
 2571SOL     OW 8611   2.315   4.472   4.923
 2571SOL    HW1 8612   2.249   4.537   4.885
 2571SOL    HW2 8613   2.389   4.521   4.967
 2572SOL     OW 8614   2.435   5.731   0.185
 2572SOL    HW1 8615   2.507   5.671   0.150
 2572SOL    HW2 8616   2.383   5.683   0.255
 2573SOL     OW 8617   6.536   2.240   1.566
 2573SOL    HW1 8618   6.575   2.300   1.635
 2573SOL    HW2 8619   6.500   2.296   1.491
 2574SOL     OW 8620   6.162   3.996   6.981
 2574SOL    HW1 8621   6.242   3.936   6.973
 2574SOL    HW2 8622   6.112   3.997   6.894
 2575SOL     OW 8623   5.615   5.673   0.351
 2575SOL    HW1 8624   5.586   5.716   0.436
 2575SOL    HW2 8625   5.578   5.725   0.273
 2576SOL     OW 8626   3.428   0.027   4.257
 2576SOL    HW1 8627   3.511   0.078   4.236
 2576SOL    HW2 8628   3.413   0.027   4.356
 2577SOL     OW 8629   3.481   0.244   1.926
 2577SOL    HW1 8630   3.467   0.179   2.000
 2577SOL    HW2 8631   3.393   0.268   1.885
 2578SOL     OW 8632   4.790   1.575   3.694
 2578SOL    HW1 8633   4.855   1.632   3.743
 2578SOL    HW2 8634   4.746   1.628   3.622
 2579SOL     OW 8635   1.302   6.227   2.614
 2579SOL    HW1 8636   1.396   6.223   2.648
 2579SOL    HW2 8637   1.240   6.241   2.690
 2580SOL     OW 8638   2.789   2.648   6.557
 2580SOL    HW1 8639   2.718   2.647   6.487
 2580SOL    HW2 8640   2.846   2.730   6.546
 2581SOL     OW 8641   0.905   4.656   0.769
 2581SOL    HW1 8642   0.901   4.652   0.669
 2581SOL    HW2 8643   0.941   4.570   0.805
 2582SOL     OW 8644   0.875   4.836   2.103
 2582SOL    HW1 8645   0.840   4.744   2.115
 2582SOL    HW2 8646   0.845   4.872   2.015
 2583SOL     OW 8647   0.970   1.094   0.244
 2583SOL    HW1 8648   0.889   1.103   0.186
 2583SOL    HW2 8649   0.982   1.177   0.298
 2584SOL     OW 8650   4.116   5.820   0.212
 2584SOL    HW1 8651   4.144   5.915   0.224
 2584SOL    HW2 8652   4.017   5.814   0.215
 2585SOL     OW 8653   4.915   2.249   0.814
 2585SOL    HW1 8654   4.846   2.275   0.882
 2585SOL    HW2 8655   4.943   2.330   0.763
 2586SOL     OW 8656   3.554   1.224   3.783
 2586SOL    HW1 8657   3.541   1.306   3.728
 2586SOL    HW2 8658   3.599   1.249   3.869
 2587SOL     OW 8659   0.317   0.795   3.462
 2587SOL    HW1 8660   0.223   0.798   3.427
 2587SOL    HW2 8661   0.358   0.886   3.455
 2588SOL     OW 8662   4.321   0.806   6.560
 2588SOL    HW1 8663   4.305   0.901   6.585
 2588SOL    HW2 8664   4.234   0.763   6.536
 2589SOL     OW 8665   0.322   6.282   6.471
 2589SOL    HW1 8666   0.399   6.257   6.412
 2589SOL    HW2 8667   0.240   6.232   6.443
 2590SOL     OW 8668   3.800   5.902   0.728
 2590SOL    HW1 8669   3.748   5.980   0.766
 2590SOL    HW2 8670   3.818   5.836   0.801
 2591SOL     OW 8671   6.882   5.382   2.784
 2591SOL    HW1 8672   6.974   5.358   2.753
 2591SOL    HW2 8673   6.837   5.437   2.713
 2592SOL     OW 8674   3.269   5.036   0.524
 2592SOL    HW1 8675   3.192   5.073   0.576
 2592SOL    HW2 8676   3.355   5.073   0.559
 2593SOL     OW 8677   3.094   5.252   0.542
 2593SOL    HW1 8678   3.007   5.268   0.497
 2593SOL    HW2 8679   3.152   5.332   0.532
 2594SOL     OW 8680   1.073   5.304   6.167
 2594SOL    HW1 8681   1.115   5.349   6.088
 2594SOL    HW2 8682   1.004   5.238   6.135
 2595SOL     OW 8683   6.543   1.571   4.169
 2595SOL    HW1 8684   6.606   1.596   4.096
 2595SOL    HW2 8685   6.521   1.474   4.163
 2596SOL     OW 8686   2.909   1.667   1.818
 2596SOL    HW1 8687   2.875   1.574   1.804
 2596SOL    HW2 8688   2.838   1.722   1.862
 2597SOL     OW 8689   1.409   4.879   5.901
 2597SOL    HW1 8690   1.500   4.896   5.863
 2597SOL    HW2 8691   1.370   4.797   5.858
 2598SOL     OW 8692   6.839   1.183   2.852
 2598SOL    HW1 8693   6.914   1.248   2.856
 2598SOL    HW2 8694   6.790   1.194   2.766
 2599SOL     OW 8695   2.247   6.274   1.157
 2599SOL    HW1 8696   2.227   6.278   1.059
 2599SOL    HW2 8697   2.343   6.297   1.172
 2600SOL     OW 8698   5.659   3.331   5.148
 2600SOL    HW1 8699   5.561   3.350   5.156
 2600SOL    HW2 8700   5.676   3.280   5.063
 2601SOL     OW 8701   2.675   1.366   1.574
 2601SOL    HW1 8702   2.632   1.426   1.642
 2601SOL    HW2 8703   2.683   1.414   1.487
 2602SOL     OW 8704   1.195   4.092   4.789
 2602SOL    HW1 8705   1.122   4.133   4.735
 2602SOL    HW2 8706   1.159   4.061   4.877
 2603SOL     OW 8707   2.167   1.229   3.822
 2603SOL    HW1 8708   2.188   1.318   3.862
 2603SOL    HW2 8709   2.068   1.214   3.825
 2604SOL     OW 8710   4.410   1.845   2.825
 2604SOL    HW1 8711   4.312   1.854   2.840
 2604SOL    HW2 8712   4.430   1.757   2.783
 2605SOL     OW 8713   1.847   3.045   3.157
 2605SOL    HW1 8714   1.756   3.050   3.198
 2605SOL    HW2 8715   1.838   3.033   3.058
 2606SOL     OW 8716   5.407   4.357   2.475
 2606SOL    HW1 8717   5.455   4.439   2.509
 2606SOL    HW2 8718   5.381   4.371   2.380
 2607SOL     OW 8719   1.620   1.681   0.960
 2607SOL    HW1 8720   1.569   1.766   0.977
 2607SOL    HW2 8721   1.570   1.604   0.999
 2608SOL     OW 8722   4.751   5.339   1.198
 2608SOL    HW1 8723   4.738   5.271   1.125
 2608SOL    HW2 8724   4.671   5.399   1.201
 2609SOL     OW 8725   6.470   1.278   1.518
 2609SOL    HW1 8726   6.564   1.312   1.521
 2609SOL    HW2 8727   6.471   1.178   1.523
 2610SOL     OW 8728   1.016   4.419   5.026
 2610SOL    HW1 8729   1.010   4.518   5.034
 2610SOL    HW2 8730   1.079   4.383   5.096
 2611SOL     OW 8731   4.479   6.769   1.172
 2611SOL    HW1 8732   4.393   6.795   1.129
 2611SOL    HW2 8733   4.545   6.741   1.102
 2612SOL     OW 8734   6.452   0.334   5.894
 2612SOL    HW1 8735   6.535   0.374   5.931
 2612SOL    HW2 8736   6.457   0.335   5.794
 2613SOL     OW 8737   3.037   5.722   6.143
 2613SOL    HW1 8738   3.039   5.793   6.214
 2613SOL    HW2 8739   3.017   5.634   6.186
 2614SOL     OW 8740   6.610   1.169   5.718
 2614SOL    HW1 8741   6.640   1.252   5.766
 2614SOL    HW2 8742   6.637   1.089   5.771
 2615SOL     OW 8743   6.849   3.416   2.380
 2615SOL    HW1 8744   6.823   3.426   2.476
 2615SOL    HW2 8745   6.767   3.420   2.323
 2616SOL     OW 8746   3.216   2.818   5.863
 2616SOL    HW1 8747   3.140   2.757   5.886
 2616SOL    HW2 8748   3.251   2.794   5.772
 2617SOL     OW 8749   3.807   6.476   0.275
 2617SOL    HW1 8750   3.807   6.539   0.352
 2617SOL    HW2 8751   3.830   6.384   0.307
 2618SOL     OW 8752   6.913   0.384   4.083
 2618SOL    HW1 8753   6.941   0.303   4.031
 2618SOL    HW2 8754   6.837   0.429   4.036
 2619SOL     OW 8755   3.702   1.803   3.148
 2619SOL    HW1 8756   3.698   1.799   3.048
 2619SOL    HW2 8757   3.680   1.895   3.179
 2620SOL     OW 8758   6.480   6.737   3.876
 2620SOL    HW1 8759   6.443   6.788   3.953
 2620SOL    HW2 8760   6.487   6.797   3.796
 2621SOL     OW 8761   0.888   5.307   2.620
 2621SOL    HW1 8762   0.884   5.399   2.659
 2621SOL    HW2 8763   0.906   5.314   2.522
 2622SOL     OW 8764   1.696   3.605   5.241
 2622SOL    HW1 8765   1.754   3.525   5.258
 2622SOL    HW2 8766   1.624   3.580   5.176
 2623SOL     OW 8767   0.930   1.186   5.639
 2623SOL    HW1 8768   0.934   1.182   5.739
 2623SOL    HW2 8769   0.946   1.279   5.608
 2624SOL     OW 8770   6.879   0.989   5.376
 2624SOL    HW1 8771   6.825   0.934   5.439
 2624SOL    HW2 8772   6.874   0.950   5.284
 2625SOL     OW 8773   2.520   3.179   5.626
 2625SOL    HW1 8774   2.464   3.127   5.561
 2625SOL    HW2 8775   2.599   3.218   5.578
 2626SOL     OW 8776   0.444   0.578   5.935
 2626SOL    HW1 8777   0.489   0.655   5.981
 2626SOL    HW2 8778   0.424   0.507   6.003
 2627SOL     OW 8779   0.663   0.980   6.317
 2627SOL    HW1 8780   0.744   0.995   6.373
 2627SOL    HW2 8781   0.658   1.052   6.247
 2628SOL     OW 8782   1.922   4.828   5.863
 2628SOL    HW1 8783   1.919   4.773   5.946
 2628SOL    HW2 8784   1.988   4.788   5.799
 2629SOL     OW 8785   3.702   3.157   2.263
 2629SOL    HW1 8786   3.760   3.088   2.221
 2629SOL    HW2 8787   3.678   3.226   2.195
 2630SOL     OW 8788   3.180   1.735   2.675
 2630SOL    HW1 8789   3.227   1.766   2.592
 2630SOL    HW2 8790   3.089   1.777   2.679
 2631SOL     OW 8791   5.478   0.842   6.180
 2631SOL    HW1 8792   5.491   0.753   6.223
 2631SOL    HW2 8793   5.414   0.834   6.104
 2632SOL     OW 8794   5.043   3.125   6.340
 2632SOL    HW1 8795   5.087   3.058   6.400
 2632SOL    HW2 8796   5.057   3.217   6.377
 2633SOL     OW 8797   0.487   2.408   4.392
 2633SOL    HW1 8798   0.389   2.402   4.408
 2633SOL    HW2 8799   0.532   2.325   4.425
 2634SOL     OW 8800   0.686   4.615   3.549
 2634SOL    HW1 8801   0.750   4.671   3.601
 2634SOL    HW2 8802   0.602   4.667   3.532
 2635SOL     OW 8803   6.653   5.932   5.488
 2635SOL    HW1 8804   6.708   5.881   5.421
 2635SOL    HW2 8805   6.713   5.993   5.540
 2636SOL     OW 8806   3.689   0.505   4.915
 2636SOL    HW1 8807   3.612   0.509   4.852
 2636SOL    HW2 8808   3.710   0.597   4.948
 2637SOL     OW 8809   5.675   1.443   3.240
 2637SOL    HW1 8810   5.691   1.371   3.309
 2637SOL    HW2 8811   5.577   1.450   3.222
 2638SOL     OW 8812   6.978   0.122   3.944
 2638SOL    HW1 8813   6.904   0.098   3.881
 2638SOL    HW2 8814   0.045   0.112   3.898
 2639SOL     OW 8815   0.804   6.061   0.600
 2639SOL    HW1 8816   0.746   6.103   0.530
 2639SOL    HW2 8817   0.900   6.070   0.573
 2640SOL     OW 8818   0.447   6.218   5.653
 2640SOL    HW1 8819   0.537   6.178   5.668
 2640SOL    HW2 8820   0.381   6.146   5.630
 2641SOL     OW 8821   5.868   3.106   2.061
 2641SOL    HW1 8822   5.845   3.042   1.988
 2641SOL    HW2 8823   5.857   3.200   2.028
 2642SOL     OW 8824   5.197   0.355   3.666
 2642SOL    HW1 8825   5.211   0.326   3.571
 2642SOL    HW2 8826   5.143   0.439   3.667
 2643SOL     OW 8827   0.600   3.611   3.247
 2643SOL    HW1 8828   0.590   3.663   3.332
 2643SOL    HW2 8829   0.592   3.514   3.267
 2644SOL     OW 8830   5.179   6.182   5.275
 2644SOL    HW1 8831   5.081   6.184   5.257
 2644SOL    HW2 8832   5.229   6.189   5.189
 2645SOL     OW 8833   4.000   5.483   3.721
 2645SOL    HW1 8834   4.081   5.514   3.672
 2645SOL    HW2 8835   3.919   5.526   3.682
 2646SOL     OW 8836   6.194   1.387   7.014
 2646SOL    HW1 8837   6.201   1.314   6.946
 2646SOL    HW2 8838   6.283   1.401   0.036
 2647SOL     OW 8839   6.517   0.137   2.084
 2647SOL    HW1 8840   6.537   0.057   2.141
 2647SOL    HW2 8841   6.420   0.160   2.092
 2648SOL     OW 8842   0.609   6.859   3.419
 2648SOL    HW1 8843   0.680   6.832   3.484
 2648SOL    HW2 8844   0.575   6.777   3.372
 2649SOL     OW 8845   6.627   3.469   0.323
 2649SOL    HW1 8846   6.641   3.506   0.231
 2649SOL    HW2 8847   6.543   3.415   0.325
 2650SOL     OW 8848   0.939   4.664   3.901
 2650SOL    HW1 8849   0.941   4.573   3.859
 2650SOL    HW2 8850   0.970   4.657   3.996
 2651SOL     OW 8851   2.227   1.492   1.267
 2651SOL    HW1 8852   2.229   1.514   1.169
 2651SOL    HW2 8853   2.313   1.521   1.309
 2652SOL     OW 8854   4.170   3.326   5.186
 2652SOL    HW1 8855   4.231   3.280   5.250
 2652SOL    HW2 8856   4.187   3.425   5.188
 2653SOL     OW 8857   4.911   6.751   5.966
 2653SOL    HW1 8858   4.910   6.659   6.005
 2653SOL    HW2 8859   4.875   6.747   5.873
 2654SOL     OW 8860   4.846   0.244   2.314
 2654SOL    HW1 8861   4.787   0.323   2.333
 2654SOL    HW2 8862   4.910   0.232   2.390
 2655SOL     OW 8863   5.332   6.644   4.250
 2655SOL    HW1 8864   5.352   6.722   4.190
 2655SOL    HW2 8865   5.244   6.659   4.295
 2656SOL     OW 8866   3.528   5.303   4.625
 2656SOL    HW1 8867   3.574   5.218   4.600
 2656SOL    HW2 8868   3.433   5.284   4.651
 2657SOL     OW 8869   1.144   4.259   0.119
 2657SOL    HW1 8870   1.137   4.181   0.056
 2657SOL    HW2 8871   1.240   4.284   0.130
 2658SOL     OW 8872   5.054   4.662   0.652
 2658SOL    HW1 8873   5.104   4.736   0.698
 2658SOL    HW2 8874   5.098   4.640   0.565
 2659SOL     OW 8875   5.119   2.911   4.728
 2659SOL    HW1 8876   5.200   2.916   4.670
 2659SOL    HW2 8877   5.060   2.990   4.710
 2660SOL     OW 8878   1.778   6.727   1.878
 2660SOL    HW1 8879   1.816   6.750   1.788
 2660SOL    HW2 8880   1.840   6.665   1.926
 2661SOL     OW 8881   2.478   7.007   1.752
 2661SOL    HW1 8882   2.390   6.989   1.708
 2661SOL    HW2 8883   2.526   6.920   1.765
 2662SOL     OW 8884   4.322   6.401   5.705
 2662SOL    HW1 8885   4.275   6.407   5.617
 2662SOL    HW2 8886   4.297   6.315   5.750
 2663SOL     OW 8887   3.476   4.372   6.319
 2663SOL    HW1 8888   3.446   4.280   6.292
 2663SOL    HW2 8889   3.551   4.401   6.260
 2664SOL     OW 8890   4.652   3.408   5.331
 2664SOL    HW1 8891   4.690   3.478   5.270
 2664SOL    HW2 8892   4.630   3.449   5.419
 2665SOL     OW 8893   2.668   2.920   5.373
 2665SOL    HW1 8894   2.612   2.938   5.292
 2665SOL    HW2 8895   2.665   2.823   5.395
 2666SOL     OW 8896   0.087   5.145   1.678
 2666SOL    HW1 8897   0.038   5.177   1.596
 2666SOL    HW2 8898   0.021   5.134   1.753
 2667SOL     OW 8899   0.723   5.698   4.255
 2667SOL    HW1 8900   0.734   5.740   4.345
 2667SOL    HW2 8901   0.646   5.634   4.257
 2668SOL     OW 8902   0.302   3.232   5.150
 2668SOL    HW1 8903   0.294   3.252   5.247
 2668SOL    HW2 8904   0.213   3.245   5.106
 2669SOL     OW 8905   2.907   4.872   5.854
 2669SOL    HW1 8906   2.831   4.815   5.886
 2669SOL    HW2 8907   2.920   4.859   5.756
 2670SOL     OW 8908   5.482   3.654   5.860
 2670SOL    HW1 8909   5.466   3.745   5.898
 2670SOL    HW2 8910   5.462   3.653   5.763
 2671SOL     OW 8911   4.355   5.333   6.786
 2671SOL    HW1 8912   4.336   5.382   6.870
 2671SOL    HW2 8913   4.443   5.286   6.794
 2672SOL     OW 8914   2.174   4.893   0.751
 2672SOL    HW1 8915   2.131   4.973   0.708
 2672SOL    HW2 8916   2.223   4.921   0.833
 2673SOL     OW 8917   6.931   1.315   1.923
 2673SOL    HW1 8918   6.885   1.317   2.012
 2673SOL    HW2 8919   6.963   1.407   1.900
 2674SOL     OW 8920   1.529   5.066   3.720
 2674SOL    HW1 8921   1.606   5.025   3.768
 2674SOL    HW2 8922   1.448   5.009   3.732
 2675SOL     OW 8923   5.931   5.342   4.096
 2675SOL    HW1 8924   5.863   5.286   4.144
 2675SOL    HW2 8925   5.886   5.422   4.056
 2676SOL     OW 8926   3.943   2.557   1.251
 2676SOL    HW1 8927   3.849   2.524   1.240
 2676SOL    HW2 8928   3.943   2.657   1.253
 2677SOL     OW 8929   2.734   4.024   6.943
 2677SOL    HW1 8930   2.803   3.967   6.987
 2677SOL    HW2 8931   2.758   4.121   6.955
 2678SOL     OW 8932   0.229   2.597   1.674
 2678SOL    HW1 8933   0.170   2.677   1.690
 2678SOL    HW2 8934   0.207   2.526   1.740
 2679SOL     OW 8935   1.887   4.809   1.741
 2679SOL    HW1 8936   1.846   4.748   1.809
 2679SOL    HW2 8937   1.873   4.904   1.768
 2680SOL     OW 8938   1.265   1.565   0.876
 2680SOL    HW1 8939   1.178   1.515   0.878
 2680SOL    HW2 8940   1.247   1.662   0.891
 2681SOL     OW 8941   1.930   2.140   5.224
 2681SOL    HW1 8942   1.914   2.062   5.284
 2681SOL    HW2 8943   1.847   2.159   5.171
 2682SOL     OW 8944   4.680   4.296   3.521
 2682SOL    HW1 8945   4.627   4.243   3.455
 2682SOL    HW2 8946   4.778   4.287   3.501
 2683SOL     OW 8947   2.971   5.445   1.780
 2683SOL    HW1 8948   2.931   5.477   1.866
 2683SOL    HW2 8949   2.943   5.351   1.762
 2684SOL     OW 8950   4.776   6.200   1.676
 2684SOL    HW1 8951   4.685   6.233   1.650
 2684SOL    HW2 8952   4.844   6.268   1.651
 2685SOL     OW 8953   6.007   6.052   5.988
 2685SOL    HW1 8954   6.024   6.030   6.084
 2685SOL    HW2 8955   5.969   6.145   5.982
 2686SOL     OW 8956   2.204   1.310   5.960
 2686SOL    HW1 8957   2.110   1.303   5.927
 2686SOL    HW2 8958   2.262   1.350   5.888
 2687SOL     OW 8959   5.206   5.468   1.297
 2687SOL    HW1 8960   5.268   5.399   1.260
 2687SOL    HW2 8961   5.244   5.507   1.381
 2688SOL     OW 8962   3.084   3.722   0.462
 2688SOL    HW1 8963   3.066   3.666   0.381
 2688SOL    HW2 8964   3.130   3.806   0.435
 2689SOL     OW 8965   1.110   4.058   2.722
 2689SOL    HW1 8966   1.119   4.065   2.622
 2689SOL    HW2 8967   1.023   4.014   2.744
 2690SOL     OW 8968   3.574   3.248   5.071
 2690SOL    HW1 8969   3.528   3.317   5.128
 2690SOL    HW2 8970   3.608   3.174   5.130
 2691SOL     OW 8971   1.126   5.162   3.672
 2691SOL    HW1 8972   1.188   5.097   3.716
 2691SOL    HW2 8973   1.114   5.242   3.731
 2692SOL     OW 8974   2.597   5.844   3.099
 2692SOL    HW1 8975   2.677   5.863   3.157
 2692SOL    HW2 8976   2.611   5.886   3.009
 2693SOL     OW 8977   2.160   4.967   3.471
 2693SOL    HW1 8978   2.061   4.952   3.469
 2693SOL    HW2 8979   2.196   4.962   3.377
 2694SOL     OW 8980   4.054   6.377   2.978
 2694SOL    HW1 8981   4.097   6.411   3.062
 2694SOL    HW2 8982   4.112   6.401   2.900
 2695SOL     OW 8983   6.051   1.410   2.330
 2695SOL    HW1 8984   5.978   1.398   2.398
 2695SOL    HW2 8985   6.014   1.458   2.251
 2696SOL     OW 8986   3.626   3.068   5.685
 2696SOL    HW1 8987   3.528   3.064   5.663
 2696SOL    HW2 8988   3.662   3.158   5.660
 2697SOL     OW 8989   3.312   1.156   3.573
 2697SOL    HW1 8990   3.355   1.244   3.591
 2697SOL    HW2 8991   3.380   1.083   3.577
 2698SOL     OW 8992   2.293   4.627   0.827
 2698SOL    HW1 8993   2.256   4.695   0.764
 2698SOL    HW2 8994   2.223   4.560   0.849
 2699SOL     OW 8995   2.510   5.572   0.766
 2699SOL    HW1 8996   2.573   5.631   0.716
 2699SOL    HW2 8997   2.478   5.619   0.849
 2700SOL     OW 8998   2.939   3.221   6.877
 2700SOL    HW1 8999   2.987   3.283   6.940
 2700SOL    HW2 9000   3.006   3.179   6.815
 2701SOL     OW 9001   5.156   1.735   5.658
 2701SOL    HW1 9002   5.201   1.819   5.628
 2701SOL    HW2 9003   5.224   1.663   5.668
 2702SOL     OW 9004   0.210   3.028   3.102
 2702SOL    HW1 9005   0.134   3.006   3.164
 2702SOL    HW2 9006   0.260   3.107   3.137
 2703SOL     OW 9007   1.106   0.158   0.943
 2703SOL    HW1 9008   1.034   0.194   1.001
 2703SOL    HW2 9009   1.086   0.179   0.847
 2704SOL     OW 9010   6.606   5.726   2.179
 2704SOL    HW1 9011   6.623   5.806   2.236
 2704SOL    HW2 9012   6.535   5.748   2.111
 2705SOL     OW 9013   6.847   6.516   4.464
 2705SOL    HW1 9014   6.851   6.472   4.554
 2705SOL    HW2 9015   6.892   6.458   4.396
 2706SOL     OW 9016   6.513   5.029   2.746
 2706SOL    HW1 9017   6.602   5.019   2.700
 2706SOL    HW2 9018   6.498   5.124   2.770
 2707SOL     OW 9019   4.096   0.644   4.493
 2707SOL    HW1 9020   4.153   0.580   4.544
 2707SOL    HW2 9021   4.086   0.612   4.399
 2708SOL     OW 9022   0.152   2.695   0.961
 2708SOL    HW1 9023   0.200   2.728   0.879
 2708SOL    HW2 9024   0.114   2.773   1.010
 2709SOL     OW 9025   4.988   0.197   0.079
 2709SOL    HW1 9026   4.910   0.227   0.135
 2709SOL    HW2 9027   4.982   0.098   0.064
 2710SOL     OW 9028   1.130   3.324   4.335
 2710SOL    HW1 9029   1.224   3.341   4.306
 2710SOL    HW2 9030   1.127   3.317   4.435
 2711SOL     OW 9031   2.225   0.464   3.674
 2711SOL    HW1 9032   2.300   0.406   3.706
 2711SOL    HW2 9033   2.244   0.559   3.698
 2712SOL     OW 9034   2.724   4.221   1.470
 2712SOL    HW1 9035   2.690   4.303   1.423
 2712SOL    HW2 9036   2.790   4.247   1.540
 2713SOL     OW 9037   2.229   2.588   5.278
 2713SOL    HW1 9038   2.160   2.589   5.206
 2713SOL    HW2 9039   2.203   2.652   5.350
 2714SOL     OW 9040   3.898   2.791   0.180
 2714SOL    HW1 9041   3.940   2.761   0.266
 2714SOL    HW2 9042   3.811   2.744   0.167
 2715SOL     OW 9043   4.955   2.286   1.125
 2715SOL    HW1 9044   4.866   2.301   1.082
 2715SOL    HW2 9045   5.023   2.347   1.085
 2716SOL     OW 9046   5.405   3.051   3.176
 2716SOL    HW1 9047   5.488   3.073   3.229
 2716SOL    HW2 9048   5.326   3.047   3.237
 2717SOL     OW 9049   0.100   0.210   2.824
 2717SOL    HW1 9050   0.161   0.241   2.751
 2717SOL    HW2 9051   0.035   0.143   2.786
 2718SOL     OW 9052   1.589   1.336   4.850
 2718SOL    HW1 9053   1.604   1.424   4.896
 2718SOL    HW2 9054   1.561   1.268   4.918
 2719SOL     OW 9055   0.419   5.075   1.827
 2719SOL    HW1 9056   0.337   5.019   1.814
 2719SOL    HW2 9057   0.401   5.168   1.796
 2720SOL     OW 9058   1.964   6.088   1.849
 2720SOL    HW1 9059   1.870   6.065   1.874
 2720SOL    HW2 9060   2.007   6.010   1.804
 2721SOL     OW 9061   3.350   6.448   3.577
 2721SOL    HW1 9062   3.309   6.455   3.668
 2721SOL    HW2 9063   3.330   6.530   3.525
 2722SOL     OW 9064   6.498   4.957   0.518
 2722SOL    HW1 9065   6.432   4.889   0.488
 2722SOL    HW2 9066   6.587   4.938   0.478
 2723SOL     OW 9067   0.846   5.815   6.467
 2723SOL    HW1 9068   0.871   5.911   6.455
 2723SOL    HW2 9069   0.913   5.757   6.422
 2724SOL     OW 9070   1.859   5.931   6.976
 2724SOL    HW1 9071   1.771   5.913   6.931
 2724SOL    HW2 9072   1.849   5.921   0.054
 2725SOL     OW 9073   5.149   4.860   5.043
 2725SOL    HW1 9074   5.145   4.767   5.005
 2725SOL    HW2 9075   5.182   4.922   4.972
 2726SOL     OW 9076   0.027   1.817   1.177
 2726SOL    HW1 9077   6.968   1.799   1.119
 2726SOL    HW2 9078   0.080   1.893   1.138
 2727SOL     OW 9079   1.208   4.718   3.644
 2727SOL    HW1 9080   1.260   4.743   3.563
 2727SOL    HW2 9081   1.110   4.734   3.629
 2728SOL     OW 9082   4.789   6.637   5.497
 2728SOL    HW1 9083   4.708   6.579   5.507
 2728SOL    HW2 9084   4.870   6.578   5.485
 2729SOL     OW 9085   0.002   6.084   0.614
 2729SOL    HW1 9086   6.973   6.119   0.535
 2729SOL    HW2 9087   0.086   6.039   0.584
 2730SOL     OW 9088   2.102   5.327   1.575
 2730SOL    HW1 9089   2.064   5.413   1.608
 2730SOL    HW2 9090   2.172   5.346   1.506
 2731SOL     OW 9091   3.258   3.426   3.144
 2731SOL    HW1 9092   3.243   3.525   3.157
 2731SOL    HW2 9093   3.328   3.412   3.075
 2732SOL     OW 9094   5.172   2.825   1.917
 2732SOL    HW1 9095   5.104   2.897   1.905
 2732SOL    HW2 9096   5.145   2.765   1.992
 2733SOL     OW 9097   6.410   2.228   4.645
 2733SOL    HW1 9098   6.374   2.161   4.710
 2733SOL    HW2 9099   6.385   2.320   4.675
 2734SOL     OW 9100   3.509   5.548   0.760
 2734SOL    HW1 9101   3.559   5.614   0.703
 2734SOL    HW2 9102   3.415   5.539   0.726
 2735SOL     OW 9103   1.812   3.382   1.569
 2735SOL    HW1 9104   1.724   3.359   1.611
 2735SOL    HW2 9105   1.871   3.301   1.567
 2736SOL     OW 9106   5.541   6.030   5.035
 2736SOL    HW1 9107   5.476   6.004   5.107
 2736SOL    HW2 9108   5.597   6.106   5.067
 2737SOL     OW 9109   2.586   4.073   5.512
 2737SOL    HW1 9110   2.611   4.004   5.579
 2737SOL    HW2 9111   2.665   4.091   5.452
 2738SOL     OW 9112   4.633   6.068   1.922
 2738SOL    HW1 9113   4.697   6.109   1.858
 2738SOL    HW2 9114   4.641   5.968   1.919
 2739SOL     OW 9115   1.424   4.495   1.340
 2739SOL    HW1 9116   1.401   4.482   1.243
 2739SOL    HW2 9117   1.507   4.551   1.347
 2740SOL     OW 9118   6.720   4.301   2.116
 2740SOL    HW1 9119   6.777   4.221   2.101
 2740SOL    HW2 9120   6.634   4.274   2.160
 2741SOL     OW 9121   6.815   0.629   4.834
 2741SOL    HW1 9122   6.785   0.568   4.761
 2741SOL    HW2 9123   6.879   0.696   4.797
 2742SOL     OW 9124   2.374   5.388   0.149
 2742SOL    HW1 9125   2.447   5.403   0.084
 2742SOL    HW2 9126   2.304   5.329   0.109
 2743SOL     OW 9127   6.303   4.644   2.364
 2743SOL    HW1 9128   6.390   4.672   2.404
 2743SOL    HW2 9129   6.299   4.674   2.269
 2744SOL     OW 9130   4.436   2.221   0.752
 2744SOL    HW1 9131   4.365   2.285   0.783
 2744SOL    HW2 9132   4.495   2.198   0.830
 2745SOL     OW 9133   6.964   0.650   5.111
 2745SOL    HW1 9134   7.016   0.598   5.178
 2745SOL    HW2 9135   6.951   0.595   5.029
 2746SOL     OW 9136   1.592   2.237   4.682
 2746SOL    HW1 9137   1.567   2.299   4.757
 2746SOL    HW2 9138   1.527   2.161   4.677
 2747SOL     OW 9139   4.873   4.430   6.580
 2747SOL    HW1 9140   4.789   4.389   6.618
 2747SOL    HW2 9141   4.878   4.411   6.482
 2748SOL     OW 9142   4.777   1.489   2.061
 2748SOL    HW1 9143   4.690   1.536   2.075
 2748SOL    HW2 9144   4.846   1.555   2.033
 2749SOL     OW 9145   0.261   4.430   1.257
 2749SOL    HW1 9146   0.281   4.480   1.341
 2749SOL    HW2 9147   0.164   4.408   1.253
 2750SOL     OW 9148   1.192   3.860   1.339
 2750SOL    HW1 9149   1.121   3.790   1.340
 2750SOL    HW2 9150   1.198   3.901   1.248
 2751SOL     OW 9151   1.129   3.494   1.871
 2751SOL    HW1 9152   1.208   3.550   1.896
 2751SOL    HW2 9153   1.059   3.503   1.942
 2752SOL     OW 9154   3.879   5.074   5.296
 2752SOL    HW1 9155   3.944   5.088   5.370
 2752SOL    HW2 9156   3.792   5.117   5.320
 2753SOL     OW 9157   0.375   6.321   5.071
 2753SOL    HW1 9158   0.415   6.412   5.081
 2753SOL    HW2 9159   0.377   6.294   4.975
 2754SOL     OW 9160   0.850   0.741   1.570
 2754SOL    HW1 9161   0.935   0.792   1.555
 2754SOL    HW2 9162   0.778   0.804   1.600
 2755SOL     OW 9163   2.153   0.105   2.514
 2755SOL    HW1 9164   2.131   0.106   2.612
 2755SOL    HW2 9165   2.088   0.046   2.467
 2756SOL     OW 9166   5.944   5.256   7.005
 2756SOL    HW1 9167   5.864   5.207   6.970
 2756SOL    HW2 9168   5.942   5.256   0.084
 2757SOL     OW 9169   2.376   0.306   6.705
 2757SOL    HW1 9170   2.438   0.271   6.775
 2757SOL    HW2 9171   2.386   0.405   6.698
 2758SOL     OW 9172   3.807   6.599   4.136
 2758SOL    HW1 9173   3.846   6.507   4.135
 2758SOL    HW2 9174   3.753   6.611   4.219
 2759SOL     OW 9175   5.462   0.258   5.701
 2759SOL    HW1 9176   5.496   0.248   5.608
 2759SOL    HW2 9177   5.442   0.354   5.719
 2760SOL     OW 9178   0.482   5.943   2.050
 2760SOL    HW1 9179   0.410   5.885   2.012
 2760SOL    HW2 9180   0.568   5.893   2.054
 2761SOL     OW 9181   1.885   5.643   4.740
 2761SOL    HW1 9182   1.826   5.723   4.741
 2761SOL    HW2 9183   1.843   5.570   4.795
 2762SOL     OW 9184   1.249   1.274   5.005
 2762SOL    HW1 9185   1.344   1.260   5.033
 2762SOL    HW2 9186   1.227   1.371   5.010
 2763SOL     OW 9187   4.879   1.660   3.228
 2763SOL    HW1 9188   4.903   1.621   3.139
 2763SOL    HW2 9189   4.808   1.603   3.270
 2764SOL     OW 9190   5.813   1.111   0.947
 2764SOL    HW1 9191   5.822   1.074   0.855
 2764SOL    HW2 9192   5.765   1.199   0.944
 2765SOL     OW 9193   5.907   0.152   1.085
 2765SOL    HW1 9194   5.844   0.209   1.137
 2765SOL    HW2 9195   5.879   0.151   0.989
 2766SOL     OW 9196   5.331   2.378   0.779
 2766SOL    HW1 9197   5.304   2.285   0.755
 2766SOL    HW2 9198   5.417   2.375   0.830
 2767SOL     OW 9199   6.802   5.623   0.094
 2767SOL    HW1 9200   6.832   5.529   0.108
 2767SOL    HW2 9201   6.708   5.634   0.127
 2768SOL     OW 9202   4.574   0.868   1.132
 2768SOL    HW1 9203   4.495   0.925   1.111
 2768SOL    HW2 9204   4.549   0.799   1.199
 2769SOL     OW 9205   2.115   4.361   4.460
 2769SOL    HW1 9206   2.161   4.425   4.398
 2769SOL    HW2 9207   2.172   4.346   4.541
 2770SOL     OW 9208   4.828   5.983   5.806
 2770SOL    HW1 9209   4.828   6.020   5.899
 2770SOL    HW2 9210   4.905   5.920   5.794
 2771SOL     OW 9211   6.894   0.813   4.159
 2771SOL    HW1 9212   6.858   0.841   4.071
 2771SOL    HW2 9213   6.951   0.731   4.148
 2772SOL     OW 9214   4.254   1.234   0.854
 2772SOL    HW1 9215   4.312   1.162   0.816
 2772SOL    HW2 9216   4.223   1.294   0.780
 2773SOL     OW 9217   6.008   1.950   5.142
 2773SOL    HW1 9218   6.047   1.925   5.231
 2773SOL    HW2 9219   5.939   1.882   5.116
 2774SOL     OW 9220   5.440   3.297   2.867
 2774SOL    HW1 9221   5.352   3.298   2.915
 2774SOL    HW2 9222   5.480   3.389   2.870
 2775SOL     OW 9223   6.724   5.667   6.120
 2775SOL    HW1 9224   6.726   5.604   6.043
 2775SOL    HW2 9225   6.768   5.753   6.094
 2776SOL     OW 9226   4.065   5.115   5.513
 2776SOL    HW1 9227   4.082   5.206   5.474
 2776SOL    HW2 9228   4.150   5.078   5.550
 2777SOL     OW 9229   2.755   1.184   2.191
 2777SOL    HW1 9230   2.682   1.121   2.164
 2777SOL    HW2 9231   2.779   1.242   2.114
 2778SOL     OW 9232   1.686   6.915   5.342
 2778SOL    HW1 9233   1.717   6.998   5.388
 2778SOL    HW2 9234   1.593   6.928   5.308
 2779SOL     OW 9235   4.607   6.504   1.395
 2779SOL    HW1 9236   4.528   6.560   1.421
 2779SOL    HW2 9237   4.688   6.562   1.391
 2780SOL     OW 9238   6.350   6.650   6.722
 2780SOL    HW1 9239   6.346   6.598   6.807
 2780SOL    HW2 9240   6.416   6.724   6.732
 2781SOL     OW 9241   5.444   6.473   2.209
 2781SOL    HW1 9242   5.446   6.423   2.123
 2781SOL    HW2 9243   5.481   6.565   2.196
 2782SOL     OW 9244   4.624   2.290   6.459
 2782SOL    HW1 9245   4.575   2.250   6.537
 2782SOL    HW2 9246   4.658   2.380   6.485
 2783SOL     OW 9247   5.392   4.044   3.893
 2783SOL    HW1 9248   5.427   4.058   3.801
 2783SOL    HW2 9249   5.440   4.103   3.957
 2784SOL     OW 9250   3.272   1.284   2.165
 2784SOL    HW1 9251   3.350   1.222   2.170
 2784SOL    HW2 9252   3.304   1.379   2.164
 2785SOL     OW 9253   5.007   1.521   0.533
 2785SOL    HW1 9254   5.020   1.439   0.590
 2785SOL    HW2 9255   4.912   1.552   0.540
 2786SOL     OW 9256   4.947   0.113   2.107
 2786SOL    HW1 9257   5.021   0.048   2.124
 2786SOL    HW2 9258   4.953   0.188   2.172
 2787SOL     OW 9259   4.954   1.412   6.158
 2787SOL    HW1 9260   4.956   1.312   6.151
 2787SOL    HW2 9261   5.016   1.451   6.090
 2788SOL     OW 9262   2.224   5.449   6.111
 2788SOL    HW1 9263   2.174   5.524   6.066
 2788SOL    HW2 9264   2.221   5.463   6.210
 2789SOL     OW 9265   1.762   2.129   3.843
 2789SOL    HW1 9266   1.774   2.120   3.942
 2789SOL    HW2 9267   1.737   2.223   3.821
 2790SOL     OW 9268   3.417   5.551   2.368
 2790SOL    HW1 9269   3.363   5.589   2.293
 2790SOL    HW2 9270   3.419   5.452   2.360
 2791SOL     OW 9271   0.390   3.040   3.774
 2791SOL    HW1 9272   0.489   3.039   3.762
 2791SOL    HW2 9273   0.360   2.951   3.808
 2792SOL     OW 9274   2.027   6.671   3.891
 2792SOL    HW1 9275   2.064   6.736   3.826
 2792SOL    HW2 9276   1.927   6.681   3.895
 2793SOL     OW 9277   5.555   3.917   2.641
 2793SOL    HW1 9278   5.523   3.882   2.729
 2793SOL    HW2 9279   5.552   3.844   2.573
 2794SOL     OW 9280   0.257   2.548   6.554
 2794SOL    HW1 9281   0.338   2.605   6.557
 2794SOL    HW2 9282   0.190   2.581   6.621
 2795SOL     OW 9283   1.237   3.329   0.695
 2795SOL    HW1 9284   1.332   3.346   0.672
 2795SOL    HW2 9285   1.178   3.364   0.623
 2796SOL     OW 9286   6.840   6.402   3.231
 2796SOL    HW1 9287   6.804   6.493   3.215
 2796SOL    HW2 9288   6.916   6.385   3.168
 2797SOL     OW 9289   5.159   5.393   4.351
 2797SOL    HW1 9290   5.136   5.381   4.254
 2797SOL    HW2 9291   5.165   5.303   4.395
 2798SOL     OW 9292   0.100   5.278   2.075
 2798SOL    HW1 9293   0.116   5.184   2.043
 2798SOL    HW2 9294   0.187   5.327   2.079
 2799SOL     OW 9295   5.870   5.479   6.584
 2799SOL    HW1 9296   5.777   5.442   6.592
 2799SOL    HW2 9297   5.912   5.484   6.674
 2800SOL     OW 9298   4.837   6.500   0.374
 2800SOL    HW1 9299   4.912   6.554   0.413
 2800SOL    HW2 9300   4.867   6.457   0.289
 2801SOL     OW 9301   6.557   5.625   6.353
 2801SOL    HW1 9302   6.559   5.526   6.359
 2801SOL    HW2 9303   6.630   5.657   6.292
 2802SOL     OW 9304   5.217   1.345   5.141
 2802SOL    HW1 9305   5.133   1.378   5.185
 2802SOL    HW2 9306   5.227   1.247   5.156
 2803SOL     OW 9307   3.871   5.304   6.678
 2803SOL    HW1 9308   3.838   5.232   6.738
 2803SOL    HW2 9309   3.914   5.264   6.598
 2804SOL     OW 9310   0.234   5.273   5.294
 2804SOL    HW1 9311   0.157   5.221   5.330
 2804SOL    HW2 9312   0.214   5.301   5.200
 2805SOL     OW 9313   5.865   3.288   1.668
 2805SOL    HW1 9314   5.786   3.296   1.729
 2805SOL    HW2 9315   5.868   3.367   1.607
 2806SOL     OW 9316   6.754   4.725   5.930
 2806SOL    HW1 9317   6.714   4.800   5.878
 2806SOL    HW2 9318   6.712   4.720   6.020
 2807SOL     OW 9319   4.442   6.121   4.507
 2807SOL    HW1 9320   4.453   6.116   4.606
 2807SOL    HW2 9321   4.460   6.031   4.467
 2808SOL     OW 9322   5.938   4.655   2.003
 2808SOL    HW1 9323   5.845   4.620   1.994
 2808SOL    HW2 9324   5.935   4.755   2.011
 2809SOL     OW 9325   5.796   2.975   0.870
 2809SOL    HW1 9326   5.810   3.046   0.939
 2809SOL    HW2 9327   5.730   3.007   0.803
 2810SOL     OW 9328   3.496   4.977   3.702
 2810SOL    HW1 9329   3.584   4.962   3.658
 2810SOL    HW2 9330   3.502   4.951   3.799
 2811SOL     OW 9331   1.039   2.064   3.072
 2811SOL    HW1 9332   1.029   1.990   3.006
 2811SOL    HW2 9333   0.955   2.074   3.125
 2812SOL     OW 9334   5.120   3.773   6.813
 2812SOL    HW1 9335   5.182   3.726   6.750
 2812SOL    HW2 9336   5.044   3.713   6.838
 2813SOL     OW 9337   6.992   0.080   6.467
 2813SOL    HW1 9338   0.064   0.053   6.442
 2813SOL    HW2 9339   6.992   0.124   6.556
 2814SOL     OW 9340   3.973   3.692   5.393
 2814SOL    HW1 9341   3.964   3.596   5.367
 2814SOL    HW2 9342   3.932   3.750   5.322
 2815SOL     OW 9343   6.008   0.429   5.676
 2815SOL    HW1 9344   6.064   0.478   5.744
 2815SOL    HW2 9345   5.966   0.350   5.719
 2816SOL     OW 9346   6.593   5.584   3.452
 2816SOL    HW1 9347   6.557   5.639   3.527
 2816SOL    HW2 9348   6.518   5.555   3.392
 2817SOL     OW 9349   2.870   6.783   1.536
 2817SOL    HW1 9350   2.848   6.872   1.495
 2817SOL    HW2 9351   2.786   6.731   1.551
 2818SOL     OW 9352   0.705   0.463   0.952
 2818SOL    HW1 9353   0.742   0.405   1.025
 2818SOL    HW2 9354   0.609   0.438   0.936
 2819SOL     OW 9355   0.856   1.039   1.259
 2819SOL    HW1 9356   0.776   0.993   1.297
 2819SOL    HW2 9357   0.829   1.131   1.229
 2820SOL     OW 9358   0.752   2.676   2.901
 2820SOL    HW1 9359   0.718   2.708   2.990
 2820SOL    HW2 9360   0.784   2.755   2.848
 2821SOL     OW 9361   4.098   3.356   6.845
 2821SOL    HW1 9362   4.101   3.285   6.915
 2821SOL    HW2 9363   4.004   3.386   6.832
 2822SOL     OW 9364   3.923   1.763   0.227
 2822SOL    HW1 9365   3.828   1.768   0.256
 2822SOL    HW2 9366   3.979   1.820   0.287
 2823SOL     OW 9367   4.747   0.368   0.182
 2823SOL    HW1 9368   4.733   0.308   0.103
 2823SOL    HW2 9369   4.674   0.437   0.185
 2824SOL     OW 9370   2.087   1.243   3.515
 2824SOL    HW1 9371   2.047   1.166   3.564
 2824SOL    HW2 9372   2.152   1.291   3.574
 2825SOL     OW 9373   5.686   0.249   6.775
 2825SOL    HW1 9374   5.607   0.311   6.781
 2825SOL    HW2 9375   5.770   0.303   6.773
 2826SOL     OW 9376   4.887   1.140   6.455
 2826SOL    HW1 9377   4.810   1.150   6.518
 2826SOL    HW2 9378   4.949   1.070   6.489
 2827SOL     OW 9379   0.266   0.851   5.505
 2827SOL    HW1 9380   0.297   0.809   5.590
 2827SOL    HW2 9381   0.323   0.819   5.429
 2828SOL     OW 9382   2.186   1.159   0.396
 2828SOL    HW1 9383   2.215   1.127   0.486
 2828SOL    HW2 9384   2.216   1.094   0.326
 2829SOL     OW 9385   3.224   3.813   5.042
 2829SOL    HW1 9386   3.187   3.727   5.007
 2829SOL    HW2 9387   3.237   3.877   4.967
 2830SOL     OW 9388   1.605   2.837   5.911
 2830SOL    HW1 9389   1.574   2.765   5.973
 2830SOL    HW2 9390   1.705   2.838   5.908
 2831SOL     OW 9391   0.892   4.860   3.739
 2831SOL    HW1 9392   0.907   4.781   3.799
 2831SOL    HW2 9393   0.920   4.836   3.646
 2832SOL     OW 9394   0.860   2.984   2.224
 2832SOL    HW1 9395   0.826   3.076   2.243
 2832SOL    HW2 9396   0.875   2.935   2.310
 2833SOL     OW 9397   3.252   1.840   2.422
 2833SOL    HW1 9398   3.314   1.906   2.379
 2833SOL    HW2 9399   3.157   1.863   2.398
 2834SOL     OW 9400   4.042   5.353   5.898
 2834SOL    HW1 9401   4.124   5.398   5.934
 2834SOL    HW2 9402   4.068   5.281   5.834
 2835SOL     OW 9403   0.566   6.833   2.348
 2835SOL    HW1 9404   0.567   6.914   2.291
 2835SOL    HW2 9405   0.604   6.755   2.297
 2836SOL     OW 9406   6.716   0.113   2.301
 2836SOL    HW1 9407   6.757   0.193   2.345
 2836SOL    HW2 9408   6.723   0.034   2.363
 2837SOL     OW 9409   5.509   4.851   2.600
 2837SOL    HW1 9410   5.415   4.887   2.595
 2837SOL    HW2 9411   5.562   4.907   2.663
 2838SOL     OW 9412   2.839   3.727   1.053
 2838SOL    HW1 9413   2.856   3.679   1.139
 2838SOL    HW2 9414   2.778   3.673   0.995
 2839SOL     OW 9415   6.712   2.426   2.435
 2839SOL    HW1 9416   6.799   2.377   2.431
 2839SOL    HW2 9417   6.728   2.519   2.467
 2840SOL     OW 9418   1.295   0.239   3.059
 2840SOL    HW1 9419   1.280   0.141   3.045
 2840SOL    HW2 9420   1.212   0.280   3.097
 2841SOL     OW 9421   0.599   0.709   6.405
 2841SOL    HW1 9422   0.614   0.792   6.351
 2841SOL    HW2 9423   0.508   0.712   6.446
 2842SOL     OW 9424   0.637   4.278   4.091
 2842SOL    HW1 9425   0.594   4.339   4.025
 2842SOL    HW2 9426   0.632   4.318   4.182
 2843SOL     OW 9427   2.316   2.339   2.900
 2843SOL    HW1 9428   2.313   2.255   2.955
 2843SOL    HW2 9429   2.241   2.399   2.926
 2844SOL     OW 9430   6.909   5.056   0.612
 2844SOL    HW1 9431   6.903   5.118   0.690
 2844SOL    HW2 9432   6.835   5.075   0.548
 2845SOL     OW 9433   6.256   2.954   0.835
 2845SOL    HW1 9434   6.177   2.892   0.831
 2845SOL    HW2 9435   6.303   2.943   0.923
 2846SOL     OW 9436   3.769   1.143   0.317
 2846SOL    HW1 9437   3.708   1.223   0.319
 2846SOL    HW2 9438   3.852   1.166   0.266
 2847SOL     OW 9439   4.982   3.347   3.613
 2847SOL    HW1 9440   4.920   3.332   3.536
 2847SOL    HW2 9441   5.071   3.378   3.578
 2848SOL     OW 9442   1.906   2.469   5.342
 2848SOL    HW1 9443   1.904   2.369   5.334
 2848SOL    HW2 9444   1.940   2.494   5.432
 2849SOL     OW 9445   4.549   6.570   0.812
 2849SOL    HW1 9446   4.622   6.595   0.748
 2849SOL    HW2 9447   4.496   6.494   0.775
 2850SOL     OW 9448   1.593   0.114   2.314
 2850SOL    HW1 9449   1.622   0.170   2.236
 2850SOL    HW2 9450   1.575   0.172   2.393
 2851SOL     OW 9451   6.340   1.508   6.315
 2851SOL    HW1 9452   6.306   1.556   6.234
 2851SOL    HW2 9453   6.286   1.534   6.395
 2852SOL     OW 9454   5.892   4.251   6.998
 2852SOL    HW1 9455   5.826   4.183   6.966
 2852SOL    HW2 9456   5.984   4.212   6.991
 2853SOL     OW 9457   1.388   1.391   6.478
 2853SOL    HW1 9458   1.360   1.420   6.387
 2853SOL    HW2 9459   1.479   1.427   6.498
 2854SOL     OW 9460   4.159   1.329   4.717
 2854SOL    HW1 9461   4.154   1.407   4.780
 2854SOL    HW2 9462   4.206   1.253   4.761
 2855SOL     OW 9463   2.271   1.351   6.366
 2855SOL    HW1 9464   2.267   1.429   6.428
 2855SOL    HW2 9465   2.217   1.276   6.404
 2856SOL     OW 9466   0.842   2.696   5.329
 2856SOL    HW1 9467   0.753   2.711   5.372
 2856SOL    HW2 9468   0.843   2.739   5.238
 2857SOL     OW 9469   2.370   2.152   2.450
 2857SOL    HW1 9470   2.463   2.184   2.468
 2857SOL    HW2 9471   2.328   2.121   2.536
 2858SOL     OW 9472   4.744   4.303   2.164
 2858SOL    HW1 9473   4.657   4.300   2.116
 2858SOL    HW2 9474   4.783   4.395   2.157
 2859SOL     OW 9475   5.827   0.915   6.773
 2859SOL    HW1 9476   5.749   0.972   6.802
 2859SOL    HW2 9477   5.891   0.970   6.720
 2860SOL     OW 9478   3.059   1.186   1.750
 2860SOL    HW1 9479   3.068   1.087   1.766
 2860SOL    HW2 9480   3.150   1.226   1.739
 2861SOL     OW 9481   3.945   3.989   5.852
 2861SOL    HW1 9482   3.970   3.919   5.919
 2861SOL    HW2 9483   3.886   4.057   5.896
 2862SOL     OW 9484   6.010   1.813   2.687
 2862SOL    HW1 9485   6.078   1.754   2.730
 2862SOL    HW2 9486   6.054   1.865   2.614
 2863SOL     OW 9487   4.815   1.598   6.592
 2863SOL    HW1 9488   4.884   1.540   6.635
 2863SOL    HW2 9489   4.814   1.581   6.493
 2864SOL     OW 9490   4.495   1.514   2.022
 2864SOL    HW1 9491   4.492   1.579   1.946
 2864SOL    HW2 9492   4.442   1.432   1.998
 2865SOL     OW 9493   4.050   4.472   6.436
 2865SOL    HW1 9494   3.981   4.471   6.363
 2865SOL    HW2 9495   4.141   4.462   6.395
 2866SOL     OW 9496   6.565   5.530   0.191
 2866SOL    HW1 9497   6.597   5.440   0.220
 2866SOL    HW2 9498   6.485   5.520   0.133
 2867SOL     OW 9499   6.943   5.716   2.906
 2867SOL    HW1 9500   7.011   5.681   2.842
 2867SOL    HW2 9501   6.953   5.668   2.994
 2868SOL     OW 9502   0.756   1.775   5.332
 2868SOL    HW1 9503   0.671   1.782   5.384
 2868SOL    HW2 9504   0.797   1.685   5.346
 2869SOL     OW 9505   6.771   1.300   3.876
 2869SOL    HW1 9506   6.774   1.281   3.778
 2869SOL    HW2 9507   6.809   1.391   3.894
 2870SOL     OW 9508   0.455   1.711   4.704
 2870SOL    HW1 9509   0.478   1.741   4.797
 2870SOL    HW2 9510   0.526   1.649   4.671
 2871SOL     OW 9511   0.342   2.133   6.507
 2871SOL    HW1 9512   0.397   2.149   6.590
 2871SOL    HW2 9513   0.259   2.082   6.531
 2872SOL     OW 9514   2.647   2.097   2.650
 2872SOL    HW1 9515   2.681   2.049   2.569
 2872SOL    HW2 9516   2.576   2.042   2.694
 2873SOL     OW 9517   0.044   5.438   3.046
 2873SOL    HW1 9518   0.042   5.525   3.095
 2873SOL    HW2 9519   6.977   5.391   3.059
 2874SOL     OW 9520   4.192   6.429   3.202
 2874SOL    HW1 9521   4.154   6.422   3.294
 2874SOL    HW2 9522   4.248   6.512   3.195
 2875SOL     OW 9523   4.459   6.979   0.618
 2875SOL    HW1 9524   4.547   6.945   0.585
 2875SOL    HW2 9525   4.472   0.045   0.666
 2876SOL     OW 9526   1.620   0.769   1.991
 2876SOL    HW1 9527   1.643   0.672   1.993
 2876SOL    HW2 9528   1.524   0.780   1.965
 2877SOL     OW 9529   3.236   2.466   5.387
 2877SOL    HW1 9530   3.227   2.396   5.316
 2877SOL    HW2 9531   3.145   2.485   5.425
 2878SOL     OW 9532   3.506   5.063   5.150
 2878SOL    HW1 9533   3.518   4.964   5.144
 2878SOL    HW2 9534   3.545   5.096   5.236
 2879SOL     OW 9535   5.658   5.114   0.216
 2879SOL    HW1 9536   5.619   5.093   0.305
 2879SOL    HW2 9537   5.596   5.085   0.144
 2880SOL     OW 9538   0.046   0.768   1.911
 2880SOL    HW1 9539   0.056   0.670   1.892
 2880SOL    HW2 9540   7.018   0.780   1.998
 2881SOL     OW 9541   5.522   5.993   6.849
 2881SOL    HW1 9542   5.442   6.012   6.792
 2881SOL    HW2 9543   5.508   6.030   6.941
 2882SOL     OW 9544   0.744   5.051   2.219
 2882SOL    HW1 9545   0.788   4.961   2.211
 2882SOL    HW2 9546   0.651   5.040   2.254
 2883SOL     OW 9547   5.422   0.171   3.247
 2883SOL    HW1 9548   5.447   0.086   3.201
 2883SOL    HW2 9549   5.466   0.174   3.337
 2884SOL     OW 9550   1.143   0.022   2.463
 2884SOL    HW1 9551   1.053   6.998   2.466
 2884SOL    HW2 9552   1.194   7.011   2.384
 2885SOL     OW 9553   0.969   3.474   3.598
 2885SOL    HW1 9554   0.914   3.484   3.681
 2885SOL    HW2 9555   0.937   3.538   3.529
 2886SOL     OW 9556   1.734   4.434   6.126
 2886SOL    HW1 9557   1.647   4.399   6.161
 2886SOL    HW2 9558   1.796   4.454   6.202
 2887SOL     OW 9559   0.352   0.576   5.154
 2887SOL    HW1 9560   0.388   0.483   5.146
 2887SOL    HW2 9561   0.306   0.601   5.069
 2888SOL     OW 9562   0.597   4.120   0.096
 2888SOL    HW1 9563   0.559   4.158   0.181
 2888SOL    HW2 9564   0.530   4.130   0.022
 2889SOL     OW 9565   2.024   6.207   2.541
 2889SOL    HW1 9566   2.069   6.127   2.499
 2889SOL    HW2 9567   2.086   6.285   2.537
 2890SOL     OW 9568   2.390   5.947   0.725
 2890SOL    HW1 9569   2.315   5.944   0.791
 2890SOL    HW2 9570   2.404   5.856   0.687
 2891SOL     OW 9571   1.239   4.457   3.777
 2891SOL    HW1 9572   1.246   4.540   3.721
 2891SOL    HW2 9573   1.143   4.435   3.792
 2892SOL     OW 9574   5.667   3.099   6.932
 2892SOL    HW1 9575   5.756   3.089   6.977
 2892SOL    HW2 9576   5.594   3.092   7.000
 2893SOL     OW 9577   6.844   6.334   4.680
 2893SOL    HW1 9578   6.787   6.303   4.755
 2893SOL    HW2 9579   6.914   6.266   4.659
 2894SOL     OW 9580   1.155   3.204   2.363
 2894SOL    HW1 9581   1.129   3.253   2.280
 2894SOL    HW2 9582   1.235   3.247   2.404
 2895SOL     OW 9583   5.001   2.710   5.660
 2895SOL    HW1 9584   5.015   2.671   5.570
 2895SOL    HW2 9585   4.930   2.657   5.709
 2896SOL     OW 9586   4.825   5.652   6.416
 2896SOL    HW1 9587   4.790   5.682   6.327
 2896SOL    HW2 9588   4.765   5.581   6.453
 2897SOL     OW 9589   4.213   4.993   3.035
 2897SOL    HW1 9590   4.160   4.909   3.046
 2897SOL    HW2 9591   4.301   4.972   2.992
 2898SOL     OW 9592   4.735   4.817   4.672
 2898SOL    HW1 9593   4.721   4.749   4.600
 2898SOL    HW2 9594   4.671   4.893   4.659
 2899SOL     OW 9595   1.443   1.504   0.196
 2899SOL    HW1 9596   1.383   1.445   0.142
 2899SOL    HW2 9597   1.471   1.583   0.140
 2900SOL     OW 9598   1.876   3.872   5.786
 2900SOL    HW1 9599   1.792   3.926   5.779
 2900SOL    HW2 9600   1.942   3.920   5.844
 2901SOL     OW 9601   3.028   5.271   3.473
 2901SOL    HW1 9602   2.951   5.246   3.531
 2901SOL    HW2 9603   3.113   5.241   3.516
 2902SOL     OW 9604   5.214   6.947   2.985
 2902SOL    HW1 9605   5.271   6.881   3.035
 2902SOL    HW2 9606   5.126   6.958   3.032
 2903SOL     OW 9607   3.099   0.493   0.728
 2903SOL    HW1 9608   3.030   0.421   0.726
 2903SOL    HW2 9609   3.181   0.463   0.680
 2904SOL     OW 9610   2.070   3.760   4.720
 2904SOL    HW1 9611   2.073   3.702   4.802
 2904SOL    HW2 9612   2.075   3.856   4.747
 2905SOL     OW 9613   1.697   2.656   4.839
 2905SOL    HW1 9614   1.601   2.683   4.832
 2905SOL    HW2 9615   1.727   2.616   4.752
 2906SOL     OW 9616   4.037   5.342   1.549
 2906SOL    HW1 9617   3.945   5.350   1.587
 2906SOL    HW2 9618   4.058   5.425   1.497
 2907SOL     OW 9619   0.568   1.150   3.243
 2907SOL    HW1 9620   0.645   1.214   3.244
 2907SOL    HW2 9621   0.593   1.068   3.190
 2908SOL     OW 9622   4.943   6.403   3.621
 2908SOL    HW1 9623   5.024   6.347   3.601
 2908SOL    HW2 9624   4.870   6.379   3.557
 2909SOL     OW 9625   1.359   5.497   3.805
 2909SOL    HW1 9626   1.378   5.475   3.709
 2909SOL    HW2 9627   1.378   5.593   3.821
 2910SOL     OW 9628   4.860   0.180   4.550
 2910SOL    HW1 9629   4.827   0.256   4.495
 2910SOL    HW2 9630   4.927   0.127   4.497
 2911SOL     OW 9631   0.663   5.267   3.506
 2911SOL    HW1 9632   0.756   5.258   3.471
 2911SOL    HW2 9633   0.652   5.208   3.586
 2912SOL     OW 9634   4.544   0.535   0.140
 2912SOL    HW1 9635   4.515   0.446   0.105
 2912SOL    HW2 9636   4.478   0.605   0.113
 2913SOL     OW 9637   2.718   4.648   2.630
 2913SOL    HW1 9638   2.775   4.693   2.561
 2913SOL    HW2 9639   2.731   4.549   2.625
 2914SOL     OW 9640   6.395   6.412   6.893
 2914SOL    HW1 9641   6.486   6.449   6.912
 2914SOL    HW2 9642   6.401   6.314   6.877
 2915SOL     OW 9643   5.248   2.101   3.845
 2915SOL    HW1 9644   5.287   2.073   3.933
 2915SOL    HW2 9645   5.322   2.129   3.784
 2916SOL     OW 9646   1.508   6.513   0.294
 2916SOL    HW1 9647   1.500   6.567   0.378
 2916SOL    HW2 9648   1.429   6.531   0.235
 2917SOL     OW 9649   3.012   6.838   3.428
 2917SOL    HW1 9650   3.055   6.843   3.518
 2917SOL    HW2 9651   2.947   6.762   3.426
 2918SOL     OW 9652   6.394   5.354   4.776
 2918SOL    HW1 9653   6.379   5.300   4.693
 2918SOL    HW2 9654   6.466   5.311   4.831
 2919SOL     OW 9655   6.862   1.027   2.210
 2919SOL    HW1 9656   6.947   1.051   2.164
 2919SOL    HW2 9657   6.848   1.089   2.288
 2920SOL     OW 9658   2.451   1.520   1.743
 2920SOL    HW1 9659   2.502   1.580   1.682
 2920SOL    HW2 9660   2.461   1.552   1.838
 2921SOL     OW 9661   0.960   0.214   4.078
 2921SOL    HW1 9662   0.882   0.275   4.072
 2921SOL    HW2 9663   0.929   0.119   4.075
 2922SOL     OW 9664   5.038   0.912   0.543
 2922SOL    HW1 9665   5.044   0.841   0.473
 2922SOL    HW2 9666   5.015   0.869   0.631
 2923SOL     OW 9667   6.536   5.227   2.344
 2923SOL    HW1 9668   6.447   5.184   2.331
 2923SOL    HW2 9669   6.548   5.302   2.279
 2924SOL     OW 9670   6.575   2.355   5.617
 2924SOL    HW1 9671   6.616   2.428   5.563
 2924SOL    HW2 9672   6.532   2.288   5.556
 2925SOL     OW 9673   4.598   1.070   2.222
 2925SOL    HW1 9674   4.682   1.040   2.178
 2925SOL    HW2 9675   4.522   1.010   2.196
 2926SOL     OW 9676   6.960   2.016   4.306
 2926SOL    HW1 9677   6.884   1.977   4.255
 2926SOL    HW2 9678   0.001   2.064   4.244
 2927SOL     OW 9679   1.331   3.210   1.812
 2927SOL    HW1 9680   1.242   3.190   1.770
 2927SOL    HW2 9681   1.318   3.227   1.910
 2928SOL     OW 9682   6.926   1.535   6.203
 2928SOL    HW1 9683   6.952   1.590   6.125
 2928SOL    HW2 9684   6.827   1.543   6.218
 2929SOL     OW 9685   0.204   2.317   6.769
 2929SOL    HW1 9686   0.184   2.291   6.674
 2929SOL    HW2 9687   0.257   2.402   6.770
 2930SOL     OW 9688   4.373   0.727   4.929
 2930SOL    HW1 9689   4.462   0.768   4.914
 2930SOL    HW2 9690   4.347   0.671   4.850
 2931SOL     OW 9691   5.555   4.947   0.427
 2931SOL    HW1 9692   5.561   4.847   0.417
 2931SOL    HW2 9693   5.461   4.976   0.407
 2932SOL     OW 9694   0.934   5.469   1.519
 2932SOL    HW1 9695   0.969   5.561   1.537
 2932SOL    HW2 9696   0.835   5.469   1.529
 2933SOL     OW 9697   0.082   4.968   3.006
 2933SOL    HW1 9698   7.013   4.980   2.964
 2933SOL    HW2 9699   0.086   5.020   3.091
 2934SOL     OW 9700   4.644   1.057   0.087
 2934SOL    HW1 9701   4.572   1.068   0.155
 2934SOL    HW2 9702   4.703   0.982   0.112
 2935SOL     OW 9703   6.014   3.321   0.166
 2935SOL    HW1 9704   5.948   3.373   0.112
 2935SOL    HW2 9705   6.007   3.348   0.262
 2936SOL     OW 9706   4.226   6.540   0.923
 2936SOL    HW1 9707   4.280   6.603   0.867
 2936SOL    HW2 9708   4.155   6.592   0.971
 2937SOL     OW 9709   4.781   4.703   0.591
 2937SOL    HW1 9710   4.867   4.666   0.626
 2937SOL    HW2 9711   4.771   4.679   0.495
 2938SOL     OW 9712   4.691   4.840   6.753
 2938SOL    HW1 9713   4.629   4.901   6.704
 2938SOL    HW2 9714   4.759   4.803   6.689
 2939SOL     OW 9715   0.972   1.213   3.048
 2939SOL    HW1 9716   0.878   1.219   3.014
 2939SOL    HW2 9717   1.036   1.215   2.971
 2940SOL     OW 9718   5.561   5.279   6.353
 2940SOL    HW1 9719   5.619   5.311   6.278
 2940SOL    HW2 9720   5.467   5.311   6.338
 2941SOL     OW 9721   1.927   2.942   4.586
 2941SOL    HW1 9722   1.882   2.852   4.586
 2941SOL    HW2 9723   1.895   2.994   4.507
 2942SOL     OW 9724   2.849   2.551   0.905
 2942SOL    HW1 9725   2.789   2.630   0.916
 2942SOL    HW2 9726   2.793   2.468   0.897
 2943SOL     OW 9727   4.477   4.575   3.320
 2943SOL    HW1 9728   4.536   4.546   3.396
 2943SOL    HW2 9729   4.451   4.671   3.333
 2944SOL     OW 9730   2.874   6.011   4.532
 2944SOL    HW1 9731   2.891   6.039   4.438
 2944SOL    HW2 9732   2.779   6.030   4.556
 2945SOL     OW 9733   3.596   4.173   3.873
 2945SOL    HW1 9734   3.531   4.113   3.920
 2945SOL    HW2 9735   3.674   4.192   3.934
 2946SOL     OW 9736   0.997   4.985   5.955
 2946SOL    HW1 9737   0.933   5.062   5.953
 2946SOL    HW2 9738   1.053   4.990   6.037
 2947SOL     OW 9739   0.299   3.737   0.797
 2947SOL    HW1 9740   0.321   3.677   0.874
 2947SOL    HW2 9741   0.358   3.715   0.719
 2948SOL     OW 9742   0.924   4.372   5.787
 2948SOL    HW1 9743   0.971   4.446   5.835
 2948SOL    HW2 9744   0.964   4.284   5.813
 2949SOL     OW 9745   3.277   5.241   0.975
 2949SOL    HW1 9746   3.328   5.284   1.050
 2949SOL    HW2 9747   3.328   5.250   0.890
 2950SOL     OW 9748   4.969   4.212   4.452
 2950SOL    HW1 9749   4.879   4.195   4.413
 2950SOL    HW2 9750   4.977   4.167   4.540
 2951SOL     OW 9751   5.691   1.379   0.981
 2951SOL    HW1 9752   5.655   1.409   1.069
 2951SOL    HW2 9753   5.640   1.424   0.907
 2952SOL     OW 9754   1.048   5.186   5.102
 2952SOL    HW1 9755   0.956   5.225   5.107
 2952SOL    HW2 9756   1.115   5.259   5.090
 2953SOL     OW 9757   5.312   3.187   2.382
 2953SOL    HW1 9758   5.310   3.273   2.331
 2953SOL    HW2 9759   5.350   3.203   2.473
 2954SOL     OW 9760   0.386   5.362   2.135
 2954SOL    HW1 9761   0.360   5.421   2.212
 2954SOL    HW2 9762   0.376   5.266   2.161
 2955SOL     OW 9763   0.674   4.275   1.523
 2955SOL    HW1 9764   0.645   4.256   1.429
 2955SOL    HW2 9765   0.770   4.251   1.533
 2956SOL     OW 9766   5.643   6.293   3.330
 2956SOL    HW1 9767   5.626   6.201   3.365
 2956SOL    HW2 9768   5.724   6.332   3.374
 2957SOL     OW 9769   6.116   2.942   1.153
 2957SOL    HW1 9770   6.107   3.041   1.141
 2957SOL    HW2 9771   6.042   2.909   1.211
 2958SOL     OW 9772   2.179   5.161   3.782
 2958SOL    HW1 9773   2.121   5.227   3.831
 2958SOL    HW2 9774   2.126   5.079   3.763
 2959SOL     OW 9775   5.039   4.137   0.618
 2959SOL    HW1 9776   4.993   4.225   0.632
 2959SOL    HW2 9777   5.037   4.113   0.521
 2960SOL     OW 9778   3.163   0.785   6.709
 2960SOL    HW1 9779   3.071   0.806   6.740
 2960SOL    HW2 9780   3.163   0.697   6.661
 2961SOL     OW 9781   4.885   3.321   2.996
 2961SOL    HW1 9782   4.878   3.375   2.912
 2961SOL    HW2 9783   4.878   3.382   3.075
 2962SOL     OW 9784   4.705   0.598   3.238
 2962SOL    HW1 9785   4.658   0.686   3.242
 2962SOL    HW2 9786   4.639   0.526   3.219
 2963SOL     OW 9787   2.165   0.477   6.414
 2963SOL    HW1 9788   2.115   0.484   6.500
 2963SOL    HW2 9789   2.102   0.448   6.341
 2964SOL     OW 9790   0.682   0.670   2.857
 2964SOL    HW1 9791   0.654   0.763   2.877
 2964SOL    HW2 9792   0.686   0.617   2.942
 2965SOL     OW 9793   6.678   2.182   4.625
 2965SOL    HW1 9794   6.581   2.201   4.637
 2965SOL    HW2 9795   6.713   2.134   4.705
 2966SOL     OW 9796   5.302   6.181   4.109
 2966SOL    HW1 9797   5.318   6.097   4.057
 2966SOL    HW2 9798   5.338   6.171   4.202
 2967SOL     OW 9799   6.247   0.494   4.830
 2967SOL    HW1 9800   6.269   0.585   4.866
 2967SOL    HW2 9801   6.332   0.443   4.817
 2968SOL     OW 9802   0.878   3.535   6.259
 2968SOL    HW1 9803   0.836   3.555   6.171
 2968SOL    HW2 9804   0.858   3.441   6.286
 2969SOL     OW 9805   5.049   1.171   3.872
 2969SOL    HW1 9806   5.105   1.170   3.789
 2969SOL    HW2 9807   4.955   1.198   3.849
 2970SOL     OW 9808   1.657   5.019   6.125
 2970SOL    HW1 9809   1.709   4.937   6.148
 2970SOL    HW2 9810   1.709   5.075   6.061
 2971SOL     OW 9811   4.740   3.913   0.364
 2971SOL    HW1 9812   4.764   3.988   0.303
 2971SOL    HW2 9813   4.756   3.941   0.459
 2972SOL     OW 9814   6.260   4.802   6.455
 2972SOL    HW1 9815   6.248   4.723   6.516
 2972SOL    HW2 9816   6.189   4.801   6.385
 2973SOL     OW 9817   5.327   0.022   2.744
 2973SOL    HW1 9818   5.280   0.016   2.832
 2973SOL    HW2 9819   5.423   7.017   2.756
 2974SOL     OW 9820   0.790   4.713   2.897
 2974SOL    HW1 9821   0.714   4.753   2.846
 2974SOL    HW2 9822   0.800   4.617   2.870
 2975SOL     OW 9823   5.570   3.293   4.475
 2975SOL    HW1 9824   5.665   3.278   4.502
 2975SOL    HW2 9825   5.534   3.211   4.431
 2976SOL     OW 9826   3.960   2.192   3.457
 2976SOL    HW1 9827   3.963   2.287   3.428
 2976SOL    HW2 9828   4.001   2.134   3.386
 2977SOL     OW 9829   2.656   6.820   3.349
 2977SOL    HW1 9830   2.724   6.888   3.322
 2977SOL    HW2 9831   2.701   6.742   3.392
 2978SOL     OW 9832   4.927   4.366   0.315
 2978SOL    HW1 9833   4.944   4.372   0.414
 2978SOL    HW2 9834   4.829   4.356   0.298
 2979SOL     OW 9835   3.896   0.895   4.115
 2979SOL    HW1 9836   3.986   0.931   4.139
 2979SOL    HW2 9837   3.857   0.848   4.194
 2980SOL     OW 9838   1.358   5.990   4.222
 2980SOL    HW1 9839   1.366   6.074   4.168
 2980SOL    HW2 9840   1.275   5.941   4.195
 2981SOL     OW 9841   2.090   0.937   5.688
 2981SOL    HW1 9842   2.187   0.956   5.674
 2981SOL    HW2 9843   2.070   0.937   5.786
 2982SOL     OW 9844   4.279   5.255   2.911
 2982SOL    HW1 9845   4.231   5.172   2.939
 2982SOL    HW2 9846   4.378   5.239   2.915
 2983SOL     OW 9847   0.748   1.413   2.902
 2983SOL    HW1 9848   0.746   1.471   2.984
 2983SOL    HW2 9849   0.727   1.469   2.822
 2984SOL     OW 9850   5.572   5.535   1.426
 2984SOL    HW1 9851   5.485   5.512   1.471
 2984SOL    HW2 9852   5.554   5.576   1.337
 2985SOL     OW 9853   1.535   2.546   5.949
 2985SOL    HW1 9854   1.573   2.470   5.896
 2985SOL    HW2 9855   1.436   2.548   5.938
 2986SOL     OW 9856   3.184   4.149   4.789
 2986SOL    HW1 9857   3.111   4.144   4.856
 2986SOL    HW2 9858   3.198   4.059   4.748
 2987SOL     OW 9859   6.410   1.686   4.376
 2987SOL    HW1 9860   6.456   1.654   4.294
 2987SOL    HW2 9861   6.316   1.652   4.377
 2988SOL     OW 9862   1.164   5.958   2.930
 2988SOL    HW1 9863   1.210   5.966   2.842
 2988SOL    HW2 9864   1.230   5.970   3.004
 2989SOL     OW 9865   6.639   6.015   6.544
 2989SOL    HW1 9866   6.701   6.013   6.465
 2989SOL    HW2 9867   6.598   6.106   6.552
 2990SOL     OW 9868   3.850   1.915   4.582
 2990SOL    HW1 9869   3.942   1.897   4.617
 2990SOL    HW2 9870   3.783   1.865   4.637
 2991SOL     OW 9871   6.723   4.402   5.579
 2991SOL    HW1 9872   6.770   4.449   5.653
 2991SOL    HW2 9873   6.745   4.446   5.492
 2992SOL     OW 9874   2.760   5.893   4.984
 2992SOL    HW1 9875   2.757   5.807   4.934
 2992SOL    HW2 9876   2.787   5.967   4.922
 2993SOL     OW 9877   0.295   5.317   1.283
 2993SOL    HW1 9878   0.378   5.365   1.253
 2993SOL    HW2 9879   0.227   5.384   1.312
 2994SOL     OW 9880   4.119   6.672   6.941
 2994SOL    HW1 9881   4.145   6.696   0.014
 2994SOL    HW2 9882   4.199   6.636   6.893
 2995SOL     OW 9883   2.947   2.575   6.227
 2995SOL    HW1 9884   3.026   2.522   6.200
 2995SOL    HW2 9885   2.888   2.520   6.287
 2996SOL     OW 9886   1.683   0.760   3.111
 2996SOL    HW1 9887   1.650   0.843   3.155
 2996SOL    HW2 9888   1.722   0.782   3.022
 2997SOL     OW 9889   5.915   0.504   2.781
 2997SOL    HW1 9890   5.976   0.583   2.781
 2997SOL    HW2 9891   5.864   0.502   2.695
 2998SOL     OW 9892   4.202   0.282   4.485
 2998SOL    HW1 9893   4.141   0.248   4.413
 2998SOL    HW2 9894   4.290   0.307   4.445
 2999SOL     OW 9895   3.151   4.869   4.977
 2999SOL    HW1 9896   3.206   4.942   4.938
 2999SOL    HW2 9897   3.208   4.788   4.990
 3000SOL     OW 9898   2.497   3.408   6.732
 3000SOL    HW1 9899   2.407   3.364   6.731
 3000SOL    HW2 9900   2.568   3.338   6.724
 3001SOL     OW 9901   5.365   0.014   6.384
 3001SOL    HW1 9902   5.291   0.007   6.451
 3001SOL    HW2 9903   5.408   0.104   6.391
 3002SOL     OW 9904   3.599   0.931   0.206
 3002SOL    HW1 9905   3.621   0.887   0.119
 3002SOL    HW2 9906   3.679   0.982   0.238
 3003SOL     OW 9907   1.920   6.164   0.237
 3003SOL    HW1 9908   1.893   6.245   0.288
 3003SOL    HW2 9909   1.999   6.186   0.178
 3004SOL     OW 9910   1.086   4.669   2.911
 3004SOL    HW1 9911   1.148   4.705   2.841
 3004SOL    HW2 9912   0.992   4.698   2.889
 3005SOL     OW 9913   3.248   1.925   0.242
 3005SOL    HW1 9914   3.274   1.884   0.154
 3005SOL    HW2 9915   3.305   1.887   0.315
 3006SOL     OW 9916   4.918   1.639   5.515
 3006SOL    HW1 9917   4.847   1.666   5.451
 3006SOL    HW2 9918   4.978   1.717   5.534
 3007SOL     OW 9919   5.870   5.148   1.624
 3007SOL    HW1 9920   5.951   5.093   1.643
 3007SOL    HW2 9921   5.795   5.088   1.596
 3008SOL     OW 9922   3.955   1.953   6.123
 3008SOL    HW1 9923   3.954   2.048   6.093
 3008SOL    HW2 9924   3.885   1.939   6.194
 3009SOL     OW 9925   0.435   1.488   2.712
 3009SOL    HW1 9926   0.433   1.504   2.810
 3009SOL    HW2 9927   0.526   1.458   2.684
 3010SOL     OW 9928   3.734   5.523   3.380
 3010SOL    HW1 9929   3.810   5.471   3.418
 3010SOL    HW2 9930   3.649   5.493   3.424
 3011SOL     OW 9931   6.022   1.664   1.278
 3011SOL    HW1 9932   5.937   1.655   1.329
 3011SOL    HW2 9933   6.094   1.700   1.337
 3012SOL     OW 9934   1.316   3.993   5.782
 3012SOL    HW1 9935   1.393   3.942   5.820
 3012SOL    HW2 9936   1.338   4.090   5.781
 3013SOL     OW 9937   5.823   6.274   4.993
 3013SOL    HW1 9938   5.824   6.216   4.911
 3013SOL    HW2 9939   5.730   6.301   5.014
 3014SOL     OW 9940   4.657   2.490   4.519
 3014SOL    HW1 9941   4.674   2.586   4.543
 3014SOL    HW2 9942   4.668   2.478   4.421
 3015SOL     OW 9943   3.451   1.695   0.545
 3015SOL    HW1 9944   3.413   1.788   0.551
 3015SOL    HW2 9945   3.397   1.642   0.480
 3016SOL     OW 9946   2.390   5.866   3.740
 3016SOL    HW1 9947   2.335   5.861   3.824
 3016SOL    HW2 9948   2.430   5.957   3.733
 3017SOL     OW 9949   6.545   4.798   2.430
 3017SOL    HW1 9950   6.622   4.818   2.370
 3017SOL    HW2 9951   6.578   4.754   2.513
 3018SOL     OW 9952   3.330   6.059   5.779
 3018SOL    HW1 9953   3.329   6.017   5.688
 3018SOL    HW2 9954   3.238   6.052   5.818
 3019SOL     OW 9955   0.472   6.895   6.594
 3019SOL    HW1 9956   0.413   6.839   6.536
 3019SOL    HW2 9957   0.488   6.983   6.550
 3020SOL     OW 9958   4.152   3.209   1.778
 3020SOL    HW1 9959   4.252   3.206   1.775
 3020SOL    HW2 9960   4.122   3.194   1.872
 3021SOL     OW 9961   3.217   6.741   6.671
 3021SOL    HW1 9962   3.226   6.744   6.571
 3021SOL    HW2 9963   3.170   6.657   6.698
 3022SOL     OW 9964   3.519   5.550   4.031
 3022SOL    HW1 9965   3.560   5.477   3.977
 3022SOL    HW2 9966   3.584   5.625   4.042
 3023SOL     OW 9967   4.102   0.700   3.022
 3023SOL    HW1 9968   4.050   0.777   2.985
 3023SOL    HW2 9969   4.048   0.654   3.093
 3024SOL     OW 9970   4.243   6.589   5.209
 3024SOL    HW1 9971   4.320   6.637   5.167
 3024SOL    HW2 9972   4.213   6.639   5.290
 3025SOL     OW 9973   3.056   1.057   0.381
 3025SOL    HW1 9974   2.967   1.081   0.342
 3025SOL    HW2 9975   3.050   1.056   0.481
 3026SOL     OW 9976   1.302   0.372   0.418
 3026SOL    HW1 9977   1.323   0.411   0.329
 3026SOL    HW2 9978   1.374   0.309   0.445
 3027SOL     OW 9979   3.712   0.208   3.304
 3027SOL    HW1 9980   3.799   0.228   3.349
 3027SOL    HW2 9981   3.650   0.287   3.315
 3028SOL     OW 9982   1.240   4.049   5.437
 3028SOL    HW1 9983   1.185   3.990   5.497
 3028SOL    HW2 9984   1.275   3.994   5.361
 3029SOL     OW 9985   0.032   2.818   4.953
 3029SOL    HW1 9986   0.110   2.876   4.929
 3029SOL    HW2 9987   0.063   2.724   4.966
 3030SOL     OW 9988   0.619   3.273   6.466
 3030SOL    HW1 9989   0.561   3.268   6.384
 3030SOL    HW2 9990   0.715   3.280   6.439
 3031SOL     OW 9991   0.497   3.725   0.329
 3031SOL    HW1 9992   0.410   3.760   0.293
 3031SOL    HW2 9993   0.572   3.759   0.271
 3032SOL     OW 9994   3.736   7.017   1.360
 3032SOL    HW1 9995   3.702   0.082   1.321
 3032SOL    HW2 9996   3.685   6.996   1.443
 3033SOL     OW 9997   5.972   2.146   1.644
 3033SOL    HW1 9998   5.984   2.198   1.729
 3033SOL    HW2 9999   5.935   2.056   1.666
 3034SOL     OW10000   1.641   5.826   2.952
 3034SOL    HW110001   1.622   5.907   3.008
 3034SOL    HW210002   1.709   5.769   2.998
 3035SOL     OW10003   0.499   3.114   6.664
 3035SOL    HW110004   0.507   3.174   6.584
 3035SOL    HW210005   0.524   3.021   6.638
 3036SOL     OW10006   1.705   1.444   6.574
 3036SOL    HW110007   1.776   1.434   6.644
 3036SOL    HW210008   1.681   1.354   6.537
 3037SOL     OW10009   6.311   5.501   5.643
 3037SOL    HW110010   6.373   5.570   5.606
 3037SOL    HW210011   6.223   5.544   5.664
 3038SOL     OW10012   5.864   6.487   6.292
 3038SOL    HW110013   5.952   6.507   6.247
 3038SOL    HW210014   5.801   6.448   6.225
 3039SOL     OW10015   0.100   3.857   0.587
 3039SOL    HW110016   0.154   3.796   0.645
 3039SOL    HW210017   0.042   3.915   0.644
 3040SOL     OW10018   3.753   3.241   6.274
 3040SOL    HW110019   3.748   3.278   6.182
 3040SOL    HW210020   3.786   3.311   6.337
 3041SOL     OW10021   2.336   2.825   4.079
 3041SOL    HW110022   2.288   2.759   4.136
 3041SOL    HW210023   2.297   2.916   4.093
 3042SOL     OW10024   4.218   6.072   1.954
 3042SOL    HW110025   4.302   6.018   1.963
 3042SOL    HW210026   4.235   6.149   1.893
 3043SOL     OW10027   2.511   4.997   1.601
 3043SOL    HW110028   2.482   5.003   1.697
 3043SOL    HW210029   2.453   5.058   1.546
 3044SOL     OW10030   3.737   3.872   5.717
 3044SOL    HW110031   3.661   3.933   5.741
 3044SOL    HW210032   3.823   3.913   5.746
 3045SOL     OW10033   4.993   0.818   2.873
 3045SOL    HW110034   4.948   0.729   2.873
 3045SOL    HW210035   5.088   0.808   2.903
 3046SOL     OW10036   2.015   0.876   6.448
 3046SOL    HW110037   2.008   0.864   6.349
 3046SOL    HW210038   1.965   0.802   6.494
 3047SOL     OW10039   5.621   0.697   1.988
 3047SOL    HW110040   5.707   0.648   2.000
 3047SOL    HW210041   5.579   0.670   1.901
 3048SOL     OW10042   3.960   2.229   1.895
 3048SOL    HW110043   3.861   2.241   1.891
 3048SOL    HW210044   4.004   2.319   1.902
 3049SOL     OW10045   1.509   6.324   2.215
 3049SOL    HW110046   1.499   6.417   2.180
 3049SOL    HW210047   1.591   6.283   2.177
 3050SOL     OW10048   3.286   1.338   1.711
 3050SOL    HW110049   3.330   1.370   1.795
 3050SOL    HW210050   3.276   1.414   1.648
 3051SOL     OW10051   2.203   4.099   0.287
 3051SOL    HW110052   2.233   4.126   0.379
 3051SOL    HW210053   2.105   4.081   0.288
 3052SOL     OW10054   5.554   0.071   1.712
 3052SOL    HW110055   5.510   0.151   1.751
 3052SOL    HW210056   5.487   0.018   1.659
 3053SOL     OW10057   7.008   1.716   6.869
 3053SOL    HW110058   0.013   1.715   6.966
 3053SOL    HW210059   6.983   1.809   6.842
 3054SOL     OW10060   6.725   2.061   0.462
 3054SOL    HW110061   6.665   2.008   0.522
 3054SOL    HW210062   6.800   2.003   0.431
 3055SOL     OW10063   4.999   0.207   4.299
 3055SOL    HW110064   4.939   0.276   4.259
 3055SOL    HW210065   5.088   0.248   4.320
 3056SOL     OW10066   6.095   0.469   4.436
 3056SOL    HW110067   6.069   0.445   4.530
 3056SOL    HW210068   6.121   0.565   4.432
 3057SOL     OW10069   3.956   6.060   2.659
 3057SOL    HW110070   4.032   6.031   2.717
 3057SOL    HW210071   3.873   6.065   2.713
 3058SOL     OW10072   0.367   5.072   1.348
 3058SOL    HW110073   0.329   5.161   1.323
 3058SOL    HW210074   0.467   5.079   1.355
 3059SOL     OW10075   2.376   2.430   4.520
 3059SOL    HW110076   2.349   2.526   4.513
 3059SOL    HW210077   2.392   2.393   4.429
 3060SOL     OW10078   0.755   5.590   0.368
 3060SOL    HW110079   0.711   5.527   0.305
 3060SOL    HW210080   0.851   5.601   0.343
 3061SOL     OW10081   0.074   7.003   5.274
 3061SOL    HW110082   0.152   0.013   5.220
 3061SOL    HW210083   0.081   6.904   5.288
 3062SOL     OW10084   1.768   6.955   6.957
 3062SOL    HW110085   1.764   0.012   7.020
 3062SOL    HW210086   1.737   6.984   6.866
 3063SOL     OW10087   2.796   5.070   2.003
 3063SOL    HW110088   2.761   4.985   1.963
 3063SOL    HW210089   2.721   5.121   2.045
 3064SOL     OW10090   5.791   4.402   2.985
 3064SOL    HW110091   5.863   4.438   3.043
 3064SOL    HW210092   5.830   4.371   2.898
 3065SOL     OW10093   2.638   0.717   0.555
 3065SOL    HW110094   2.698   0.718   0.475
 3065SOL    HW210095   2.603   0.624   0.571
 3066SOL     OW10096   5.346   5.278   0.965
 3066SOL    HW110097   5.351   5.288   1.064
 3066SOL    HW210098   5.306   5.189   0.942
 3067SOL     OW10099   3.834   2.242   5.273
 3067SOL    HW110100   3.855   2.218   5.179
 3067SOL    HW210101   3.802   2.161   5.322
 3068SOL     OW10102   6.336   6.909   1.430
 3068SOL    HW110103   6.258   6.847   1.423
 3068SOL    HW210104   6.339   6.968   1.349
 3069SOL     OW10105   6.589   6.255   1.511
 3069SOL    HW110106   6.618   6.234   1.417
 3069SOL    HW210107   6.514   6.321   1.508
 3070SOL     OW10108   2.089   1.708   0.771
 3070SOL    HW110109   2.152   1.694   0.695
 3070SOL    HW210110   2.114   1.792   0.820
 3071SOL     OW10111   5.875   6.464   3.382
 3071SOL    HW110112   5.904   6.557   3.403
 3071SOL    HW210113   5.954   6.403   3.387
 3072SOL     OW10114   1.652   6.245   0.515
 3072SOL    HW110115   1.706   6.251   0.431
 3072SOL    HW210116   1.714   6.235   0.593
 3073SOL     OW10117   6.262   3.213   4.059
 3073SOL    HW110118   6.351   3.220   4.013
 3073SOL    HW210119   6.276   3.220   4.158
 3074SOL     OW10120   5.998   3.858   1.310
 3074SOL    HW110121   6.044   3.777   1.347
 3074SOL    HW210122   6.053   3.897   1.236
 3075SOL     OW10123   2.758   6.099   1.727
 3075SOL    HW110124   2.681   6.112   1.790
 3075SOL    HW210125   2.769   6.002   1.707
 3076SOL     OW10126   6.784   0.399   4.691
 3076SOL    HW110127   6.811   0.332   4.761
 3076SOL    HW210128   6.753   0.352   4.609
 3077SOL     OW10129   5.029   5.872   2.256
 3077SOL    HW110130   4.999   5.778   2.244
 3077SOL    HW210131   4.956   5.935   2.228
 3078SOL     OW10132   0.224   2.844   2.108
 3078SOL    HW110133   0.230   2.747   2.127
 3078SOL    HW210134   0.202   2.894   2.192
 3079SOL     OW10135   2.517   2.589   3.764
 3079SOL    HW110136   2.450   2.607   3.692
 3079SOL    HW210137   2.541   2.491   3.762
 3080SOL     OW10138   4.905   3.843   3.043
 3080SOL    HW110139   4.933   3.852   2.947
 3080SOL    HW210140   4.812   3.880   3.054
 3081SOL     OW10141   0.466   2.546   5.652
 3081SOL    HW110142   0.496   2.515   5.562
 3081SOL    HW210143   0.543   2.589   5.699
 3082SOL     OW10144   2.841   6.335   3.990
 3082SOL    HW110145   2.749   6.297   3.999
 3082SOL    HW210146   2.897   6.303   4.067
 3083SOL     OW10147   3.759   5.635   3.679
 3083SOL    HW110148   3.699   5.656   3.602
 3083SOL    HW210149   3.767   5.715   3.738
 3084SOL     OW10150   5.903   4.004   4.768
 3084SOL    HW110151   5.889   4.042   4.859
 3084SOL    HW210152   5.915   3.905   4.774
 3085SOL     OW10153   6.343   4.132   1.130
 3085SOL    HW110154   6.381   4.195   1.063
 3085SOL    HW210155   6.245   4.149   1.140
 3086SOL     OW10156   4.686   1.496   1.332
 3086SOL    HW110157   4.707   1.527   1.424
 3086SOL    HW210158   4.717   1.401   1.321
 3087SOL     OW10159   0.495   5.564   3.955
 3087SOL    HW110160   0.524   5.563   3.860
 3087SOL    HW210161   0.419   5.500   3.968
 3088SOL     OW10162   1.831   4.704   5.054
 3088SOL    HW110163   1.758   4.638   5.074
 3088SOL    HW210164   1.897   4.703   5.129
 3089SOL     OW10165   1.257   3.623   6.834
 3089SOL    HW110166   1.301   3.543   6.795
 3089SOL    HW210167   1.186   3.657   6.772
 3090SOL     OW10168   2.155   2.110   1.700
 3090SOL    HW110169   2.131   2.184   1.763
 3090SOL    HW210170   2.240   2.067   1.730
 3091SOL     OW10171   1.761   1.076   0.765
 3091SOL    HW110172   1.743   1.122   0.853
 3091SOL    HW210173   1.845   1.113   0.725
 3092SOL     OW10174   4.775   0.689   0.091
 3092SOL    HW110175   4.678   0.677   0.068
 3092SOL    HW210176   4.831   0.642   0.022
 3093SOL     OW10177   5.910   6.722   5.724
 3093SOL    HW110178   6.003   6.715   5.689
 3093SOL    HW210179   5.912   6.717   5.824
 3094SOL     OW10180   1.801   6.622   4.395
 3094SOL    HW110181   1.744   6.584   4.467
 3094SOL    HW210182   1.764   6.598   4.306
 3095SOL     OW10183   1.654   4.943   5.552
 3095SOL    HW110184   1.739   4.916   5.507
 3095SOL    HW210185   1.579   4.939   5.487
 3096SOL     OW10186   1.590   6.058   5.169
 3096SOL    HW110187   1.658   5.986   5.184
 3096SOL    HW210188   1.594   6.089   5.075
 3097SOL     OW10189   6.280   2.196   7.008
 3097SOL    HW110190   6.198   2.162   6.962
 3097SOL    HW210191   6.271   2.182   0.086
 3098SOL     OW10192   2.763   2.955   0.692
 3098SOL    HW110193   2.849   2.982   0.647
 3098SOL    HW210194   2.775   2.958   0.791
 3099SOL     OW10195   0.922   6.827   2.874
 3099SOL    HW110196   0.946   6.824   2.778
 3099SOL    HW210197   0.829   6.863   2.884
 3100SOL     OW10198   6.263   6.070   4.349
 3100SOL    HW110199   6.261   6.008   4.427
 3100SOL    HW210200   6.261   6.165   4.381
 3101SOL     OW10201   5.472   6.761   6.358
 3101SOL    HW110202   5.425   6.848   6.370
 3101SOL    HW210203   5.535   6.767   6.280
 3102SOL     OW10204   6.894   5.088   1.831
 3102SOL    HW110205   6.818   5.096   1.767
 3102SOL    HW210206   6.862   5.044   1.915
 3103SOL     OW10207   4.257   0.779   2.441
 3103SOL    HW110208   4.168   0.765   2.399
 3103SOL    HW210209   4.295   0.867   2.412
 3104SOL     OW10210   5.158   0.525   4.985
 3104SOL    HW110211   5.255   0.500   4.985
 3104SOL    HW210212   5.124   0.529   5.079
 3105SOL     OW10213   6.101   4.718   1.661
 3105SOL    HW110214   6.018   4.703   1.609
 3105SOL    HW210215   6.175   4.662   1.623
 3106SOL     OW10216   6.739   1.218   3.286
 3106SOL    HW110217   6.721   1.296   3.346
 3106SOL    HW210218   6.677   1.221   3.208
 3107SOL     OW10219   4.278   1.065   4.786
 3107SOL    HW110220   4.316   1.040   4.875
 3107SOL    HW210221   4.272   0.983   4.729
 3108SOL     OW10222   1.183   6.197   4.347
 3108SOL    HW110223   1.118   6.121   4.341
 3108SOL    HW210224   1.268   6.171   4.301
 3109SOL     OW10225   5.905   6.010   2.984
 3109SOL    HW110226   5.861   5.939   3.039
 3109SOL    HW210227   5.836   6.064   2.937
 3110SOL     OW10228   1.968   2.098   2.920
 3110SOL    HW110229   1.879   2.058   2.939
 3110SOL    HW210230   1.964   2.151   2.835
 3111SOL     OW10231   6.432   5.591   3.978
 3111SOL    HW110232   6.531   5.604   3.984
 3111SOL    HW210233   6.411   5.531   3.901
 3112SOL     OW10234   5.214   2.237   6.646
 3112SOL    HW110235   5.237   2.330   6.617
 3112SOL    HW210236   5.115   2.230   6.662
 3113SOL     OW10237   2.569   5.881   3.438
 3113SOL    HW110238   2.541   5.785   3.450
 3113SOL    HW210239   2.488   5.938   3.430
 3114SOL     OW10240   4.238   1.312   1.112
 3114SOL    HW110241   4.293   1.396   1.111
 3114SOL    HW210242   4.231   1.277   1.018
 3115SOL     OW10243   3.844   3.377   6.513
 3115SOL    HW110244   3.887   3.438   6.580
 3115SOL    HW210245   3.769   3.327   6.557
 3116SOL     OW10246   1.066   3.006   6.776
 3116SOL    HW110247   0.978   3.024   6.820
 3116SOL    HW210248   1.132   3.077   6.802
 3117SOL     OW10249   4.463   3.679   5.277
 3117SOL    HW110250   4.403   3.624   5.336
 3117SOL    HW210251   4.533   3.620   5.237
 3118SOL     OW10252   0.432   5.453   1.806
 3118SOL    HW110253   0.455   5.416   1.896
 3118SOL    HW210254   0.463   5.390   1.735
 3119SOL     OW10255   1.865   3.432   5.973
 3119SOL    HW110256   1.845   3.359   6.038
 3119SOL    HW210257   1.962   3.456   5.977
 3120SOL     OW10258   3.042   6.485   4.769
 3120SOL    HW110259   2.946   6.496   4.741
 3120SOL    HW210260   3.050   6.505   4.867
 3121SOL     OW10261   0.376   1.161   3.677
 3121SOL    HW110262   0.390   1.127   3.584
 3121SOL    HW210263   0.331   1.091   3.732
 3122SOL     OW10264   3.762   6.457   6.123
 3122SOL    HW110265   3.849   6.451   6.073
 3122SOL    HW210266   3.759   6.543   6.173
 3123SOL     OW10267   3.259   1.596   3.963
 3123SOL    HW110268   3.315   1.515   3.983
 3123SOL    HW210269   3.298   1.646   3.886
 3124SOL     OW10270   3.627   0.225   4.555
 3124SOL    HW110271   3.627   0.193   4.650
 3124SOL    HW210272   3.535   0.251   4.529
 3125SOL     OW10273   6.619   2.478   4.798
 3125SOL    HW110274   6.527   2.441   4.800
 3125SOL    HW210275   6.625   2.548   4.727
 3126SOL     OW10276   5.181   5.136   5.732
 3126SOL    HW110277   5.107   5.071   5.747
 3126SOL    HW210278   5.146   5.217   5.685
 3127SOL     OW10279   1.401   3.312   4.359
 3127SOL    HW110280   1.443   3.277   4.443
 3127SOL    HW210281   1.430   3.257   4.281
 3128SOL     OW10282   2.574   0.544   6.166
 3128SOL    HW110283   2.522   0.512   6.245
 3128SOL    HW210284   2.638   0.473   6.137
 3129SOL     OW10285   6.558   3.764   6.303
 3129SOL    HW110286   6.517   3.674   6.297
 3129SOL    HW210287   6.589   3.780   6.397
 3130SOL     OW10288   1.929   4.034   1.673
 3130SOL    HW110289   1.831   4.013   1.666
 3130SOL    HW210290   1.973   3.967   1.731
 3131SOL     OW10291   6.924   2.223   1.119
 3131SOL    HW110292   6.870   2.305   1.104
 3131SOL    HW210293   7.018   2.248   1.143
 3132SOL     OW10294   4.434   5.383   6.005
 3132SOL    HW110295   4.499   5.382   6.081
 3132SOL    HW210296   4.403   5.289   5.986
 3133SOL     OW10297   3.494   1.864   4.529
 3133SOL    HW110298   3.515   1.789   4.465
 3133SOL    HW210299   3.522   1.951   4.488
 3134SOL     OW10300   4.735   3.935   1.407
 3134SOL    HW110301   4.814   3.876   1.388
 3134SOL    HW210302   4.759   4.000   1.479
 3135SOL     OW10303   4.881   0.644   5.608
 3135SOL    HW110304   4.976   0.663   5.631
 3135SOL    HW210305   4.827   0.728   5.618
 3136SOL     OW10306   5.289   0.772   0.864
 3136SOL    HW110307   5.309   0.694   0.805
 3136SOL    HW210308   5.311   0.749   0.959
 3137SOL     OW10309   6.750   0.809   3.206
 3137SOL    HW110310   6.658   0.769   3.196
 3137SOL    HW210311   6.772   0.860   3.123
 3138SOL     OW10312   6.259   3.977   4.159
 3138SOL    HW110313   6.183   3.995   4.096
 3138SOL    HW210314   6.336   3.939   4.109
 3139SOL     OW10315   5.207   6.492   0.572
 3139SOL    HW110316   5.248   6.559   0.633
 3139SOL    HW210317   5.246   6.501   0.481
 3140SOL     OW10318   5.681   0.072   6.964
 3140SOL    HW110319   5.704   0.138   6.893
 3140SOL    HW210320   5.591   0.031   6.944
 3141SOL     OW10321   7.010   6.134   6.611
 3141SOL    HW110322   0.049   6.068   6.656
 3141SOL    HW210323   0.010   6.138   6.513
 3142SOL     OW10324   3.300   6.780   2.173
 3142SOL    HW110325   3.246   6.862   2.192
 3142SOL    HW210326   3.273   6.743   2.084
 3143SOL     OW10327   6.668   1.744   6.994
 3143SOL    HW110328   6.587   1.773   0.023
 3143SOL    HW210329   6.687   1.809   6.921
 3144SOL     OW10330   4.623   4.071   1.711
 3144SOL    HW110331   4.575   4.131   1.774
 3144SOL    HW210332   4.561   4.046   1.636
 3145SOL     OW10333   2.381   5.792   1.340
 3145SOL    HW110334   2.394   5.846   1.257
 3145SOL    HW210335   2.293   5.745   1.336
 3146SOL     OW10336   1.130   6.816   3.300
 3146SOL    HW110337   1.200   6.881   3.269
 3146SOL    HW210338   1.041   6.845   3.267
 3147SOL     OW10339   3.686   4.924   0.657
 3147SOL    HW110340   3.735   4.922   0.569
 3147SOL    HW210341   3.686   4.833   0.697
 3148SOL     OW10342   5.294   5.750   4.947
 3148SOL    HW110343   5.245   5.664   4.934
 3148SOL    HW210344   5.380   5.747   4.896
 3149SOL     OW10345   2.678   1.020   5.895
 3149SOL    HW110346   2.671   1.035   5.994
 3149SOL    HW210347   2.594   0.978   5.861
 3150SOL     OW10348   5.724   6.126   4.282
 3150SOL    HW110349   5.727   6.029   4.258
 3150SOL    HW210350   5.630   6.160   4.272
 3151SOL     OW10351   5.314   1.233   5.547
 3151SOL    HW110352   5.237   1.280   5.589
 3151SOL    HW210353   5.353   1.290   5.474
 3152SOL     OW10354   1.336   5.846   0.436
 3152SOL    HW110355   1.342   5.834   0.535
 3152SOL    HW210356   1.354   5.759   0.391
 3153SOL     OW10357   6.118   4.938   2.152
 3153SOL    HW110358   6.093   4.959   2.058
 3153SOL    HW210359   6.107   4.840   2.168
 3154SOL     OW10360   5.850   1.085   6.445
 3154SOL    HW110361   5.939   1.042   6.429
 3154SOL    HW210362   5.780   1.038   6.393
 3155SOL     OW10363   6.169   4.346   1.369
 3155SOL    HW110364   6.259   4.347   1.414
 3155SOL    HW210365   6.143   4.440   1.347
 3156SOL     OW10366   3.343   3.088   3.479
 3156SOL    HW110367   3.432   3.072   3.522
 3156SOL    HW210368   3.284   3.139   3.541
 3157SOL     OW10369   2.768   2.353   4.752
 3157SOL    HW110370   2.729   2.444   4.765
 3157SOL    HW210371   2.770   2.303   4.839
 3158SOL     OW10372   4.323   0.594   2.874
 3158SOL    HW110373   4.401   0.608   2.934
 3158SOL    HW210374   4.243   0.639   2.913
 3159SOL     OW10375   5.412   1.565   6.438
 3159SOL    HW110376   5.400   1.471   6.406
 3159SOL    HW210377   5.381   1.573   6.533
 3160SOL     OW10378   0.428   6.498   5.671
 3160SOL    HW110379   0.517   6.545   5.674
 3160SOL    HW210380   0.443   6.401   5.650
 3161SOL     OW10381   1.619   1.744   2.884
 3161SOL    HW110382   1.673   1.664   2.859
 3161SOL    HW210383   1.532   1.715   2.922
 3162SOL     OW10384   1.432   6.181   1.991
 3162SOL    HW110385   1.355   6.204   1.931
 3162SOL    HW210386   1.426   6.236   2.074
 3163SOL     OW10387   4.322   2.419   6.178
 3163SOL    HW110388   4.272   2.341   6.141
 3163SOL    HW210389   4.299   2.501   6.126
 3164SOL     OW10390   4.740   4.398   0.816
 3164SOL    HW110391   4.647   4.393   0.779
 3164SOL    HW210392   4.759   4.315   0.868
 3165SOL     OW10393   0.564   6.398   0.999
 3165SOL    HW110394   0.496   6.471   1.006
 3165SOL    HW210395   0.598   6.392   0.905
 3166SOL     OW10396   4.722   2.097   5.233
 3166SOL    HW110397   4.716   2.003   5.202
 3166SOL    HW210398   4.703   2.101   5.331
 3167SOL     OW10399   6.604   3.738   1.522
 3167SOL    HW110400   6.650   3.735   1.433
 3167SOL    HW210401   6.506   3.749   1.509
 3168SOL     OW10402   4.318   2.238   6.916
 3168SOL    HW110403   4.351   2.164   6.975
 3168SOL    HW210404   4.218   2.235   6.912
 3169SOL     OW10405   1.292   3.708   5.107
 3169SOL    HW110406   1.387   3.678   5.097
 3169SOL    HW210407   1.250   3.714   5.016
 3170SOL     OW10408   3.915   0.724   0.941
 3170SOL    HW110409   3.931   0.648   0.878
 3170SOL    HW210410   3.932   0.694   1.035
 3171SOL     OW10411   0.517   6.997   1.142
 3171SOL    HW110412   0.427   7.018   1.106
 3171SOL    HW210413   0.534   6.898   1.133
 3172SOL     OW10414   0.323   4.964   0.124
 3172SOL    HW110415   0.413   4.928   0.150
 3172SOL    HW210416   0.328   5.001   0.031
 3173SOL     OW10417   2.991   2.123   0.442
 3173SOL    HW110418   2.966   2.028   0.426
 3173SOL    HW210419   3.004   2.169   0.353
 3174SOL     OW10420   3.006   2.838   6.078
 3174SOL    HW110421   3.063   2.881   6.148
 3174SOL    HW210422   2.989   2.743   6.103
 3175SOL     OW10423   6.988   0.570   0.529
 3175SOL    HW110424   0.013   0.507   0.591
 3175SOL    HW210425   0.024   0.583   0.448
 3176SOL     OW10426   1.274   4.765   4.954
 3176SOL    HW110427   1.175   4.749   4.947
 3176SOL    HW210428   1.292   4.863   4.947
 3177SOL     OW10429   4.672   4.286   4.189
 3177SOL    HW110430   4.719   4.278   4.100
 3177SOL    HW210431   4.589   4.340   4.178
 3178SOL     OW10432   6.369   1.840   0.339
 3178SOL    HW110433   6.269   1.831   0.331
 3178SOL    HW210434   6.392   1.934   0.362
 3179SOL     OW10435   1.843   3.214   2.432
 3179SOL    HW110436   1.867   3.137   2.492
 3179SOL    HW210437   1.850   3.185   2.337
 3180SOL     OW10438   4.063   1.363   0.098
 3180SOL    HW110439   3.972   1.368   0.138
 3180SOL    HW210440   4.098   1.455   0.080
 3181SOL     OW10441   0.953   1.311   2.449
 3181SOL    HW110442   1.041   1.283   2.411
 3181SOL    HW210443   0.965   1.339   2.544
 3182SOL     OW10444   2.459   1.479   4.931
 3182SOL    HW110445   2.412   1.532   5.001
 3182SOL    HW210446   2.396   1.458   4.856
 3183SOL     OW10447   4.320   4.152   1.636
 3183SOL    HW110448   4.253   4.226   1.623
 3183SOL    HW210449   4.384   4.178   1.709
 3184SOL     OW10450   1.361   2.540   2.453
 3184SOL    HW110451   1.347   2.450   2.493
 3184SOL    HW210452   1.459   2.559   2.447
 3185SOL     OW10453   6.173   5.920   0.129
 3185SOL    HW110454   6.197   5.999   0.185
 3185SOL    HW210455   6.198   5.836   0.177
 3186SOL     OW10456   4.018   1.862   2.131
 3186SOL    HW110457   4.019   1.764   2.153
 3186SOL    HW210458   4.111   1.896   2.121
 3187SOL     OW10459   4.845   3.667   0.594
 3187SOL    HW110460   4.760   3.644   0.548
 3187SOL    HW210461   4.852   3.767   0.602
 3188SOL     OW10462   3.649   6.508   4.674
 3188SOL    HW110463   3.706   6.549   4.745
 3188SOL    HW210464   3.558   6.548   4.677
 3189SOL     OW10465   1.779   1.637   1.911
 3189SOL    HW110466   1.793   1.636   1.812
 3189SOL    HW210467   1.684   1.662   1.931
 3190SOL     OW10468   0.104   6.507   0.606
 3190SOL    HW110469   0.161   6.426   0.622
 3190SOL    HW210470   0.014   6.478   0.573
 3191SOL     OW10471   4.373   6.787   0.827
 3191SOL    HW110472   4.355   6.850   0.752
 3191SOL    HW210473   4.465   6.750   0.819
 3192SOL     OW10474   0.118   2.650   0.569
 3192SOL    HW110475   0.030   2.673   0.611
 3192SOL    HW210476   0.136   2.712   0.492
 3193SOL     OW10477   4.116   1.767   6.297
 3193SOL    HW110478   4.048   1.810   6.238
 3193SOL    HW210479   4.186   1.723   6.241
 3194SOL     OW10480   0.507   3.307   5.729
 3194SOL    HW110481   0.441   3.369   5.686
 3194SOL    HW210482   0.519   3.226   5.671
 3195SOL     OW10483   2.660   2.308   3.473
 3195SOL    HW110484   2.590   2.236   3.470
 3195SOL    HW210485   2.694   2.318   3.566
 3196SOL     OW10486   0.734   0.685   5.231
 3196SOL    HW110487   0.821   0.694   5.183
 3196SOL    HW210488   0.749   0.698   5.329
 3197SOL     OW10489   1.506   6.103   3.886
 3197SOL    HW110490   1.538   6.087   3.793
 3197SOL    HW210491   1.406   6.095   3.888
 3198SOL     OW10492   6.156   1.872   5.695
 3198SOL    HW110493   6.204   1.852   5.609
 3198SOL    HW210494   6.123   1.966   5.693
 3199SOL     OW10495   4.788   2.692   2.099
 3199SOL    HW110496   4.702   2.642   2.101
 3199SOL    HW210497   4.771   2.789   2.084
 3200SOL     OW10498   6.883   2.590   1.771
 3200SOL    HW110499   6.803   2.578   1.830
 3200SOL    HW210500   6.904   2.504   1.725
 3201SOL     OW10501   4.707   4.136   4.411
 3201SOL    HW110502   4.676   4.205   4.475
 3201SOL    HW210503   4.701   4.172   4.318
 3202SOL     OW10504   1.105   4.461   1.550
 3202SOL    HW110505   1.049   4.393   1.596
 3202SOL    HW210506   1.174   4.415   1.495
 3203SOL     OW10507   6.251   2.899   6.250
 3203SOL    HW110508   6.332   2.894   6.308
 3203SOL    HW210509   6.197   2.979   6.276
 3204SOL     OW10510   4.724   6.440   1.977
 3204SOL    HW110511   4.692   6.530   1.948
 3204SOL    HW210512   4.650   6.374   1.968
 3205SOL     OW10513   0.196   3.658   6.973
 3205SOL    HW110514   0.212   3.670   6.875
 3205SOL    HW210515   0.143   3.574   6.988
 3206SOL     OW10516   0.344   6.868   5.913
 3206SOL    HW110517   0.275   6.797   5.930
 3206SOL    HW210518   0.418   6.829   5.859
 3207SOL     OW10519   0.952   0.910   5.965
 3207SOL    HW110520   0.853   0.910   5.975
 3207SOL    HW210521   0.983   1.001   5.939
 3208SOL     OW10522   5.061   6.573   5.524
 3208SOL    HW110523   5.101   6.595   5.613
 3208SOL    HW210524   5.133   6.568   5.455
 3209SOL     OW10525   4.133   5.382   3.261
 3209SOL    HW110526   4.132   5.341   3.352
 3209SOL    HW210527   4.040   5.384   3.224
 3210SOL     OW10528   0.493   4.278   1.315
 3210SOL    HW110529   0.413   4.334   1.296
 3210SOL    HW210530   0.465   4.182   1.326
 3211SOL     OW10531   1.820   3.216   1.234
 3211SOL    HW110532   1.818   3.177   1.142
 3211SOL    HW210533   1.743   3.278   1.246
 3212SOL     OW10534   2.789   1.132   0.321
 3212SOL    HW110535   2.780   1.219   0.273
 3212SOL    HW210536   2.743   1.137   0.409
 3213SOL     OW10537   6.628   6.030   2.671
 3213SOL    HW110538   6.688   5.959   2.633
 3213SOL    HW210539   6.559   5.987   2.730
 3214SOL     OW10540   4.703   5.747   0.678
 3214SOL    HW110541   4.794   5.726   0.642
 3214SOL    HW210542   4.652   5.662   0.692
 3215SOL     OW10543   0.539   3.407   0.866
 3215SOL    HW110544   0.482   3.470   0.919
 3215SOL    HW210545   0.482   3.358   0.800
 3216SOL     OW10546   5.772   5.597   1.578
 3216SOL    HW110547   5.818   5.520   1.621
 3216SOL    HW210548   5.696   5.563   1.522
 3217SOL     OW10549   0.230   5.306   2.858
 3217SOL    HW110550   0.303   5.374   2.865
 3217SOL    HW210551   0.156   5.330   2.921
 3218SOL     OW10552   3.900   7.001   4.239
 3218SOL    HW110553   3.866   6.936   4.172
 3218SOL    HW210554   3.991   6.972   4.271
 3219SOL     OW10555   0.207   2.055   3.356
 3219SOL    HW110556   0.180   2.053   3.452
 3219SOL    HW210557   0.282   2.120   3.344
 3220SOL     OW10558   6.600   6.613   6.036
 3220SOL    HW110559   6.627   6.677   6.108
 3220SOL    HW210560   6.676   6.599   5.973
 3221SOL     OW10561   2.992   6.871   1.775
 3221SOL    HW110562   3.074   6.921   1.750
 3221SOL    HW210563   2.945   6.840   1.692
 3222SOL     OW10564   4.185   1.330   3.080
 3222SOL    HW110565   4.139   1.387   3.012
 3222SOL    HW210566   4.162   1.363   3.172
 3223SOL     OW10567   2.191   5.755   0.066
 3223SOL    HW110568   2.203   5.765   6.988
 3223SOL    HW210569   2.280   5.764   0.111
 3224SOL     OW10570   4.628   3.488   6.297
 3224SOL    HW110571   4.528   3.488   6.295
 3224SOL    HW210572   4.660   3.403   6.338
 3225SOL     OW10573   4.406   3.479   5.517
 3225SOL    HW110574   4.381   3.387   5.485
 3225SOL    HW210575   4.328   3.519   5.565
 3226SOL     OW10576   1.287   2.066   4.440
 3226SOL    HW110577   1.295   2.161   4.471
 3226SOL    HW210578   1.232   2.063   4.356
 3227SOL     OW10579   2.886   2.222   6.195
 3227SOL    HW110580   2.858   2.126   6.187
 3227SOL    HW210581   2.835   2.265   6.270
 3228SOL     OW10582   5.669   4.122   3.034
 3228SOL    HW110583   5.627   4.159   2.951
 3228SOL    HW210584   5.725   4.192   3.077
 3229SOL     OW10585   3.002   1.861   5.308
 3229SOL    HW110586   3.049   1.942   5.274
 3229SOL    HW210587   3.068   1.788   5.323
 3230SOL     OW10588   1.471   3.196   4.116
 3230SOL    HW110589   1.535   3.223   4.044
 3230SOL    HW210590   1.377   3.210   4.085
 3231SOL     OW10591   2.435   0.244   1.814
 3231SOL    HW110592   2.352   0.280   1.771
 3231SOL    HW210593   2.443   0.146   1.794
 3232SOL     OW10594   3.971   5.225   4.895
 3232SOL    HW110595   3.955   5.296   4.826
 3232SOL    HW210596   3.883   5.196   4.933
 3233SOL     OW10597   1.030   2.723   1.506
 3233SOL    HW110598   1.055   2.787   1.579
 3233SOL    HW210599   1.108   2.711   1.444
 3234SOL     OW10600   0.085   1.711   0.469
 3234SOL    HW110601   0.042   1.654   0.539
 3234SOL    HW210602   0.096   1.658   0.385
 3235SOL     OW10603   4.867   0.746   1.454
 3235SOL    HW110604   4.957   0.789   1.461
 3235SOL    HW210605   4.878   0.647   1.447
 3236SOL     OW10606   1.602   3.368   0.455
 3236SOL    HW110607   1.520   3.424   0.467
 3236SOL    HW210608   1.660   3.409   0.384
 3237SOL     OW10609   5.490   1.120   3.399
 3237SOL    HW110610   5.414   1.091   3.340
 3237SOL    HW210611   5.533   1.040   3.441
 3238SOL     OW10612   0.258   4.919   0.806
 3238SOL    HW110613   0.321   4.930   0.883
 3238SOL    HW210614   0.259   5.001   0.749
 3239SOL     OW10615   6.178   1.673   0.602
 3239SOL    HW110616   6.243   1.597   0.593
 3239SOL    HW210617   6.115   1.672   0.524
 3240SOL     OW10618   1.106   5.863   5.409
 3240SOL    HW110619   1.205   5.851   5.398
 3240SOL    HW210620   1.058   5.790   5.359
 3241SOL     OW10621   4.779   1.405   4.252
 3241SOL    HW110622   4.833   1.428   4.171
 3241SOL    HW210623   4.809   1.317   4.288
 3242SOL     OW10624   3.261   4.689   1.213
 3242SOL    HW110625   3.187   4.631   1.246
 3242SOL    HW210626   3.223   4.776   1.180
 3243SOL     OW10627   5.296   4.740   0.199
 3243SOL    HW110628   5.381   4.700   0.164
 3243SOL    HW210629   5.276   4.825   0.151
 3244SOL     OW10630   5.227   6.029   0.667
 3244SOL    HW110631   5.181   6.103   0.616
 3244SOL    HW210632   5.161   5.959   0.692
 3245SOL     OW10633   5.080   2.594   5.417
 3245SOL    HW110634   5.003   2.548   5.373
 3245SOL    HW210635   5.164   2.541   5.403
 3246SOL     OW10636   6.048   0.894   2.989
 3246SOL    HW110637   6.109   0.941   2.925
 3246SOL    HW210638   6.011   0.960   3.054
 3247SOL     OW10639   6.407   4.481   3.414
 3247SOL    HW110640   6.452   4.395   3.391
 3247SOL    HW210641   6.474   4.555   3.414
 3248SOL     OW10642   6.281   3.124   1.624
 3248SOL    HW110643   6.220   3.170   1.689
 3248SOL    HW210644   6.238   3.040   1.591
 3249SOL     OW10645   3.342   3.524   4.801
 3249SOL    HW110646   3.291   3.576   4.732
 3249SOL    HW210647   3.385   3.445   4.757
 3250SOL     OW10648   5.211   6.999   2.499
 3250SOL    HW110649   5.196   6.900   2.499
 3250SOL    HW210650   5.254   0.005   2.585
 3251SOL     OW10651   3.721   0.803   2.216
 3251SOL    HW110652   3.748   0.787   2.121
 3251SOL    HW210653   3.748   0.896   2.242
 3252SOL     OW10654   2.605   1.897   2.110
 3252SOL    HW110655   2.600   1.844   2.194
 3252SOL    HW210656   2.562   1.986   2.124
 3253SOL     OW10657   5.980   3.310   2.681
 3253SOL    HW110658   6.001   3.221   2.722
 3253SOL    HW210659   5.928   3.296   2.597
 3254SOL     OW10660   4.726   5.776   6.175
 3254SOL    HW110661   4.634   5.758   6.140
 3254SOL    HW210662   4.780   5.821   6.104
 3255SOL     OW10663   5.000   6.250   1.899
 3255SOL    HW110664   4.917   6.204   1.869
 3255SOL    HW210665   4.983   6.348   1.908
 3256SOL     OW10666   4.873   0.580   0.371
 3256SOL    HW110667   4.800   0.649   0.374
 3256SOL    HW210668   4.839   0.499   0.324
 3257SOL     OW10669   1.368   2.190   1.300
 3257SOL    HW110670   1.451   2.158   1.346
 3257SOL    HW210671   1.306   2.231   1.368
 3258SOL     OW10672   3.925   4.889   1.957
 3258SOL    HW110673   3.851   4.824   1.973
 3258SOL    HW210674   3.994   4.847   1.898
 3259SOL     OW10675   4.518   5.791   3.782
 3259SOL    HW110676   4.586   5.789   3.855
 3259SOL    HW210677   4.540   5.865   3.717
 3260SOL     OW10678   1.843   1.777   1.156
 3260SOL    HW110679   1.761   1.751   1.207
 3260SOL    HW210680   1.870   1.701   1.097
 3261SOL     OW10681   4.748   6.599   0.624
 3261SOL    HW110682   4.750   6.553   0.535
 3261SOL    HW210683   4.838   6.591   0.667
 3262SOL     OW10684   3.376   2.110   2.714
 3262SOL    HW110685   3.305   2.111   2.784
 3262SOL    HW210686   3.355   2.040   2.646
 3263SOL     OW10687   3.567   1.378   4.269
 3263SOL    HW110688   3.494   1.353   4.332
 3263SOL    HW210689   3.625   1.448   4.311
 3264SOL     OW10690   1.388   4.413   1.068
 3264SOL    HW110691   1.417   4.448   0.979
 3264SOL    HW210692   1.317   4.344   1.055
 3265SOL     OW10693   4.482   1.897   5.798
 3265SOL    HW110694   4.510   1.801   5.798
 3265SOL    HW210695   4.503   1.938   5.709
 3266SOL     OW10696   0.619   2.994   0.365
 3266SOL    HW110697   0.596   2.923   0.299
 3266SOL    HW210698   0.701   2.967   0.416
 3267SOL     OW10699   4.049   1.133   0.213
 3267SOL    HW110700   4.095   1.121   0.301
 3267SOL    HW210701   4.069   1.224   0.177
 3268SOL     OW10702   1.635   4.669   0.327
 3268SOL    HW110703   1.698   4.622   0.389
 3268SOL    HW210704   1.553   4.696   0.377
 3269SOL     OW10705   4.432   4.904   1.348
 3269SOL    HW110706   4.335   4.914   1.327
 3269SOL    HW210707   4.449   4.811   1.382
 3270SOL     OW10708   1.512   4.651   5.507
 3270SOL    HW110709   1.604   4.640   5.544
 3270SOL    HW210710   1.493   4.748   5.492
 3271SOL     OW10711   5.476   3.939   3.109
 3271SOL    HW110712   5.550   4.005   3.094
 3271SOL    HW210713   5.393   3.988   3.134
 3272SOL     OW10714   3.557   3.788   6.916
 3272SOL    HW110715   3.466   3.828   6.921
 3272SOL    HW210716   3.593   3.797   6.823
 3273SOL     OW10717   0.498   6.187   2.151
 3273SOL    HW110718   0.469   6.100   2.110
 3273SOL    HW210719   0.556   6.236   2.086
 3274SOL     OW10720   3.569   1.521   1.301
 3274SOL    HW110721   3.615   1.473   1.376
 3274SOL    HW210722   3.590   1.476   1.215
 3275SOL     OW10723   1.032   0.617   6.608
 3275SOL    HW110724   1.018   0.542   6.673
 3275SOL    HW210725   0.989   0.594   6.521
 3276SOL     OW10726   3.657   5.535   6.985
 3276SOL    HW110727   3.737   5.476   6.998
 3276SOL    HW210728   3.668   5.588   6.900
 3277SOL     OW10729   5.204   0.266   6.954
 3277SOL    HW110730   5.278   0.205   6.983
 3277SOL    HW210731   5.118   0.236   6.996
 3278SOL     OW10732   0.207   0.973   5.953
 3278SOL    HW110733   0.132   1.032   5.982
 3278SOL    HW210734   0.173   0.904   5.890
 3279SOL     OW10735   6.942   0.847   0.934
 3279SOL    HW110736   6.938   0.947   0.935
 3279SOL    HW210737   6.854   0.810   0.904
 3280SOL     OW10738   3.617   4.676   5.564
 3280SOL    HW110739   3.600   4.767   5.600
 3280SOL    HW210740   3.530   4.631   5.544
 3281SOL     OW10741   1.866   5.574   0.654
 3281SOL    HW110742   1.881   5.608   0.747
 3281SOL    HW210743   1.769   5.581   0.631
 3282SOL     OW10744   1.979   5.341   4.546
 3282SOL    HW110745   1.920   5.270   4.586
 3282SOL    HW210746   1.922   5.409   4.500
 3283SOL     OW10747   3.182   1.321   1.095
 3283SOL    HW110748   3.214   1.286   1.183
 3283SOL    HW210749   3.259   1.325   1.031
 3284SOL     OW10750   6.145   6.240   0.007
 3284SOL    HW110751   6.146   6.246   6.928
 3284SOL    HW210752   6.239   6.238   0.041
 3285SOL     OW10753   5.877   2.992   3.084
 3285SOL    HW110754   5.780   2.999   3.061
 3285SOL    HW210755   5.917   2.915   3.035
 3286SOL     OW10756   4.072   3.705   2.842
 3286SOL    HW110757   4.021   3.791   2.853
 3286SOL    HW210758   4.119   3.684   2.928
 3287SOL     OW10759   1.612   5.966   0.468
 3287SOL    HW110760   1.641   6.057   0.499
 3287SOL    HW210761   1.513   5.966   0.454
 3288SOL     OW10762   0.741   5.398   6.688
 3288SOL    HW110763   0.747   5.498   6.682
 3288SOL    HW210764   0.808   5.365   6.755
 3289SOL     OW10765   2.303   6.861   5.254
 3289SOL    HW110766   2.208   6.879   5.228
 3289SOL    HW210767   2.322   6.902   5.343
 3290SOL     OW10768   0.296   6.695   1.599
 3290SOL    HW110769   0.369   6.724   1.661
 3290SOL    HW210770   0.316   6.729   1.507
 3291SOL     OW10771   0.884   5.821   0.056
 3291SOL    HW110772   0.959   5.820   7.011
 3291SOL    HW210773   0.812   5.758   0.025
 3292SOL     OW10774   0.458   0.820   6.801
 3292SOL    HW110775   0.362   0.806   6.827
 3292SOL    HW210776   0.498   0.891   6.858
 3293SOL     OW10777   6.687   3.399   3.358
 3293SOL    HW110778   6.680   3.306   3.393
 3293SOL    HW210779   6.638   3.406   3.272
 3294SOL     OW10780   0.599   1.279   6.338
 3294SOL    HW110781   0.694   1.307   6.325
 3294SOL    HW210782   0.569   1.304   6.430
 3295SOL     OW10783   1.797   3.170   2.162
 3295SOL    HW110784   1.708   3.181   2.117
 3295SOL    HW210785   1.838   3.083   2.135
 3296SOL     OW10786   1.916   6.284   1.675
 3296SOL    HW110787   1.820   6.311   1.686
 3296SOL    HW210788   1.934   6.202   1.729
 3297SOL     OW10789   2.879   6.954   4.885
 3297SOL    HW110790   2.917   6.940   4.793
 3297SOL    HW210791   2.878   0.031   4.906
 3298SOL     OW10792   6.255   2.019   3.941
 3298SOL    HW110793   6.290   2.110   3.918
 3298SOL    HW210794   6.161   2.027   3.974
 3299SOL     OW10795   2.174   6.267   4.125
 3299SOL    HW110796   2.093   6.307   4.083
 3299SOL    HW210797   2.251   6.330   4.117
 3300SOL     OW10798   0.693   0.648   6.050
 3300SOL    HW110799   0.702   0.604   6.139
 3300SOL    HW210800   0.721   0.585   5.978
 3301SOL     OW10801   2.183   3.331   3.530
 3301SOL    HW110802   2.282   3.337   3.542
 3301SOL    HW210803   2.160   3.354   3.436
 3302SOL     OW10804   1.382   5.881   5.541
 3302SOL    HW110805   1.389   5.930   5.454
 3302SOL    HW210806   1.443   5.802   5.539
 3303SOL     OW10807   3.620   2.899   1.423
 3303SOL    HW110808   3.685   2.864   1.491
 3303SOL    HW210809   3.565   2.972   1.464
 3304SOL     OW10810   1.614   5.483   4.062
 3304SOL    HW110811   1.545   5.416   4.035
 3304SOL    HW210812   1.645   5.463   4.155
 3305SOL     OW10813   2.366   1.310   3.083
 3305SOL    HW110814   2.292   1.276   3.141
 3305SOL    HW210815   2.451   1.316   3.136
 3306SOL     OW10816   2.281   5.714   3.525
 3306SOL    HW110817   2.344   5.752   3.594
 3306SOL    HW210818   2.215   5.784   3.498
 3307SOL     OW10819   6.907   5.826   6.385
 3307SOL    HW110820   6.863   5.912   6.361
 3307SOL    HW210821   7.000   5.825   6.348
 3308SOL     OW10822   4.505   6.171   6.587
 3308SOL    HW110823   4.571   6.108   6.544
 3308SOL    HW210824   4.541   6.200   6.676
 3309SOL     OW10825   0.981   5.051   2.485
 3309SOL    HW110826   0.967   5.143   2.521
 3309SOL    HW210827   0.925   4.987   2.537
 3310SOL     OW10828   6.185   4.201   4.965
 3310SOL    HW110829   6.214   4.294   4.940
 3310SOL    HW210830   6.177   4.146   4.882
 3311SOL     OW10831   2.267   4.117   2.045
 3311SOL    HW110832   2.218   4.042   2.000
 3311SOL    HW210833   2.266   4.198   1.987
 3312SOL     OW10834   3.598   4.298   5.768
 3312SOL    HW110835   3.510   4.310   5.814
 3312SOL    HW210836   3.660   4.372   5.795
 3313SOL     OW10837   6.971   5.753   2.243
 3313SOL    HW110838   6.988   5.821   2.315
 3313SOL    HW210839   6.979   5.661   2.282
 3314SOL     OW10840   1.607   1.732   4.510
 3314SOL    HW110841   1.523   1.678   4.516
 3314SOL    HW210842   1.655   1.709   4.426
 3315SOL     OW10843   6.269   3.659   4.094
 3315SOL    HW110844   6.323   3.591   4.144
 3315SOL    HW210845   6.328   3.732   4.061
 3316SOL     OW10846   3.797   1.523   6.224
 3316SOL    HW110847   3.809   1.579   6.307
 3316SOL    HW210848   3.701   1.499   6.214
 3317SOL     OW10849   4.776   3.255   1.706
 3317SOL    HW110850   4.690   3.306   1.702
 3317SOL    HW210851   4.759   3.165   1.746
 3318SOL     OW10852   3.047   0.124   0.734
 3318SOL    HW110853   3.014   0.090   0.646
 3318SOL    HW210854   2.992   0.202   0.762
 3319SOL     OW10855   6.094   7.019   4.483
 3319SOL    HW110856   6.054   0.056   4.554
 3319SOL    HW210857   6.032   6.943   4.462
 3320SOL     OW10858   5.492   0.990   5.300
 3320SOL    HW110859   5.534   1.071   5.341
 3320SOL    HW210860   5.488   0.917   5.367
 3321SOL     OW10861   3.552   2.169   1.686
 3321SOL    HW110862   3.458   2.169   1.721
 3321SOL    HW210863   3.611   2.220   1.748
 3322SOL     OW10864   5.263   3.375   1.616
 3322SOL    HW110865   5.305   3.328   1.539
 3322SOL    HW210866   5.206   3.311   1.668
 3323SOL     OW10867   2.338   4.245   6.398
 3323SOL    HW110868   2.330   4.153   6.437
 3323SOL    HW210869   2.391   4.240   6.313
 3324SOL     OW10870   1.172   4.208   6.361
 3324SOL    HW110871   1.118   4.200   6.277
 3324SOL    HW210872   1.237   4.132   6.366
 3325SOL     OW10873   2.186   2.783   6.539
 3325SOL    HW110874   2.181   2.714   6.611
 3325SOL    HW210875   2.162   2.873   6.577
 3326SOL     OW10876   5.823   1.518   2.225
 3326SOL    HW110877   5.805   1.527   2.127
 3326SOL    HW210878   5.782   1.432   2.257
 3327SOL     OW10879   3.491   6.549   1.724
 3327SOL    HW110880   3.493   6.544   1.824
 3327SOL    HW210881   3.491   6.456   1.687
 3328SOL     OW10882   4.142   1.905   2.511
 3328SOL    HW110883   4.131   1.968   2.434
 3328SOL    HW210884   4.230   1.858   2.504
 3329SOL     OW10885   5.028   0.865   4.573
 3329SOL    HW110886   5.065   0.793   4.633
 3329SOL    HW210887   5.085   0.872   4.491
 3330SOL     OW10888   6.114   6.331   1.381
 3330SOL    HW110889   6.151   6.334   1.474
 3330SOL    HW210890   6.042   6.400   1.371
 3331SOL     OW10891   0.703   3.668   2.129
 3331SOL    HW110892   0.605   3.675   2.107
 3331SOL    HW210893   0.714   3.648   2.226
 3332SOL     OW10894   6.371   4.288   0.319
 3332SOL    HW110895   6.311   4.270   0.396
 3332SOL    HW210896   6.382   4.387   0.308
 3333SOL     OW10897   3.025   3.882   6.800
 3333SOL    HW110898   3.020   3.819   6.878
 3333SOL    HW210899   3.067   3.967   6.829
 3334SOL     OW10900   2.071   3.621   2.477
 3334SOL    HW110901   2.060   3.605   2.379
 3334SOL    HW210902   2.087   3.534   2.523
 3335SOL     OW10903   4.612   0.006   6.337
 3335SOL    HW110904   4.597   7.004   6.433
 3335SOL    HW210905   4.565   6.960   6.279
 3336SOL     OW10906   1.990   6.491   4.501
 3336SOL    HW110907   1.920   6.550   4.461
 3336SOL    HW210908   1.985   6.400   4.460
 3337SOL     OW10909   2.689   4.053   1.263
 3337SOL    HW110910   2.708   4.111   1.342
 3337SOL    HW210911   2.610   3.995   1.283
 3338SOL     OW10912   6.996   2.555   1.285
 3338SOL    HW110913   6.999   2.647   1.323
 3338SOL    HW210914   0.054   2.539   1.227
 3339SOL     OW10915   1.359   0.023   6.714
 3339SOL    HW110916   1.285   0.075   6.756
 3339SOL    HW210917   1.334   6.948   6.707
 3340SOL     OW10918   3.504   0.985   3.915
 3340SOL    HW110919   3.491   0.913   3.847
 3340SOL    HW210920   3.512   1.073   3.870
 3341SOL     OW10921   1.973   4.404   3.936
 3341SOL    HW110922   2.024   4.335   3.884
 3341SOL    HW210923   1.987   4.494   3.895
 3342SOL     OW10924   1.260   0.195   3.709
 3342SOL    HW110925   1.357   0.197   3.730
 3342SOL    HW210926   1.211   0.149   3.784
 3343SOL     OW10927   5.281   4.562   6.831
 3343SOL    HW110928   5.296   4.569   6.732
 3343SOL    HW210929   5.210   4.627   6.858
 3344SOL     OW10930   5.917   3.801   4.304
 3344SOL    HW110931   5.820   3.818   4.287
 3344SOL    HW210932   5.962   3.887   4.326
 3345SOL     OW10933   1.257   4.451   6.225
 3345SOL    HW110934   1.337   4.487   6.273
 3345SOL    HW210935   1.234   4.361   6.261
 3346SOL     OW10936   0.724   0.770   0.103
 3346SOL    HW110937   0.676   0.825   0.035
 3346SOL    HW210938   0.733   0.676   0.069
 3347SOL     OW10939   1.118   3.363   5.991
 3347SOL    HW110940   1.052   3.404   6.055
 3347SOL    HW210941   1.210   3.371   6.029
 3348SOL     OW10942   4.035   3.454   4.770
 3348SOL    HW110943   3.943   3.489   4.753
 3348SOL    HW210944   4.043   3.425   4.865
 3349SOL     OW10945   2.221   5.118   2.991
 3349SOL    HW110946   2.319   5.135   2.978
 3349SOL    HW210947   2.203   5.020   2.981
 3350SOL     OW10948   0.236   3.049   5.595
 3350SOL    HW110949   0.183   3.063   5.679
 3350SOL    HW210950   0.282   3.134   5.570
 3351SOL     OW10951   4.748   1.345   1.794
 3351SOL    HW110952   4.842   1.380   1.792
 3351SOL    HW210953   4.705   1.371   1.881
 3352SOL     OW10954   6.218   2.524   0.764
 3352SOL    HW110955   6.265   2.574   0.691
 3352SOL    HW210956   6.255   2.552   0.853
 3353SOL     OW10957   3.238   5.920   1.582
 3353SOL    HW110958   3.148   5.954   1.610
 3353SOL    HW210959   3.235   5.820   1.577
 3354SOL     OW10960   4.478   2.547   5.357
 3354SOL    HW110961   4.569   2.586   5.370
 3354SOL    HW210962   4.411   2.621   5.351
 3355SOL     OW10963   1.886   1.816   5.721
 3355SOL    HW110964   1.904   1.735   5.777
 3355SOL    HW210965   1.856   1.788   5.630
 3356SOL     OW10966   0.676   5.630   5.895
 3356SOL    HW110967   0.643   5.724   5.886
 3356SOL    HW210968   0.615   5.569   5.845
 3357SOL     OW10969   3.197   3.449   2.193
 3357SOL    HW110970   3.227   3.476   2.284
 3357SOL    HW210971   3.112   3.497   2.171
 3358SOL     OW10972   4.670   1.600   2.694
 3358SOL    HW110973   4.719   1.525   2.648
 3358SOL    HW210974   4.584   1.617   2.646
 3359SOL     OW10975   0.169   5.920   2.939
 3359SOL    HW110976   0.145   5.853   2.869
 3359SOL    HW210977   0.096   5.927   3.006
 3360SOL     OW10978   0.812   1.459   6.478
 3360SOL    HW110979   0.888   1.398   6.497
 3360SOL    HW210980   0.836   1.521   6.404
 3361SOL     OW10981   6.847   5.486   4.818
 3361SOL    HW110982   6.782   5.511   4.746
 3361SOL    HW210983   6.915   5.423   4.781
 3362SOL     OW10984   3.516   1.698   2.477
 3362SOL    HW110985   3.443   1.752   2.435
 3362SOL    HW210986   3.512   1.604   2.443
 3363SOL     OW10987   6.831   2.127   1.570
 3363SOL    HW110988   6.791   2.208   1.528
 3363SOL    HW210989   6.764   2.083   1.630
 3364SOL     OW10990   2.171   4.459   3.698
 3364SOL    HW110991   2.117   4.447   3.615
 3364SOL    HW210992   2.177   4.556   3.721
 3365SOL     OW10993   6.658   3.126   5.031
 3365SOL    HW110994   6.614   3.157   4.946
 3365SOL    HW210995   6.753   3.102   5.013
 3366SOL     OW10996   5.369   4.637   4.367
 3366SOL    HW110997   5.321   4.683   4.442
 3366SOL    HW210998   5.467   4.657   4.374
 3367SOL     OW10999   3.893   3.926   2.881
 3367SOL    HW111000   3.913   3.932   2.979
 3367SOL    HW211001   3.819   3.861   2.866
 3368SOL     OW11002   0.288   5.618   6.502
 3368SOL    HW111003   0.361   5.555   6.475
 3368SOL    HW211004   0.327   5.696   6.551
 3369SOL     OW11005   3.937   2.004   0.903
 3369SOL    HW111006   3.856   2.047   0.944
 3369SOL    HW211007   3.957   2.048   0.816
 3370SOL     OW11008   6.766   6.516   1.425
 3370SOL    HW111009   6.801   6.482   1.338
 3370SOL    HW211010   6.752   6.440   1.488
 3371SOL     OW11011   2.205   3.213   1.785
 3371SOL    HW111012   2.222   3.301   1.829
 3371SOL    HW211013   2.286   3.186   1.733
 3372SOL     OW11014   7.001   2.094   0.102
 3372SOL    HW111015   0.047   2.051   0.163
 3372SOL    HW211016   6.909   2.067   0.128
 3373SOL     OW11017   0.153   2.249   4.126
 3373SOL    HW111018   0.248   2.259   4.095
 3373SOL    HW211019   0.102   2.192   4.062
 3374SOL     OW11020   0.817   6.707   4.055
 3374SOL    HW111021   0.719   6.695   4.070
 3374SOL    HW211022   0.867   6.673   4.135
 3375SOL     OW11023   0.047   4.841   0.538
 3375SOL    HW111024   7.018   4.925   0.516
 3375SOL    HW211025   0.064   4.837   0.636
 3376SOL     OW11026   3.586   2.845   4.860
 3376SOL    HW111027   3.513   2.791   4.817
 3376SOL    HW211028   3.561   2.865   4.955
 3377SOL     OW11029   0.131   5.317   5.818
 3377SOL    HW111030   0.058   5.251   5.802
 3377SOL    HW211031   0.133   5.343   5.915
 3378SOL     OW11032   1.577   6.257   0.237
 3378SOL    HW111033   1.496   6.211   0.272
 3378SOL    HW211034   1.568   6.356   0.250
 3379SOL     OW11035   0.672   2.069   4.843
 3379SOL    HW111036   0.693   2.163   4.817
 3379SOL    HW211037   0.593   2.037   4.791
 3380SOL     OW11038   4.895   6.378   5.220
 3380SOL    HW111039   4.987   6.417   5.221
 3380SOL    HW211040   4.875   6.338   5.309
 3381SOL     OW11041   6.569   2.779   0.877
 3381SOL    HW111042   6.567   2.870   0.920
 3381SOL    HW211043   6.488   2.728   0.905
 3382SOL     OW11044   0.653   2.737   6.369
 3382SOL    HW111045   0.666   2.834   6.388
 3382SOL    HW211046   0.734   2.686   6.399
 3383SOL     OW11047   3.548   5.291   0.843
 3383SOL    HW111048   3.529   5.389   0.835
 3383SOL    HW211049   3.541   5.248   0.753
 3384SOL     OW11050   1.701   3.519   0.836
 3384SOL    HW111051   1.687   3.420   0.844
 3384SOL    HW211052   1.796   3.537   0.812
 3385SOL     OW11053   6.969   3.655   4.555
 3385SOL    HW111054   6.984   3.584   4.486
 3385SOL    HW211055   6.879   3.695   4.543
 3386SOL     OW11056   5.431   3.911   6.712
 3386SOL    HW111057   5.346   3.956   6.685
 3386SOL    HW211058   5.471   3.865   6.633
 3387SOL     OW11059   4.818   0.178   3.596
 3387SOL    HW111060   4.842   0.266   3.638
 3387SOL    HW211061   4.745   0.135   3.649
 3388SOL     OW11062   5.828   3.242   2.442
 3388SOL    HW111063   5.793   3.154   2.411
 3388SOL    HW211064   5.751   3.299   2.471
 3389SOL     OW11065   6.552   5.970   5.880
 3389SOL    HW111066   6.483   5.899   5.864
 3389SOL    HW211067   6.566   5.982   5.978
 3390SOL     OW11068   5.162   0.172   5.953
 3390SOL    HW111069   5.136   0.123   5.870
 3390SOL    HW211070   5.162   0.270   5.935
 3391SOL     OW11071   4.920   2.523   3.676
 3391SOL    HW111072   4.864   2.513   3.594
 3391SOL    HW211073   4.963   2.435   3.697
 3392SOL     OW11074   3.654   6.323   4.267
 3392SOL    HW111075   3.631   6.242   4.214
 3392SOL    HW211076   3.639   6.304   4.364
 3393SOL     OW11077   6.080   6.178   0.713
 3393SOL    HW111078   6.010   6.248   0.731
 3393SOL    HW211079   6.168   6.211   0.749
 3394SOL     OW11080   5.088   3.878   0.765
 3394SOL    HW111081   5.094   3.794   0.710
 3394SOL    HW211082   5.107   3.957   0.707
 3395SOL     OW11083   5.057   2.383   3.054
 3395SOL    HW111084   5.128   2.313   3.042
 3395SOL    HW211085   4.981   2.344   3.108
 3396SOL     OW11086   5.793   0.956   3.589
 3396SOL    HW111087   5.862   0.888   3.614
 3396SOL    HW211088   5.834   1.047   3.588
 3397SOL     OW11089   3.482   4.952   6.396
 3397SOL    HW111090   3.503   4.906   6.310
 3397SOL    HW211091   3.421   4.895   6.451
 3398SOL     OW11092   1.599   0.465   4.741
 3398SOL    HW111093   1.635   0.469   4.834
 3398SOL    HW211094   1.554   0.552   4.719
 3399SOL     OW11095   5.603   5.339   3.301
 3399SOL    HW111096   5.638   5.385   3.220
 3399SOL    HW211097   5.637   5.245   3.303
 3400SOL     OW11098   5.382   3.404   6.835
 3400SOL    HW111099   5.298   3.449   6.806
 3400SOL    HW211100   5.359   3.318   6.882
 3401SOL     OW11101   6.394   4.208   6.606
 3401SOL    HW111102   6.383   4.121   6.655
 3401SOL    HW211103   6.406   4.191   6.508
 3402SOL     OW11104   5.762   5.773   6.319
 3402SOL    HW111105   5.829   5.841   6.289
 3402SOL    HW211106   5.809   5.700   6.369
 3403SOL     OW11107   5.104   5.305   6.790
 3403SOL    HW111108   5.089   5.358   6.707
 3403SOL    HW211109   5.120   5.367   6.867
 3404SOL     OW11110   5.158   2.538   0.662
 3404SOL    HW111111   5.221   2.469   0.699
 3404SOL    HW211112   5.116   2.588   0.738
 3405SOL     OW11113   5.758   4.110   6.629
 3405SOL    HW111114   5.838   4.133   6.575
 3405SOL    HW211115   5.787   4.078   6.719
 3406SOL     OW11116   0.853   3.157   2.609
 3406SOL    HW111117   0.873   3.150   2.511
 3406SOL    HW211118   0.785   3.087   2.633
 3407SOL     OW11119   1.930   4.347   0.153
 3407SOL    HW111120   1.972   4.427   0.198
 3407SOL    HW211121   1.991   4.315   0.080
 3408SOL     OW11122   5.037   2.746   4.501
 3408SOL    HW111123   5.134   2.724   4.516
 3408SOL    HW211124   4.996   2.776   4.587
 3409SOL     OW11125   4.116   6.110   0.213
 3409SOL    HW111126   4.018   6.132   0.211
 3409SOL    HW211127   4.163   6.165   0.144
 3410SOL     OW11128   6.807   6.546   1.883
 3410SOL    HW111129   6.899   6.548   1.843
 3410SOL    HW211130   6.759   6.464   1.852
 3411SOL     OW11131   0.358   2.979   0.538
 3411SOL    HW111132   0.443   2.942   0.499
 3411SOL    HW211133   0.295   2.903   0.556
 3412SOL     OW11134   5.113   3.613   1.590
 3412SOL    HW111135   5.169   3.536   1.621
 3412SOL    HW211136   5.026   3.613   1.639
 3413SOL     OW11137   6.260   1.206   0.703
 3413SOL    HW111138   6.245   1.120   0.750
 3413SOL    HW211139   6.355   1.212   0.673
 3414SOL     OW11140   3.518   1.877   5.669
 3414SOL    HW111141   3.497   1.779   5.672
 3414SOL    HW211142   3.613   1.892   5.696
 3415SOL     OW11143   2.154   2.388   4.099
 3415SOL    HW111144   2.077   2.359   4.156
 3415SOL    HW211145   2.127   2.386   4.003
 3416SOL     OW11146   5.196   0.464   0.269
 3416SOL    HW111147   5.293   0.439   0.264
 3416SOL    HW211148   5.154   0.452   0.180
 3417SOL     OW11149   0.399   6.308   4.279
 3417SOL    HW111150   0.329   6.340   4.215
 3417SOL    HW211151   0.486   6.296   4.231
 3418SOL     OW11152   4.182   5.692   3.329
 3418SOL    HW111153   4.134   5.604   3.325
 3418SOL    HW211154   4.159   5.746   3.248
 3419SOL     OW11155   3.482   5.178   5.998
 3419SOL    HW111156   3.434   5.174   5.911
 3419SOL    HW211157   3.564   5.235   5.989
 3420SOL     OW11158   5.836   3.566   3.567
 3420SOL    HW111159   5.896   3.646   3.565
 3420SOL    HW211160   5.888   3.484   3.544
 3421SOL     OW11161   5.035   1.771   3.426
 3421SOL    HW111162   5.020   1.867   3.401
 3421SOL    HW211163   4.982   1.712   3.366
 3422SOL     OW11164   2.264   0.266   0.184
 3422SOL    HW111165   2.239   0.194   0.120
 3422SOL    HW211166   2.285   0.227   0.273
 3423SOL     OW11167   7.014   4.868   6.256
 3423SOL    HW111168   6.983   4.963   6.256
 3423SOL    HW211169   0.003   4.837   6.161
 3424SOL     OW11170   2.915   6.661   1.212
 3424SOL    HW111171   2.986   6.647   1.281
 3424SOL    HW211172   2.884   6.756   1.214
 3425SOL     OW11173   5.181   4.688   2.605
 3425SOL    HW111174   5.190   4.786   2.589
 3425SOL    HW211175   5.100   4.670   2.661
 3426SOL     OW11176   5.098   2.663   1.273
 3426SOL    HW111177   5.000   2.680   1.280
 3426SOL    HW211178   5.138   2.657   1.365
 3427SOL     OW11179   1.056   2.078   1.422
 3427SOL    HW111180   0.961   2.060   1.447
 3427SOL    HW211181   1.103   2.121   1.499
 3428SOL     OW11182   3.598   4.518   0.129
 3428SOL    HW111183   3.601   4.424   0.095
 3428SOL    HW211184   3.692   4.552   0.142
 3429SOL     OW11185   0.485   1.864   1.127
 3429SOL    HW111186   0.513   1.805   1.052
 3429SOL    HW211187   0.490   1.814   1.213
 3430SOL     OW11188   2.521   5.429   5.345
 3430SOL    HW111189   2.478   5.519   5.356
 3430SOL    HW211190   2.620   5.440   5.334
 3431SOL     OW11191   1.703   6.027   1.937
 3431SOL    HW111192   1.632   6.098   1.931
 3431SOL    HW211193   1.755   6.038   2.021
 3432SOL     OW11194   2.535   4.624   5.973
 3432SOL    HW111195   2.518   4.688   6.048
 3432SOL    HW211196   2.466   4.635   5.902
 3433SOL     OW11197   1.181   0.821   4.699
 3433SOL    HW111198   1.179   0.919   4.721
 3433SOL    HW211199   1.149   0.769   4.778
 3434SOL     OW11200   3.650   1.856   1.796
 3434SOL    HW111201   3.721   1.926   1.792
 3434SOL    HW211202   3.602   1.852   1.708
 3435SOL     OW11203   2.332   1.294   1.008
 3435SOL    HW111204   2.292   1.383   1.029
 3435SOL    HW211205   2.430   1.305   0.988
 3436SOL     OW11206   3.463   5.814   0.091
 3436SOL    HW111207   3.563   5.814   0.078
 3436SOL    HW211208   3.419   5.842   0.005
 3437SOL     OW11209   2.648   5.916   5.576
 3437SOL    HW111210   2.574   5.879   5.633
 3437SOL    HW211211   2.683   6.000   5.618
 3438SOL     OW11212   0.504   3.532   1.439
 3438SOL    HW111213   0.575   3.539   1.509
 3438SOL    HW211214   0.418   3.506   1.482
 3439SOL     OW11215   3.411   6.175   4.122
 3439SOL    HW111216   3.352   6.095   4.109
 3439SOL    HW211217   3.370   6.255   4.078
 3440SOL     OW11218   3.548   2.908   2.287
 3440SOL    HW111219   3.497   2.868   2.211
 3440SOL    HW211220   3.495   2.982   2.328
 3441SOL     OW11221   6.779   6.067   6.311
 3441SOL    HW111222   6.691   6.055   6.264
 3441SOL    HW211223   6.845   6.106   6.248
 3442SOL     OW11224   2.518   3.871   1.369
 3442SOL    HW111225   2.466   3.832   1.446
 3442SOL    HW211226   2.455   3.919   1.308
 3443SOL     OW11227   3.764   6.103   2.026
 3443SOL    HW111228   3.838   6.169   2.033
 3443SOL    HW211229   3.787   6.021   2.079
 3444SOL     OW11230   4.861   5.512   0.255
 3444SOL    HW111231   4.828   5.471   0.170
 3444SOL    HW211232   4.808   5.596   0.274
 3445SOL     OW11233   6.035   5.298   3.092
 3445SOL    HW111234   6.000   5.356   3.165
 3445SOL    HW211235   6.077   5.216   3.132
 3446SOL     OW11236   6.208   0.383   1.518
 3446SOL    HW111237   6.196   0.482   1.525
 3446SOL    HW211238   6.207   0.356   1.421
 3447SOL     OW11239   4.982   6.523   0.733
 3447SOL    HW111240   5.057   6.507   0.668
 3447SOL    HW211241   4.985   6.452   0.804
 3448SOL     OW11242   3.529   6.705   5.983
 3448SOL    HW111243   3.624   6.722   5.960
 3448SOL    HW211244   3.482   6.791   6.002
 3449SOL     OW11245   5.911   5.019   4.688
 3449SOL    HW111246   5.900   5.117   4.705
 3449SOL    HW211247   5.925   4.972   4.775
 3450SOL     OW11248   0.897   1.818   6.480
 3450SOL    HW111249   0.855   1.898   6.436
 3450SOL    HW211250   0.996   1.832   6.487
 3451SOL     OW11251   2.557   6.377   7.000
 3451SOL    HW111252   2.602   6.312   6.940
 3451SOL    HW211253   2.473   6.411   6.957
 3452SOL     OW11254   5.408   0.743   6.482
 3452SOL    HW111255   5.475   0.738   6.408
 3452SOL    HW211256   5.428   0.822   6.540
 3453SOL     OW11257   5.540   5.724   6.488
 3453SOL    HW111258   5.567   5.726   6.584
 3453SOL    HW211259   5.615   5.755   6.430
 3454SOL     OW11260   0.933   3.788   5.079
 3454SOL    HW111261   0.979   3.721   5.137
 3454SOL    HW211262   0.847   3.817   5.122
 3455SOL     OW11263   2.447   1.754   3.924
 3455SOL    HW111264   2.350   1.776   3.932
 3455SOL    HW211265   2.502   1.825   3.969
 3456SOL     OW11266   5.672   4.843   2.356
 3456SOL    HW111267   5.620   4.849   2.441
 3456SOL    HW211268   5.755   4.899   2.364
 3457SOL     OW11269   4.661   5.754   4.011
 3457SOL    HW111270   4.633   5.706   4.094
 3457SOL    HW211271   4.710   5.838   4.036
 3458SOL     OW11272   4.300   1.717   2.349
 3458SOL    HW111273   4.215   1.677   2.313
 3458SOL    HW211274   4.319   1.803   2.302
 3459SOL     OW11275   4.837   2.456   3.432
 3459SOL    HW111276   4.859   2.362   3.456
 3459SOL    HW211277   4.823   2.463   3.333
 3460SOL     OW11278   3.102   2.001   6.546
 3460SOL    HW111279   3.156   1.931   6.499
 3460SOL    HW211280   3.091   2.080   6.485
 3461SOL     OW11281   4.702   3.668   6.926
 3461SOL    HW111282   4.714   3.724   7.008
 3461SOL    HW211283   4.685   3.573   6.953
 3462SOL     OW11284   1.127   4.014   5.074
 3462SOL    HW111285   1.054   3.954   5.108
 3462SOL    HW211286   1.214   3.964   5.074
 3463SOL     OW11287   0.674   4.323   1.084
 3463SOL    HW111288   0.606   4.319   1.157
 3463SOL    HW211289   0.635   4.371   1.005
 3464SOL     OW11290   6.921   4.387   6.783
 3464SOL    HW111291   6.962   4.427   6.701
 3464SOL    HW211292   6.860   4.454   6.826
 3465SOL     OW11293   1.939   2.650   1.965
 3465SOL    HW111294   1.878   2.725   1.992
 3465SOL    HW211295   1.916   2.620   1.873
 3466SOL     OW11296   6.796   5.361   6.028
 3466SOL    HW111297   6.779   5.390   5.934
 3466SOL    HW211298   6.727   5.294   6.054
 3467SOL     OW11299   1.675   2.934   6.357
 3467SOL    HW111300   1.623   2.965   6.277
 3467SOL    HW211301   1.772   2.935   6.336
 3468SOL     OW11302   4.188   6.518   2.767
 3468SOL    HW111303   4.168   6.489   2.673
 3468SOL    HW211304   4.287   6.531   2.777
 3469SOL     OW11305   6.301   1.452   2.681
 3469SOL    HW111306   6.297   1.499   2.769
 3469SOL    HW211307   6.250   1.504   2.613
 3470SOL     OW11308   6.990   4.479   0.527
 3470SOL    HW111309   6.892   4.458   0.530
 3470SOL    HW211310   0.022   4.395   0.517
 3471SOL     OW11311   4.226   5.112   4.925
 3471SOL    HW111312   4.132   5.134   4.898
 3471SOL    HW211313   4.237   5.129   5.023
 3472SOL     OW11314   2.297   0.385   2.877
 3472SOL    HW111315   2.301   0.321   2.953
 3472SOL    HW211316   2.388   0.395   2.836
 3473SOL     OW11317   6.584   1.639   6.671
 3473SOL    HW111318   6.610   1.559   6.725
 3473SOL    HW211319   6.666   1.684   6.636
 3474SOL     OW11320   3.297   5.248   2.093
 3474SOL    HW111321   3.371   5.312   2.114
 3474SOL    HW211322   3.336   5.157   2.076
 3475SOL     OW11323   1.043   6.429   4.724
 3475SOL    HW111324   1.083   6.402   4.637
 3475SOL    HW211325   1.115   6.444   4.792
 3476SOL     OW11326   3.280   1.469   3.183
 3476SOL    HW111327   3.253   1.499   3.091
 3476SOL    HW211328   3.265   1.371   3.192
 3477SOL     OW11329   3.247   5.652   1.560
 3477SOL    HW111330   3.266   5.603   1.645
 3477SOL    HW211331   3.229   5.586   1.487
 3478SOL     OW11332   2.774   5.498   5.365
 3478SOL    HW111333   2.788   5.595   5.384
 3478SOL    HW211334   2.861   5.450   5.373
 3479SOL     OW11335   0.653   0.442   3.548
 3479SOL    HW111336   0.640   0.389   3.463
 3479SOL    HW211337   0.716   0.392   3.608
 3480SOL     OW11338   0.130   0.407   4.893
 3480SOL    HW111339   0.156   0.503   4.896
 3480SOL    HW211340   0.123   0.377   4.798
 3481SOL     OW11341   4.389   0.141   0.017
 3481SOL    HW111342   4.396   0.149   0.117
 3481SOL    HW211343   4.460   0.198   6.996
 3482SOL     OW11344   5.637   1.677   0.584
 3482SOL    HW111345   5.699   1.752   0.610
 3482SOL    HW211346   5.585   1.704   0.503
 3483SOL     OW11347   3.533   0.928   1.538
 3483SOL    HW111348   3.582   0.957   1.456
 3483SOL    HW211349   3.511   1.008   1.593
 3484SOL     OW11350   2.904   3.650   1.869
 3484SOL    HW111351   3.001   3.629   1.853
 3484SOL    HW211352   2.873   3.717   1.802
 3485SOL     OW11353   1.384   0.280   4.715
 3485SOL    HW111354   1.358   0.222   4.792
 3485SOL    HW211355   1.457   0.342   4.743
 3486SOL     OW11356   3.168   1.309   2.446
 3486SOL    HW111357   3.079   1.263   2.449
 3486SOL    HW211358   3.204   1.303   2.353
 3487SOL     OW11359   6.051   2.098   5.985
 3487SOL    HW111360   6.125   2.032   6.002
 3487SOL    HW211361   6.064   2.178   6.044
 3488SOL     OW11362   5.763   2.863   4.420
 3488SOL    HW111363   5.671   2.900   4.416
 3488SOL    HW211364   5.788   2.826   4.330
 3489SOL     OW11365   2.869   6.485   0.770
 3489SOL    HW111366   2.879   6.406   0.710
 3489SOL    HW211367   2.950   6.543   0.763
 3490SOL     OW11368   4.614   4.399   6.698
 3490SOL    HW111369   4.525   4.371   6.733
 3490SOL    HW211370   4.652   4.471   6.756
 3491SOL     OW11371   6.008   2.927   4.047
 3491SOL    HW111372   6.033   3.012   4.094
 3491SOL    HW211373   5.911   2.930   4.023
 3492SOL     OW11374   1.005   5.870   1.007
 3492SOL    HW111375   1.050   5.959   1.012
 3492SOL    HW211376   0.932   5.872   0.938
 3493SOL     OW11377   6.518   5.357   6.961
 3493SOL    HW111378   6.437   5.413   6.977
 3493SOL    HW211379   6.534   5.298   0.020
 3494SOL     OW11380   3.983   0.397   1.412
 3494SOL    HW111381   3.948   0.340   1.337
 3494SOL    HW211382   3.928   0.383   1.494
 3495SOL     OW11383   4.351   4.770   2.287
 3495SOL    HW111384   4.370   4.672   2.281
 3495SOL    HW211385   4.416   4.813   2.350
 3496SOL     OW11386   0.553   3.094   1.447
 3496SOL    HW111387   0.559   2.998   1.475
 3496SOL    HW211388   0.508   3.146   1.519
 3497SOL     OW11389   4.064   0.107   2.863
 3497SOL    HW111390   4.013   0.094   2.948
 3497SOL    HW211391   4.027   0.184   2.813
 3498SOL     OW11392   2.624   2.478   0.275
 3498SOL    HW111393   2.704   2.458   0.219
 3498SOL    HW211394   2.644   2.553   0.338
 3499SOL     OW11395   5.351   2.440   4.543
 3499SOL    HW111396   5.284   2.466   4.472
 3499SOL    HW211397   5.442   2.438   4.503
 3500SOL     OW11398   0.380   4.294   5.376
 3500SOL    HW111399   0.443   4.252   5.310
 3500SOL    HW211400   0.433   4.336   5.450
 3501SOL     OW11401   0.570   5.236   4.084
 3501SOL    HW111402   0.470   5.231   4.086
 3501SOL    HW211403   0.609   5.151   4.119
 3502SOL     OW11404   0.010   2.552   2.072
 3502SOL    HW111405   6.976   2.547   2.156
 3502SOL    HW211406   6.984   2.609   2.005
 3503SOL     OW11407   5.549   6.407   4.980
 3503SOL    HW111408   5.451   6.403   4.964
 3503SOL    HW211409   5.574   6.497   5.014
 3504SOL     OW11410   2.634   2.849   1.538
 3504SOL    HW111411   2.634   2.795   1.622
 3504SOL    HW211412   2.568   2.811   1.473
 3505SOL     OW11413   5.598   4.994   5.154
 3505SOL    HW111414   5.509   5.039   5.164
 3505SOL    HW211415   5.669   5.050   5.195
 3506SOL     OW11416   4.455   5.773   5.622
 3506SOL    HW111417   4.509   5.698   5.585
 3506SOL    HW211418   4.500   5.811   5.703
 3507SOL     OW11419   2.032   0.392   6.992
 3507SOL    HW111420   2.067   0.341   6.913
 3507SOL    HW211421   2.097   0.386   0.047
 3508SOL     OW11422   3.818   2.347   6.231
 3508SOL    HW111423   3.805   2.299   6.144
 3508SOL    HW211424   3.860   2.436   6.213
 3509SOL     OW11425   5.097   6.527   6.591
 3509SOL    HW111426   5.136   6.573   6.511
 3509SOL    HW211427   5.073   6.596   6.660
 3510SOL     OW11428   1.916   2.613   1.673
 3510SOL    HW111429   1.955   2.530   1.633
 3510SOL    HW211430   1.819   2.618   1.650
 3511SOL     OW11431   1.647   4.497   7.020
 3511SOL    HW111432   1.730   4.552   0.009
 3511SOL    HW211433   1.641   4.430   0.072
 3512SOL     OW11434   0.557   4.156   0.355
 3512SOL    HW111435   0.501   4.166   0.437
 3512SOL    HW211436   0.630   4.091   0.372
 3513SOL     OW11437   5.755   4.497   0.790
 3513SOL    HW111438   5.698   4.423   0.826
 3513SOL    HW211439   5.701   4.551   0.724
 3514SOL     OW11440   0.656   1.055   1.979
 3514SOL    HW111441   0.728   1.125   1.981
 3514SOL    HW211442   0.590   1.077   1.907
 3515SOL     OW11443   3.973   6.855   2.467
 3515SOL    HW111444   4.065   6.862   2.428
 3515SOL    HW211445   3.975   6.888   2.561
 3516SOL     OW11446   4.395   1.023   0.780
 3516SOL    HW111447   4.365   0.976   0.697
 3516SOL    HW211448   4.491   1.001   0.799
 3517SOL     OW11449   0.623   2.145   6.919
 3517SOL    HW111450   0.688   2.215   6.950
 3517SOL    HW211451   0.665   2.055   6.930
 3518SOL     OW11452   4.913   3.991   5.412
 3518SOL    HW111453   4.865   3.956   5.332
 3518SOL    HW211454   4.946   3.915   5.467
 3519SOL     OW11455   1.915   0.291   6.555
 3519SOL    HW111456   1.925   0.355   6.632
 3519SOL    HW211457   1.828   0.308   6.509
 3520SOL     OW11458   3.335   4.658   0.881
 3520SOL    HW111459   3.323   4.592   0.807
 3520SOL    HW211460   3.254   4.716   0.888
 3521SOL     OW11461   5.410   3.029   1.305
 3521SOL    HW111462   5.442   3.119   1.333
 3521SOL    HW211463   5.311   3.028   1.301
 3522SOL     OW11464   3.675   5.652   2.413
 3522SOL    HW111465   3.588   5.605   2.397
 3522SOL    HW211466   3.750   5.587   2.404
 3523SOL     OW11467   3.010   4.367   5.696
 3523SOL    HW111468   3.020   4.464   5.677
 3523SOL    HW211469   3.092   4.317   5.666
 3524SOL     OW11470   2.531   1.127   1.334
 3524SOL    HW111471   2.516   1.065   1.411
 3524SOL    HW211472   2.450   1.183   1.319
 3525SOL     OW11473   0.503   3.330   2.427
 3525SOL    HW111474   0.519   3.428   2.437
 3525SOL    HW211475   0.470   3.310   2.335
 3526SOL     OW11476   1.278   6.826   3.562
 3526SOL    HW111477   1.191   6.828   3.513
 3526SOL    HW211478   1.262   6.802   3.658
 3527SOL     OW11479   5.765   3.206   5.764
 3527SOL    HW111480   5.745   3.278   5.697
 3527SOL    HW211481   5.703   3.129   5.750
 3528SOL     OW11482   1.251   5.564   3.428
 3528SOL    HW111483   1.335   5.513   3.444
 3528SOL    HW211484   1.175   5.519   3.476
 3529SOL     OW11485   4.047   6.676   5.532
 3529SOL    HW111486   4.095   6.758   5.501
 3529SOL    HW211487   3.999   6.696   5.618
 3530SOL     OW11488   2.273   5.056   2.623
 3530SOL    HW111489   2.195   5.093   2.571
 3530SOL    HW211490   2.351   5.117   2.611
 3531SOL     OW11491   4.961   4.654   1.400
 3531SOL    HW111492   4.959   4.578   1.465
 3531SOL    HW211493   5.048   4.703   1.408
 3532SOL     OW11494   3.046   0.301   0.416
 3532SOL    HW111495   3.136   0.300   0.459
 3532SOL    HW211496   3.003   0.211   0.427
 3533SOL     OW11497   1.209   2.180   3.257
 3533SOL    HW111498   1.158   2.122   3.194
 3533SOL    HW211499   1.154   2.259   3.282
 3534SOL     OW11500   5.907   0.945   5.190
 3534SOL    HW111501   5.881   1.041   5.179
 3534SOL    HW211502   5.943   0.930   5.282
 3535SOL     OW11503   6.479   5.752   0.550
 3535SOL    HW111504   6.470   5.652   0.555
 3535SOL    HW211505   6.565   5.780   0.592
 3536SOL     OW11506   2.119   3.202   3.906
 3536SOL    HW111507   2.188   3.184   3.836
 3536SOL    HW211508   2.038   3.243   3.864
 3537SOL     OW11509   2.770   4.603   0.148
 3537SOL    HW111510   2.803   4.510   0.158
 3537SOL    HW211511   2.699   4.607   0.078
 3538SOL     OW11512   2.121   0.793   4.063
 3538SOL    HW111513   2.040   0.789   4.005
 3538SOL    HW211514   2.158   0.700   4.075
 3539SOL     OW11515   5.937   3.914   6.049
 3539SOL    HW111516   5.925   3.826   6.095
 3539SOL    HW211517   5.928   3.988   6.116
 3540SOL     OW11518   2.206   1.795   6.118
 3540SOL    HW111519   2.207   1.879   6.173
 3540SOL    HW211520   2.299   1.774   6.088
 3541SOL     OW11521   2.671   2.945   6.745
 3541SOL    HW111522   2.753   2.927   6.800
 3541SOL    HW211523   2.606   2.871   6.757
 3542SOL     OW11524   6.327   2.712   0.590
 3542SOL    HW111525   6.302   2.799   0.548
 3542SOL    HW211526   6.427   2.708   0.599
 3543SOL     OW11527   1.632   3.191   3.893
 3543SOL    HW111528   1.573   3.169   3.816
 3543SOL    HW211529   1.701   3.258   3.864
 3544SOL     OW11530   2.001   4.757   6.396
 3544SOL    HW111531   1.962   4.717   6.479
 3544SOL    HW211532   2.057   4.836   6.421
 3545SOL     OW11533   3.668   4.891   0.344
 3545SOL    HW111534   3.635   4.879   0.250
 3545SOL    HW211535   3.731   4.968   0.347
 3546SOL     OW11536   6.861   5.115   2.923
 3546SOL    HW111537   6.841   5.191   2.985
 3546SOL    HW211538   6.889   5.151   2.834
 3547SOL     OW11539   6.641   4.120   4.985
 3547SOL    HW111540   6.668   4.159   5.073
 3547SOL    HW211541   6.616   4.024   4.997
 3548SOL     OW11542   6.047   0.694   4.780
 3548SOL    HW111543   6.109   0.621   4.808
 3548SOL    HW211544   6.003   0.734   4.860
 3549SOL     OW11545   2.094   4.700   5.677
 3549SOL    HW111546   2.116   4.753   5.595
 3549SOL    HW211547   2.052   4.613   5.650
 3550SOL     OW11548   5.563   2.444   4.401
 3550SOL    HW111549   5.559   2.465   4.303
 3550SOL    HW211550   5.657   2.418   4.425
 3551SOL     OW11551   3.311   1.761   4.716
 3551SOL    HW111552   3.379   1.813   4.663
 3551SOL    HW211553   3.269   1.692   4.657
 3552SOL     OW11554   5.823   5.885   2.240
 3552SOL    HW111555   5.835   5.976   2.280
 3552SOL    HW211556   5.771   5.828   2.304
 3553SOL     OW11557   3.611   5.327   6.443
 3553SOL    HW111558   3.559   5.402   6.401
 3553SOL    HW211559   3.580   5.314   6.537
 3554SOL     OW11560   5.051   2.714   0.870
 3554SOL    HW111561   5.025   2.793   0.814
 3554SOL    HW211562   5.149   2.718   0.891
 3555SOL     OW11563   1.263   2.045   3.836
 3555SOL    HW111564   1.166   2.031   3.852
 3555SOL    HW211565   1.286   2.141   3.852
 3556SOL     OW11566   3.596   1.038   3.475
 3556SOL    HW111567   3.566   0.992   3.392
 3556SOL    HW211568   3.647   0.974   3.532
 3557SOL     OW11569   1.146   6.572   3.743
 3557SOL    HW111570   1.175   6.651   3.798
 3557SOL    HW211571   1.091   6.604   3.666
 3558SOL     OW11572   2.839   4.615   1.363
 3558SOL    HW111573   2.762   4.592   1.304
 3558SOL    HW211574   2.815   4.599   1.458
 3559SOL     OW11575   1.556   5.701   4.494
 3559SOL    HW111576   1.471   5.652   4.511
 3559SOL    HW211577   1.552   5.746   4.404
 3560SOL     OW11578   1.811   4.838   3.120
 3560SOL    HW111579   1.895   4.877   3.083
 3560SOL    HW211580   1.765   4.906   3.177
 3561SOL     OW11581   5.014   3.897   5.895
 3561SOL    HW111582   4.936   3.947   5.931
 3561SOL    HW211583   5.093   3.958   5.887
 3562SOL     OW11584   3.353   1.892   4.047
 3562SOL    HW111585   3.370   1.825   3.975
 3562SOL    HW211586   3.328   1.845   4.131
 3563SOL     OW11587   5.852   1.884   6.028
 3563SOL    HW111588   5.900   1.970   6.011
 3563SOL    HW211589   5.802   1.890   6.115
 3564SOL     OW11590   0.485   4.826   3.502
 3564SOL    HW111591   0.406   4.801   3.447
 3564SOL    HW211592   0.553   4.871   3.445
 3565SOL     OW11593   3.920   5.368   3.103
 3565SOL    HW111594   3.837   5.327   3.142
 3565SOL    HW211595   3.912   5.371   3.004
 3566SOL     OW11596   6.555   1.079   6.020
 3566SOL    HW111597   6.541   1.043   5.927
 3566SOL    HW211598   6.582   1.004   6.080
 3567SOL     OW11599   0.626   2.431   5.963
 3567SOL    HW111600   0.660   2.505   5.905
 3567SOL    HW211601   0.610   2.464   6.055
 3568SOL     OW11602   6.065   3.772   4.807
 3568SOL    HW111603   6.153   3.733   4.836
 3568SOL    HW211604   6.024   3.712   4.738
 3569SOL     OW11605   3.146   2.000   5.704
 3569SOL    HW111606   3.120   1.963   5.615
 3569SOL    HW211607   3.171   2.097   5.694
 3570SOL     OW11608   4.672   0.794   6.252
 3570SOL    HW111609   4.639   0.705   6.282
 3570SOL    HW211610   4.766   0.787   6.221
 3571SOL     OW11611   0.640   5.276   0.150
 3571SOL    HW111612   0.600   5.241   0.065
 3571SOL    HW211613   0.567   5.287   0.218
 3572SOL     OW11614   5.479   4.083   3.627
 3572SOL    HW111615   5.401   4.130   3.586
 3572SOL    HW211616   5.564   4.123   3.592
 3573SOL     OW11617   0.553   4.944   3.916
 3573SOL    HW111618   0.556   4.951   4.015
 3573SOL    HW211619   0.514   4.856   3.890
 3574SOL     OW11620   0.405   4.720   0.385
 3574SOL    HW111621   0.451   4.805   0.410
 3574SOL    HW211622   0.472   4.653   0.354
 3575SOL     OW11623   5.602   4.843   2.947
 3575SOL    HW111624   5.592   4.799   3.037
 3575SOL    HW211625   5.659   4.785   2.889
 3576SOL     OW11626   2.071   1.648   5.508
 3576SOL    HW111627   2.109   1.647   5.601
 3576SOL    HW211628   2.145   1.659   5.442
 3577SOL     OW11629   1.088   3.673   5.937
 3577SOL    HW111630   0.995   3.664   5.971
 3577SOL    HW211631   1.089   3.666   5.837
 3578SOL     OW11632   3.379   2.612   0.592
 3578SOL    HW111633   3.308   2.600   0.523
 3578SOL    HW211634   3.363   2.550   0.669
 3579SOL     OW11635   6.187   4.077   4.719
 3579SOL    HW111636   6.115   4.011   4.702
 3579SOL    HW211637   6.276   4.032   4.712
 3580SOL     OW11638   5.818   2.401   1.077
 3580SOL    HW111639   5.723   2.369   1.083
 3580SOL    HW211640   5.840   2.455   1.158
 3581SOL     OW11641   6.830   6.645   4.240
 3581SOL    HW111642   6.830   6.594   4.326
 3581SOL    HW211643   6.745   6.698   4.233
 3582SOL     OW11644   0.487   1.908   5.833
 3582SOL    HW111645   0.549   1.951   5.899
 3582SOL    HW211646   0.482   1.963   5.750
 3583SOL     OW11647   1.564   3.952   6.391
 3583SOL    HW111648   1.590   3.863   6.355
 3583SOL    HW211649   1.619   3.973   6.472
 3584SOL     OW11650   5.824   5.517   0.443
 3584SOL    HW111651   5.864   5.589   0.500
 3584SOL    HW211652   5.757   5.557   0.380
 3585SOL     OW11653   4.078   5.743   5.206
 3585SOL    HW111654   4.146   5.778   5.270
 3585SOL    HW211655   4.080   5.643   5.207
 3586SOL     OW11656   0.142   2.285   5.044
 3586SOL    HW111657   0.128   2.289   5.143
 3586SOL    HW211658   0.075   2.224   5.003
 3587SOL     OW11659   3.084   4.975   6.312
 3587SOL    HW111660   3.056   4.987   6.217
 3587SOL    HW211661   3.113   4.881   6.327
 3588SOL     OW11662   1.339   2.621   4.638
 3588SOL    HW111663   1.312   2.717   4.634
 3588SOL    HW211664   1.417   2.606   4.578
 3589SOL     OW11665   4.115   1.872   4.217
 3589SOL    HW111666   4.045   1.943   4.209
 3589SOL    HW211667   4.182   1.882   4.143
 3590SOL     OW11668   0.492   3.519   5.883
 3590SOL    HW111669   0.439   3.510   5.967
 3590SOL    HW211670   0.497   3.430   5.837
 3591SOL     OW11671   5.302   3.298   6.122
 3591SOL    HW111672   5.269   3.205   6.140
 3591SOL    HW211673   5.261   3.361   6.188
 3592SOL     OW11674   6.592   4.417   2.502
 3592SOL    HW111675   6.592   4.431   2.600
 3592SOL    HW211676   6.572   4.321   2.482
 3593SOL     OW11677   1.855   5.804   3.875
 3593SOL    HW111678   1.793   5.795   3.797
 3593SOL    HW211679   1.891   5.897   3.879
 3594SOL     OW11680   4.323   0.560   3.307
 3594SOL    HW111681   4.390   0.632   3.291
 3594SOL    HW211682   4.288   0.567   3.401
 3595SOL     OW11683   2.743   5.470   6.543
 3595SOL    HW111684   2.707   5.451   6.635
 3595SOL    HW211685   2.793   5.391   6.509
 3596SOL     OW11686   6.462   2.298   2.911
 3596SOL    HW111687   6.366   2.283   2.886
 3596SOL    HW211688   6.482   2.247   2.995
 3597SOL     OW11689   1.588   0.370   5.457
 3597SOL    HW111690   1.676   0.322   5.451
 3597SOL    HW211691   1.521   0.311   5.503
 3598SOL     OW11692   1.193   6.068   6.391
 3598SOL    HW111693   1.248   5.986   6.409
 3598SOL    HW211694   1.111   6.043   6.339
 3599SOL     OW11695   0.504   1.857   5.422
 3599SOL    HW111696   0.451   1.892   5.499
 3599SOL    HW211697   0.442   1.826   5.350
 3600SOL     OW11698   1.182   3.489   0.230
 3600SOL    HW111699   1.129   3.564   0.192
 3600SOL    HW211700   1.121   3.426   0.280
 3601SOL     OW11701   6.066   4.536   0.503
 3601SOL    HW111702   5.992   4.470   0.513
 3601SOL    HW211703   6.031   4.628   0.523
 3602SOL     OW11704   1.426   2.040   0.676
 3602SOL    HW111705   1.345   2.065   0.729
 3602SOL    HW211706   1.505   2.030   0.737
 3603SOL     OW11707   3.307   6.368   3.962
 3603SOL    HW111708   3.241   6.368   3.886
 3603SOL    HW211709   3.395   6.402   3.930
 3604SOL     OW11710   0.248   4.927   4.102
 3604SOL    HW111711   0.255   5.014   4.053
 3604SOL    HW211712   0.161   4.883   4.081
 3605SOL     OW11713   5.180   4.076   5.314
 3605SOL    HW111714   5.090   4.055   5.352
 3605SOL    HW211715   5.198   4.174   5.323
 3606SOL     OW11716   6.870   6.341   5.418
 3606SOL    HW111717   6.782   6.384   5.434
 3606SOL    HW211718   6.866   6.284   5.336
 3607SOL     OW11719   5.157   6.310   1.398
 3607SOL    HW111720   5.100   6.333   1.319
 3607SOL    HW211721   5.185   6.214   1.393
 3608SOL     OW11722   6.744   1.932   2.545
 3608SOL    HW111723   6.745   1.882   2.631
 3608SOL    HW211724   6.690   2.016   2.555
 3609SOL     OW11725   0.762   0.397   4.094
 3609SOL    HW111726   0.791   0.487   4.060
 3609SOL    HW211727   0.713   0.408   4.180
 3610SOL     OW11728   1.280   6.945   5.501
 3610SOL    HW111729   1.345   6.930   5.576
 3610SOL    HW211730   1.312   7.020   5.444
 3611SOL     OW11731   4.285   6.288   6.029
 3611SOL    HW111732   4.338   6.314   6.110
 3611SOL    HW211733   4.203   6.237   6.058
 3612SOL     OW11734   5.989   0.305   6.020
 3612SOL    HW111735   5.924   0.380   6.029
 3612SOL    HW211736   6.079   0.334   6.052
 3613SOL     OW11737   4.523   5.058   1.872
 3613SOL    HW111738   4.478   4.970   1.890
 3613SOL    HW211739   4.620   5.051   1.895
 3614SOL     OW11740   3.583   3.702   2.577
 3614SOL    HW111741   3.668   3.721   2.528
 3614SOL    HW211742   3.506   3.708   2.514
 3615SOL     OW11743   5.576   6.059   0.304
 3615SOL    HW111744   5.538   6.055   0.396
 3615SOL    HW211745   5.669   6.096   0.307
 3616SOL     OW11746   0.048   2.780   5.651
 3616SOL    HW111747   0.095   2.852   5.600
 3616SOL    HW211748   0.115   2.726   5.702
 3617SOL     OW11749   4.187   0.929   6.811
 3617SOL    HW111750   4.125   0.943   6.888
 3617SOL    HW211751   4.279   0.961   6.837
 3618SOL     OW11752   2.141   2.087   5.049
 3618SOL    HW111753   2.082   2.103   5.128
 3618SOL    HW211754   2.157   2.174   5.001
 3619SOL     OW11755   6.110   3.284   3.832
 3619SOL    HW111756   6.186   3.276   3.897
 3619SOL    HW211757   6.045   3.209   3.847
 3620SOL     OW11758   6.562   6.059   6.137
 3620SOL    HW111759   6.474   6.058   6.185
 3620SOL    HW211760   6.574   6.146   6.090
 3621SOL     OW11761   3.448   2.579   5.835
 3621SOL    HW111762   3.543   2.561   5.811
 3621SOL    HW211763   3.444   2.620   5.927
 3622SOL     OW11764   1.732   2.224   4.347
 3622SOL    HW111765   1.747   2.255   4.440
 3622SOL    HW211766   1.665   2.150   4.346
 3623SOL     OW11767   6.110   5.321   4.355
 3623SOL    HW111768   6.016   5.307   4.323
 3623SOL    HW211769   6.174   5.289   4.285
 3624SOL     OW11770   2.144   6.696   2.331
 3624SOL    HW111771   2.057   6.652   2.309
 3624SOL    HW211772   2.216   6.661   2.272
 3625SOL     OW11773   5.573   3.742   6.895
 3625SOL    HW111774   5.527   3.792   6.822
 3625SOL    HW211775   5.507   3.681   6.941
 3626SOL     OW11776   1.773   3.752   6.038
 3626SOL    HW111777   1.803   3.794   5.953
 3626SOL    HW211778   1.774   3.652   6.029
 3627SOL     OW11779   3.606   3.004   3.578
 3627SOL    HW111780   3.684   2.978   3.521
 3627SOL    HW211781   3.604   2.946   3.659
 3628SOL     OW11782   1.384   0.709   1.558
 3628SOL    HW111783   1.417   0.802   1.574
 3628SOL    HW211784   1.296   0.697   1.603
 3629SOL     OW11785   6.995   2.295   4.449
 3629SOL    HW111786   6.918   2.348   4.483
 3629SOL    HW211787   6.982   2.198   4.472
 3630SOL     OW11788   5.074   2.832   3.423
 3630SOL    HW111789   5.028   2.830   3.512
 3630SOL    HW211790   5.040   2.757   3.367
 3631SOL     OW11791   1.901   0.022   3.560
 3631SOL    HW111792   1.973   0.091   3.571
 3631SOL    HW211793   1.874   0.017   3.464
 3632SOL     OW11794   4.823   6.665   1.318
 3632SOL    HW111795   4.859   6.651   1.225
 3632SOL    HW211796   4.742   6.723   1.314
 3633SOL     OW11797   3.330   1.618   5.564
 3633SOL    HW111798   3.416   1.621   5.513
 3633SOL    HW211799   3.253   1.606   5.501
 3634SOL     OW11800   0.467   5.172   4.419
 3634SOL    HW111801   0.566   5.185   4.419
 3634SOL    HW211802   0.445   5.083   4.458
 3635SOL     OW11803   2.691   6.172   6.324
 3635SOL    HW111804   2.704   6.267   6.296
 3635SOL    HW211805   2.652   6.120   6.248
 3636SOL     OW11806   0.377   5.444   0.038
 3636SOL    HW111807   0.305   5.418   0.102
 3636SOL    HW211808   0.385   5.375   6.986
 3637SOL     OW11809   6.163   1.600   1.514
 3637SOL    HW111810   6.110   1.545   1.578
 3637SOL    HW211811   6.239   1.546   1.478
 3638SOL     OW11812   0.450   4.655   4.790
 3638SOL    HW111813   0.409   4.574   4.830
 3638SOL    HW211814   0.407   4.737   4.827
 3639SOL     OW11815   3.427   4.278   1.658
 3639SOL    HW111816   3.429   4.214   1.581
 3639SOL    HW211817   3.425   4.227   1.744
 3640SOL     OW11818   3.359   0.687   0.383
 3640SOL    HW111819   3.301   0.731   0.451
 3640SOL    HW211820   3.360   0.743   0.300
 3641SOL     OW11821   5.282   2.822   4.071
 3641SOL    HW111822   5.188   2.853   4.056
 3641SOL    HW211823   5.282   2.745   4.135
 3642SOL     OW11824   4.656   0.652   0.623
 3642SOL    HW111825   4.613   0.693   0.542
 3642SOL    HW211826   4.726   0.714   0.658
 3643SOL     OW11827   2.979   5.817   5.168
 3643SOL    HW111828   2.894   5.848   5.125
 3643SOL    HW211829   3.042   5.894   5.175
 3644SOL     OW11830   6.765   1.564   1.681
 3644SOL    HW111831   6.792   1.655   1.650
 3644SOL    HW211832   6.681   1.570   1.735
 3645SOL     OW11833   0.093   3.382   3.495
 3645SOL    HW111834   0.180   3.332   3.491
 3645SOL    HW211835   0.090   3.436   3.579
 3646SOL     OW11836   6.544   4.381   6.993
 3646SOL    HW111837   6.597   4.435   0.037
 3646SOL    HW211838   6.449   4.412   6.993
 3647SOL     OW11839   2.446   3.069   0.079
 3647SOL    HW111840   2.513   3.141   0.067
 3647SOL    HW211841   2.369   3.084   0.017
 3648SOL     OW11842   3.371   4.888   2.660
 3648SOL    HW111843   3.421   4.850   2.738
 3648SOL    HW211844   3.426   4.876   2.577
 3649SOL     OW11845   4.963   3.134   2.068
 3649SOL    HW111846   4.883   3.080   2.040
 3649SOL    HW211847   5.023   3.077   2.124
 3650SOL     OW11848   0.345   5.294   0.934
 3650SOL    HW111849   0.413   5.252   0.994
 3650SOL    HW211850   0.253   5.273   0.967
 3651SOL     OW11851   0.153   6.809   3.919
 3651SOL    HW111852   0.245   6.827   3.953
 3651SOL    HW211853   0.120   6.888   3.867
 3652SOL     OW11854   5.561   6.297   3.068
 3652SOL    HW111855   5.579   6.289   3.166
 3652SOL    HW211856   5.468   6.332   3.054
 3653SOL     OW11857   0.686   1.709   4.460
 3653SOL    HW111858   0.784   1.711   4.439
 3653SOL    HW211859   0.669   1.639   4.530
 3654SOL     OW11860   2.439   5.269   0.771
 3654SOL    HW111861   2.379   5.238   0.844
 3654SOL    HW211862   2.441   5.369   0.768
 3655SOL     OW11863   1.790   6.826   3.289
 3655SOL    HW111864   1.792   6.902   3.224
 3655SOL    HW211865   1.874   6.772   3.280
 3656SOL     OW11866   0.796   3.632   2.406
 3656SOL    HW111867   0.697   3.632   2.416
 3656SOL    HW211868   0.837   3.573   2.475
 3657SOL     OW11869   5.146   4.945   6.320
 3657SOL    HW111870   5.226   4.885   6.321
 3657SOL    HW211871   5.157   5.016   6.389
 3658SOL     OW11872   1.792   5.883   5.151
 3658SOL    HW111873   1.855   5.896   5.227
 3658SOL    HW211874   1.758   5.789   5.151
 3659SOL     OW11875   1.885   3.353   5.206
 3659SOL    HW111876   1.845   3.320   5.121
 3659SOL    HW211877   1.984   3.360   5.196
 3660SOL     OW11878   5.099   0.523   3.282
 3660SOL    HW111879   5.128   0.429   3.263
 3660SOL    HW211880   5.050   0.560   3.204
 3661SOL     OW11881   5.460   1.381   5.794
 3661SOL    HW111882   5.556   1.405   5.802
 3661SOL    HW211883   5.419   1.432   5.718
 3662SOL     OW11884   4.361   0.530   4.059
 3662SOL    HW111885   4.444   0.552   4.007
 3662SOL    HW211886   4.362   0.579   4.146
 3663SOL     OW11887   1.608   2.701   0.803
 3663SOL    HW111888   1.680   2.638   0.774
 3663SOL    HW211889   1.575   2.753   0.724
 3664SOL     OW11890   5.573   2.168   2.253
 3664SOL    HW111891   5.596   2.135   2.345
 3664SOL    HW211892   5.554   2.266   2.256
 3665SOL     OW11893   2.304   6.151   5.608
 3665SOL    HW111894   2.348   6.092   5.676
 3665SOL    HW211895   2.219   6.188   5.647
 3666SOL     OW11896   1.033   3.912   3.400
 3666SOL    HW111897   0.964   3.967   3.447
 3666SOL    HW211898   1.121   3.922   3.447
 3667SOL     OW11899   0.382   1.400   1.910
 3667SOL    HW111900   0.419   1.354   1.830
 3667SOL    HW211901   0.304   1.349   1.946
 3668SOL     OW11902   1.739   1.036   2.081
 3668SOL    HW111903   1.643   1.010   2.077
 3668SOL    HW211904   1.795   0.954   2.087
 3669SOL     OW11905   5.403   1.511   3.212
 3669SOL    HW111906   5.341   1.437   3.188
 3669SOL    HW211907   5.370   1.557   3.295
 3670SOL     OW11908   2.729   4.669   0.402
 3670SOL    HW111909   2.634   4.674   0.432
 3670SOL    HW211910   2.733   4.658   0.303
 3671SOL     OW11911   6.167   0.812   3.829
 3671SOL    HW111912   6.264   0.797   3.810
 3671SOL    HW211913   6.111   0.767   3.759
 3672SOL     OW11914   5.626   1.997   1.249
 3672SOL    HW111915   5.647   1.908   1.211
 3672SOL    HW211916   5.711   2.045   1.272
 3673SOL     OW11917   4.034   6.316   6.590
 3673SOL    HW111918   4.106   6.259   6.550
 3673SOL    HW211919   4.070   6.368   6.667
 3674SOL     OW11920   0.780   6.992   5.378
 3674SOL    HW111921   0.765   6.995   5.477
 3674SOL    HW211922   0.878   6.982   5.360
 3675SOL     OW11923   2.023   3.296   4.837
 3675SOL    HW111924   2.115   3.332   4.827
 3675SOL    HW211925   1.958   3.372   4.843
 3676SOL     OW11926   5.462   4.279   4.075
 3676SOL    HW111927   5.370   4.317   4.088
 3676SOL    HW211928   5.518   4.299   4.155
 3677SOL     OW11929   1.715   6.045   3.362
 3677SOL    HW111930   1.663   6.019   3.280
 3677SOL    HW211931   1.776   6.121   3.340
 3678SOL     OW11932   0.175   2.725   5.319
 3678SOL    HW111933   0.243   2.788   5.281
 3678SOL    HW211934   0.085   2.746   5.282
 3679SOL     OW11935   1.590   0.647   2.747
 3679SOL    HW111936   1.598   0.740   2.784
 3679SOL    HW211937   1.553   0.586   2.818
 3680SOL     OW11938   5.411   2.193   3.647
 3680SOL    HW111939   5.505   2.208   3.615
 3680SOL    HW211940   5.374   2.279   3.681
 3681SOL     OW11941   0.522   0.056   5.976
 3681SOL    HW111942   0.450   7.011   5.953
 3681SOL    HW211943   0.599   0.008   6.018
 3682SOL     OW11944   6.084   2.012   6.948
 3682SOL    HW111945   6.003   1.995   6.891
 3682SOL    HW211946   6.061   1.996   0.023
 3683SOL     OW11947   0.288   0.112   2.581
 3683SOL    HW111948   0.388   0.107   2.582
 3683SOL    HW211949   0.250   0.032   2.627
 3684SOL     OW11950   1.874   4.689   0.039
 3684SOL    HW111951   1.875   4.665   0.137
 3684SOL    HW211952   1.924   4.775   0.026
 3685SOL     OW11953   6.668   6.573   6.549
 3685SOL    HW111954   6.610   6.604   6.474
 3685SOL    HW211955   6.642   6.620   6.633
 3686SOL     OW11956   5.701   6.255   3.832
 3686SOL    HW111957   5.664   6.342   3.800
 3686SOL    HW211958   5.642   6.180   3.802
 3687SOL     OW11959   3.794   5.765   5.184
 3687SOL    HW111960   3.888   5.735   5.196
 3687SOL    HW211961   3.793   5.863   5.162
 3688SOL     OW11962   6.585   3.838   6.562
 3688SOL    HW111963   6.494   3.849   6.600
 3688SOL    HW211964   6.653   3.871   6.627
 3689SOL     OW11965   2.396   0.403   6.315
 3689SOL    HW111966   2.313   0.428   6.364
 3689SOL    HW211967   2.476   0.419   6.374
 3690SOL     OW11968   4.847   5.944   0.402
 3690SOL    HW111969   4.815   6.027   0.447
 3690SOL    HW211970   4.899   5.968   0.321
 3691SOL     OW11971   2.834   3.296   6.384
 3691SOL    HW111972   2.766   3.231   6.349
 3691SOL    HW211973   2.806   3.389   6.361
 3692SOL     OW11974   6.983   6.026   5.331
 3692SOL    HW111975   6.901   6.070   5.294
 3692SOL    HW211976   0.040   6.088   5.322
 3693SOL     OW11977   2.248   2.985   2.746
 3693SOL    HW111978   2.272   2.897   2.706
 3693SOL    HW211979   2.261   2.982   2.845
 3694SOL     OW11980   1.313   5.718   2.976
 3694SOL    HW111981   1.342   5.798   2.924
 3694SOL    HW211982   1.223   5.688   2.943
 3695SOL     OW11983   6.554   2.935   1.756
 3695SOL    HW111984   6.601   3.013   1.799
 3695SOL    HW211985   6.471   2.966   1.712
 3696SOL     OW11986   3.795   5.529   5.427
 3696SOL    HW111987   3.707   5.482   5.438
 3696SOL    HW211988   3.790   5.588   5.346
 3697SOL     OW11989   0.484   6.523   3.029
 3697SOL    HW111990   0.527   6.599   2.979
 3697SOL    HW211991   0.508   6.530   3.126
 3698SOL     OW11992   2.189   0.856   4.955
 3698SOL    HW111993   2.275   0.878   5.000
 3698SOL    HW211994   2.186   0.758   4.935
 3699SOL     OW11995   0.702   2.670   3.644
 3699SOL    HW111996   0.611   2.642   3.617
 3699SOL    HW211997   0.747   2.595   3.693
 3700SOL     OW11998   0.280   0.052   4.891
 3700SOL    HW111999   0.195   0.077   4.844
 3700SOL    HW212000   0.358   0.086   4.838
 3701SOL     OW12001   1.418   0.412   3.981
 3701SOL    HW112002   1.452   0.504   3.999
 3701SOL    HW212003   1.465   0.373   3.902
 3702SOL     OW12004   5.330   6.545   2.601
 3702SOL    HW112005   5.294   6.551   2.508
 3702SOL    HW212006   5.288   6.618   2.657
 3703SOL     OW12007   5.131   1.140   5.938
 3703SOL    HW112008   5.063   1.071   5.960
 3703SOL    HW212009   5.147   1.141   5.839
 3704SOL     OW12010   3.324   1.449   1.440
 3704SOL    HW112011   3.412   1.473   1.398
 3704SOL    HW212012   3.290   1.364   1.400
 3705SOL     OW12013   4.698   5.445   3.640
 3705SOL    HW112014   4.696   5.478   3.735
 3705SOL    HW212015   4.607   5.458   3.599
 3706SOL     OW12016   1.301   3.421   6.536
 3706SOL    HW112017   1.292   3.346   6.602
 3706SOL    HW212018   1.397   3.448   6.529
 3707SOL     OW12019   5.273   4.035   5.039
 3707SOL    HW112020   5.211   4.054   5.115
 3707SOL    HW212021   5.271   4.111   4.974
 3708SOL     OW12022   0.010   0.683   6.094
 3708SOL    HW112023   0.057   0.694   6.006
 3708SOL    HW212024   0.077   0.663   6.166
 3709SOL     OW12025   3.370   0.668   1.156
 3709SOL    HW112026   3.298   0.612   1.116
 3709SOL    HW212027   3.329   0.752   1.194
 3710SOL     OW12028   6.332   5.442   6.524
 3710SOL    HW112029   6.344   5.529   6.476
 3710SOL    HW212030   6.419   5.392   6.525
 3711SOL     OW12031   0.530   0.228   3.702
 3711SOL    HW112032   0.466   0.271   3.639
 3711SOL    HW212033   0.590   0.165   3.652
 3712SOL     OW12034   0.068   5.915   0.039
 3712SOL    HW112035   0.052   5.830   7.010
 3712SOL    HW212036   7.009   5.975   0.029
 3713SOL     OW12037   1.245   6.303   4.918
 3713SOL    HW112038   1.230   6.213   4.877
 3713SOL    HW212039   1.197   6.308   5.006
 3714SOL     OW12040   5.263   5.639   5.820
 3714SOL    HW112041   5.205   5.702   5.873
 3714SOL    HW212042   5.358   5.648   5.851
 3715SOL     OW12043   6.257   3.890   2.769
 3715SOL    HW112044   6.233   3.970   2.714
 3715SOL    HW212045   6.260   3.916   2.866
 3716SOL     OW12046   6.444   0.228   5.061
 3716SOL    HW112047   6.406   0.158   5.000
 3716SOL    HW212048   6.375   0.299   5.077
 3717SOL     OW12049   6.145   6.244   6.752
 3717SOL    HW112050   6.150   6.329   6.699
 3717SOL    HW212051   6.236   6.206   6.764
 3718SOL     OW12052   1.815   0.521   0.288
 3718SOL    HW112053   1.750   0.461   0.241
 3718SOL    HW212054   1.900   0.471   0.304
 3719SOL     OW12055   5.253   4.997   1.304
 3719SOL    HW112056   5.259   4.929   1.377
 3719SOL    HW212057   5.315   4.972   1.230
 3720SOL     OW12058   6.022   2.426   6.428
 3720SOL    HW112059   5.924   2.424   6.448
 3720SOL    HW212060   6.041   2.500   6.363
 3721SOL     OW12061   5.740   4.458   2.013
 3721SOL    HW112062   5.714   4.495   2.102
 3721SOL    HW212063   5.711   4.363   2.006
 3722SOL     OW12064   6.430   5.857   0.813
 3722SOL    HW112065   6.450   5.867   0.716
 3722SOL    HW212066   6.413   5.947   0.853
 3723SOL     OW12067   6.468   5.861   1.905
 3723SOL    HW112068   6.413   5.943   1.889
 3723SOL    HW212069   6.424   5.805   1.975
 3724SOL     OW12070   1.944   4.384   5.096
 3724SOL    HW112071   2.015   4.318   5.071
 3724SOL    HW212072   1.874   4.339   5.150
 3725SOL     OW12073   6.279   4.905   1.251
 3725SOL    HW112074   6.280   4.930   1.348
 3725SOL    HW212075   6.345   4.832   1.235
 3726SOL     OW12076   5.843   4.307   0.584
 3726SOL    HW112077   5.805   4.327   0.675
 3726SOL    HW212078   5.859   4.209   0.575
 3727SOL     OW12079   6.713   2.192   5.113
 3727SOL    HW112080   6.749   2.175   5.204
 3727SOL    HW212081   6.743   2.282   5.081
 3728SOL     OW12082   1.211   3.948   6.718
 3728SOL    HW112083   1.246   4.004   6.643
 3728SOL    HW212084   1.176   3.862   6.682
 3729SOL     OW12085   1.318   2.494   3.692
 3729SOL    HW112086   1.402   2.459   3.651
 3729SOL    HW212087   1.306   2.590   3.665
 3730SOL     OW12088   2.521   5.058   5.918
 3730SOL    HW112089   2.494   5.148   5.953
 3730SOL    HW212090   2.500   4.988   5.987
 3731SOL     OW12091   6.197   0.396   0.864
 3731SOL    HW112092   6.182   0.444   0.951
 3731SOL    HW212093   6.214   0.299   0.881
 3732SOL     OW12094   2.892   1.539   6.354
 3732SOL    HW112095   2.925   1.469   6.290
 3732SOL    HW212096   2.961   1.612   6.361
 3733SOL     OW12097   1.391   3.892   2.356
 3733SOL    HW112098   1.478   3.942   2.360
 3733SOL    HW212099   1.381   3.852   2.265
 3734SOL     OW12100   4.997   1.429   1.709
 3734SOL    HW112101   4.998   1.529   1.700
 3734SOL    HW212102   4.961   1.389   1.624
 3735SOL     OW12103   2.254   0.739   3.696
 3735SOL    HW112104   2.342   0.752   3.741
 3735SOL    HW212105   2.262   0.763   3.600
 3736SOL     OW12106   6.972   2.391   0.334
 3736SOL    HW112107   0.016   2.461   0.304
 3736SOL    HW212108   0.002   2.310   0.365
 3737SOL     OW12109   4.882   0.444   3.425
 3737SOL    HW112110   4.962   0.493   3.391
 3737SOL    HW212111   4.814   0.437   3.352
 3738SOL     OW12112   0.149   6.026   2.189
 3738SOL    HW112113   0.132   5.943   2.135
 3738SOL    HW212114   0.148   6.106   2.128
 3739SOL     OW12115   2.779   4.564   1.636
 3739SOL    HW112116   2.821   4.559   1.727
 3739SOL    HW212117   2.702   4.502   1.631
 3740SOL     OW12118   5.912   0.886   0.459
 3740SOL    HW112119   5.834   0.870   0.519
 3740SOL    HW212120   5.922   0.984   0.443
 3741SOL     OW12121   5.507   3.423   1.056
 3741SOL    HW112122   5.504   3.332   1.016
 3741SOL    HW212123   5.544   3.418   1.149
 3742SOL     OW12124   2.120   1.788   6.743
 3742SOL    HW112125   2.026   1.822   6.739
 3742SOL    HW212126   2.179   1.858   6.784
 3743SOL     OW12127   5.208   3.205   1.124
 3743SOL    HW112128   5.295   3.191   1.077
 3743SOL    HW212129   5.187   3.124   1.179
 3744SOL     OW12130   0.896   5.778   3.211
 3744SOL    HW112131   0.900   5.686   3.248
 3744SOL    HW212132   0.930   5.778   3.116
 3745SOL     OW12133   3.657   4.983   1.782
 3745SOL    HW112134   3.662   4.947   1.688
 3745SOL    HW212135   3.641   4.907   1.845
 3746SOL     OW12136   5.631   0.810   3.257
 3746SOL    HW112137   5.542   0.788   3.216
 3746SOL    HW212138   5.645   0.909   3.255
 3747SOL     OW12139   2.672   6.756   5.566
 3747SOL    HW112140   2.628   6.711   5.488
 3747SOL    HW212141   2.606   6.817   5.610
 3748SOL     OW12142   5.868   0.695   1.110
 3748SOL    HW112143   5.808   0.707   1.189
 3748SOL    HW212144   5.831   0.746   1.032
 3749SOL     OW12145   1.558   5.835   3.993
 3749SOL    HW112146   1.625   5.864   3.925
 3749SOL    HW212147   1.475   5.802   3.947
 3750SOL     OW12148   1.310   3.822   0.833
 3750SOL    HW112149   1.250   3.856   0.762
 3750SOL    HW212150   1.295   3.724   0.846
 3751SOL     OW12151   0.186   3.601   1.714
 3751SOL    HW112152   0.106   3.541   1.716
 3751SOL    HW212153   0.222   3.605   1.620
 3752SOL     OW12154   5.274   0.852   6.779
 3752SOL    HW112155   5.307   0.899   6.861
 3752SOL    HW212156   5.290   0.754   6.789
 3753SOL     OW12157   6.745   0.373   5.463
 3753SOL    HW112158   6.793   0.361   5.377
 3753SOL    HW212159   6.747   0.287   5.515
 3754SOL     OW12160   2.317   0.639   1.115
 3754SOL    HW112161   2.285   0.551   1.079
 3754SOL    HW212162   2.341   0.699   1.040
 3755SOL     OW12163   4.902   4.838   5.139
 3755SOL    HW112164   4.881   4.742   5.125
 3755SOL    HW212165   4.989   4.861   5.095
 3756SOL     OW12166   3.025   4.998   6.056
 3756SOL    HW112167   3.081   5.075   6.025
 3756SOL    HW212168   2.971   4.963   5.980
 3757SOL     OW12169   6.117   5.001   1.637
 3757SOL    HW112170   6.203   5.005   1.587
 3757SOL    HW212171   6.100   4.907   1.667
 3758SOL     OW12172   2.250   1.439   4.763
 3758SOL    HW112173   2.180   1.486   4.818
 3758SOL    HW212174   2.259   1.486   4.675
 3759SOL     OW12175   4.401   0.348   5.826
 3759SOL    HW112176   4.470   0.393   5.769
 3759SOL    HW212177   4.378   0.407   5.904
 3760SOL     OW12178   1.393   1.290   4.013
 3760SOL    HW112179   1.328   1.253   4.080
 3760SOL    HW212180   1.373   1.387   3.998
 3761SOL     OW12181   0.377   1.037   5.204
 3761SOL    HW112182   0.288   1.078   5.223
 3761SOL    HW212183   0.387   0.952   5.256
 3762SOL     OW12184   2.072   4.414   0.768
 3762SOL    HW112185   2.097   4.326   0.729
 3762SOL    HW212186   1.974   4.416   0.787
 3763SOL     OW12187   0.464   3.428   6.964
 3763SOL    HW112188   0.522   3.356   6.926
 3763SOL    HW212189   0.392   3.450   6.898
 3764SOL     OW12190   1.389   6.819   2.172
 3764SOL    HW112191   1.485   6.798   2.192
 3764SOL    HW212192   1.377   6.918   2.168
 3765SOL     OW12193   5.461   1.589   1.048
 3765SOL    HW112194   5.385   1.550   1.100
 3765SOL    HW212195   5.472   1.538   0.963
 3766SOL     OW12196   1.565   2.026   4.381
 3766SOL    HW112197   1.606   1.934   4.381
 3766SOL    HW212198   1.467   2.018   4.398
 3767SOL     OW12199   2.860   4.104   6.648
 3767SOL    HW112200   2.861   4.128   6.745
 3767SOL    HW212201   2.909   4.018   6.635
 3768SOL     OW12202   0.608   6.893   4.569
 3768SOL    HW112203   0.523   6.846   4.546
 3768SOL    HW212204   0.663   6.905   4.486
 3769SOL     OW12205   6.163   5.091   4.898
 3769SOL    HW112206   6.222   5.152   4.950
 3769SOL    HW212207   6.217   5.038   4.833
 3770SOL     OW12208   1.237   0.427   6.737
 3770SOL    HW112209   1.227   0.402   6.641
 3770SOL    HW212210   1.150   0.413   6.784
 3771SOL     OW12211   5.308   3.888   0.533
 3771SOL    HW112212   5.252   3.806   0.540
 3771SOL    HW212213   5.261   3.957   0.478
 3772SOL     OW12214   0.402   0.528   0.474
 3772SOL    HW112215   0.482   0.560   0.424
 3772SOL    HW212216   0.407   0.429   0.485
 3773SOL     OW12217   5.709   3.485   5.728
 3773SOL    HW112218   5.678   3.580   5.731
 3773SOL    HW212219   5.631   3.425   5.714
 3774SOL     OW12220   6.188   5.668   1.736
 3774SOL    HW112221   6.152   5.761   1.734
 3774SOL    HW212222   6.184   5.629   1.644
 3775SOL     OW12223   4.550   5.527   2.513
 3775SOL    HW112224   4.624   5.587   2.482
 3775SOL    HW212225   4.515   5.559   2.600
 3776SOL     OW12226   4.162   2.098   6.405
 3776SOL    HW112227   4.158   2.113   6.306
 3776SOL    HW212228   4.112   2.013   6.427
 3777SOL     OW12229   3.351   4.930   3.298
 3777SOL    HW112230   3.449   4.946   3.307
 3777SOL    HW212231   3.304   5.018   3.283
 3778SOL     OW12232   2.683   5.033   2.535
 3778SOL    HW112233   2.695   4.991   2.445
 3778SOL    HW212234   2.608   5.099   2.531
 3779SOL     OW12235   0.810   5.055   0.897
 3779SOL    HW112236   0.851   5.088   0.812
 3779SOL    HW212237   0.755   4.974   0.878
 3780SOL     OW12238   6.238   4.632   4.689
 3780SOL    HW112239   6.153   4.662   4.647
 3780SOL    HW212240   6.277   4.557   4.635
 3781SOL     OW12241   0.234   6.729   3.500
 3781SOL    HW112242   0.154   6.672   3.483
 3781SOL    HW212243   0.309   6.699   3.441
 3782SOL     OW12244   2.592   0.478   3.012
 3782SOL    HW112245   2.685   0.457   3.042
 3782SOL    HW212246   2.557   0.556   3.064
 3783SOL     OW12247   5.776   5.516   3.945
 3783SOL    HW112248   5.694   5.458   3.942
 3783SOL    HW212249   5.806   5.536   3.852
 3784SOL     OW12250   5.468   2.975   2.387
 3784SOL    HW112251   5.408   3.034   2.332
 3784SOL    HW212252   5.436   2.880   2.381
 3785SOL     OW12253   1.496   3.637   5.694
 3785SOL    HW112254   1.586   3.604   5.665
 3785SOL    HW212255   1.438   3.652   5.614
 3786SOL     OW12256   2.227   4.315   3.322
 3786SOL    HW112257   2.290   4.355   3.389
 3786SOL    HW212258   2.201   4.385   3.255
 3787SOL     OW12259   6.161   1.161   2.335
 3787SOL    HW112260   6.126   1.255   2.332
 3787SOL    HW212261   6.110   1.109   2.404
 3788SOL     OW12262   0.263   4.409   4.769
 3788SOL    HW112263   0.203   4.350   4.715
 3788SOL    HW212264   0.283   4.364   4.856
 3789SOL     OW12265   0.566   4.036   4.808
 3789SOL    HW112266   0.627   4.111   4.784
 3789SOL    HW212267   0.583   3.957   4.749
 3790SOL     OW12268   1.059   4.689   5.738
 3790SOL    HW112269   1.025   4.753   5.669
 3790SOL    HW212270   1.157   4.673   5.723
 3791SOL     OW12271   5.131   1.692   6.448
 3791SOL    HW112272   5.229   1.697   6.429
 3791SOL    HW212273   5.113   1.621   6.516
 3792SOL     OW12274   1.299   1.893   2.884
 3792SOL    HW112275   1.303   1.850   2.793
 3792SOL    HW212276   1.366   1.967   2.889
 3793SOL     OW12277   4.488   0.014   2.560
 3793SOL    HW112278   4.468   0.108   2.531
 3793SOL    HW212279   4.472   0.006   2.659
 3794SOL     OW12280   2.454   2.660   1.702
 3794SOL    HW112281   2.415   2.751   1.715
 3794SOL    HW212282   2.409   2.596   1.765
 3795SOL     OW12283   4.511   5.937   1.350
 3795SOL    HW112284   4.426   5.936   1.402
 3795SOL    HW212285   4.588   5.946   1.414
 3796SOL     OW12286   3.984   1.840   2.742
 3796SOL    HW112287   4.021   1.861   2.651
 3796SOL    HW212288   4.044   1.877   2.812
 3797SOL     OW12289   0.473   3.195   2.814
 3797SOL    HW112290   0.465   3.153   2.724
 3797SOL    HW212291   0.466   3.125   2.885
 3798SOL     OW12292   2.416   5.356   2.746
 3798SOL    HW112293   2.408   5.270   2.796
 3798SOL    HW212294   2.496   5.407   2.778
 3799SOL     OW12295   6.439   2.687   3.419
 3799SOL    HW112296   6.517   2.668   3.360
 3799SOL    HW212297   6.468   2.746   3.495
 3800SOL     OW12298   5.294   1.872   3.678
 3800SOL    HW112299   5.208   1.821   3.670
 3800SOL    HW212300   5.279   1.953   3.735
 3801SOL     OW12301   6.082   6.648   1.610
 3801SOL    HW112302   6.085   6.745   1.587
 3801SOL    HW212303   6.101   6.594   1.528
 3802SOL     OW12304   1.697   2.199   1.641
 3802SOL    HW112305   1.781   2.245   1.615
 3802SOL    HW212306   1.658   2.152   1.562
 3803SOL     OW12307   4.103   3.536   2.400
 3803SOL    HW112308   4.125   3.462   2.337
 3803SOL    HW212309   4.131   3.623   2.361
 3804SOL     OW12310   4.318   1.100   3.042
 3804SOL    HW112311   4.268   1.183   3.068
 3804SOL    HW212312   4.336   1.102   2.943
 3805SOL     OW12313   2.054   2.840   1.634
 3805SOL    HW112314   2.044   2.741   1.640
 3805SOL    HW212315   2.073   2.878   1.724
 3806SOL     OW12316   3.886   3.647   6.148
 3806SOL    HW112317   3.812   3.641   6.082
 3806SOL    HW212318   3.951   3.717   6.119
 3807SOL     OW12319   2.001   5.496   2.480
 3807SOL    HW112320   2.067   5.513   2.553
 3807SOL    HW212321   1.911   5.479   2.520
 3808SOL     OW12322   4.237   0.705   0.340
 3808SOL    HW112323   4.220   0.608   0.355
 3808SOL    HW212324   4.247   0.723   0.242
 3809SOL     OW12325   5.421   2.480   1.985
 3809SOL    HW112326   5.486   2.404   1.994
 3809SOL    HW212327   5.378   2.477   1.895
 3810SOL     OW12328   5.575   2.785   3.240
 3810SOL    HW112329   5.574   2.717   3.313
 3810SOL    HW212330   5.493   2.776   3.184
 3811SOL     OW12331   6.967   5.924   4.720
 3811SOL    HW112332   6.963   5.869   4.803
 3811SOL    HW212333   7.020   5.877   4.650
 3812SOL     OW12334   4.550   5.165   5.666
 3812SOL    HW112335   4.648   5.148   5.683
 3812SOL    HW212336   4.514   5.095   5.604
 3813SOL     OW12337   4.816   3.395   0.207
 3813SOL    HW112338   4.825   3.302   0.242
 3813SOL    HW212339   4.870   3.457   0.264
 3814SOL     OW12340   6.285   0.051   5.518
 3814SOL    HW112341   6.319   0.144   5.531
 3814SOL    HW212342   6.186   0.052   5.511
 3815SOL     OW12343   3.541   1.965   0.972
 3815SOL    HW112344   3.631   1.986   1.010
 3815SOL    HW212345   3.551   1.939   0.876
 3816SOL     OW12346   1.002   5.381   6.439
 3816SOL    HW112347   1.041   5.322   6.368
 3816SOL    HW212348   0.979   5.325   6.519
 3817SOL     OW12349   5.340   3.767   2.308
 3817SOL    HW112350   5.286   3.843   2.272
 3817SOL    HW212351   5.350   3.697   2.238
 3818SOL     OW12352   6.733   0.817   0.371
 3818SOL    HW112353   6.683   0.904   0.365
 3818SOL    HW212354   6.770   0.806   0.463
 3819SOL     OW12355   5.887   5.731   2.566
 3819SOL    HW112356   5.959   5.801   2.571
 3819SOL    HW212357   5.825   5.742   2.643
 3820SOL     OW12358   5.263   0.259   4.092
 3820SOL    HW112359   5.203   0.180   4.104
 3820SOL    HW212360   5.284   0.270   3.995
 3821SOL     OW12361   2.000   0.744   1.453
 3821SOL    HW112362   2.088   0.789   1.437
 3821SOL    HW212363   2.011   0.672   1.521
 3822SOL     OW12364   2.148   6.752   0.546
 3822SOL    HW112365   2.177   6.848   0.547
 3822SOL    HW212366   2.131   6.721   0.639
 3823SOL     OW12367   2.655   3.689   6.118
 3823SOL    HW112368   2.595   3.659   6.045
 3823SOL    HW212369   2.670   3.788   6.111
 3824SOL     OW12370   0.486   3.285   0.418
 3824SOL    HW112371   0.395   3.273   0.379
 3824SOL    HW212372   0.541   3.204   0.399
 3825SOL     OW12373   0.365   5.435   0.577
 3825SOL    HW112374   0.424   5.422   0.657
 3825SOL    HW212375   0.269   5.430   0.605
 3826SOL     OW12376   1.103   3.918   0.652
 3826SOL    HW112377   1.023   3.893   0.706
 3826SOL    HW212378   1.082   3.909   0.554
 3827SOL     OW12379   1.703   1.188   1.765
 3827SOL    HW112380   1.755   1.104   1.776
 3827SOL    HW212381   1.695   1.234   1.853
 3828SOL     OW12382   3.701   3.238   3.336
 3828SOL    HW112383   3.766   3.177   3.382
 3828SOL    HW212384   3.743   3.275   3.253
 3829SOL     OW12385   1.197   4.975   2.060
 3829SOL    HW112386   1.154   4.950   2.147
 3829SOL    HW212387   1.128   5.008   1.996
 3830SOL     OW12388   0.793   0.310   5.447
 3830SOL    HW112389   0.875   0.331   5.500
 3830SOL    HW212390   0.819   0.292   5.352
 3831SOL     OW12391   4.781   2.147   2.729
 3831SOL    HW112392   4.759   2.076   2.662
 3831SOL    HW212393   4.844   2.110   2.797
 3832SOL     OW12394   0.283   0.823   3.108
 3832SOL    HW112395   0.258   0.886   3.182
 3832SOL    HW212396   0.201   0.772   3.079
 3833SOL     OW12397   6.956   5.811   6.661
 3833SOL    HW112398   0.018   5.866   6.672
 3833SOL    HW212399   6.914   5.831   6.573
 3834SOL     OW12400   4.153   4.171   1.281
 3834SOL    HW112401   4.054   4.176   1.271
 3834SOL    HW212402   4.181   4.075   1.295
 3835SOL     OW12403   3.651   5.978   4.571
 3835SOL    HW112404   3.607   6.057   4.528
 3835SOL    HW212405   3.699   6.008   4.654
 3836SOL     OW12406   0.217   4.665   5.680
 3836SOL    HW112407   0.235   4.744   5.621
 3836SOL    HW212408   0.304   4.628   5.714
 3837SOL     OW12409   4.313   4.126   6.542
 3837SOL    HW112410   4.377   4.049   6.546
 3837SOL    HW212411   4.344   4.199   6.603
 3838SOL     OW12412   0.782   3.380   4.227
 3838SOL    HW112413   0.760   3.375   4.324
 3838SOL    HW212414   0.796   3.288   4.191
 3839SOL     OW12415   5.808   1.582   2.988
 3839SOL    HW112416   5.767   1.658   2.938
 3839SOL    HW212417   5.764   1.573   3.077
 3840SOL     OW12418   2.647   1.493   6.717
 3840SOL    HW112419   2.628   1.538   6.629
 3840SOL    HW212420   2.722   1.429   6.706
 3841SOL     OW12421   0.197   3.528   4.982
 3841SOL    HW112422   0.107   3.558   4.951
 3841SOL    HW212423   0.228   3.452   4.925
 3842SOL     OW12424   2.149   2.496   2.034
 3842SOL    HW112425   2.073   2.559   2.020
 3842SOL    HW212426   2.228   2.546   2.069
 3843SOL     OW12427   5.753   5.092   3.019
 3843SOL    HW112428   5.681   5.031   3.054
 3843SOL    HW212429   5.842   5.058   3.049
 3844SOL     OW12430   1.136   2.544   5.254
 3844SOL    HW112431   1.157   2.615   5.188
 3844SOL    HW212432   1.189   2.558   5.337
 3845SOL     OW12433   3.246   4.039   5.244
 3845SOL    HW112434   3.286   4.039   5.152
 3845SOL    HW212435   3.271   4.123   5.292
 3846SOL     OW12436   6.862   5.331   3.323
 3846SOL    HW112437   6.835   5.419   3.284
 3846SOL    HW212438   6.951   5.340   3.367
 3847SOL     OW12439   5.466   2.492   4.134
 3847SOL    HW112440   5.526   2.488   4.054
 3847SOL    HW212441   5.374   2.460   4.108
 3848SOL     OW12442   4.630   5.211   2.538
 3848SOL    HW112443   4.641   5.148   2.462
 3848SOL    HW212444   4.570   5.286   2.511
 3849SOL     OW12445   0.930   1.170   6.264
 3849SOL    HW112446   0.960   1.239   6.329
 3849SOL    HW212447   0.882   1.214   6.188
 3850SOL     OW12448   2.779   3.429   1.775
 3850SOL    HW112449   2.817   3.502   1.832
 3850SOL    HW212450   2.686   3.452   1.748
 3851SOL     OW12451   0.847   4.503   2.391
 3851SOL    HW112452   0.883   4.511   2.298
 3851SOL    HW212453   0.907   4.551   2.455
 3852SOL     OW12454   4.199   6.549   3.940
 3852SOL    HW112455   4.151   6.465   3.913
 3852SOL    HW212456   4.197   6.558   4.039
 3853SOL     OW12457   0.808   4.378   3.573
 3853SOL    HW112458   0.864   4.386   3.491
 3853SOL    HW212459   0.762   4.465   3.591
 3854SOL     OW12460   1.826   2.682   2.926
 3854SOL    HW112461   1.797   2.590   2.952
 3854SOL    HW212462   1.925   2.683   2.911
 3855SOL     OW12463   5.504   6.454   6.738
 3855SOL    HW112464   5.449   6.524   6.694
 3855SOL    HW212465   5.561   6.408   6.670
 3856SOL     OW12466   6.751   0.422   6.292
 3856SOL    HW112467   6.674   0.378   6.247
 3856SOL    HW212468   6.802   0.476   6.225
 3857SOL     OW12469   0.049   6.575   0.115
 3857SOL    HW112470   0.121   6.558   0.183
 3857SOL    HW212471   6.996   6.509   0.127
 3858SOL     OW12472   2.597   0.718   5.952
 3858SOL    HW112473   2.548   0.693   5.869
 3858SOL    HW212474   2.595   0.642   6.017
 3859SOL     OW12475   5.839   1.322   2.488
 3859SOL    HW112476   5.809   1.341   2.582
 3859SOL    HW212477   5.791   1.242   2.453
 3860SOL     OW12478   2.674   0.693   5.284
 3860SOL    HW112479   2.672   0.752   5.365
 3860SOL    HW212480   2.580   0.671   5.257
 3861SOL     OW12481   4.464   4.853   3.297
 3861SOL    HW112482   4.365   4.856   3.288
 3861SOL    HW212483   4.491   4.893   3.385
 3862SOL     OW12484   0.538   0.381   4.852
 3862SOL    HW112485   0.519   0.479   4.853
 3862SOL    HW212486   0.514   0.342   4.941
 3863SOL     OW12487   5.625   2.787   6.941
 3863SOL    HW112488   5.606   2.792   6.843
 3863SOL    HW212489   5.723   2.784   6.957
 3864SOL     OW12490   2.505   0.618   5.550
 3864SOL    HW112491   2.513   0.596   5.453
 3864SOL    HW212492   2.569   0.691   5.572
 3865SOL     OW12493   2.960   0.392   0.155
 3865SOL    HW112494   3.038   0.344   0.116
 3865SOL    HW212495   2.964   0.389   0.254
 3866SOL     OW12496   3.227   0.106   1.167
 3866SOL    HW112497   3.301   0.112   1.099
 3866SOL    HW212498   3.145   0.070   1.123
 3867SOL     OW12499   1.256   4.948   3.782
 3867SOL    HW112500   1.203   4.968   3.864
 3867SOL    HW212501   1.255   4.850   3.764
 3868SOL     OW12502   2.855   7.005   0.251
 3868SOL    HW112503   2.870   6.978   0.156
 3868SOL    HW212504   2.783   6.948   0.291
 3869SOL     OW12505   5.558   4.011   5.003
 3869SOL    HW112506   5.576   4.062   4.920
 3869SOL    HW212507   5.459   3.993   5.011
 3870SOL     OW12508   5.827   6.230   0.039
 3870SOL    HW112509   5.858   6.135   0.034
 3870SOL    HW212510   5.906   6.290   0.047
 3871SOL     OW12511   3.169   0.325   3.221
 3871SOL    HW112512   3.137   0.255   3.285
 3871SOL    HW212513   3.132   0.414   3.246
 3872SOL     OW12514   3.887   2.982   3.948
 3872SOL    HW112515   3.850   2.957   4.038
 3872SOL    HW212516   3.933   3.070   3.955
 3873SOL     OW12517   6.605   2.687   0.593
 3873SOL    HW112518   6.621   2.740   0.676
 3873SOL    HW212519   6.683   2.627   0.575
 3874SOL     OW12520   4.160   5.942   6.910
 3874SOL    HW112521   4.162   5.896   6.821
 3874SOL    HW212522   4.112   5.884   6.976
 3875SOL     OW12523   1.975   2.954   2.107
 3875SOL    HW112524   1.933   2.866   2.128
 3875SOL    HW212525   2.047   2.974   2.173
 3876SOL     OW12526   4.165   5.367   0.893
 3876SOL    HW112527   4.254   5.407   0.914
 3876SOL    HW212528   4.096   5.407   0.953
 3877SOL     OW12529   5.929   3.291   0.738
 3877SOL    HW112530   5.858   3.303   0.807
 3877SOL    HW212531   6.009   3.247   0.779
 3878SOL     OW12532   3.716   6.645   4.407
 3878SOL    HW112533   3.673   6.644   4.497
 3878SOL    HW212534   3.816   6.646   4.418
 3879SOL     OW12535   5.156   5.358   1.588
 3879SOL    HW112536   5.189   5.264   1.586
 3879SOL    HW212537   5.062   5.361   1.553
 3880SOL     OW12538   5.933   4.883   3.931
 3880SOL    HW112539   6.030   4.865   3.949
 3880SOL    HW212540   5.883   4.886   4.017
 3881SOL     OW12541   1.065   3.642   1.664
 3881SOL    HW112542   1.124   3.608   1.592
 3881SOL    HW212543   1.053   3.571   1.734
 3882SOL     OW12544   1.271   1.184   5.512
 3882SOL    HW112545   1.241   1.091   5.494
 3882SOL    HW212546   1.219   1.248   5.455
 3883SOL     OW12547   3.772   0.594   3.255
 3883SOL    HW112548   3.763   0.538   3.337
 3883SOL    HW212549   3.833   0.671   3.274
 3884SOL     OW12550   0.125   5.041   3.538
 3884SOL    HW112551   0.063   5.073   3.609
 3884SOL    HW212552   0.218   5.038   3.573
 3885SOL     OW12553   6.606   0.362   2.609
 3885SOL    HW112554   6.601   0.436   2.676
 3885SOL    HW212555   6.658   0.392   2.529
 3886SOL     OW12556   6.088   6.222   5.056
 3886SOL    HW112557   6.122   6.135   5.022
 3886SOL    HW212558   5.996   6.239   5.019
 3887SOL     OW12559   0.446   0.429   6.193
 3887SOL    HW112560   0.543   0.412   6.204
 3887SOL    HW212561   0.394   0.366   6.250
 3888SOL     OW12562   6.465   0.410   5.384
 3888SOL    HW112563   6.410   0.406   5.300
 3888SOL    HW212564   6.562   0.401   5.359
 3889SOL     OW12565   6.914   3.519   5.760
 3889SOL    HW112566   6.875   3.437   5.717
 3889SOL    HW212567   6.839   3.579   5.791
 3890SOL     OW12568   5.398   5.523   2.791
 3890SOL    HW112569   5.484   5.498   2.746
 3890SOL    HW212570   5.419   5.572   2.876
 3891SOL     OW12571   5.507   4.355   5.060
 3891SOL    HW112572   5.521   4.326   5.155
 3891SOL    HW212573   5.588   4.331   5.006
 3892SOL     OW12574   0.276   1.586   1.155
 3892SOL    HW112575   0.272   1.631   1.066
 3892SOL    HW212576   0.185   1.589   1.197
 3893SOL     OW12577   4.414   4.363   1.142
 3893SOL    HW112578   4.338   4.314   1.098
 3893SOL    HW212579   4.415   4.343   1.240
 3894SOL     OW12580   3.331   2.417   1.096
 3894SOL    HW112581   3.383   2.401   1.013
 3894SOL    HW212582   3.245   2.464   1.074
 3895SOL     OW12583   1.730   0.726   6.005
 3895SOL    HW112584   1.709   0.824   6.014
 3895SOL    HW212585   1.786   0.697   6.083
 3896SOL     OW12586   0.059   0.750   5.833
 3896SOL    HW112587   0.068   0.655   5.804
 3896SOL    HW212588   6.984   0.770   5.852
 3897SOL     OW12589   3.782   5.873   2.211
 3897SOL    HW112590   3.772   5.816   2.130
 3897SOL    HW212591   3.699   5.866   2.267
 3898SOL     OW12592   3.427   3.450   4.444
 3898SOL    HW112593   3.513   3.501   4.439
 3898SOL    HW212594   3.426   3.396   4.528
 3899SOL     OW12595   5.527   0.724   4.189
 3899SOL    HW112596   5.468   0.645   4.173
 3899SOL    HW212597   5.489   0.778   4.265
 3900SOL     OW12598   5.894   2.804   3.810
 3900SOL    HW112599   5.937   2.724   3.768
 3900SOL    HW212600   5.937   2.887   3.772
 3901SOL     OW12601   3.154   0.149   5.510
 3901SOL    HW112602   3.235   0.094   5.531
 3901SOL    HW212603   3.117   0.122   5.421
 3902SOL     OW12604   5.964   3.774   2.488
 3902SOL    HW112605   5.951   3.732   2.398
 3902SOL    HW212606   5.992   3.870   2.476
 3903SOL     OW12607   4.643   5.492   0.517
 3903SOL    HW112608   4.667   5.531   0.428
 3903SOL    HW212609   4.726   5.486   0.573
 3904SOL     OW12610   1.929   6.682   4.829
 3904SOL    HW112611   1.927   6.660   4.927
 3904SOL    HW212612   2.007   6.741   4.810
 3905SOL     OW12613   6.545   6.994   5.366
 3905SOL    HW112614   6.484   6.953   5.434
 3905SOL    HW212615   6.624   0.014   5.412
 3906SOL     OW12616   4.152   5.193   5.180
 3906SOL    HW112617   4.059   5.174   5.211
 3906SOL    HW212618   4.216   5.129   5.221
 3907SOL     OW12619   6.536   6.615   5.650
 3907SOL    HW112620   6.574   6.695   5.604
 3907SOL    HW212621   6.455   6.641   5.702
 3908SOL     OW12622   0.865   0.465   0.490
 3908SOL    HW112623   0.934   0.498   0.426
 3908SOL    HW212624   0.903   0.463   0.583
 3909SOL     OW12625   0.598   5.536   5.282
 3909SOL    HW112626   0.686   5.564   5.320
 3909SOL    HW212627   0.533   5.611   5.290
 3910SOL     OW12628   3.777   3.777   1.984
 3910SOL    HW112629   3.678   3.778   1.968
 3910SOL    HW212630   3.821   3.845   1.925
 3911SOL     OW12631   4.018   0.970   7.020
 3911SOL    HW112632   3.919   0.980   7.008
 3911SOL    HW212633   4.050   1.035   0.068
 3912SOL     OW12634   2.908   1.002   6.673
 3912SOL    HW112635   3.004   1.029   6.677
 3912SOL    HW212636   2.879   0.995   6.577
 3913SOL     OW12637   1.868   5.829   6.618
 3913SOL    HW112638   1.944   5.865   6.672
 3913SOL    HW212639   1.812   5.905   6.585
 3914SOL     OW12640   3.913   0.854   0.592
 3914SOL    HW112641   3.975   0.917   0.639
 3914SOL    HW212642   3.910   0.875   0.495
 3915SOL     OW12643   4.301   6.313   1.823
 3915SOL    HW112644   4.242   6.380   1.867
 3915SOL    HW212645   4.299   6.326   1.724
 3916SOL     OW12646   1.714   6.305   3.000
 3916SOL    HW112647   1.678   6.398   2.991
 3916SOL    HW212648   1.781   6.288   2.927
 3917SOL     OW12649   1.281   4.827   6.948
 3917SOL    HW112650   1.331   4.762   7.006
 3917SOL    HW212651   1.201   4.862   6.998
 3918SOL     OW12652   4.979   6.830   2.153
 3918SOL    HW112653   4.997   6.818   2.055
 3918SOL    HW212654   4.921   6.756   2.185
 3919SOL     OW12655   3.229   6.261   6.390
 3919SOL    HW112656   3.261   6.188   6.450
 3919SOL    HW212657   3.129   6.267   6.395
 3920SOL     OW12658   2.817   2.300   6.658
 3920SOL    HW112659   2.880   2.258   6.722
 3920SOL    HW212660   2.778   2.382   6.698
 3921SOL     OW12661   0.087   3.000   0.715
 3921SOL    HW112662   0.106   3.010   0.813
 3921SOL    HW212663   0.051   2.908   0.697
 3922SOL     OW12664   5.717   4.758   1.232
 3922SOL    HW112665   5.795   4.783   1.176
 3922SOL    HW212666   5.644   4.826   1.221
 3923SOL     OW12667   6.482   1.453   0.053
 3923SOL    HW112668   6.570   1.441   0.008
 3923SOL    HW212669   6.487   1.529   0.118
 3924SOL     OW12670   0.592   5.446   3.250
 3924SOL    HW112671   0.536   5.504   3.309
 3924SOL    HW212672   0.540   5.422   3.168
 3925SOL     OW12673   3.860   4.346   0.832
 3925SOL    HW112674   3.847   4.253   0.866
 3925SOL    HW212675   3.834   4.412   0.903
 3926SOL     OW12676   6.649   6.436   2.962
 3926SOL    HW112677   6.705   6.517   2.943
 3926SOL    HW212678   6.702   6.354   2.942
 3927SOL     OW12679   6.921   3.731   4.210
 3927SOL    HW112680   6.980   3.788   4.152
 3927SOL    HW212681   6.866   3.790   4.269
 3928SOL     OW12682   3.275   5.223   4.700
 3928SOL    HW112683   3.204   5.250   4.765
 3928SOL    HW212684   3.238   5.224   4.607
 3929SOL     OW12685   0.426   2.367   6.359
 3929SOL    HW112686   0.370   2.422   6.421
 3929SOL    HW212687   0.419   2.271   6.384
 3930SOL     OW12688   1.456   1.833   3.936
 3930SOL    HW112689   1.383   1.891   3.901
 3930SOL    HW212690   1.537   1.843   3.877
 3931SOL     OW12691   2.713   1.199   3.042
 3931SOL    HW112692   2.746   1.174   3.133
 3931SOL    HW212693   2.662   1.123   3.003
 3932SOL     OW12694   1.647   4.394   3.366
 3932SOL    HW112695   1.561   4.370   3.321
 3932SOL    HW212696   1.632   4.405   3.464
 3933SOL     OW12697   2.313   6.831   6.610
 3933SOL    HW112698   2.405   6.791   6.617
 3933SOL    HW212699   2.320   6.931   6.602
 3934SOL     OW12700   0.582   1.292   1.429
 3934SOL    HW112701   0.576   1.194   1.408
 3934SOL    HW212702   0.509   1.341   1.382
 3935SOL     OW12703   1.794   0.209   5.290
 3935SOL    HW112704   1.837   0.214   5.381
 3935SOL    HW212705   1.837   0.137   5.237
 3936SOL     OW12706   0.207   5.702   5.479
 3936SOL    HW112707   0.175   5.620   5.527
 3936SOL    HW212708   0.129   5.759   5.455
 3937SOL     OW12709   0.544   0.075   2.273
 3937SOL    HW112710   0.454   0.119   2.277
 3937SOL    HW212711   0.614   0.141   2.301
 3938SOL     OW12712   6.775   2.758   3.954
 3938SOL    HW112713   6.810   2.720   4.040
 3938SOL    HW212714   6.841   2.741   3.881
 3939SOL     OW12715   3.003   1.437   2.949
 3939SOL    HW112716   2.992   1.537   2.944
 3939SOL    HW212717   3.101   1.414   2.944
 3940SOL     OW12718   4.254   4.933   2.095
 3940SOL    HW112719   4.173   4.990   2.108
 3940SOL    HW212720   4.272   4.881   2.178
 3941SOL     OW12721   5.682   1.183   5.377
 3941SOL    HW112722   5.676   1.260   5.440
 3941SOL    HW212723   5.662   1.213   5.284
 3942SOL     OW12724   0.787   6.655   5.348
 3942SOL    HW112725   0.693   6.682   5.367
 3942SOL    HW212726   0.809   6.675   5.253
 3943SOL     OW12727   1.015   3.422   3.011
 3943SOL    HW112728   1.043   3.332   2.979
 3943SOL    HW212729   0.972   3.472   2.935
 3944SOL     OW12730   5.479   4.062   5.375
 3944SOL    HW112731   5.383   4.059   5.346
 3944SOL    HW212732   5.520   3.972   5.362
 3945SOL     OW12733   1.151   2.619   2.313
 3945SOL    HW112734   1.245   2.611   2.348
 3945SOL    HW212735   1.090   2.564   2.371
 3946SOL     OW12736   6.435   4.595   5.905
 3946SOL    HW112737   6.493   4.515   5.893
 3946SOL    HW212738   6.407   4.629   5.815
 3947SOL     OW12739   5.973   5.490   1.999
 3947SOL    HW112740   6.022   5.552   2.060
 3947SOL    HW212741   5.939   5.412   2.052
 3948SOL     OW12742   0.546   4.748   0.672
 3948SOL    HW112743   0.479   4.691   0.625
 3948SOL    HW212744   0.538   4.736   0.770
 3949SOL     OW12745   5.695   0.539   3.021
 3949SOL    HW112746   5.715   0.468   3.089
 3949SOL    HW212747   5.744   0.520   2.937
 3950SOL     OW12748   3.237   3.892   1.523
 3950SOL    HW112749   3.211   3.963   1.587
 3950SOL    HW212750   3.166   3.882   1.453
 3951SOL     OW12751   6.770   0.034   6.781
 3951SOL    HW112752   6.747   0.003   6.873
 3951SOL    HW212753   6.772   6.977   6.719
 3952SOL     OW12754   6.368   4.128   4.375
 3952SOL    HW112755   6.326   4.117   4.285
 3952SOL    HW212756   6.409   4.040   4.403
 3953SOL     OW12757   3.218   3.966   0.420
 3953SOL    HW112758   3.138   4.024   0.402
 3953SOL    HW212759   3.273   4.008   0.492
 3954SOL     OW12760   5.770   5.558   5.648
 3954SOL    HW112761   5.701   5.486   5.636
 3954SOL    HW212762   5.781   5.577   5.746
 3955SOL     OW12763   4.383   6.594   6.831
 3955SOL    HW112764   4.414   6.552   6.746
 3955SOL    HW212765   4.428   6.550   6.909
 3956SOL     OW12766   0.552   2.180   3.496
 3956SOL    HW112767   0.571   2.088   3.463
 3956SOL    HW212768   0.582   2.189   3.591
 3957SOL     OW12769   4.247   6.954   3.547
 3957SOL    HW112770   4.286   6.939   3.638
 3957SOL    HW212771   4.166   6.896   3.536
 3958SOL     OW12772   5.595   0.615   6.279
 3958SOL    HW112773   5.539   0.534   6.265
 3958SOL    HW212774   5.682   0.604   6.230
 3959SOL     OW12775   3.819   6.360   0.732
 3959SOL    HW112776   3.779   6.370   0.641
 3959SOL    HW212777   3.906   6.311   0.725
 3960SOL     OW12778   5.127   2.070   6.016
 3960SOL    HW112779   5.221   2.083   5.983
 3960SOL    HW212780   5.064   2.074   5.938
 3961SOL     OW12781   5.589   2.748   1.957
 3961SOL    HW112782   5.596   2.781   2.052
 3961SOL    HW212783   5.541   2.660   1.955
 3962SOL     OW12784   1.749   5.222   6.765
 3962SOL    HW112785   1.777   5.137   6.808
 3962SOL    HW212786   1.767   5.299   6.827
 3963SOL     OW12787   4.494   4.507   3.869
 3963SOL    HW112788   4.549   4.424   3.856
 3963SOL    HW212789   4.439   4.524   3.787
 3964SOL     OW12790   4.418   4.971   4.366
 3964SOL    HW112791   4.323   4.985   4.393
 3964SOL    HW212792   4.479   4.993   4.442
 3965SOL     OW12793   4.040   3.399   6.216
 3965SOL    HW112794   4.039   3.336   6.138
 3965SOL    HW212795   3.978   3.475   6.198
 3966SOL     OW12796   6.307   5.674   0.260
 3966SOL    HW112797   6.274   5.740   0.328
 3966SOL    HW212798   6.396   5.638   0.289
 3967SOL     OW12799   1.362   4.149   2.644
 3967SOL    HW112800   1.295   4.135   2.571
 3967SOL    HW212801   1.325   4.114   2.730
 3968SOL     OW12802   7.018   0.204   1.037
 3968SOL    HW112803   6.976   0.293   1.021
 3968SOL    HW212804   0.044   0.174   0.954
 3969SOL     OW12805   1.096   3.655   2.613
 3969SOL    HW112806   1.060   3.734   2.663
 3969SOL    HW212807   1.020   3.595   2.587
 3970SOL     OW12808   4.777   5.246   4.024
 3970SOL    HW112809   4.758   5.334   3.980
 3970SOL    HW212810   4.716   5.176   3.988
 3971SOL     OW12811   2.166   4.650   2.439
 3971SOL    HW112812   2.134   4.576   2.498
 3971SOL    HW212813   2.114   4.733   2.458
 3972SOL     OW12814   1.538   5.011   1.029
 3972SOL    HW112815   1.497   5.080   1.088
 3972SOL    HW212816   1.479   4.930   1.026
 3973SOL     OW12817   2.070   4.447   5.575
 3973SOL    HW112818   2.074   4.362   5.626
 3973SOL    HW212819   2.134   4.443   5.498
 3974SOL     OW12820   1.538   0.139   5.152
 3974SOL    HW112821   1.587   0.097   5.076
 3974SOL    HW212822   1.598   0.202   5.200
 3975SOL     OW12823   5.183   0.615   6.356
 3975SOL    HW112824   5.114   0.584   6.421
 3975SOL    HW212825   5.259   0.658   6.405
 3976SOL     OW12826   1.617   5.258   1.483
 3976SOL    HW112827   1.686   5.198   1.443
 3976SOL    HW212828   1.662   5.324   1.544
 3977SOL     OW12829   3.015   4.569   5.422
 3977SOL    HW112830   2.993   4.519   5.338
 3977SOL    HW212831   2.932   4.587   5.474
 3978SOL     OW12832   5.343   0.206   4.800
 3978SOL    HW112833   5.435   0.223   4.765
 3978SOL    HW212834   5.293   0.149   4.735
 3979SOL     OW12835   2.368   5.841   1.615
 3979SOL    HW112836   2.362   5.930   1.661
 3979SOL    HW212837   2.390   5.855   1.519
 3980SOL     OW12838   0.136   4.699   6.847
 3980SOL    HW112839   0.186   4.614   6.831
 3980SOL    HW212840   0.199   4.771   6.876
 3981SOL     OW12841   1.900   1.233   6.277
 3981SOL    HW112842   1.837   1.180   6.335
 3981SOL    HW212843   1.947   1.301   6.334
 3982SOL     OW12844   1.752   1.004   4.424
 3982SOL    HW112845   1.765   1.056   4.508
 3982SOL    HW212846   1.840   0.991   4.379
 3983SOL     OW12847   4.065   5.482   3.980
 3983SOL    HW112848   3.999   5.502   4.053
 3983SOL    HW212849   4.016   5.472   3.893
 3984SOL     OW12850   1.711   0.891   2.848
 3984SOL    HW112851   1.767   0.947   2.909
 3984SOL    HW212852   1.639   0.948   2.808
 3985SOL     OW12853   3.309   4.831   6.539
 3985SOL    HW112854   3.266   4.791   6.458
 3985SOL    HW212855   3.348   4.758   6.595
 3986SOL     OW12856   6.989   2.216   2.395
 3986SOL    HW112857   0.033   2.262   2.335
 3986SOL    HW212858   7.011   2.119   2.401
 3987SOL     OW12859   2.538   5.495   4.335
 3987SOL    HW112860   2.586   5.492   4.422
 3987SOL    HW212861   2.602   5.477   4.260
 3988SOL     OW12862   3.077   3.116   6.686
 3988SOL    HW112863   3.175   3.125   6.670
 3988SOL    HW212864   3.056   3.022   6.714
 3989SOL     OW12865   6.676   1.332   0.333
 3989SOL    HW112866   6.666   1.419   0.383
 3989SOL    HW212867   6.749   1.340   0.266
 3990SOL     OW12868   5.819   2.492   3.557
 3990SOL    HW112869   5.803   2.486   3.458
 3990SOL    HW212870   5.910   2.531   3.573
 3991SOL     OW12871   5.834   1.832   2.232
 3991SOL    HW112872   5.875   1.762   2.291
 3991SOL    HW212873   5.735   1.816   2.226
 3992SOL     OW12874   3.779   2.581   6.822
 3992SOL    HW112875   3.807   2.581   6.726
 3992SOL    HW212876   3.690   2.535   6.831
 3993SOL     OW12877   0.449   2.371   2.997
 3993SOL    HW112878   0.543   2.336   2.996
 3993SOL    HW212879   0.386   2.298   2.973
 3994SOL     OW12880   0.904   2.678   6.073
 3994SOL    HW112881   0.885   2.589   6.032
 3994SOL    HW212882   0.992   2.712   6.040
 3995SOL     OW12883   2.037   3.818   4.101
 3995SOL    HW112884   2.054   3.917   4.099
 3995SOL    HW212885   2.116   3.770   4.063
 3996SOL     OW12886   0.673   1.064   4.331
 3996SOL    HW112887   0.656   1.132   4.259
 3996SOL    HW212888   0.588   1.015   4.351
 3997SOL     OW12889   4.669   2.617   2.964
 3997SOL    HW112890   4.694   2.699   2.912
 3997SOL    HW212891   4.575   2.626   2.998
 3998SOL     OW12892   4.549   0.974   2.583
 3998SOL    HW112893   4.519   0.887   2.622
 3998SOL    HW212894   4.560   0.964   2.484
 3999SOL     OW12895   5.434   3.191   3.870
 3999SOL    HW112896   5.449   3.138   3.954
 3999SOL    HW212897   5.523   3.216   3.831
 4000SOL     OW12898   3.092   5.122   2.968
 4000SOL    HW112899   3.093   5.026   2.942
 4000SOL    HW212900   3.106   5.130   3.067
 4001SOL     OW12901   1.718   1.765   3.833
 4001SOL    HW112902   1.692   1.738   3.740
 4001SOL    HW212903   1.816   1.785   3.835
 4002SOL     OW12904   2.518   2.864   0.246
 4002SOL    HW112905   2.609   2.828   0.227
 4002SOL    HW212906   2.483   2.912   0.166
 4003SOL     OW12907   2.513   6.691   5.321
 4003SOL    HW112908   2.484   6.596   5.328
 4003SOL    HW212909   2.448   6.742   5.265
 4004SOL     OW12910   6.447   2.110   3.554
 4004SOL    HW112911   6.424   2.167   3.475
 4004SOL    HW212912   6.370   2.050   3.576
 4005SOL     OW12913   5.345   5.258   1.235
 4005SOL    HW112914   5.441   5.231   1.224
 4005SOL    HW212915   5.299   5.191   1.293
 4006SOL     OW12916   4.041   5.122   2.213
 4006SOL    HW112917   4.065   5.185   2.286
 4006SOL    HW212918   3.976   5.054   2.248
 4007SOL     OW12919   0.740   3.278   1.275
 4007SOL    HW112920   0.708   3.240   1.361
 4007SOL    HW212921   0.839   3.270   1.268
 4008SOL     OW12922   3.532   2.104   4.111
 4008SOL    HW112923   3.582   2.099   4.025
 4008SOL    HW212924   3.438   2.072   4.097
 4009SOL     OW12925   5.330   2.568   0.338
 4009SOL    HW112926   5.345   2.483   0.287
 4009SOL    HW212927   5.246   2.560   0.392
 4010SOL     OW12928   2.088   3.432   1.030
 4010SOL    HW112929   2.000   3.421   1.077
 4010SOL    HW212930   2.134   3.514   1.065
 4011SOL     OW12931   1.081   0.895   1.372
 4011SOL    HW112932   0.997   0.941   1.342
 4011SOL    HW212933   1.079   0.800   1.343
 4012SOL     OW12934   4.435   4.791   1.955
 4012SOL    HW112935   4.409   4.698   1.929
 4012SOL    HW212936   4.364   4.830   2.013
 4013SOL     OW12937   2.557   0.476   1.004
 4013SOL    HW112938   2.480   0.486   1.067
 4013SOL    HW212939   2.611   0.560   1.004
 4014SOL     OW12940   4.352   6.295   2.967
 4014SOL    HW112941   4.449   6.314   2.984
 4014SOL    HW212942   4.298   6.318   3.048
 4015SOL     OW12943   4.676   5.975   6.368
 4015SOL    HW112944   4.736   5.919   6.311
 4015SOL    HW212945   4.592   5.998   6.317
 4016SOL     OW12946   1.489   5.928   6.462
 4016SOL    HW112947   1.535   5.926   6.373
 4016SOL    HW212948   1.414   5.862   6.462
 4017SOL     OW12949   7.012   6.518   6.872
 4017SOL    HW112950   0.040   6.540   6.955
 4017SOL    HW212951   7.018   6.594   6.807
 4018SOL     OW12952   5.774   6.752   2.129
 4018SOL    HW112953   5.756   6.701   2.045
 4018SOL    HW212954   5.690   6.754   2.184
 4019SOL     OW12955   5.586   3.526   2.872
 4019SOL    HW112956   5.649   3.523   2.794
 4019SOL    HW212957   5.638   3.519   2.957
 4020SOL     OW12958   5.711   2.388   5.515
 4020SOL    HW112959   5.802   2.358   5.486
 4020SOL    HW212960   5.719   2.451   5.592
 4021SOL     OW12961   3.062   3.079   5.655
 4021SOL    HW112962   2.990   3.054   5.720
 4021SOL    HW212963   3.023   3.085   5.563
 4022SOL     OW12964   4.314   0.528   6.834
 4022SOL    HW112965   4.215   0.513   6.842
 4022SOL    HW212966   4.338   0.615   6.876
 4023SOL     OW12967   6.571   1.662   4.726
 4023SOL    HW112968   6.508   1.715   4.669
 4023SOL    HW212969   6.526   1.579   4.757
 4024SOL     OW12970   2.817   5.221   4.222
 4024SOL    HW112971   2.819   5.158   4.144
 4024SOL    HW212972   2.871   5.183   4.297
 4025SOL     OW12973   0.680   6.267   4.618
 4025SOL    HW112974   0.616   6.196   4.590
 4025SOL    HW212975   0.750   6.228   4.679
 4026SOL     OW12976   6.170   6.040   4.101
 4026SOL    HW112977   6.208   6.062   4.191
 4026SOL    HW212978   6.100   6.108   4.078
 4027SOL     OW12979   3.109   4.029   2.022
 4027SOL    HW112980   3.067   4.119   2.007
 4027SOL    HW212981   3.040   3.965   2.056
 4028SOL     OW12982   2.121   2.401   3.479
 4028SOL    HW112983   2.094   2.468   3.548
 4028SOL    HW212984   2.096   2.434   3.388
 4029SOL     OW12985   2.531   4.416   6.165
 4029SOL    HW112986   2.516   4.478   6.088
 4029SOL    HW212987   2.581   4.463   6.237
 4030SOL     OW12988   1.534   1.737   6.842
 4030SOL    HW112989   1.524   1.639   6.822
 4030SOL    HW212990   1.525   1.752   6.941
 4031SOL     OW12991   4.763   5.906   3.147
 4031SOL    HW112992   4.689   5.840   3.137
 4031SOL    HW212993   4.837   5.866   3.201
 4032SOL     OW12994   6.194   0.214   2.901
 4032SOL    HW112995   6.131   0.278   2.945
 4032SOL    HW212996   6.163   0.196   2.808
 4033SOL     OW12997   2.920   3.449   2.766
 4033SOL    HW112998   2.931   3.354   2.737
 4033SOL    HW212999   2.934   3.456   2.865
 4034SOL     OW13000   6.136   1.790   4.953
 4034SOL    HW113001   6.179   1.822   4.868
 4034SOL    HW213002   6.106   1.868   5.007
 4035SOL     OW13003   0.473   2.536   0.767
 4035SOL    HW113004   0.479   2.525   0.866
 4035SOL    HW213005   0.381   2.511   0.736
 4036SOL     OW13006   5.156   6.746   2.703
 4036SOL    HW113007   5.057   6.734   2.690
 4036SOL    HW213008   5.172   6.809   2.778
 4037SOL     OW13009   1.755   2.435   0.399
 4037SOL    HW113010   1.736   2.528   0.367
 4037SOL    HW213011   1.688   2.372   0.358
 4038SOL     OW13012   4.650   4.749   2.144
 4038SOL    HW113013   4.625   4.696   2.225
 4038SOL    HW213014   4.571   4.757   2.083
 4039SOL     OW13015   4.665   4.750   1.687
 4039SOL    HW113016   4.594   4.699   1.737
 4039SOL    HW213017   4.721   4.801   1.752
 4040SOL     OW13018   3.401   6.954   6.042
 4040SOL    HW113019   3.343   6.970   6.122
 4040SOL    HW213020   3.363   7.003   5.963
 4041SOL     OW13021   2.420   5.509   1.161
 4041SOL    HW113022   2.505   5.516   1.214
 4041SOL    HW213023   2.393   5.600   1.129
 4042SOL     OW13024   6.313   4.931   2.977
 4042SOL    HW113025   6.221   4.968   2.963
 4042SOL    HW213026   6.359   4.919   2.889
 4043SOL     OW13027   5.199   2.403   4.320
 4043SOL    HW113028   5.114   2.378   4.366
 4043SOL    HW213029   5.182   2.419   4.223
 4044SOL     OW13030   4.969   0.670   4.236
 4044SOL    HW113031   5.017   0.743   4.286
 4044SOL    HW213032   4.885   0.708   4.196
 4045SOL     OW13033   2.846   4.476   6.097
 4045SOL    HW113034   2.835   4.383   6.061
 4045SOL    HW213035   2.807   4.541   6.032
 4046SOL     OW13036   0.891   1.143   3.585
 4046SOL    HW113037   0.816   1.085   3.555
 4046SOL    HW213038   0.899   1.222   3.524
 4047SOL     OW13039   2.671   2.730   1.014
 4047SOL    HW113040   2.601   2.721   0.944
 4047SOL    HW213041   2.668   2.652   1.076
 4048SOL     OW13042   5.247   1.622   2.233
 4048SOL    HW113043   5.327   1.628   2.174
 4048SOL    HW213044   5.265   1.672   2.318
 4049SOL     OW13045   6.274   6.169   0.320
 4049SOL    HW113046   6.314   6.155   0.230
 4049SOL    HW213047   6.311   6.252   0.361
 4050SOL     OW13048   2.300   6.363   0.520
 4050SOL    HW113049   2.367   6.292   0.496
 4050SOL    HW213050   2.310   6.441   0.458
 4051SOL     OW13051   3.632   3.055   0.441
 4051SOL    HW113052   3.633   3.138   0.498
 4051SOL    HW213053   3.560   2.994   0.473
 4052SOL     OW13054   0.450   0.630   1.686
 4052SOL    HW113055   0.462   0.534   1.659
 4052SOL    HW213056   0.401   0.634   1.773
 4053SOL     OW13057   3.229   5.289   3.872
 4053SOL    HW113058   3.306   5.292   3.936
 4053SOL    HW213059   3.172   5.209   3.890
 4054SOL     OW13060   1.270   2.943   1.385
 4054SOL    HW113061   1.297   2.938   1.482
 4054SOL    HW213062   1.332   3.004   1.336
 4055SOL     OW13063   3.535   3.683   5.801
 4055SOL    HW113064   3.483   3.635   5.730
 4055SOL    HW213065   3.599   3.747   5.759
 4056SOL     OW13066   4.435   2.762   0.240
 4056SOL    HW113067   4.366   2.814   0.289
 4056SOL    HW213068   4.411   2.757   0.143
 4057SOL     OW13069   5.645   2.358   0.060
 4057SOL    HW113070   5.547   2.374   0.048
 4057SOL    HW213071   5.696   2.425   0.006
 4058SOL     OW13072   1.420   1.281   4.492
 4058SOL    HW113073   1.386   1.357   4.436
 4058SOL    HW213074   1.396   1.195   4.448
 4059SOL     OW13075   1.681   2.476   3.333
 4059SOL    HW113076   1.727   2.531   3.263
 4059SOL    HW213077   1.694   2.379   3.312
 4060SOL     OW13078   4.605   5.559   5.551
 4060SOL    HW113079   4.588   5.517   5.462
 4060SOL    HW213080   4.555   5.509   5.622
 4061SOL     OW13081   3.330   4.857   1.867
 4061SOL    HW113082   3.355   4.949   1.898
 4061SOL    HW213083   3.406   4.794   1.884
 4062SOL     OW13084   3.200   1.221   3.283
 4062SOL    HW113085   3.135   1.146   3.275
 4062SOL    HW213086   3.245   1.217   3.372
 4063SOL     OW13087   5.097   0.192   5.158
 4063SOL    HW113088   5.035   0.115   5.174
 4063SOL    HW213089   5.051   0.277   5.183
 4064SOL     OW13090   1.449   6.673   3.421
 4064SOL    HW113091   1.540   6.696   3.455
 4064SOL    HW213092   1.382   6.736   3.460
 4065SOL     OW13093   1.127   6.704   0.181
 4065SOL    HW113094   1.188   6.665   0.112
 4065SOL    HW213095   1.141   6.803   0.186
 4066SOL     OW13096   5.302   5.230   2.686
 4066SOL    HW113097   5.311   5.191   2.778
 4066SOL    HW213098   5.273   5.325   2.694
 4067SOL     OW13099   6.132   3.499   2.251
 4067SOL    HW113100   6.216   3.529   2.295
 4067SOL    HW213101   6.053   3.527   2.306
 4068SOL     OW13102   3.772   0.444   4.416
 4068SOL    HW113103   3.799   0.519   4.476
 4068SOL    HW213104   3.769   0.359   4.469
 4069SOL     OW13105   3.888   3.812   6.562
 4069SOL    HW113106   3.878   3.911   6.555
 4069SOL    HW213107   3.937   3.778   6.482
 4070SOL     OW13108   1.362   3.318   3.107
 4070SOL    HW113109   1.310   3.304   3.192
 4070SOL    HW213110   1.446   3.369   3.128
 4071SOL     OW13111   1.317   0.736   5.008
 4071SOL    HW113112   1.409   0.773   4.999
 4071SOL    HW213113   1.256   0.806   5.044
 4072SOL     OW13114   0.607   6.294   4.094
 4072SOL    HW113115   0.568   6.356   4.026
 4072SOL    HW213116   0.706   6.307   4.098
 4073SOL     OW13117   2.235   5.424   5.528
 4073SOL    HW113118   2.264   5.375   5.446
 4073SOL    HW213119   2.285   5.389   5.607
 4074SOL     OW13120   1.094   2.240   2.119
 4074SOL    HW113121   1.158   2.205   2.187
 4074SOL    HW213122   1.024   2.171   2.100
 4075SOL     OW13123   4.597   2.345   2.842
 4075SOL    HW113124   4.659   2.423   2.829
 4075SOL    HW213125   4.639   2.263   2.802
 4076SOL     OW13126   2.200   3.752   5.970
 4076SOL    HW113127   2.142   3.805   5.908
 4076SOL    HW213128   2.269   3.812   6.011
 4077SOL     OW13129   3.039   6.601   6.856
 4077SOL    HW113130   3.070   6.515   6.895
 4077SOL    HW213131   2.942   6.595   6.834
 4078SOL     OW13132   6.802   5.572   1.725
 4078SOL    HW113133   6.703   5.566   1.742
 4078SOL    HW213134   6.849   5.505   1.782
 4079SOL     OW13135   0.940   1.362   3.443
 4079SOL    HW113136   0.990   1.404   3.518
 4079SOL    HW213137   1.004   1.311   3.385
 4080SOL     OW13138   2.867   3.572   0.725
 4080SOL    HW113139   2.812   3.529   0.797
 4080SOL    HW213140   2.861   3.517   0.641
 4081SOL     OW13141   1.382   1.206   3.753
 4081SOL    HW113142   1.400   1.251   3.840
 4081SOL    HW213143   1.347   1.114   3.769
 4082SOL     OW13144   1.629   1.781   0.714
 4082SOL    HW113145   1.615   1.759   0.811
 4082SOL    HW213146   1.644   1.879   0.704
 4083SOL     OW13147   5.929   4.022   3.755
 4083SOL    HW113148   5.855   4.088   3.769
 4083SOL    HW213149   5.911   3.971   3.671
 4084SOL     OW13150   4.856   2.842   3.068
 4084SOL    HW113151   4.956   2.838   3.068
 4084SOL    HW213152   4.824   2.878   2.981
 4085SOL     OW13153   2.749   5.227   0.572
 4085SOL    HW113154   2.664   5.258   0.529
 4085SOL    HW213155   2.759   5.129   0.559
 4086SOL     OW13156   0.037   4.957   1.074
 4086SOL    HW113157   0.001   4.890   1.009
 4086SOL    HW213158   0.126   4.927   1.108
 4087SOL     OW13159   2.474   0.902   3.199
 4087SOL    HW113160   2.480   0.918   3.297
 4087SOL    HW213161   2.397   0.952   3.161
 4088SOL     OW13162   6.630   1.367   5.896
 4088SOL    HW113163   6.610   1.460   5.866
 4088SOL    HW213164   6.552   1.331   5.947
 4089SOL     OW13165   6.314   5.583   4.897
 4089SOL    HW113166   6.400   5.620   4.933
 4089SOL    HW213167   6.333   5.496   4.850
 4090SOL     OW13168   2.005   5.628   5.261
 4090SOL    HW113169   1.964   5.686   5.331
 4090SOL    HW213170   2.058   5.685   5.197
 4091SOL     OW13171   0.453   5.657   6.922
 4091SOL    HW113172   0.427   5.573   6.968
 4091SOL    HW213173   0.421   5.736   6.976
 4092SOL     OW13174   6.029   2.157   3.783
 4092SOL    HW113175   6.034   2.243   3.832
 4092SOL    HW213176   5.962   2.097   3.827
 4093SOL     OW13177   5.488   6.372   1.135
 4093SOL    HW113178   5.425   6.438   1.093
 4093SOL    HW213179   5.453   6.345   1.225
 4094SOL     OW13180   0.861   5.068   6.323
 4094SOL    HW113181   0.932   5.024   6.378
 4094SOL    HW213182   0.813   5.136   6.378
 4095SOL     OW13183   0.768   3.494   0.446
 4095SOL    HW113184   0.720   3.507   0.359
 4095SOL    HW213185   0.710   3.528   0.521
 4096SOL     OW13186   3.115   0.922   6.325
 4096SOL    HW113187   3.101   0.906   6.227
 4096SOL    HW213188   3.156   0.841   6.366
 4097SOL     OW13189   5.593   5.062   5.746
 4097SOL    HW113190   5.657   4.985   5.740
 4097SOL    HW213191   5.510   5.033   5.792
 4098SOL     OW13192   1.011   3.229   1.314
 4098SOL    HW113193   1.018   3.279   1.228
 4098SOL    HW213194   1.059   3.279   1.386
 4099SOL     OW13195   3.210   4.922   1.046
 4099SOL    HW113196   3.164   4.843   1.005
 4099SOL    HW213197   3.256   4.975   0.975
 4100SOL     OW13198   1.194   0.187   4.215
 4100SOL    HW113199   1.274   0.211   4.160
 4100SOL    HW213200   1.112   0.196   4.158
 4101SOL     OW13201   0.768   1.609   6.955
 4101SOL    HW113202   0.799   1.648   0.021
 4101SOL    HW213203   0.758   1.683   6.888
 4102SOL     OW13204   1.818   0.532   0.690
 4102SOL    HW113205   1.900   0.578   0.659
 4102SOL    HW213206   1.739   0.564   0.638
 4103SOL     OW13207   0.329   6.719   1.963
 4103SOL    HW113208   0.352   6.813   1.987
 4103SOL    HW213209   0.230   6.707   1.966
 4104SOL     OW13210   0.256   5.388   3.720
 4104SOL    HW113211   0.246   5.327   3.641
 4104SOL    HW213212   0.341   5.441   3.710
 4105SOL     OW13213   5.928   0.694   2.384
 4105SOL    HW113214   6.006   0.662   2.331
 4105SOL    HW213215   5.875   0.615   2.415
 4106SOL     OW13216   0.873   2.347   3.461
 4106SOL    HW113217   0.776   2.347   3.439
 4106SOL    HW213218   0.925   2.376   3.380
 4107SOL     OW13219   1.076   6.121   0.546
 4107SOL    HW113220   1.168   6.129   0.584
 4107SOL    HW213221   1.078   6.061   0.466
 4108SOL     OW13222   6.598   4.970   4.803
 4108SOL    HW113223   6.613   5.066   4.783
 4108SOL    HW213224   6.657   4.914   4.745
 4109SOL     OW13225   5.670   0.007   4.710
 4109SOL    HW113226   5.664   6.996   4.616
 4109SOL    HW213227   5.648   0.105   4.714
 4110SOL     OW13228   3.886   2.979   6.248
 4110SOL    HW113229   3.856   3.074   6.256
 4110SOL    HW213230   3.981   2.976   6.219
 4111SOL     OW13231   6.073   4.876   6.227
 4111SOL    HW113232   5.988   4.825   6.214
 4111SOL    HW213233   6.136   4.856   6.153
 4112SOL     OW13234   4.435   6.546   4.359
 4112SOL    HW113235   4.519   6.492   4.361
 4112SOL    HW213236   4.387   6.537   4.447
 4113SOL     OW13237   4.708   5.973   4.957
 4113SOL    HW113238   4.757   6.038   5.015
 4113SOL    HW213239   4.766   5.893   4.942
 4114SOL     OW13240   6.606   1.607   3.124
 4114SOL    HW113241   6.653   1.656   3.050
 4114SOL    HW213242   6.674   1.560   3.181
 4115SOL     OW13243   2.856   5.087   3.298
 4115SOL    HW113244   2.856   5.010   3.233
 4115SOL    HW213245   2.797   5.064   3.375
 4116SOL     OW13246   4.486   1.938   3.332
 4116SOL    HW113247   4.496   1.928   3.233
 4116SOL    HW213248   4.534   2.020   3.363
 4117SOL     OW13249   1.094   2.788   3.205
 4117SOL    HW113250   1.091   2.803   3.304
 4117SOL    HW213251   1.174   2.833   3.167
 4118SOL     OW13252   5.411   6.668   0.009
 4118SOL    HW113253   5.384   6.576   7.002
 4118SOL    HW213254   5.483   6.701   6.968
 4119SOL     OW13255   3.085   1.304   3.827
 4119SOL    HW113256   3.114   1.351   3.744
 4119SOL    HW213257   2.990   1.328   3.847
 4120SOL     OW13258   3.362   1.358   5.978
 4120SOL    HW113259   3.292   1.300   6.020
 4120SOL    HW213260   3.415   1.304   5.913
 4121SOL     OW13261   6.346   0.240   3.336
 4121SOL    HW113262   6.369   0.243   3.239
 4121SOL    HW213263   6.300   0.326   3.361
 4122SOL     OW13264   1.671   6.478   4.584
 4122SOL    HW113265   1.664   6.566   4.630
 4122SOL    HW213266   1.721   6.413   4.641
 4123SOL     OW13267   4.191   4.771   5.108
 4123SOL    HW113268   4.241   4.791   5.024
 4123SOL    HW213269   4.096   4.801   5.098
 4124SOL     OW13270   6.429   6.774   1.141
 4124SOL    HW113271   6.489   6.735   1.070
 4124SOL    HW213272   6.481   6.785   1.226
 4125SOL     OW13273   4.198   2.285   3.000
 4125SOL    HW113274   4.221   2.304   2.905
 4125SOL    HW213275   4.101   2.307   3.016
 4126SOL     OW13276   1.815   3.384   3.358
 4126SOL    HW113277   1.789   3.415   3.450
 4126SOL    HW213278   1.741   3.404   3.294
 4127SOL     OW13279   5.171   3.145   5.795
 4127SOL    HW113280   5.261   3.106   5.812
 4127SOL    HW213281   5.166   3.236   5.837
 4128SOL     OW13282   0.622   3.580   1.725
 4128SOL    HW113283   0.585   3.672   1.740
 4128SOL    HW213284   0.709   3.587   1.676
 4129SOL     OW13285   3.159   1.252   0.055
 4129SOL    HW113286   3.230   1.287   7.015
 4129SOL    HW213287   3.072   1.251   0.008
 4130SOL     OW13288   6.219   2.162   0.266
 4130SOL    HW113289   6.293   2.123   0.321
 4130SOL    HW213290   6.193   2.250   0.305
 4131SOL     OW13291   0.439   1.529   2.992
 4131SOL    HW113292   0.364   1.594   2.975
 4131SOL    HW213293   0.422   1.480   3.077
 4132SOL     OW13294   5.189   3.583   4.168
 4132SOL    HW113295   5.203   3.500   4.115
 4132SOL    HW213296   5.185   3.560   4.266
 4133SOL     OW13297   3.642   5.780   1.566
 4133SOL    HW113298   3.617   5.727   1.647
 4133SOL    HW213299   3.678   5.719   1.496
 4134SOL     OW13300   2.127   3.967   0.815
 4134SOL    HW113301   2.205   3.962   0.876
 4134SOL    HW213302   2.048   3.925   0.858
 4135SOL     OW13303   0.539   2.799   1.582
 4135SOL    HW113304   0.510   2.710   1.616
 4135SOL    HW213305   0.626   2.789   1.533
 4136SOL     OW13306   1.310   3.962   3.086
 4136SOL    HW113307   1.341   4.005   3.171
 4136SOL    HW213308   1.300   4.031   3.015
 4137SOL     OW13309   1.966   3.534   0.782
 4137SOL    HW113310   2.006   3.473   0.851
 4137SOL    HW213311   2.031   3.545   0.706
 4138SOL     OW13312   3.531   5.232   2.775
 4138SOL    HW113313   3.514   5.161   2.843
 4138SOL    HW213314   3.578   5.191   2.696
 4139SOL     OW13315   1.651   1.385   4.585
 4139SOL    HW113316   1.579   1.332   4.541
 4139SOL    HW213317   1.634   1.389   4.683
 4140SOL     OW13318   3.442   1.303   4.554
 4140SOL    HW113319   3.462   1.224   4.496
 4140SOL    HW213320   3.371   1.278   4.620
 4141SOL     OW13321   5.411   6.962   1.143
 4141SOL    HW113322   5.446   6.876   1.183
 4141SOL    HW213323   5.441   6.968   1.048
 4142SOL     OW13324   6.527   3.955   1.239
 4142SOL    HW113325   6.466   3.919   1.310
 4142SOL    HW213326   6.479   4.024   1.185
 4143SOL     OW13327   6.132   2.761   0.303
 4143SOL    HW113328   6.051   2.784   0.356
 4143SOL    HW213329   6.153   2.664   0.312
 4144SOL     OW13330   5.055   1.688   6.960
 4144SOL    HW113331   5.013   1.664   0.026
 4144SOL    HW213332   5.155   1.693   6.970
 4145SOL     OW13333   1.167   6.082   1.082
 4145SOL    HW113334   1.226   6.044   1.154
 4145SOL    HW213335   1.113   6.157   1.119
 4146SOL     OW13336   6.652   0.537   3.422
 4146SOL    HW113337   6.593   0.482   3.482
 4146SOL    HW213338   6.595   0.601   3.371
 4147SOL     OW13339   4.146   4.685   5.937
 4147SOL    HW113340   4.201   4.697   6.020
 4147SOL    HW213341   4.201   4.638   5.867
 4148SOL     OW13342   2.579   0.148   5.486
 4148SOL    HW113343   2.563   0.061   5.532
 4148SOL    HW213344   2.646   0.201   5.538
 4149SOL     OW13345   0.421   4.504   1.035
 4149SOL    HW113346   0.407   4.471   0.942
 4149SOL    HW213347   0.339   4.484   1.089
 4150SOL     OW13348   0.452   0.771   5.311
 4150SOL    HW113349   0.549   0.750   5.322
 4150SOL    HW213350   0.408   0.699   5.258
 4151SOL     OW13351   2.875   5.849   5.979
 4151SOL    HW113352   2.948   5.795   6.022
 4151SOL    HW213353   2.816   5.788   5.927
 4152SOL     OW13354   4.081   5.768   0.851
 4152SOL    HW113355   4.057   5.712   0.771
 4152SOL    HW213356   4.154   5.722   0.903
 4153SOL     OW13357   5.880   5.394   1.720
 4153SOL    HW113358   5.843   5.380   1.811
 4153SOL    HW213359   5.884   5.306   1.672
 4154SOL     OW13360   6.967   5.845   4.302
 4154SOL    HW113361   0.039   5.812   4.316
 4154SOL    HW213362   6.910   5.822   4.381
 4155SOL     OW13363   0.164   0.818   1.056
 4155SOL    HW113364   0.076   0.839   1.014
 4155SOL    HW213365   0.170   0.862   1.145
 4156SOL     OW13366   5.982   5.199   5.508
 4156SOL    HW113367   6.052   5.240   5.565
 4156SOL    HW213368   5.931   5.271   5.461
 4157SOL     OW13369   5.307   5.954   3.634
 4157SOL    HW113370   5.271   5.956   3.541
 4157SOL    HW213371   5.389   6.011   3.638
 4158SOL     OW13372   0.195   2.997   2.331
 4158SOL    HW113373   0.157   3.072   2.384
 4158SOL    HW213374   0.266   2.951   2.384
 4159SOL     OW13375   1.586   3.018   3.270
 4159SOL    HW113376   1.597   2.928   3.230
 4159SOL    HW213377   1.646   3.028   3.350
 4160SOL     OW13378   5.406   0.113   0.039
 4160SOL    HW113379   5.386   0.035   0.097
 4160SOL    HW213380   5.484   0.164   0.076
 4161SOL     OW13381   1.432   2.180   0.998
 4161SOL    HW113382   1.441   2.263   0.944
 4161SOL    HW213383   1.407   2.204   1.092
 4162SOL     OW13384   6.003   5.778   1.056
 4162SOL    HW113385   6.085   5.834   1.041
 4162SOL    HW213386   6.009   5.694   1.002
 4163SOL     OW13387   5.532   0.877   3.524
 4163SOL    HW113388   5.624   0.911   3.542
 4163SOL    HW213389   5.538   0.783   3.489
 4164SOL     OW13390   1.382   7.008   4.610
 4164SOL    HW113391   1.367   6.909   4.610
 4164SOL    HW213392   1.329   0.029   4.685
 4165SOL     OW13393   4.360   1.000   5.276
 4165SOL    HW113394   4.453   0.979   5.304
 4165SOL    HW213395   4.322   0.922   5.225
 4166SOL     OW13396   4.965   0.976   0.947
 4166SOL    HW113397   4.992   0.993   1.042
 4166SOL    HW213398   5.040   1.000   0.886
 4167SOL     OW13399   2.988   4.325   6.519
 4167SOL    HW113400   2.935   4.247   6.553
 4167SOL    HW213401   3.074   4.293   6.480
 4168SOL     OW13402   0.428   4.167   0.647
 4168SOL    HW113403   0.400   4.082   0.602
 4168SOL    HW213404   0.439   4.152   0.745
 4169SOL     OW13405   6.050   4.953   4.472
 4169SOL    HW113406   5.999   4.992   4.549
 4169SOL    HW213407   6.147   4.973   4.483
 4170SOL     OW13408   4.750   3.158   5.605
 4170SOL    HW113409   4.815   3.206   5.546
 4170SOL    HW213410   4.799   3.107   5.676
 4171SOL     OW13411   6.460   5.493   0.587
 4171SOL    HW113412   6.521   5.436   0.641
 4171SOL    HW213413   6.366   5.460   0.597
 4172SOL     OW13414   1.925   1.888   0.005
 4172SOL    HW113415   1.899   1.911   6.932
 4172SOL    HW213416   1.930   1.788   0.015
 4173SOL     OW13417   5.404   3.556   4.707
 4173SOL    HW113418   5.314   3.597   4.695
 4173SOL    HW213419   5.406   3.503   4.792
 4174SOL     OW13420   4.530   1.622   2.287
 4174SOL    HW113421   4.514   1.528   2.318
 4174SOL    HW213422   4.451   1.679   2.310
 4175SOL     OW13423   1.931   4.875   4.069
 4175SOL    HW113424   1.921   4.973   4.087
 4175SOL    HW213425   1.946   4.827   4.155
 4176SOL     OW13426   4.116   6.673   1.368
 4176SOL    HW113427   4.110   6.583   1.326
 4176SOL    HW213428   4.039   6.686   1.430
 4177SOL     OW13429   5.794   4.670   5.564
 4177SOL    HW113430   5.839   4.728   5.633
 4177SOL    HW213431   5.850   4.669   5.481
 4178SOL     OW13432   4.480   0.239   4.099
 4178SOL    HW113433   4.561   0.183   4.081
 4178SOL    HW213434   4.464   0.300   4.021
 4179SOL     OW13435   5.282   3.683   3.242
 4179SOL    HW113436   5.315   3.598   3.202
 4179SOL    HW213437   5.360   3.741   3.265
 4180SOL     OW13438   4.658   2.882   0.838
 4180SOL    HW113439   4.614   2.847   0.755
 4180SOL    HW213440   4.657   2.982   0.836
 4181SOL     OW13441   3.758   0.964   6.922
 4181SOL    HW113442   3.778   1.062   6.921
 4181SOL    HW213443   3.723   0.936   6.833
 4182SOL     OW13444   0.176   5.932   3.304
 4182SOL    HW113445   0.238   5.867   3.347
 4182SOL    HW213446   0.082   5.908   3.327
 4183SOL     OW13447   2.265   1.709   0.017
 4183SOL    HW113448   2.267   1.623   6.987
 4183SOL    HW213449   2.282   1.785   6.975
 4184SOL     OW13450   3.159   6.526   2.628
 4184SOL    HW113451   3.126   6.463   2.699
 4184SOL    HW213452   3.256   6.509   2.612
 4185SOL     OW13453   0.887   4.451   2.934
 4185SOL    HW113454   0.949   4.487   3.004
 4185SOL    HW213455   0.841   4.369   2.968
 4186SOL     OW13456   2.367   5.126   6.357
 4186SOL    HW113457   2.360   5.142   6.456
 4186SOL    HW213458   2.446   5.067   6.340
 4187SOL     OW13459   3.231   3.288   5.534
 4187SOL    HW113460   3.193   3.216   5.592
 4187SOL    HW213461   3.226   3.260   5.438
 4188SOL     OW13462   4.936   0.735   4.966
 4188SOL    HW113463   4.904   0.646   4.999
 4188SOL    HW213464   4.863   0.778   4.912
 4189SOL     OW13465   2.972   5.145   4.513
 4189SOL    HW113466   2.957   5.147   4.612
 4189SOL    HW213467   2.993   5.051   4.485
 4190SOL     OW13468   0.870   0.679   1.099
 4190SOL    HW113469   0.828   0.648   1.014
 4190SOL    HW213470   0.969   0.684   1.088
 4191SOL     OW13471   4.663   4.573   3.547
 4191SOL    HW113472   4.683   4.476   3.538
 4191SOL    HW213473   4.615   4.590   3.634
 4192SOL     OW13474   0.567   1.883   3.423
 4192SOL    HW113475   0.639   1.877   3.354
 4192SOL    HW213476   0.485   1.837   3.390
 4193SOL     OW13477   6.740   0.384   0.825
 4193SOL    HW113478   6.647   0.355   0.846
 4193SOL    HW213479   6.781   0.427   0.906
 4194SOL     OW13480   4.725   0.407   4.716
 4194SOL    HW113481   4.800   0.414   4.781
 4194SOL    HW213482   4.758   0.365   4.631
 4195SOL     OW13483   4.078   6.108   1.051
 4195SOL    HW113484   4.116   6.095   0.959
 4195SOL    HW213485   4.103   6.199   1.084
 4196SOL     OW13486   6.021   2.805   2.696
 4196SOL    HW113487   5.943   2.801   2.759
 4196SOL    HW213488   6.089   2.736   2.723
 4197SOL     OW13489   5.173   5.813   6.070
 4197SOL    HW113490   5.082   5.815   6.112
 4197SOL    HW213491   5.227   5.890   6.105
 4198SOL     OW13492   6.570   1.834   0.582
 4198SOL    HW113493   6.490   1.850   0.523
 4198SOL    HW213494   6.543   1.843   0.678
 4199SOL     OW13495   1.818   2.325   6.190
 4199SOL    HW113496   1.867   2.337   6.103
 4199SOL    HW213497   1.831   2.406   6.246
 4200SOL     OW13498   2.916   0.040   6.396
 4200SOL    HW113499   2.872   0.045   6.307
 4200SOL    HW213500   2.924   0.131   6.435
 4201SOL     OW13501   6.207   6.730   3.559
 4201SOL    HW113502   6.167   6.762   3.644
 4201SOL    HW213503   6.302   6.764   3.552
 4202SOL     OW13504   3.736   5.671   5.898
 4202SOL    HW113505   3.733   5.608   5.975
 4202SOL    HW213506   3.796   5.749   5.919
 4203SOL     OW13507   3.905   4.177   0.090
 4203SOL    HW113508   3.913   4.257   0.030
 4203SOL    HW213509   3.911   4.093   0.035
 4204SOL     OW13510   4.103   3.621   3.756
 4204SOL    HW113511   4.160   3.550   3.714
 4204SOL    HW213512   4.039   3.657   3.689
 4205SOL     OW13513   4.338   6.295   3.844
 4205SOL    HW113514   4.425   6.333   3.812
 4205SOL    HW213515   4.347   6.266   3.939
 4206SOL     OW13516   6.249   0.641   5.374
 4206SOL    HW113517   6.302   0.563   5.341
 4206SOL    HW213518   6.308   0.702   5.428
 4207SOL     OW13519   1.857   1.960   1.763
 4207SOL    HW113520   1.923   1.944   1.690
 4207SOL    HW213521   1.776   2.005   1.726
 4208SOL     OW13522   0.048   3.685   5.298
 4208SOL    HW113523   0.074   3.775   5.263
 4208SOL    HW213524   0.026   3.692   5.395
 4209SOL     OW13525   6.938   0.396   3.762
 4209SOL    HW113526   0.016   0.393   3.781
 4209SOL    HW213527   6.904   0.303   3.749
 4210SOL     OW13528   4.163   3.675   2.138
 4210SOL    HW113529   4.143   3.584   2.103
 4210SOL    HW213530   4.180   3.737   2.062
 4211SOL     OW13531   3.977   0.098   6.422
 4211SOL    HW113532   4.035   0.029   6.465
 4211SOL    HW213533   3.958   0.071   6.328
 4212SOL     OW13534   6.350   1.834   2.617
 4212SOL    HW113535   6.414   1.806   2.546
 4212SOL    HW213536   6.272   1.881   2.576
 4213SOL     OW13537   2.181   0.323   1.733
 4213SOL    HW113538   2.118   0.283   1.799
 4213SOL    HW213539   2.144   0.410   1.699
 4214SOL     OW13540   0.911   5.499   5.019
 4214SOL    HW113541   0.879   5.407   5.044
 4214SOL    HW213542   0.883   5.519   4.925
 4215SOL     OW13543   4.643   0.309   6.103
 4215SOL    HW113544   4.659   0.400   6.066
 4215SOL    HW213545   4.728   0.271   6.138
 4216SOL     OW13546   1.398   1.306   2.867
 4216SOL    HW113547   1.414   1.305   2.768
 4216SOL    HW213548   1.471   1.255   2.913
 4217SOL     OW13549   1.357   0.585   2.585
 4217SOL    HW113550   1.327   0.572   2.490
 4217SOL    HW213551   1.435   0.647   2.587
 4218SOL     OW13552   4.338   1.139   1.856
 4218SOL    HW113553   4.312   1.180   1.769
 4218SOL    HW213554   4.341   1.039   1.846
 4219SOL     OW13555   4.054   5.995   3.799
 4219SOL    HW113556   3.995   6.027   3.873
 4219SOL    HW213557   4.136   5.954   3.838
 4220SOL     OW13558   6.482   3.576   3.487
 4220SOL    HW113559   6.508   3.514   3.561
 4220SOL    HW213560   6.539   3.558   3.407
 4221SOL     OW13561   6.141   5.342   6.138
 4221SOL    HW113562   6.232   5.365   6.105
 4221SOL    HW213563   6.102   5.269   6.082
 4222SOL     OW13564   0.158   1.793   2.139
 4222SOL    HW113565   0.235   1.800   2.076
 4222SOL    HW213566   0.171   1.713   2.199
 4223SOL     OW13567   3.343   3.213   6.818
 4223SOL    HW113568   3.406   3.285   6.847
 4223SOL    HW213569   3.385   3.159   6.744
 4224SOL     OW13570   4.823   4.365   3.943
 4224SOL    HW113571   4.753   4.358   3.872
 4224SOL    HW213572   4.909   4.397   3.903
 4225SOL     OW13573   3.025   2.377   5.757
 4225SOL    HW113574   2.963   2.315   5.806
 4225SOL    HW213575   3.072   2.326   5.686
 4226SOL     OW13576   1.054   0.273   2.870
 4226SOL    HW113577   1.092   0.356   2.831
 4226SOL    HW213578   1.040   0.285   2.968
 4227SOL     OW13579   3.747   5.049   1.483
 4227SOL    HW113580   3.660   5.041   1.434
 4227SOL    HW213581   3.780   4.959   1.509
 4228SOL     OW13582   1.040   5.032   4.831
 4228SOL    HW113583   1.122   5.059   4.780
 4228SOL    HW213584   1.026   5.097   4.906
 4229SOL     OW13585   5.188   6.303   5.973
 4229SOL    HW113586   5.166   6.284   5.877
 4229SOL    HW213587   5.111   6.277   6.031
 4230SOL     OW13588   0.843   5.964   2.544
 4230SOL    HW113589   0.906   5.944   2.469
 4230SOL    HW213590   0.895   5.997   2.623
 4231SOL     OW13591   6.021   0.095   5.538
 4231SOL    HW113592   6.003   0.121   5.633
 4231SOL    HW213593   5.985   0.165   5.477
 4232SOL     OW13594   0.194   4.719   3.077
 4232SOL    HW113595   0.172   4.815   3.060
 4232SOL    HW213596   0.285   4.712   3.116
 4233SOL     OW13597   6.798   0.128   5.600
 4233SOL    HW113598   6.889   0.112   5.562
 4233SOL    HW213599   6.795   0.096   5.695
 4234SOL     OW13600   2.590   6.256   4.824
 4234SOL    HW113601   2.492   6.258   4.844
 4234SOL    HW213602   2.605   6.258   4.725
 4235SOL     OW13603   5.448   4.170   5.800
 4235SOL    HW113604   5.511   4.119   5.742
 4235SOL    HW213605   5.499   4.214   5.874
 4236SOL     OW13606   6.384   3.696   2.351
 4236SOL    HW113607   6.456   3.755   2.316
 4236SOL    HW213608   6.401   3.677   2.448
 4237SOL     OW13609   5.345   5.785   3.114
 4237SOL    HW113610   5.264   5.801   3.057
 4237SOL    HW213611   5.416   5.742   3.059
 4238SOL     OW13612   2.627   6.005   2.870
 4238SOL    HW113613   2.615   6.040   2.777
 4238SOL    HW213614   2.721   6.022   2.900
 4239SOL     OW13615   6.136   1.987   2.509
 4239SOL    HW113616   6.051   2.039   2.502
 4239SOL    HW213617   6.210   2.048   2.538
 4240SOL     OW13618   2.398   5.706   0.567
 4240SOL    HW113619   2.412   5.643   0.643
 4240SOL    HW213620   2.300   5.709   0.544
 4241SOL     OW13621   6.192   1.126   0.249
 4241SOL    HW113622   6.249   1.207   0.247
 4241SOL    HW213623   6.135   1.128   0.331
 4242SOL     OW13624   3.216   1.552   4.280
 4242SOL    HW113625   3.241   1.462   4.315
 4242SOL    HW213626   3.180   1.543   4.188
 4243SOL     OW13627   6.384   2.764   3.038
 4243SOL    HW113628   6.476   2.730   3.025
 4243SOL    HW213629   6.387   2.862   3.058
 4244SOL     OW13630   4.499   4.294   1.440
 4244SOL    HW113631   4.530   4.386   1.464
 4244SOL    HW213632   4.445   4.256   1.515
 4245SOL     OW13633   6.918   1.480   6.778
 4245SOL    HW113634   6.956   1.454   6.689
 4245SOL    HW213635   6.954   1.569   6.805
 4246SOL     OW13636   0.039   4.158   3.460
 4246SOL    HW113637   0.000   4.067   3.447
 4246SOL    HW213638   0.115   4.153   3.524
 4247SOL     OW13639   2.915   5.521   3.679
 4247SOL    HW113640   2.887   5.560   3.591
 4247SOL    HW213641   2.892   5.424   3.680
 4248SOL     OW13642   3.207   1.461   2.680
 4248SOL    HW113643   3.214   1.561   2.669
 4248SOL    HW213644   3.182   1.420   2.592
 4249SOL     OW13645   5.623   2.369   3.257
 4249SOL    HW113646   5.617   2.337   3.162
 4249SOL    HW213647   5.700   2.324   3.302
 4250SOL     OW13648   6.253   4.442   2.913
 4250SOL    HW113649   6.276   4.358   2.865
 4250SOL    HW213650   6.325   4.510   2.898
 4251SOL     OW13651   5.263   4.574   1.983
 4251SOL    HW113652   5.183   4.589   1.925
 4251SOL    HW213653   5.342   4.552   1.925
 4252SOL     OW13654   5.432   6.350   6.466
 4252SOL    HW113655   5.408   6.403   6.384
 4252SOL    HW213656   5.530   6.330   6.464
 4253SOL     OW13657   3.484   6.863   1.078
 4253SOL    HW113658   3.472   6.957   1.046
 4253SOL    HW213659   3.552   6.817   1.021
 4254SOL     OW13660   0.794   3.321   2.082
 4254SOL    HW113661   0.702   3.330   2.044
 4254SOL    HW213662   0.845   3.252   2.030
 4255SOL     OW13663   0.205   4.398   3.809
 4255SOL    HW113664   0.189   4.325   3.875
 4255SOL    HW213665   0.148   4.477   3.831
 4256SOL     OW13666   2.304   6.611   0.388
 4256SOL    HW113667   2.230   6.595   0.324
 4256SOL    HW213668   2.271   6.671   0.462
 4257SOL     OW13669   2.741   0.573   4.602
 4257SOL    HW113670   2.734   0.606   4.696
 4257SOL    HW213671   2.832   0.594   4.566
 4258SOL     OW13672   4.516   6.184   1.186
 4258SOL    HW113673   4.540   6.111   1.250
 4258SOL    HW213674   4.596   6.240   1.167
 4259SOL     OW13675   2.748   0.685   0.996
 4259SOL    HW113676   2.802   0.693   0.912
 4259SOL    HW213677   2.725   0.776   1.030
 4260SOL     OW13678   5.499   0.367   1.243
 4260SOL    HW113679   5.425   0.334   1.303
 4260SOL    HW213680   5.558   0.290   1.220
 4261SOL     OW13681   1.862   0.144   2.703
 4261SOL    HW113682   1.849   0.243   2.710
 4261SOL    HW213683   1.948   0.119   2.746
 4262SOL     OW13684   0.805   5.184   6.071
 4262SOL    HW113685   0.724   5.242   6.063
 4262SOL    HW213686   0.811   5.149   6.165
 4263SOL     OW13687   3.230   6.309   3.185
 4263SOL    HW113688   3.327   6.297   3.207
 4263SOL    HW213689   3.199   6.399   3.215
 4264SOL     OW13690   0.178   2.373   2.732
 4264SOL    HW113691   0.247   2.301   2.730
 4264SOL    HW213692   0.092   2.335   2.765
 4265SOL     OW13693   5.194   1.596   0.808
 4265SOL    HW113694   5.147   1.672   0.853
 4265SOL    HW213695   5.151   1.510   0.835
 4266SOL     OW13696   1.877   5.831   0.578
 4266SOL    HW113697   1.923   5.859   0.494
 4266SOL    HW213698   1.863   5.732   0.577
 4267SOL     OW13699   2.020   2.902   4.191
 4267SOL    HW113700   1.950   2.970   4.170
 4267SOL    HW213701   1.976   2.818   4.224
 4268SOL     OW13702   1.249   6.104   0.011
 4268SOL    HW113703   1.344   6.129   0.025
 4268SOL    HW213704   1.192   6.145   0.084
 4269SOL     OW13705   2.886   0.398   1.978
 4269SOL    HW113706   2.862   0.495   1.984
 4269SOL    HW213707   2.821   0.350   1.919
 4270SOL     OW13708   4.155   3.527   3.414
 4270SOL    HW113709   4.168   3.454   3.481
 4270SOL    HW213710   4.075   3.582   3.439
 4271SOL     OW13711   6.519   1.286   6.775
 4271SOL    HW113712   6.561   1.199   6.802
 4271SOL    HW213713   6.549   1.358   6.837
 4272SOL     OW13714   6.539   2.807   4.430
 4272SOL    HW113715   6.582   2.727   4.387
 4272SOL    HW213716   6.469   2.844   4.370
 4273SOL     OW13717   4.614   6.724   4.744
 4273SOL    HW113718   4.713   6.721   4.727
 4273SOL    HW213719   4.578   6.813   4.717
 4274SOL     OW13720   0.843   6.136   1.528
 4274SOL    HW113721   0.757   6.188   1.523
 4274SOL    HW213722   0.911   6.180   1.470
 4275SOL     OW13723   0.045   1.499   4.096
 4275SOL    HW113724   7.004   1.423   4.117
 4275SOL    HW213725   0.074   1.543   4.181
 4276SOL     OW13726   1.662   4.844   3.504
 4276SOL    HW113727   1.628   4.882   3.418
 4276SOL    HW213728   1.588   4.792   3.548
 4277SOL     OW13729   6.543   4.665   3.898
 4277SOL    HW113730   6.486   4.600   3.849
 4277SOL    HW213731   6.593   4.723   3.833
 4278SOL     OW13732   6.915   0.135   4.361
 4278SOL    HW113733   6.940   0.055   4.416
 4278SOL    HW213734   6.989   0.156   4.297
 4279SOL     OW13735   2.994   0.290   4.131
 4279SOL    HW113736   2.995   0.306   4.032
 4279SOL    HW213737   2.941   0.363   4.175
 4280SOL     OW13738   4.547   0.533   5.634
 4280SOL    HW113739   4.575   0.597   5.705
 4280SOL    HW213740   4.621   0.469   5.615
 4281SOL     OW13741   0.421   4.707   3.756
 4281SOL    HW113742   0.329   4.667   3.763
 4281SOL    HW213743   0.431   4.751   3.667
 4282SOL     OW13744   2.781   4.217   5.714
 4282SOL    HW113745   2.723   4.218   5.632
 4282SOL    HW213746   2.870   4.259   5.693
 4283SOL     OW13747   1.076   0.819   3.068
 4283SOL    HW113748   1.083   0.843   2.972
 4283SOL    HW213749   0.996   0.863   3.108
 4284SOL     OW13750   3.947   4.849   1.509
 4284SOL    HW113751   3.893   4.792   1.570
 4284SOL    HW213752   4.003   4.791   1.450
 4285SOL     OW13753   1.044   0.630   5.912
 4285SOL    HW113754   1.036   0.730   5.912
 4285SOL    HW213755   0.975   0.591   5.974
 4286SOL     OW13756   4.871   6.605   6.306
 4286SOL    HW113757   4.937   6.674   6.274
 4286SOL    HW213758   4.911   6.554   6.382
 4287SOL     OW13759   5.814   2.436   6.142
 4287SOL    HW113760   5.725   2.434   6.095
 4287SOL    HW213761   5.818   2.360   6.207
 4288SOL     OW13762   0.108   5.955   3.848
 4288SOL    HW113763   0.062   6.022   3.906
 4288SOL    HW213764   0.059   5.946   3.762
 4289SOL     OW13765   6.523   3.074   6.739
 4289SOL    HW113766   6.536   3.120   6.651
 4289SOL    HW213767   6.612   3.050   6.778
 4290SOL     OW13768   1.239   6.505   2.551
 4290SOL    HW113769   1.211   6.411   2.572
 4290SOL    HW213770   1.336   6.516   2.571
 4291SOL     OW13771   4.475   3.229   1.306
 4291SOL    HW113772   4.403   3.216   1.238
 4291SOL    HW213773   4.555   3.174   1.281
 4292SOL     OW13774   5.860   3.500   0.319
 4292SOL    HW113775   5.816   3.415   0.290
 4292SOL    HW213776   5.806   3.578   0.288
 4293SOL     OW13777   2.300   3.307   0.232
 4293SOL    HW113778   2.385   3.255   0.224
 4293SOL    HW213779   2.291   3.370   0.156
 4294SOL     OW13780   2.147   2.678   6.789
 4294SOL    HW113781   2.143   2.751   6.857
 4294SOL    HW213782   2.134   2.590   6.835
 4295SOL     OW13783   4.242   5.980   4.754
 4295SOL    HW113784   4.229   5.936   4.665
 4295SOL    HW213785   4.254   6.078   4.741
 4296SOL     OW13786   3.476   6.900   0.364
 4296SOL    HW113787   3.397   6.960   0.353
 4296SOL    HW213788   3.545   6.922   0.295
 4297SOL     OW13789   4.748   0.935   6.757
 4297SOL    HW113790   4.671   0.875   6.737
 4297SOL    HW213791   4.722   1.030   6.737
 4298SOL     OW13792   3.929   5.266   0.428
 4298SOL    HW113793   3.953   5.262   0.525
 4298SOL    HW213794   3.989   5.332   0.383
 4299SOL     OW13795   0.879   3.281   6.354
 4299SOL    HW113796   0.873   3.224   6.273
 4299SOL    HW213797   0.912   3.227   6.431
 4300SOL     OW13798   3.690   0.129   0.018
 4300SOL    HW113799   3.739   0.042   0.011
 4300SOL    HW213800   3.730   0.195   6.974
 4301SOL     OW13801   4.403   1.428   1.384
 4301SOL    HW113802   4.501   1.445   1.374
 4301SOL    HW213803   4.364   1.405   1.295
 4302SOL     OW13804   1.310   6.704   6.446
 4302SOL    HW113805   1.389   6.758   6.418
 4302SOL    HW213806   1.287   6.724   6.541
 4303SOL     OW13807   0.405   4.657   4.126
 4303SOL    HW113808   0.353   4.675   4.210
 4303SOL    HW213809   0.435   4.743   4.086
 4304SOL     OW13810   3.207   3.690   3.070
 4304SOL    HW113811   3.170   3.779   3.045
 4304SOL    HW213812   3.208   3.631   2.989
 4305SOL     OW13813   6.684   0.352   5.176
 4305SOL    HW113814   6.598   0.335   5.130
 4305SOL    HW213815   6.747   0.277   5.159
 4306SOL     OW13816   5.626   4.271   5.996
 4306SOL    HW113817   5.637   4.172   6.003
 4306SOL    HW213818   5.666   4.302   5.909
 4307SOL     OW13819   4.408   4.178   5.813
 4307SOL    HW113820   4.375   4.084   5.809
 4307SOL    HW213821   4.477   4.186   5.885
 4308SOL     OW13822   6.272   5.193   0.256
 4308SOL    HW113823   6.235   5.285   0.243
 4308SOL    HW213824   6.263   5.141   0.171
 4309SOL     OW13825   1.181   1.141   0.079
 4309SOL    HW113826   1.245   1.065   0.094
 4309SOL    HW213827   1.097   1.124   0.132
 4310SOL     OW13828   1.610   2.626   2.404
 4310SOL    HW113829   1.673   2.561   2.364
 4310SOL    HW213830   1.644   2.655   2.494
 4311SOL     OW13831   1.946   5.650   2.849
 4311SOL    HW113832   1.910   5.558   2.837
 4311SOL    HW213833   1.938   5.677   2.945
 4312SOL     OW13834   1.949   5.030   1.100
 4312SOL    HW113835   1.920   5.116   1.059
 4312SOL    HW213836   1.874   4.964   1.096
 4313SOL     OW13837   4.938   1.797   1.715
 4313SOL    HW113838   4.991   1.879   1.694
 4313SOL    HW213839   4.849   1.823   1.754
 4314SOL     OW13840   6.162   1.379   4.255
 4314SOL    HW113841   6.106   1.351   4.177
 4314SOL    HW213842   6.124   1.463   4.295
 4315SOL     OW13843   2.445   6.713   2.430
 4315SOL    HW113844   2.349   6.693   2.409
 4315SOL    HW213845   2.454   6.811   2.451
 4316SOL     OW13846   5.012   0.576   2.132
 4316SOL    HW113847   5.077   0.515   2.177
 4316SOL    HW213848   4.937   0.523   2.093
 4317SOL     OW13849   4.804   2.391   4.750
 4317SOL    HW113850   4.770   2.401   4.656
 4317SOL    HW213851   4.777   2.302   4.786
 4318SOL     OW13852   1.022   3.403   4.955
 4318SOL    HW113853   0.951   3.391   5.025
 4318SOL    HW213854   1.018   3.497   4.920
 4319SOL     OW13855   1.842   2.424   0.988
 4319SOL    HW113856   1.861   2.376   0.902
 4319SOL    HW213857   1.877   2.517   0.982
 4320SOL     OW13858   6.238   5.248   1.058
 4320SOL    HW113859   6.299   5.327   1.060
 4320SOL    HW213860   6.289   5.168   1.024
 4321SOL     OW13861   6.920   6.726   5.094
 4321SOL    HW113862   6.994   6.743   5.159
 4321SOL    HW213863   6.959   6.700   5.006
 4322SOL     OW13864   6.500   2.567   6.311
 4322SOL    HW113865   6.560   2.587   6.234
 4322SOL    HW213866   6.481   2.652   6.361
 4323SOL     OW13867   4.353   3.917   1.234
 4323SOL    HW113868   4.426   3.976   1.199
 4323SOL    HW213869   4.387   3.867   1.313
 4324SOL     OW13870   5.513   4.601   0.130
 4324SOL    HW113871   5.519   4.515   0.079
 4324SOL    HW213872   5.592   4.658   0.109
 4325SOL     OW13873   2.201   1.217   1.446
 4325SOL    HW113874   2.197   1.276   1.527
 4325SOL    HW213875   2.250   1.265   1.373
 4326SOL     OW13876   4.732   4.643   4.426
 4326SOL    HW113877   4.787   4.713   4.380
 4326SOL    HW213878   4.676   4.594   4.359
 4327SOL     OW13879   5.856   6.485   1.696
 4327SOL    HW113880   5.774   6.539   1.676
 4327SOL    HW213881   5.937   6.542   1.684
 4328SOL     OW13882   4.605   3.897   5.383
 4328SOL    HW113883   4.545   3.821   5.358
 4328SOL    HW213884   4.670   3.913   5.309
 4329SOL     OW13885   4.309   1.684   5.920
 4329SOL    HW113886   4.379   1.692   5.991
 4329SOL    HW213887   4.221   1.714   5.957
 4330SOL     OW13888   2.749   6.491   4.389
 4330SOL    HW113889   2.692   6.440   4.324
 4330SOL    HW213890   2.698   6.570   4.422
 4331SOL     OW13891   5.630   1.786   1.533
 4331SOL    HW113892   5.708   1.736   1.572
 4331SOL    HW213893   5.647   1.805   1.437
 4332SOL     OW13894   5.589   3.781   2.380
 4332SOL    HW113895   5.631   3.692   2.361
 4332SOL    HW213896   5.493   3.778   2.351
 4333SOL     OW13897   3.456   0.445   4.768
 4333SOL    HW113898   3.403   0.478   4.846
 4333SOL    HW213899   3.416   0.361   4.733
 4334SOL     OW13900   1.884   2.415   2.402
 4334SOL    HW113901   1.966   2.359   2.390
 4334SOL    HW213902   1.846   2.437   2.312
 4335SOL     OW13903   3.364   3.700   2.406
 4335SOL    HW113904   3.293   3.631   2.417
 4335SOL    HW213905   3.368   3.729   2.310
 4336SOL     OW13906   2.719   6.404   6.619
 4336SOL    HW113907   2.791   6.337   6.636
 4336SOL    HW213908   2.748   6.494   6.654
 4337SOL     OW13909   0.234   4.670   0.679
 4337SOL    HW113910   0.313   4.617   0.710
 4337SOL    HW213911   0.247   4.766   0.705
 4338SOL     OW13912   5.393   5.975   5.243
 4338SOL    HW113913   5.312   6.026   5.272
 4338SOL    HW213914   5.466   5.986   5.310
 4339SOL     OW13915   5.471   3.649   5.475
 4339SOL    HW113916   5.545   3.654   5.408
 4339SOL    HW213917   5.393   3.602   5.434
 4340SOL     OW13918   6.466   2.919   1.155
 4340SOL    HW113919   6.520   2.926   1.239
 4340SOL    HW213920   6.399   2.846   1.164
 4341SOL     OW13921   0.327   5.838   2.346
 4341SOL    HW113922   0.269   5.910   2.307
 4341SOL    HW213923   0.420   5.873   2.356
 4342SOL     OW13924   6.018   4.041   4.038
 4342SOL    HW113925   6.028   4.099   3.957
 4342SOL    HW213926   5.982   3.951   4.011
 4343SOL     OW13927   2.560   6.049   5.356
 4343SOL    HW113928   2.611   5.994   5.422
 4343SOL    HW213929   2.586   6.021   5.263
 4344SOL     OW13930   0.909   4.531   2.103
 4344SOL    HW113931   0.991   4.476   2.091
 4344SOL    HW213932   0.840   4.504   2.036
 4345SOL     OW13933   3.172   3.541   5.029
 4345SOL    HW113934   3.193   3.463   5.089
 4345SOL    HW213935   3.243   3.548   4.959
 4346SOL     OW13936   1.445   3.049   2.293
 4346SOL    HW113937   1.353   3.040   2.331
 4346SOL    HW213938   1.443   3.113   2.216
 4347SOL     OW13939   6.821   6.784   3.513
 4347SOL    HW113940   6.911   6.754   3.480
 4347SOL    HW213941   6.822   6.884   3.524
 4348SOL     OW13942   0.226   4.430   3.147
 4348SOL    HW113943   0.206   4.498   3.077
 4348SOL    HW213944   0.142   4.384   3.175
 4349SOL     OW13945   7.015   1.974   2.519
 4349SOL    HW113946   0.012   2.001   2.614
 4349SOL    HW213947   6.918   1.952   2.508
 4350SOL     OW13948   3.905   1.683   4.198
 4350SOL    HW113949   3.825   1.741   4.183
 4350SOL    HW213950   3.983   1.740   4.223
 4351SOL     OW13951   1.649   5.009   0.569
 4351SOL    HW113952   1.671   5.052   0.657
 4351SOL    HW213953   1.733   4.979   0.525
 4352SOL     OW13954   6.934   3.604   2.046
 4352SOL    HW113955   6.850   3.552   2.060
 4352SOL    HW213956   6.958   3.604   1.949
 4353SOL     OW13957   3.989   3.054   6.577
 4353SOL    HW113958   4.001   3.010   6.488
 4353SOL    HW213959   3.892   3.068   6.594
 4354SOL     OW13960   2.261   6.913   5.569
 4354SOL    HW113961   2.335   6.939   5.629
 4354SOL    HW213962   2.219   6.829   5.603
 4355SOL     OW13963   2.120   0.397   2.637
 4355SOL    HW113964   2.178   0.429   2.711
 4355SOL    HW213965   2.169   0.329   2.582
 4356SOL     OW13966   5.112   3.871   1.257
 4356SOL    HW113967   5.039   3.817   1.298
 4356SOL    HW213968   5.158   3.924   1.329
 4357SOL     OW13969   7.006   1.224   1.119
 4357SOL    HW113970   0.047   1.146   1.130
 4357SOL    HW213971   6.941   1.205   1.045
 4358SOL     OW13972   0.316   6.655   0.307
 4358SOL    HW113973   0.388   6.661   0.237
 4358SOL    HW213974   0.349   6.600   0.384
 4359SOL     OW13975   1.992   1.455   6.405
 4359SOL    HW113976   2.024   1.495   6.319
 4359SOL    HW213977   2.025   1.510   6.481
 4360SOL     OW13978   1.453   2.247   3.160
 4360SOL    HW113979   1.367   2.246   3.211
 4360SOL    HW213980   1.527   2.215   3.219
 4361SOL     OW13981   2.218   3.530   1.352
 4361SOL    HW113982   2.188   3.435   1.357
 4361SOL    HW213983   2.192   3.578   1.436
 4362SOL     OW13984   5.852   5.795   3.172
 4362SOL    HW113985   5.761   5.798   3.215
 4362SOL    HW213986   5.921   5.823   3.239
 4363SOL     OW13987   5.272   2.730   1.068
 4363SOL    HW113988   5.368   2.743   1.093
 4363SOL    HW213989   5.220   2.704   1.149
 4364SOL     OW13990   3.095   3.213   4.709
 4364SOL    HW113991   3.064   3.181   4.799
 4364SOL    HW213992   3.066   3.148   4.639
 4365SOL     OW13993   2.053   1.213   1.915
 4365SOL    HW113994   2.016   1.290   1.968
 4365SOL    HW213995   2.077   1.139   1.978
 4366SOL     OW13996   5.942   0.165   0.139
 4366SOL    HW113997   5.940   0.234   0.211
 4366SOL    HW213998   5.912   0.077   0.176
 4367SOL     OW13999   1.686   4.270   4.479
 4367SOL    HW114000   1.744   4.191   4.497
 4367SOL    HW214001   1.674   4.281   4.381
 4368SOL     OW14002   3.999   4.036   0.749
 4368SOL    HW114003   3.947   4.033   0.664
 4368SOL    HW214004   4.071   3.967   0.746
 4369SOL     OW14005   4.549   5.135   2.796
 4369SOL    HW114006   4.596   5.171   2.715
 4369SOL    HW214007   4.578   5.188   2.877
 4370SOL     OW14008   4.478   5.102   2.189
 4370SOL    HW114009   4.412   5.056   2.129
 4370SOL    HW214010   4.466   5.201   2.181
 4371SOL     OW14011   1.013   1.760   2.027
 4371SOL    HW114012   1.100   1.786   2.070
 4371SOL    HW214013   1.030   1.692   1.957
 4372SOL     OW14014   3.408   1.282   2.605
 4372SOL    HW114015   3.311   1.305   2.600
 4372SOL    HW214016   3.421   1.204   2.666
 4373SOL     OW14017   6.152   2.217   6.639
 4373SOL    HW114018   6.103   2.299   6.609
 4373SOL    HW214019   6.248   2.240   6.656
 4374SOL     OW14020   1.196   2.355   1.462
 4374SOL    HW114021   1.128   2.427   1.462
 4374SOL    HW214022   1.254   2.363   1.543
 4375SOL     OW14023   4.435   0.020   3.313
 4375SOL    HW114024   4.360   0.021   3.379
 4375SOL    HW214025   4.483   6.953   3.317
 4376SOL     OW14026   0.566   6.715   1.142
 4376SOL    HW114027   0.495   6.668   1.091
 4376SOL    HW214028   0.628   6.647   1.182
 4377SOL     OW14029   5.334   4.656   0.710
 4377SOL    HW114030   5.328   4.623   0.616
 4377SOL    HW214031   5.425   4.693   0.727
 4378SOL     OW14032   2.053   2.414   2.989
 4378SOL    HW114033   2.004   2.366   2.916
 4378SOL    HW214034   2.063   2.353   3.068
 4379SOL     OW14035   1.911   1.420   3.027
 4379SOL    HW114036   1.985   1.364   2.992
 4379SOL    HW214037   1.836   1.422   2.960
 4380SOL     OW14038   1.056   6.743   2.613
 4380SOL    HW114039   1.049   6.647   2.587
 4380SOL    HW214040   1.147   6.761   2.650
 4381SOL     OW14041   1.591   5.240   5.416
 4381SOL    HW114042   1.629   5.179   5.486
 4381SOL    HW214043   1.528   5.304   5.460
 4382SOL     OW14044   6.537   3.435   5.319
 4382SOL    HW114045   6.538   3.347   5.367
 4382SOL    HW214046   6.558   3.420   5.222
 4383SOL     OW14047   0.456   3.285   6.232
 4383SOL    HW114048   0.421   3.229   6.156
 4383SOL    HW214049   0.443   3.382   6.210
 4384SOL     OW14050   5.996   1.243   4.463
 4384SOL    HW114051   6.015   1.328   4.413
 4384SOL    HW214052   5.982   1.168   4.398
 4385SOL     OW14053   5.651   2.481   4.775
 4385SOL    HW114054   5.640   2.554   4.708
 4385SOL    HW214055   5.719   2.509   4.843
 4386SOL     OW14056   2.135   3.490   5.937
 4386SOL    HW114057   2.156   3.451   5.847
 4386SOL    HW214058   2.157   3.587   5.937
 4387SOL     OW14059   6.756   1.575   0.860
 4387SOL    HW114060   6.788   1.666   0.886
 4387SOL    HW214061   6.706   1.534   0.937
 4388SOL     OW14062   4.701   2.558   6.503
 4388SOL    HW114063   4.794   2.558   6.465
 4388SOL    HW214064   4.639   2.604   6.439
 4389SOL     OW14065   6.756   2.990   0.671
 4389SOL    HW114066   6.660   3.014   0.656
 4389SOL    HW214067   6.782   3.018   0.763
 4390SOL     OW14068   3.841   0.330   1.655
 4390SOL    HW114069   3.852   0.417   1.703
 4390SOL    HW214070   3.788   0.267   1.712
 4391SOL     OW14071   2.618   5.476   6.801
 4391SOL    HW114072   2.700   5.518   6.840
 4391SOL    HW214073   2.550   5.547   6.781
 4392SOL     OW14074   6.379   3.568   4.459
 4392SOL    HW114075   6.280   3.550   4.462
 4392SOL    HW214076   6.419   3.546   4.548
 4393SOL     OW14077   5.685   0.831   2.683
 4393SOL    HW114078   5.767   0.775   2.669
 4393SOL    HW214079   5.711   0.922   2.715
 4394SOL     OW14080   6.480   5.466   2.554
 4394SOL    HW114081   6.450   5.422   2.470
 4394SOL    HW214082   6.476   5.565   2.543
 4395SOL     OW14083   1.705   6.599   2.429
 4395SOL    HW114084   1.644   6.679   2.424
 4395SOL    HW214085   1.651   6.519   2.457
 4396SOL     OW14086   2.443   2.099   3.746
 4396SOL    HW114087   2.398   2.148   3.671
 4396SOL    HW214088   2.375   2.078   3.817
 4397SOL     OW14089   0.830   2.023   4.570
 4397SOL    HW114090   0.930   2.016   4.581
 4397SOL    HW214091   0.787   2.021   4.660
 4398SOL     OW14092   0.717   3.633   6.043
 4398SOL    HW114093   0.639   3.574   6.021
 4398SOL    HW214094   0.698   3.726   6.013
 4399SOL     OW14095   2.399   0.257   2.389
 4399SOL    HW114096   2.441   0.171   2.418
 4399SOL    HW214097   2.299   0.246   2.388
 4400SOL     OW14098   3.035   6.439   5.288
 4400SOL    HW114099   3.078   6.372   5.349
 4400SOL    HW214100   2.936   6.432   5.296
 4401SOL     OW14101   3.129   6.869   6.171
 4401SOL    HW114102   3.064   6.943   6.190
 4401SOL    HW214103   3.087   6.804   6.107
 4402SOL     OW14104   2.129   0.647   1.937
 4402SOL    HW114105   2.182   0.729   1.917
 4402SOL    HW214106   2.191   0.568   1.943
 4403SOL     OW14107   1.180   0.638   1.303
 4403SOL    HW114108   1.277   0.617   1.303
 4403SOL    HW214109   1.132   0.580   1.369
 4404SOL     OW14110   1.412   5.395   5.620
 4404SOL    HW114111   1.458   5.395   5.709
 4404SOL    HW214112   1.320   5.358   5.630
 4405SOL     OW14113   1.630   4.076   1.665
 4405SOL    HW114114   1.661   4.145   1.731
 4405SOL    HW214115   1.538   4.046   1.690
 4406SOL     OW14116   0.344   3.040   1.027
 4406SOL    HW114117   0.368   2.956   1.077
 4406SOL    HW214118   0.424   3.073   0.978
 4407SOL     OW14119   6.225   5.331   0.591
 4407SOL    HW114120   6.162   5.283   0.531
 4407SOL    HW214121   6.286   5.266   0.636
 4408SOL     OW14122   2.922   0.492   1.137
 4408SOL    HW114123   2.868   0.574   1.122
 4408SOL    HW214124   2.939   0.479   1.234
 4409SOL     OW14125   4.758   1.314   2.257
 4409SOL    HW114126   4.699   1.242   2.219
 4409SOL    HW214127   4.779   1.380   2.185
 4410SOL     OW14128   1.555   5.043   0.051
 4410SOL    HW114129   1.550   4.994   6.985
 4410SOL    HW214130   1.501   5.127   0.044
 4411SOL     OW14131   4.094   3.743   4.975
 4411SOL    HW114132   4.152   3.736   4.894
 4411SOL    HW214133   3.998   3.744   4.948
 4412SOL     OW14134   4.816   5.959   4.082
 4412SOL    HW114135   4.893   6.013   4.048
 4412SOL    HW214136   4.841   5.915   4.169
 4413SOL     OW14137   5.830   5.305   4.722
 4413SOL    HW114138   5.887   5.300   4.804
 4413SOL    HW214139   5.858   5.383   4.666
 4414SOL     OW14140   3.422   5.359   1.165
 4414SOL    HW114141   3.480   5.428   1.123
 4414SOL    HW214142   3.438   5.358   1.264
 4415SOL     OW14143   4.533   2.846   1.083
 4415SOL    HW114144   4.481   2.763   1.103
 4415SOL    HW214145   4.577   2.837   0.993
 4416SOL     OW14146   3.727   1.260   4.652
 4416SOL    HW114147   3.642   1.236   4.605
 4416SOL    HW214148   3.743   1.358   4.642
 4417SOL     OW14149   5.557   4.668   3.858
 4417SOL    HW114150   5.512   4.667   3.769
 4417SOL    HW214151   5.611   4.751   3.867
 4418SOL     OW14152   6.067   2.312   1.878
 4418SOL    HW114153   5.998   2.384   1.882
 4418SOL    HW214154   6.131   2.324   1.955
 4419SOL     OW14155   5.623   6.739   6.089
 4419SOL    HW114156   5.584   6.719   5.999
 4419SOL    HW214157   5.719   6.765   6.078
 4420SOL     OW14158   4.624   1.281   1.571
 4420SOL    HW114159   4.651   1.314   1.661
 4420SOL    HW214160   4.526   1.261   1.571
 4421SOL     OW14161   2.057   1.223   5.142
 4421SOL    HW114162   2.031   1.135   5.182
 4421SOL    HW214163   2.026   1.227   5.047
 4422SOL     OW14164   2.109   4.265   6.978
 4422SOL    HW114165   2.190   4.261   0.015
 4422SOL    HW214166   2.126   4.216   6.893
 4423SOL     OW14167   6.853   3.487   5.457
 4423SOL    HW114168   6.893   3.551   5.522
 4423SOL    HW214169   6.784   3.432   5.503
 4424SOL     OW14170   5.489   1.267   3.821
 4424SOL    HW114171   5.427   1.281   3.898
 4424SOL    HW214172   5.491   1.170   3.796
 4425SOL     OW14173   2.788   4.281   6.938
 4425SOL    HW114174   2.852   4.336   6.884
 4425SOL    HW214175   2.699   4.326   6.940
 4426SOL     OW14176   0.656   1.278   4.174
 4426SOL    HW114177   0.633   1.289   4.077
 4426SOL    HW214178   0.625   1.359   4.225
 4427SOL     OW14179   0.064   6.198   2.866
 4427SOL    HW114180   0.133   6.233   2.803
 4427SOL    HW214181   0.096   6.113   2.907
 4428SOL     OW14182   3.083   0.925   3.863
 4428SOL    HW114183   3.137   0.950   3.943
 4428SOL    HW214184   3.084   0.825   3.852
 4429SOL     OW14185   2.937   6.735   2.668
 4429SOL    HW114186   2.844   6.699   2.674
 4429SOL    HW214187   2.997   6.684   2.728
 4430SOL     OW14188   5.034   3.756   4.458
 4430SOL    HW114189   5.061   3.668   4.497
 4430SOL    HW214190   5.087   3.774   4.375
 4431SOL     OW14191   2.890   1.198   2.459
 4431SOL    HW114192   2.819   1.137   2.422
 4431SOL    HW214193   2.902   1.179   2.557
 4432SOL     OW14194   2.759   3.518   5.822
 4432SOL    HW114195   2.735   3.579   5.746
 4432SOL    HW214196   2.679   3.504   5.881
 4433SOL     OW14197   5.102   2.106   4.246
 4433SOL    HW114198   5.085   2.087   4.343
 4433SOL    HW214199   5.200   2.112   4.230
 4434SOL     OW14200   5.662   1.128   3.149
 4434SOL    HW114201   5.585   1.153   3.208
 4434SOL    HW214202   5.627   1.076   3.070
 4435SOL     OW14203   5.323   2.968   0.929
 4435SOL    HW114204   5.304   2.880   0.973
 4435SOL    HW214205   5.352   2.954   0.835
 4436SOL     OW14206   4.285   0.836   1.329
 4436SOL    HW114207   4.293   0.886   1.244
 4436SOL    HW214208   4.204   0.867   1.379
 4437SOL     OW14209   0.240   2.667   2.751
 4437SOL    HW114210   0.223   2.568   2.753
 4437SOL    HW214211   0.337   2.684   2.767
 4438SOL     OW14212   5.118   0.004   6.509
 4438SOL    HW114213   5.035   0.017   6.454
 4438SOL    HW214214   5.121   0.074   6.580
 4439SOL     OW14215   0.038   4.162   1.727
 4439SOL    HW114216   0.000   4.138   1.638
 4439SOL    HW214217   0.075   4.080   1.771
 4440SOL     OW14218   3.063   4.689   0.383
 4440SOL    HW114219   3.134   4.692   0.454
 4440SOL    HW214220   2.973   4.703   0.424
 4441SOL     OW14221   0.479   2.043   2.146
 4441SOL    HW114222   0.422   2.074   2.222
 4441SOL    HW214223   0.421   2.009   2.072
 4442SOL     OW14224   2.022   5.612   4.298
 4442SOL    HW114225   2.045   5.707   4.319
 4442SOL    HW214226   2.086   5.551   4.345
 4443SOL     OW14227   1.082   3.587   6.452
 4443SOL    HW114228   1.154   3.522   6.474
 4443SOL    HW214229   1.010   3.542   6.400
 4444SOL     OW14230   3.359   4.060   5.005
 4444SOL    HW114231   3.433   4.016   4.953
 4444SOL    HW214232   3.312   4.126   4.947
 4445SOL     OW14233   1.523   6.161   7.011
 4445SOL    HW114234   1.563   6.179   0.080
 4445SOL    HW214235   1.498   6.247   6.967
 4446SOL     OW14236   5.147   1.145   1.520
 4446SOL    HW114237   5.104   1.233   1.499
 4446SOL    HW214238   5.236   1.161   1.561
 4447SOL     OW14239   4.942   4.693   6.148
 4447SOL    HW114240   4.946   4.663   6.053
 4447SOL    HW214241   4.952   4.792   6.152
 4448SOL     OW14242   2.435   4.259   1.630
 4448SOL    HW114243   2.489   4.268   1.547
 4448SOL    HW214244   2.462   4.330   1.695
 4449SOL     OW14245   5.038   0.860   5.901
 4449SOL    HW114246   4.946   0.898   5.912
 4449SOL    HW214247   5.057   0.843   5.804
 4450SOL     OW14248   3.706   3.061   5.947
 4450SOL    HW114249   3.715   3.157   5.974
 4450SOL    HW214250   3.669   3.057   5.854
 4451SOL     OW14251   5.900   4.736   3.077
 4451SOL    HW114252   5.955   4.653   3.068
 4451SOL    HW214253   5.903   4.767   3.172
 4452SOL     OW14254   5.141   5.965   4.506
 4452SOL    HW114255   5.080   5.988   4.582
 4452SOL    HW214256   5.183   6.048   4.470
 4453SOL     OW14257   1.125   3.117   1.660
 4453SOL    HW114258   1.190   3.130   1.586
 4453SOL    HW214259   1.036   3.153   1.633
 4454SOL     OW14260   1.461   1.758   0.095
 4454SOL    HW114261   1.389   1.804   0.044
 4454SOL    HW214262   1.503   1.822   0.159
 4455SOL     OW14263   4.814   6.505   6.028
 4455SOL    HW114264   4.853   6.441   6.095
 4455SOL    HW214265   4.765   6.454   5.957
 4456SOL     OW14266   2.891   5.770   2.009
 4456SOL    HW114267   2.873   5.791   1.913
 4456SOL    HW214268   2.857   5.679   2.031
 4457SOL     OW14269   4.151   1.374   2.562
 4457SOL    HW114270   4.234   1.373   2.617
 4457SOL    HW214271   4.075   1.337   2.615
 4458SOL     OW14272   1.597   2.904   0.592
 4458SOL    HW114273   1.693   2.928   0.576
 4458SOL    HW214274   1.546   2.915   0.507
 4459SOL     OW14275   3.548   1.546   4.658
 4459SOL    HW114276   3.497   1.479   4.604
 4459SOL    HW214277   3.641   1.554   4.623
 4460SOL     OW14278   1.818   2.530   6.366
 4460SOL    HW114279   1.722   2.556   6.375
 4460SOL    HW214280   1.869   2.562   6.446
 4461SOL     OW14281   1.836   0.282   0.550
 4461SOL    HW114282   1.835   0.358   0.614
 4461SOL    HW214283   1.897   0.303   0.474
 4462SOL     OW14284   5.977   5.237   2.118
 4462SOL    HW114285   5.878   5.230   2.125
 4462SOL    HW214286   6.013   5.159   2.065
 4463SOL     OW14287   4.698   1.141   0.616
 4463SOL    HW114288   4.725   1.085   0.538
 4463SOL    HW214289   4.659   1.083   0.687
 4464SOL     OW14290   0.029   5.248   0.343
 4464SOL    HW114291   0.045   5.302   0.260
 4464SOL    HW214292   6.985   5.297   0.402
 4465SOL     OW14293   3.530   5.338   1.425
 4465SOL    HW114294   3.461   5.289   1.479
 4465SOL    HW214295   3.620   5.296   1.439
 4466SOL     OW14296   0.817   2.115   3.282
 4466SOL    HW114297   0.800   2.017   3.289
 4466SOL    HW214298   0.877   2.144   3.357
 4467SOL     OW14299   1.970   5.766   2.377
 4467SOL    HW114300   1.877   5.797   2.395
 4467SOL    HW214301   1.980   5.670   2.405
 4468SOL     OW14302   1.917   3.897   0.537
 4468SOL    HW114303   1.956   3.961   0.471
 4468SOL    HW214304   1.965   3.809   0.531
 4469SOL     OW14305   3.103   0.232   2.106
 4469SOL    HW114306   3.157   0.298   2.158
 4469SOL    HW214307   3.026   0.280   2.062
 4470SOL     OW14308   0.555   2.240   1.657
 4470SOL    HW114309   0.591   2.294   1.733
 4470SOL    HW214310   0.458   2.220   1.673
 4471SOL     OW14311   0.803   2.052   6.401
 4471SOL    HW114312   0.703   2.053   6.387
 4471SOL    HW214313   0.837   2.145   6.404
 4472SOL     OW14314   0.778   3.241   2.336
 4472SOL    HW114315   0.685   3.267   2.362
 4472SOL    HW214316   0.800   3.280   2.246
 4473SOL     OW14317   6.093   2.644   4.013
 4473SOL    HW114318   6.052   2.735   4.004
 4473SOL    HW214319   6.179   2.651   4.064
 4474SOL     OW14320   1.944   0.490   2.463
 4474SOL    HW114321   2.010   0.462   2.533
 4474SOL    HW214322   1.993   0.515   2.380
 4475SOL     OW14323   1.274   4.190   2.145
 4475SOL    HW114324   1.238   4.164   2.055
 4475SOL    HW214325   1.211   4.254   2.189
 4476SOL     OW14326   5.483   0.434   3.236
 4476SOL    HW114327   5.464   0.336   3.233
 4476SOL    HW214328   5.515   0.464   3.146
 4477SOL     OW14329   2.064   6.996   5.414
 4477SOL    HW114330   2.139   6.973   5.475
 4477SOL    HW214331   2.029   0.067   5.435
 4478SOL     OW14332   3.281   6.536   2.952
 4478SOL    HW114333   3.313   6.567   3.042
 4478SOL    HW214334   3.222   6.456   2.964
 4479SOL     OW14335   0.516   1.990   0.576
 4479SOL    HW114336   0.472   1.962   0.661
 4479SOL    HW214337   0.479   2.079   0.547
 4480SOL     OW14338   0.795   4.192   5.176
 4480SOL    HW114339   0.768   4.256   5.104
 4480SOL    HW214340   0.829   4.244   5.255
 4481SOL     OW14341   3.893   5.736   4.811
 4481SOL    HW114342   3.854   5.828   4.799
 4481SOL    HW214343   3.991   5.744   4.829
 4482SOL     OW14344   1.562   2.914   5.398
 4482SOL    HW114345   1.645   2.951   5.355
 4482SOL    HW214346   1.579   2.899   5.495
 4483SOL     OW14347   6.162   2.767   2.366
 4483SOL    HW114348   6.094   2.836   2.340
 4483SOL    HW214349   6.135   2.678   2.328
 4484SOL     OW14350   3.272   2.156   6.758
 4484SOL    HW114351   3.206   2.139   6.685
 4484SOL    HW214352   3.228   2.207   6.832
 4485SOL     OW14353   5.370   2.017   4.088
 4485SOL    HW114354   5.436   1.964   4.036
 4485SOL    HW214355   5.418   2.074   4.155
 4486SOL     OW14356   5.831   5.415   5.397
 4486SOL    HW114357   5.741   5.423   5.440
 4486SOL    HW214358   5.820   5.393   5.300
 4487SOL     OW14359   2.752   2.966   6.080
 4487SOL    HW114360   2.693   2.887   6.067
 4487SOL    HW214361   2.848   2.936   6.085
 4488SOL     OW14362   0.587   3.763   5.780
 4488SOL    HW114363   0.540   3.677   5.798
 4488SOL    HW214364   0.574   3.825   5.857
 4489SOL     OW14365   5.037   5.835   5.230
 4489SOL    HW114366   5.131   5.803   5.223
 4489SOL    HW214367   5.020   5.868   5.324
 4490SOL     OW14368   5.527   2.457   2.269
 4490SOL    HW114369   5.502   2.514   2.347
 4490SOL    HW214370   5.523   2.512   2.185
 4491SOL     OW14371   6.796   3.099   3.684
 4491SOL    HW114372   6.744   3.100   3.598
 4491SOL    HW214373   6.892   3.081   3.664
 4492SOL     OW14374   6.260   4.691   2.103
 4492SOL    HW114375   6.308   4.775   2.078
 4492SOL    HW214376   6.194   4.668   2.031
 4493SOL     OW14377   4.956   5.039   4.585
 4493SOL    HW114378   4.905   5.120   4.553
 4493SOL    HW214379   4.895   4.960   4.582
 4494SOL     OW14380   0.163   0.798   6.683
 4494SOL    HW114381   0.204   0.716   6.722
 4494SOL    HW214382   0.068   0.778   6.656
 4495SOL     OW14383   4.371   0.062   4.272
 4495SOL    HW114384   4.403   0.129   4.205
 4495SOL    HW214385   4.444   0.042   4.337
 4496SOL     OW14386   5.600   6.523   1.383
 4496SOL    HW114387   5.662   6.457   1.342
 4496SOL    HW214388   5.579   6.595   1.316
 4497SOL     OW14389   4.878   2.213   6.425
 4497SOL    HW114390   4.778   2.223   6.421
 4497SOL    HW214391   4.904   2.177   6.515
 4498SOL     OW14392   0.262   3.138   0.335
 4498SOL    HW114393   0.170   3.162   0.365
 4498SOL    HW214394   0.302   3.072   0.398
 4499SOL     OW14395   5.951   3.774   3.977
 4499SOL    HW114396   5.968   3.701   3.911
 4499SOL    HW214397   5.971   3.742   4.069
 4500SOL     OW14398   3.141   3.050   4.442
 4500SOL    HW114399   3.177   3.060   4.349
 4500SOL    HW214400   3.204   2.993   4.495
 4501SOL     OW14401   6.728   3.696   2.803
 4501SOL    HW114402   6.677   3.752   2.737
 4501SOL    HW214403   6.747   3.607   2.763
 4502SOL     OW14404   0.812   3.098   6.909
 4502SOL    HW114405   0.751   3.174   6.888
 4502SOL    HW214406   0.842   3.103   7.004
 4503SOL     OW14407   3.738   6.761   1.874
 4503SOL    HW114408   3.687   6.837   1.914
 4503SOL    HW214409   3.703   6.675   1.910
 4504SOL     OW14410   6.750   0.846   4.529
 4504SOL    HW114411   6.689   0.822   4.454
 4504SOL    HW214412   6.699   0.896   4.599
 4505SOL     OW14413   6.455   5.133   1.886
 4505SOL    HW114414   6.473   5.154   1.790
 4505SOL    HW214415   6.532   5.163   1.942
 4506SOL     OW14416   5.031   3.097   3.738
 4506SOL    HW114417   4.994   3.083   3.830
 4506SOL    HW214418   4.992   3.181   3.700
 4507SOL     OW14419   6.042   4.462   3.097
 4507SOL    HW114420   6.070   4.488   3.189
 4507SOL    HW214421   6.119   4.419   3.049
 4508SOL     OW14422   1.613   5.526   0.059
 4508SOL    HW114423   1.647   5.549   0.151
 4508SOL    HW214424   1.685   5.479   0.008
 4509SOL     OW14425   4.785   2.663   2.686
 4509SOL    HW114426   4.856   2.723   2.647
 4509SOL    HW214427   4.736   2.617   2.612
 4510SOL     OW14428   4.224   1.858   3.923
 4510SOL    HW114429   4.319   1.845   3.954
 4510SOL    HW214430   4.221   1.849   3.824
 4511SOL     OW14431   5.586   3.752   6.530
 4511SOL    HW114432   5.566   3.659   6.500
 4511SOL    HW214433   5.664   3.751   6.592
 4512SOL     OW14434   2.642   1.263   5.483
 4512SOL    HW114435   2.731   1.304   5.501
 4512SOL    HW214436   2.580   1.332   5.444
 4513SOL     OW14437   0.431   5.064   6.396
 4513SOL    HW114438   0.399   5.083   6.303
 4513SOL    HW214439   0.355   5.034   6.452
 4514SOL     OW14440   3.735   2.256   5.814
 4514SOL    HW114441   3.720   2.160   5.790
 4514SOL    HW214442   3.682   2.279   5.896
 4515SOL     OW14443   6.417   2.083   5.135
 4515SOL    HW114444   6.506   2.127   5.135
 4515SOL    HW214445   6.404   2.033   5.049
 4516SOL     OW14446   1.744   6.907   0.290
 4516SOL    HW114447   1.680   6.861   0.228
 4516SOL    HW214448   1.733   7.006   0.283
 4517SOL     OW14449   4.510   0.368   6.908
 4517SOL    HW114450   4.413   0.388   6.890
 4517SOL    HW214451   4.566   0.416   6.840
 4518SOL     OW14452   0.122   6.732   2.296
 4518SOL    HW114453   0.135   6.771   2.205
 4518SOL    HW214454   0.203   6.751   2.352
 4519SOL     OW14455   6.696   0.120   1.360
 4519SOL    HW114456   6.765   0.079   1.419
 4519SOL    HW214457   6.698   0.077   1.270
 4520SOL     OW14458   4.869   6.407   5.664
 4520SOL    HW114459   4.785   6.450   5.698
 4520SOL    HW214460   4.946   6.469   5.676
 4521SOL     OW14461   5.734   1.985   4.900
 4521SOL    HW114462   5.732   1.914   4.830
 4521SOL    HW214463   5.758   1.946   4.988
 4522SOL     OW14464   5.555   5.313   3.653
 4522SOL    HW114465   5.484   5.261   3.605
 4522SOL    HW214466   5.645   5.278   3.627
 4523SOL     OW14467   0.870   4.871   0.134
 4523SOL    HW114468   0.934   4.799   0.109
 4523SOL    HW214469   0.918   4.959   0.137
 4524SOL     OW14470   6.062   2.903   1.623
 4524SOL    HW114471   6.085   2.930   1.716
 4524SOL    HW214472   6.078   2.804   1.612
 4525SOL     OW14473   5.134   2.403   5.069
 4525SOL    HW114474   5.189   2.408   5.151
 4525SOL    HW214475   5.193   2.382   4.990
 4526SOL     OW14476   6.782   0.387   6.565
 4526SOL    HW114477   6.705   0.327   6.587
 4526SOL    HW214478   6.781   0.408   6.467
 4527SOL     OW14479   6.360   1.243   3.380
 4527SOL    HW114480   6.423   1.169   3.404
 4527SOL    HW214481   6.365   1.260   3.282
 4528SOL     OW14482   4.346   0.340   6.645
 4528SOL    HW114483   4.301   0.253   6.664
 4528SOL    HW214484   4.339   0.400   6.725
 4529SOL     OW14485   2.178   0.131   4.923
 4529SOL    HW114486   2.172   0.053   4.985
 4529SOL    HW214487   2.266   0.176   4.933
 4530SOL     OW14488   1.615   5.412   4.359
 4530SOL    HW114489   1.647   5.322   4.389
 4530SOL    HW214490   1.665   5.484   4.407
 4531SOL     OW14491   0.230   2.716   4.667
 4531SOL    HW114492   0.163   2.643   4.659
 4531SOL    HW214493   0.309   2.684   4.718
 4532SOL     OW14494   6.513   0.937   2.218
 4532SOL    HW114495   6.580   1.004   2.185
 4532SOL    HW214496   6.482   0.964   2.309
 4533SOL     OW14497   1.550   1.759   2.000
 4533SOL    HW114498   1.550   1.669   2.044
 4533SOL    HW214499   1.620   1.816   2.042
 4534SOL     OW14500   5.034   4.128   4.718
 4534SOL    HW114501   4.993   4.213   4.752
 4534SOL    HW214502   4.962   4.060   4.702
 4535SOL     OW14503   3.533   0.652   2.331
 4535SOL    HW114504   3.559   0.556   2.319
 4535SOL    HW214505   3.607   0.711   2.300
 4536SOL     OW14506   4.529   1.678   4.227
 4536SOL    HW114507   4.499   1.608   4.162
 4536SOL    HW214508   4.463   1.685   4.301
 4537SOL     OW14509   4.006   3.504   0.624
 4537SOL    HW114510   3.985   3.463   0.535
 4537SOL    HW214511   4.048   3.435   0.683
 4538SOL     OW14512   1.865   0.431   2.778
 4538SOL    HW114513   1.926   0.429   2.699
 4538SOL    HW214514   1.820   0.520   2.783
 4539SOL     OW14515   3.480   6.070   4.921
 4539SOL    HW114516   3.399   6.060   4.863
 4539SOL    HW214517   3.477   6.004   4.995
 4540SOL     OW14518   2.375   2.350   6.735
 4540SOL    HW114519   2.305   2.287   6.705
 4540SOL    HW214520   2.418   2.393   6.655
 4541SOL     OW14521   5.924   1.980   6.387
 4541SOL    HW114522   5.844   1.923   6.365
 4541SOL    HW214523   6.003   1.921   6.403
 4542SOL     OW14524   0.290   1.933   1.402
 4542SOL    HW114525   0.275   1.926   1.303
 4542SOL    HW214526   0.280   1.843   1.444
 4543SOL     OW14527   4.463   2.337   1.172
 4543SOL    HW114528   4.511   2.355   1.258
 4543SOL    HW214529   4.370   2.371   1.179
 4544SOL     OW14530   3.632   5.652   6.754
 4544SOL    HW114531   3.604   5.558   6.735
 4544SOL    HW214532   3.565   5.716   6.715
 4545SOL     OW14533   5.476   3.011   4.068
 4545SOL    HW114534   5.565   2.966   4.072
 4545SOL    HW214535   5.406   2.944   4.042
 4546SOL     OW14536   2.009   0.976   4.259
 4546SOL    HW114537   2.011   0.915   4.338
 4546SOL    HW214538   2.042   0.928   4.178
 4547SOL     OW14539   6.376   2.081   0.763
 4547SOL    HW114540   6.351   1.999   0.814
 4547SOL    HW214541   6.391   2.157   0.827
 4548SOL     OW14542   1.503   2.952   4.241
 4548SOL    HW114543   1.522   2.976   4.336
 4548SOL    HW214544   1.507   3.035   4.185
 4549SOL     OW14545   5.964   4.229   2.198
 4549SOL    HW114546   5.961   4.314   2.251
 4549SOL    HW214547   5.881   4.222   2.142
 4550SOL     OW14548   1.316   5.792   3.273
 4550SOL    HW114549   1.244   5.732   3.307
 4550SOL    HW214550   1.333   5.772   3.176
 4551SOL     OW14551   0.436   3.621   4.747
 4551SOL    HW114552   0.482   3.584   4.828
 4551SOL    HW214553   0.374   3.551   4.709
 4552SOL     OW14554   6.355   2.325   0.975
 4552SOL    HW114555   6.271   2.276   0.998
 4552SOL    HW214556   6.343   2.373   0.888
 4553SOL     OW14557   4.153   4.473   6.871
 4553SOL    HW114558   4.065   4.475   6.824
 4553SOL    HW214559   4.151   4.405   6.944
 4554SOL     OW14560   6.530   6.882   1.605
 4554SOL    HW114561   6.447   6.895   1.550
 4554SOL    HW214562   6.508   6.898   1.701
 4555SOL     OW14563   2.394   1.921   5.099
 4555SOL    HW114564   2.458   1.998   5.099
 4555SOL    HW214565   2.301   1.955   5.084
 4556SOL     OW14566   5.389   2.925   4.575
 4556SOL    HW114567   5.390   3.005   4.636
 4556SOL    HW214568   5.401   2.842   4.629
 4557SOL     OW14569   4.837   5.646   5.189
 4557SOL    HW114570   4.867   5.554   5.214
 4557SOL    HW214571   4.904   5.713   5.222
 4558SOL     OW14572   6.909   4.182   4.860
 4558SOL    HW114573   6.895   4.222   4.769
 4558SOL    HW214574   6.821   4.157   4.899
 4559SOL     OW14575   0.439   3.741   2.080
 4559SOL    HW114576   0.404   3.662   2.028
 4559SOL    HW214577   0.390   3.747   2.167
 4560SOL     OW14578   5.224   4.524   1.391
 4560SOL    HW114579   5.275   4.453   1.439
 4560SOL    HW214580   5.137   4.487   1.359
 4561SOL     OW14581   2.914   2.004   3.143
 4561SOL    HW114582   2.824   1.963   3.157
 4561SOL    HW214583   2.915   2.097   3.180
 4562SOL     OW14584   2.307   6.839   6.312
 4562SOL    HW114585   2.281   6.871   6.404
 4562SOL    HW214586   2.314   6.739   6.312
 4563SOL     OW14587   0.501   2.358   1.120
 4563SOL    HW114588   0.527   2.398   1.208
 4563SOL    HW214589   0.524   2.261   1.120
 4564SOL     OW14590   0.073   5.803   2.008
 4564SOL    HW114591   0.028   5.782   2.095
 4564SOL    HW214592   0.003   5.812   1.936
 4565SOL     OW14593   0.567   0.754   4.542
 4565SOL    HW114594   0.615   0.746   4.454
 4565SOL    HW214595   0.634   0.762   4.616
 4566SOL     OW14596   0.102   2.807   0.373
 4566SOL    HW114597   0.005   2.828   0.381
 4566SOL    HW214598   0.147   2.879   0.319
 4567SOL     OW14599   6.596   0.972   6.269
 4567SOL    HW114600   6.648   0.946   6.350
 4567SOL    HW214601   6.519   1.030   6.295
 4568SOL     OW14602   1.741   3.251   6.179
 4568SOL    HW114603   1.711   3.192   6.104
 4568SOL    HW214604   1.835   3.227   6.205
 4569SOL     OW14605   2.084   0.957   3.164
 4569SOL    HW114606   2.162   1.010   3.131
 4569SOL    HW214607   2.023   1.015   3.217
 4570SOL     OW14608   6.954   6.778   2.473
 4570SOL    HW114609   7.009   6.766   2.391
 4570SOL    HW214610   6.902   6.694   2.491
 4571SOL     OW14611   4.529   3.929   6.609
 4571SOL    HW114612   4.554   3.847   6.557
 4571SOL    HW214613   4.610   3.986   6.623
 4572SOL     OW14614   2.028   0.526   6.659
 4572SOL    HW114615   1.973   0.610   6.661
 4572SOL    HW214616   2.093   0.527   6.734
 4573SOL     OW14617   6.490   0.628   6.961
 4573SOL    HW114618   6.447   0.573   0.012
 4573SOL    HW214619   6.426   0.699   6.931
 4574SOL     OW14620   5.693   4.421   0.379
 4574SOL    HW114621   5.754   4.381   0.447
 4574SOL    HW214622   5.619   4.357   0.359
 4575SOL     OW14623   5.486   0.690   5.845
 4575SOL    HW114624   5.424   0.626   5.800
 4575SOL    HW214625   5.435   0.770   5.874
 4576SOL     OW14626   3.615   5.906   5.455
 4576SOL    HW114627   3.612   5.814   5.415
 4576SOL    HW214628   3.543   5.962   5.414
 4577SOL     OW14629   0.748   2.076   4.044
 4577SOL    HW114630   0.765   2.069   4.142
 4577SOL    HW214631   0.704   1.993   4.011
 4578SOL     OW14632   0.833   2.629   4.994
 4578SOL    HW114633   0.908   2.565   5.010
 4578SOL    HW214634   0.747   2.588   5.024
 4579SOL     OW14635   4.130   0.112   3.724
 4579SOL    HW114636   4.174   0.064   3.649
 4579SOL    HW214637   4.078   0.189   3.688
 4580SOL     OW14638   5.208   4.779   0.947
 4580SOL    HW114639   5.294   4.779   0.896
 4580SOL    HW214640   5.218   4.725   1.030
 4581SOL     OW14641   2.152   5.989   2.094
 4581SOL    HW114642   2.235   6.005   2.147
 4581SOL    HW214643   2.177   5.960   2.001
 4582SOL     OW14644   4.278   0.864   4.628
 4582SOL    HW114645   4.286   0.764   4.635
 4582SOL    HW214646   4.233   0.888   4.542
 4583SOL     OW14647   2.709   2.032   6.867
 4583SOL    HW114648   2.677   1.950   6.819
 4583SOL    HW214649   2.793   2.065   6.825
 4584SOL     OW14650   0.717   4.819   5.205
 4584SOL    HW114651   0.811   4.814   5.170
 4584SOL    HW214652   0.714   4.879   5.285
 4585SOL     OW14653   1.862   5.283   3.368
 4585SOL    HW114654   1.849   5.371   3.322
 4585SOL    HW214655   1.946   5.240   3.335
 4586SOL     OW14656   3.780   4.503   1.035
 4586SOL    HW114657   3.789   4.590   1.083
 4586SOL    HW214658   3.711   4.447   1.082
 4587SOL     OW14659   3.381   4.018   3.697
 4587SOL    HW114660   3.434   4.087   3.745
 4587SOL    HW214661   3.312   3.979   3.759
 4588SOL     OW14662   2.525   3.568   5.306
 4588SOL    HW114663   2.553   3.664   5.308
 4588SOL    HW214664   2.605   3.510   5.325
 4589SOL     OW14665   6.142   0.768   2.223
 4589SOL    HW114666   6.172   0.836   2.156
 4589SOL    HW214667   6.149   0.677   2.183
 4590SOL     OW14668   4.667   5.018   1.280
 4590SOL    HW114669   4.587   4.960   1.297
 4590SOL    HW214670   4.710   5.040   1.368
 4591SOL     OW14671   2.024   0.516   4.751
 4591SOL    HW114672   2.037   0.513   4.652
 4591SOL    HW214673   1.940   0.467   4.775
 4592SOL     OW14674   2.721   1.577   3.582
 4592SOL    HW114675   2.799   1.626   3.543
 4592SOL    HW214676   2.739   1.555   3.678
 4593SOL     OW14677   5.206   5.829   1.850
 4593SOL    HW114678   5.212   5.857   1.945
 4593SOL    HW214679   5.150   5.746   1.843
 4594SOL     OW14680   2.530   1.161   3.559
 4594SOL    HW114681   2.611   1.103   3.565
 4594SOL    HW214682   2.511   1.182   3.462
 4595SOL     OW14683   4.540   3.030   5.456
 4595SOL    HW114684   4.629   3.070   5.475
 4595SOL    HW214685   4.541   2.987   5.365
 4596SOL     OW14686   6.414   0.707   2.541
 4596SOL    HW114687   6.344   0.774   2.515
 4596SOL    HW214688   6.464   0.677   2.460
 4597SOL     OW14689   4.174   5.286   0.075
 4597SOL    HW114690   4.078   5.259   0.083
 4597SOL    HW214691   4.229   5.206   0.051
 4598SOL     OW14692   1.698   5.902   0.768
 4598SOL    HW114693   1.743   5.864   0.687
 4598SOL    HW214694   1.600   5.885   0.763
 4599SOL     OW14695   1.829   5.026   0.097
 4599SOL    HW114696   1.872   5.006   0.009
 4599SOL    HW214697   1.732   5.048   0.083
 4600SOL     OW14698   0.757   5.713   5.429
 4600SOL    HW114699   0.715   5.803   5.414
 4600SOL    HW214700   0.804   5.713   5.517
 4601SOL     OW14701   1.477   1.269   5.295
 4601SOL    HW114702   1.485   1.366   5.275
 4601SOL    HW214703   1.468   1.255   5.393
 4602SOL     OW14704   3.176   6.366   0.474
 4602SOL    HW114705   3.189   6.306   0.553
 4602SOL    HW214706   3.117   6.321   0.406
 4603SOL     OW14707   3.933   6.657   1.024
 4603SOL    HW114708   3.908   6.723   0.953
 4603SOL    HW214709   3.898   6.687   1.112
 4604SOL     OW14710   4.274   0.100   6.710
 4604SOL    HW114711   4.273   0.007   6.672
 4604SOL    HW214712   4.258   0.095   6.809
 4605SOL     OW14713   1.555   6.382   2.474
 4605SOL    HW114714   1.525   6.330   2.394
 4605SOL    HW214715   1.556   6.322   2.555
 4606SOL     OW14716   0.659   6.624   2.184
 4606SOL    HW114717   0.740   6.567   2.189
 4606SOL    HW214718   0.579   6.567   2.167
 4607SOL     OW14719   2.172   3.145   2.552
 4607SOL    HW114720   2.218   3.073   2.604
 4607SOL    HW214721   2.162   3.226   2.609
 4608SOL     OW14722   0.628   5.787   3.586
 4608SOL    HW114723   0.534   5.820   3.598
 4608SOL    HW214724   0.674   5.786   3.674
 4609SOL     OW14725   4.813   4.979   6.979
 4609SOL    HW114726   4.875   4.912   7.020
 4609SOL    HW214727   4.755   4.933   6.911
 4610SOL     OW14728   4.882   1.947   0.330
 4610SOL    HW114729   4.977   1.975   0.338
 4610SOL    HW214730   4.838   1.953   0.420
 4611SOL     OW14731   1.285   6.406   6.057
 4611SOL    HW114732   1.280   6.489   6.112
 4611SOL    HW214733   1.312   6.329   6.115
 4612SOL     OW14734   1.974   6.446   0.844
 4612SOL    HW114735   1.888   6.473   0.887
 4612SOL    HW214736   1.956   6.382   0.769
 4613SOL     OW14737   1.662   5.548   1.904
 4613SOL    HW114738   1.637   5.605   1.983
 4613SOL    HW214739   1.585   5.488   1.881
 4614SOL     OW14740   6.046   3.482   3.303
 4614SOL    HW114741   5.980   3.557   3.307
 4614SOL    HW214742   6.133   3.512   3.342
 4615SOL     OW14743   1.867   0.973   0.048
 4615SOL    HW114744   1.790   0.958   0.111
 4615SOL    HW214745   1.909   0.885   0.026
 4616SOL     OW14746   6.322   1.392   4.536
 4616SOL    HW114747   6.360   1.405   4.628
 4616SOL    HW214748   6.312   1.294   4.518
 4617SOL     OW14749   1.239   2.463   2.114
 4617SOL    HW114750   1.186   2.381   2.094
 4617SOL    HW214751   1.194   2.516   2.186
 4618SOL     OW14752   2.346   3.066   5.384
 4618SOL    HW114753   2.280   3.118   5.329
 4618SOL    HW214754   2.418   3.031   5.324
 4619SOL     OW14755   3.149   6.182   3.566
 4619SOL    HW114756   3.194   6.270   3.552
 4619SOL    HW214757   3.082   6.167   3.494
 4620SOL     OW14758   2.279   4.889   1.030
 4620SOL    HW114759   2.221   4.811   1.053
 4620SOL    HW214760   2.368   4.857   0.999
 4621SOL     OW14761   5.038   0.499   2.447
 4621SOL    HW114762   4.957   0.558   2.450
 4621SOL    HW214763   5.109   0.537   2.506
 4622SOL     OW14764   3.434   4.536   0.339
 4622SOL    HW114765   3.495   4.540   0.260
 4622SOL    HW214766   3.455   4.612   0.401
 4623SOL     OW14767   5.070   5.969   1.652
 4623SOL    HW114768   5.103   5.933   1.738
 4623SOL    HW214769   5.089   6.067   1.647
 4624SOL     OW14770   3.547   0.119   2.752
 4624SOL    HW114771   3.565   0.035   2.803
 4624SOL    HW214772   3.526   0.193   2.816
 4625SOL     OW14773   1.759   4.416   1.386
 4625SOL    HW114774   1.693   4.486   1.358
 4625SOL    HW214775   1.822   4.454   1.452
 4626SOL     OW14776   5.050   4.254   2.203
 4626SOL    HW114777   4.964   4.302   2.220
 4626SOL    HW214778   5.127   4.317   2.216
 4627SOL     OW14779   1.456   4.712   5.136
 4627SOL    HW114780   1.446   4.617   5.165
 4627SOL    HW214781   1.376   4.739   5.081
 4628SOL     OW14782   4.672   4.328   4.590
 4628SOL    HW114783   4.687   4.308   4.687
 4628SOL    HW214784   4.676   4.427   4.575
 4629SOL     OW14785   2.988   5.353   5.148
 4629SOL    HW114786   2.906   5.330   5.096
 4629SOL    HW214787   3.004   5.283   5.218
 4630SOL     OW14788   2.530   6.115   1.970
 4630SOL    HW114789   2.570   6.087   2.057
 4630SOL    HW214790   2.442   6.160   1.986
 4631SOL     OW14791   1.317   6.028   3.146
 4631SOL    HW114792   1.298   6.114   3.195
 4631SOL    HW214793   1.314   5.952   3.211
 4632SOL     OW14794   2.483   4.694   2.791
 4632SOL    HW114795   2.526   4.697   2.701
 4632SOL    HW214796   2.389   4.728   2.784
 4633SOL     OW14797   6.082   0.728   4.515
 4633SOL    HW114798   6.072   0.711   4.613
 4633SOL    HW214799   6.097   0.826   4.499
 4634SOL     OW14800   2.543   3.855   5.320
 4634SOL    HW114801   2.633   3.893   5.340
 4634SOL    HW214802   2.496   3.913   5.254
 4635SOL     OW14803   5.037   3.687   1.947
 4635SOL    HW114804   4.986   3.601   1.956
 4635SOL    HW214805   4.972   3.763   1.941
 4636SOL     OW14806   2.477   4.664   0.206
 4636SOL    HW114807   2.469   4.565   0.219
 4636SOL    HW214808   2.459   4.710   0.293
 4637SOL     OW14809   0.695   6.750   0.574
 4637SOL    HW114810   0.698   6.659   0.533
 4637SOL    HW214811   0.761   6.809   0.528
 4638SOL     OW14812   3.856   4.598   0.188
 4638SOL    HW114813   3.840   4.616   0.285
 4638SOL    HW214814   3.941   4.644   0.159
 4639SOL     OW14815   3.332   3.619   6.303
 4639SOL    HW114816   3.416   3.671   6.285
 4639SOL    HW214817   3.254   3.670   6.266
 4640SOL     OW14818   4.882   4.001   4.157
 4640SOL    HW114819   4.903   3.910   4.123
 4640SOL    HW214820   4.874   3.998   4.257
 4641SOL     OW14821   2.629   0.336   4.939
 4641SOL    HW114822   2.581   0.423   4.941
 4641SOL    HW214823   2.655   0.314   4.845
 4642SOL     OW14824   1.017   6.694   3.526
 4642SOL    HW114825   1.043   6.700   3.430
 4642SOL    HW214826   0.931   6.742   3.541
 4643SOL     OW14827   6.815   2.345   0.778
 4643SOL    HW114828   6.831   2.431   0.826
 4643SOL    HW214829   6.723   2.345   0.739
 4644SOL     OW14830   0.358   5.892   5.100
 4644SOL    HW114831   0.421   5.969   5.115
 4644SOL    HW214832   0.396   5.832   5.030
 4645SOL     OW14833   0.523   0.337   3.958
 4645SOL    HW114834   0.615   0.367   3.982
 4645SOL    HW214835   0.521   0.310   3.861
 4646SOL     OW14836   2.129   5.220   3.279
 4646SOL    HW114837   2.170   5.144   3.229
 4646SOL    HW214838   2.179   5.236   3.364
 4647SOL     OW14839   1.951   0.291   3.025
 4647SOL    HW114840   1.895   0.350   2.967
 4647SOL    HW214841   2.031   0.341   3.056
 4648SOL     OW14842   3.295   0.279   2.673
 4648SOL    HW114843   3.388   0.310   2.652
 4648SOL    HW214844   3.293   0.240   2.765
 4649SOL     OW14845   5.246   1.294   6.707
 4649SOL    HW114846   5.322   1.300   6.643
 4649SOL    HW214847   5.274   1.239   6.786
 4650SOL     OW14848   4.984   5.597   2.223
 4650SOL    HW114849   5.084   5.584   2.221
 4650SOL    HW214850   4.947   5.557   2.306
 4651SOL     OW14851   6.362   3.951   6.722
 4651SOL    HW114852   6.263   3.950   6.735
 4651SOL    HW214853   6.405   3.890   6.788
 4652SOL     OW14854   5.248   6.519   4.510
 4652SOL    HW114855   5.291   6.559   4.591
 4652SOL    HW214856   5.318   6.473   4.455
 4653SOL     OW14857   5.230   5.635   1.002
 4653SOL    HW114858   5.157   5.700   1.021
 4653SOL    HW214859   5.223   5.558   1.066
 4654SOL     OW14860   0.897   6.092   6.549
 4654SOL    HW114861   0.895   6.080   6.648
 4654SOL    HW214862   0.858   6.181   6.525
 4655SOL     OW14863   6.023   3.518   1.008
 4655SOL    HW114864   5.963   3.532   0.929
 4655SOL    HW214865   6.117   3.539   0.983
 4656SOL     OW14866   1.267   0.591   2.308
 4656SOL    HW114867   1.220   0.520   2.256
 4656SOL    HW214868   1.357   0.607   2.268
 4657SOL     OW14869   4.369   5.720   1.605
 4657SOL    HW114870   4.348   5.622   1.602
 4657SOL    HW214871   4.286   5.772   1.591
 4658SOL     OW14872   3.383   0.207   4.028
 4658SOL    HW114873   3.462   0.152   4.002
 4658SOL    HW214874   3.308   0.146   4.054
 4659SOL     OW14875   2.813   3.912   5.339
 4659SOL    HW114876   2.882   3.840   5.326
 4659SOL    HW214877   2.859   4.000   5.349
 4660SOL     OW14878   0.568   5.574   4.985
 4660SOL    HW114879   0.485   5.541   4.940
 4660SOL    HW214880   0.574   5.537   5.077
 4661SOL     OW14881   3.097   4.223   6.110
 4661SOL    HW114882   3.004   4.240   6.079
 4661SOL    HW214883   3.096   4.199   6.207
 4662SOL     OW14884   2.894   0.182   5.594
 4662SOL    HW114885   2.951   0.111   5.551
 4662SOL    HW214886   2.874   0.254   5.528
 4663SOL     OW14887   0.328   1.363   1.309
 4663SOL    HW114888   0.278   1.335   1.390
 4663SOL    HW214889   0.287   1.446   1.270
 4664SOL     OW14890   1.290   1.290   0.788
 4664SOL    HW114891   1.382   1.278   0.753
 4664SOL    HW214892   1.266   1.387   0.786
 4665SOL     OW14893   4.268   6.527   6.293
 4665SOL    HW114894   4.273   6.574   6.206
 4665SOL    HW214895   4.273   6.593   6.368
 4666SOL     OW14896   2.595   2.390   6.932
 4666SOL    HW114897   2.525   2.364   6.866
 4666SOL    HW214898   2.557   2.453   6.999
 4667SOL     OW14899   6.434   3.944   1.860
 4667SOL    HW114900   6.449   3.944   1.761
 4667SOL    HW214901   6.479   3.865   1.900
 4668SOL     OW14902   4.739   2.043   3.528
 4668SOL    HW114903   4.818   2.105   3.527
 4668SOL    HW214904   4.664   2.083   3.476
 4669SOL     OW14905   5.235   6.184   0.871
 4669SOL    HW114906   5.250   6.133   0.787
 4669SOL    HW214907   5.259   6.126   0.950
 4670SOL     OW14908   1.619   2.129   6.087
 4670SOL    HW114909   1.651   2.209   6.138
 4670SOL    HW214910   1.694   2.092   6.033
 4671SOL     OW14911   0.666   3.304   6.793
 4671SOL    HW114912   0.711   3.386   6.759
 4671SOL    HW214913   0.597   3.273   6.728
 4672SOL     OW14914   2.643   5.251   5.543
 4672SOL    HW114915   2.742   5.251   5.533
 4672SOL    HW214916   2.603   5.322   5.484
 4673SOL     OW14917   4.657   0.180   1.810
 4673SOL    HW114918   4.622   0.274   1.812
 4673SOL    HW214919   4.662   0.145   1.904
 4674SOL     OW14920   4.725   1.202   6.698
 4674SOL    HW114921   4.627   1.212   6.680
 4674SOL    HW214922   4.746   1.242   6.787
 4675SOL     OW14923   2.150   1.242   6.700
 4675SOL    HW114924   2.181   1.332   6.671
 4675SOL    HW214925   2.072   1.252   6.762
 4676SOL     OW14926   5.863   6.215   4.048
 4676SOL    HW114927   5.790   6.210   3.979
 4676SOL    HW214928   5.831   6.173   4.133
 4677SOL     OW14929   2.556   1.102   6.869
 4677SOL    HW114930   2.608   1.048   6.935
 4677SOL    HW214931   2.511   1.178   6.915
 4678SOL     OW14932   1.904   4.309   2.766
 4678SOL    HW114933   1.840   4.379   2.798
 4678SOL    HW214934   1.934   4.254   2.844
 4679SOL     OW14935   3.304   1.413   6.890
 4679SOL    HW114936   3.276   1.508   6.902
 4679SOL    HW214937   3.378   1.392   6.953
 4680SOL     OW14938   2.263   1.561   0.980
 4680SOL    HW114939   2.293   1.650   1.012
 4680SOL    HW214940   2.238   1.567   0.884
 4681SOL     OW14941   5.777   6.304   5.912
 4681SOL    HW114942   5.846   6.344   5.852
 4681SOL    HW214943   5.705   6.262   5.857
 4682SOL     OW14944   4.123   4.956   5.904
 4682SOL    HW114945   4.151   4.860   5.900
 4682SOL    HW214946   4.045   4.970   5.844
 4683SOL     OW14947   4.487   4.453   2.890
 4683SOL    HW114948   4.505   4.425   2.984
 4683SOL    HW214949   4.537   4.393   2.827
 4684SOL     OW14950   6.797   2.164   5.405
 4684SOL    HW114951   6.862   2.112   5.461
 4684SOL    HW214952   6.709   2.117   5.404
 4685SOL     OW14953   0.505   6.099   5.140
 4685SOL    HW114954   0.592   6.103   5.091
 4685SOL    HW214955   0.459   6.187   5.133
 4686SOL     OW14956   5.176   5.459   0.600
 4686SOL    HW114957   5.184   5.497   0.508
 4686SOL    HW214958   5.253   5.490   0.656
 4687SOL     OW14959   6.668   4.239   5.231
 4687SOL    HW114960   6.577   4.220   5.267
 4687SOL    HW214961   6.734   4.243   5.306
 4688SOL     OW14962   6.417   4.092   5.581
 4688SOL    HW114963   6.508   4.067   5.550
 4688SOL    HW214964   6.382   4.021   5.643
 4689SOL     OW14965   5.936   0.795   0.008
 4689SOL    HW114966   5.950   0.720   6.964
 4689SOL    HW214967   6.000   0.869   7.008
 4690SOL     OW14968   1.189   0.478   0.020
 4690SOL    HW114969   1.286   0.463   0.038
 4690SOL    HW214970   1.177   0.564   6.990
 4691SOL     OW14971   2.714   4.718   2.210
 4691SOL    HW114972   2.784   4.681   2.149
 4691SOL    HW214973   2.693   4.652   2.282
 4692SOL     OW14974   6.301   5.561   2.326
 4692SOL    HW114975   6.229   5.494   2.306
 4692SOL    HW214976   6.268   5.627   2.392
 4693SOL     OW14977   0.682   0.574   3.133
 4693SOL    HW114978   0.773   0.551   3.096
 4693SOL    HW214979   0.693   0.616   3.223
 4694SOL     OW14980   2.547   0.188   0.456
 4694SOL    HW114981   2.481   0.212   0.527
 4694SOL    HW214982   2.512   0.111   0.403
 4695SOL     OW14983   2.538   3.479   1.685
 4695SOL    HW114984   2.477   3.446   1.757
 4695SOL    HW214985   2.521   3.576   1.669
 4696SOL     OW14986   0.056   4.043   6.362
 4696SOL    HW114987   0.102   4.118   6.410
 4696SOL    HW214988   0.013   4.078   6.279
 4697SOL     OW14989   2.498   3.112   0.857
 4697SOL    HW114990   2.459   3.188   0.908
 4697SOL    HW214991   2.576   3.075   0.908
 4698SOL     OW14992   4.591   5.947   2.650
 4698SOL    HW114993   4.562   5.988   2.563
 4698SOL    HW214994   4.555   5.853   2.656
 4699SOL     OW14995   1.295   6.481   1.824
 4699SOL    HW114996   1.358   6.456   1.750
 4699SOL    HW214997   1.202   6.452   1.800
 4700SOL     OW14998   6.525   1.684   2.481
 4700SOL    HW114999   6.560   1.596   2.512
 4700SOL    HW215000   6.601   1.746   2.461
 4701SOL     OW15001   2.351   2.307   0.860
 4701SOL    HW115002   2.311   2.264   0.941
 4701SOL    HW215003   2.370   2.238   0.791
 4702SOL     OW15004   5.636   4.836   6.548
 4702SOL    HW115005   5.703   4.763   6.534
 4702SOL    HW215006   5.669   4.920   6.505
 4703SOL     OW15007   1.057   2.393   1.740
 4703SOL    HW115008   1.012   2.443   1.666
 4703SOL    HW215009   1.041   2.295   1.729
 4704SOL     OW15010   1.288   6.795   6.730
 4704SOL    HW115011   1.195   6.812   6.697
 4704SOL    HW215012   1.286   6.719   6.795
 4705SOL     OW15013   3.441   3.479   2.735
 4705SOL    HW115014   3.473   3.555   2.678
 4705SOL    HW215015   3.344   3.492   2.756
 4706SOL     OW15016   3.907   6.455   6.375
 4706SOL    HW115017   3.962   6.411   6.446
 4706SOL    HW215018   3.932   6.417   6.286
 4707SOL     OW15019   2.759   5.796   1.032
 4707SOL    HW115020   2.773   5.728   1.104
 4707SOL    HW215021   2.734   5.750   0.947
 4708SOL     OW15022   1.488   2.368   6.433
 4708SOL    HW115023   1.395   2.334   6.447
 4708SOL    HW215024   1.490   2.430   6.355
 4709SOL     OW15025   4.460   6.002   6.225
 4709SOL    HW115026   4.454   5.929   6.156
 4709SOL    HW215027   4.370   6.044   6.238
 4710SOL     OW15028   4.017   1.233   5.625
 4710SOL    HW115029   4.101   1.183   5.604
 4710SOL    HW215030   4.031   1.292   5.704
 4711SOL     OW15031   5.809   1.146   1.926
 4711SOL    HW115032   5.756   1.212   1.978
 4711SOL    HW215033   5.869   1.094   1.987
 4712SOL     OW15034   3.365   4.256   0.056
 4712SOL    HW115035   3.277   4.302   0.068
 4712SOL    HW215036   3.360   4.163   0.092
 4713SOL     OW15037   3.569   3.274   0.933
 4713SOL    HW115038   3.548   3.303   1.027
 4713SOL    HW215039   3.519   3.332   0.869
 4714SOL     OW15040   1.497   2.688   6.888
 4714SOL    HW115041   1.448   2.734   6.814
 4714SOL    HW215042   1.584   2.653   6.854
 4715SOL     OW15043   0.084   3.253   1.872
 4715SOL    HW115044   0.156   3.197   1.913
 4715SOL    HW215045   0.017   3.193   1.828
 4716SOL     OW15046   4.889   6.364   6.502
 4716SOL    HW115047   4.903   6.273   6.542
 4716SOL    HW215048   4.938   6.432   6.556
 4717SOL     OW15049   0.158   6.302   3.302
 4717SOL    HW115050   0.080   6.306   3.239
 4717SOL    HW215051   0.225   6.236   3.268
 4718SOL     OW15052   5.864   2.734   0.391
 4718SOL    HW115053   5.776   2.716   0.434
 4718SOL    HW215054   5.937   2.718   0.457
 4719SOL     OW15055   5.591   3.353   2.123
 4719SOL    HW115056   5.625   3.403   2.043
 4719SOL    HW215057   5.608   3.255   2.111
 4720SOL     OW15058   1.952   5.859   5.395
 4720SOL    HW115059   1.928   5.814   5.481
 4720SOL    HW215060   2.049   5.884   5.397
 4721SOL     OW15061   6.311   2.702   1.484
 4721SOL    HW115062   6.233   2.653   1.524
 4721SOL    HW215063   6.395   2.671   1.527
 4722SOL     OW15064   0.620   6.011   6.673
 4722SOL    HW115065   0.658   6.021   6.765
 4722SOL    HW215066   0.685   6.047   6.606
 4723SOL     OW15067   1.936   4.507   6.307
 4723SOL    HW115068   1.980   4.597   6.307
 4723SOL    HW215069   1.862   4.506   6.374
 4724SOL     OW15070   5.059   6.148   2.888
 4724SOL    HW115071   5.107   6.216   2.832
 4724SOL    HW215072   5.029   6.190   2.973
 4725SOL     OW15073   6.179   6.417   2.766
 4725SOL    HW115074   6.179   6.367   2.679
 4725SOL    HW215075   6.262   6.394   2.816
 4726SOL     OW15076   1.314   2.746   6.316
 4726SOL    HW115077   1.370   2.758   6.398
 4726SOL    HW215078   1.337   2.658   6.273
 4727SOL     OW15079   1.098   6.191   0.222
 4727SOL    HW115080   1.066   6.251   0.296
 4727SOL    HW215081   1.096   6.096   0.252
 4728SOL     OW15082   5.166   0.477   1.254
 4728SOL    HW115083   5.073   0.462   1.219
 4728SOL    HW215084   5.227   0.499   1.178
 4729SOL     OW15085   2.230   1.352   1.676
 4729SOL    HW115086   2.176   1.328   1.756
 4729SOL    HW215087   2.270   1.443   1.688
 4730SOL     OW15088   3.330   6.015   4.655
 4730SOL    HW115089   3.291   6.041   4.566
 4730SOL    HW215090   3.267   5.954   4.702
 4731SOL     OW15091   4.376   6.927   6.211
 4731SOL    HW115092   4.326   6.851   6.170
 4731SOL    HW215093   4.335   7.014   6.182
 4732SOL     OW15094   0.649   3.601   5.538
 4732SOL    HW115095   0.619   3.626   5.630
 4732SOL    HW215096   0.717   3.668   5.506
 4733SOL     OW15097   1.617   4.384   3.630
 4733SOL    HW115098   1.545   4.323   3.663
 4733SOL    HW215099   1.700   4.370   3.684
 4734SOL     OW15100   5.051   2.562   6.909
 4734SOL    HW115101   5.130   2.622   6.917
 4734SOL    HW215102   4.971   2.605   6.951
 4735SOL     OW15103   0.200   5.822   4.540
 4735SOL    HW115104   0.219   5.903   4.485
 4735SOL    HW215105   0.200   5.741   4.481
 4736SOL     OW15106   6.918   2.443   6.534
 4736SOL    HW115107   6.912   2.345   6.518
 4736SOL    HW215108   6.859   2.468   6.611
 4737SOL     OW15109   2.156   4.845   1.831
 4737SOL    HW115110   2.062   4.857   1.799
 4737SOL    HW215111   2.178   4.914   1.901
 4738SOL     OW15112   0.016   6.374   3.057
 4738SOL    HW115113   0.074   6.456   3.057
 4738SOL    HW215114   0.040   6.317   2.978
 4739SOL     OW15115   4.110   6.374   3.446
 4739SOL    HW115116   4.016   6.390   3.474
 4739SOL    HW215117   4.169   6.375   3.528
 4740SOL     OW15118   1.200   1.794   1.000
 4740SOL    HW115119   1.230   1.870   0.943
 4740SOL    HW215120   1.154   1.829   1.082
 4741SOL     OW15121   3.368   2.988   1.580
 4741SOL    HW115122   3.343   2.911   1.639
 4741SOL    HW215123   3.288   3.021   1.531
 4742SOL     OW15124   2.875   6.426   5.804
 4742SOL    HW115125   2.856   6.358   5.734
 4742SOL    HW215126   2.819   6.508   5.787
 4743SOL     OW15127   1.911   3.839   3.036
 4743SOL    HW115128   2.001   3.814   3.000
 4743SOL    HW215129   1.900   3.799   3.127
 4744SOL     OW15130   2.531   4.560   0.711
 4744SOL    HW115131   2.617   4.537   0.758
 4744SOL    HW215132   2.466   4.596   0.777
 4745SOL     OW15133   3.033   3.433   5.887
 4745SOL    HW115134   2.942   3.461   5.855
 4745SOL    HW215135   3.033   3.335   5.904
 4746SOL     OW15136   5.007   6.217   3.149
 4746SOL    HW115137   4.930   6.189   3.207
 4746SOL    HW215138   5.089   6.228   3.206
 4747SOL     OW15139   1.536   4.298   6.858
 4747SOL    HW115140   1.441   4.321   6.835
 4747SOL    HW215141   1.578   4.374   6.907
 4748SOL     OW15142   2.628   5.397   1.511
 4748SOL    HW115143   2.579   5.350   1.585
 4748SOL    HW215144   2.611   5.495   1.517
 4749SOL     OW15145   2.307   6.571   6.335
 4749SOL    HW115146   2.232   6.508   6.315
 4749SOL    HW215147   2.388   6.519   6.361
 4750SOL     OW15148   6.696   3.969   4.669
 4750SOL    HW115149   6.781   4.019   4.652
 4750SOL    HW215150   6.630   4.029   4.714
 4751SOL     OW15151   4.139   1.973   2.935
 4751SOL    HW115152   4.171   1.929   3.019
 4751SOL    HW215153   4.097   2.061   2.957
 4752SOL     OW15154   4.318   1.241   7.013
 4752SOL    HW115155   4.225   1.275   6.996
 4752SOL    HW215156   4.377   1.262   6.935
 4753SOL     OW15157   0.222   0.310   4.605
 4753SOL    HW115158   0.298   0.250   4.582
 4753SOL    HW215159   0.248   0.405   4.585
 4754SOL     OW15160   5.305   4.085   4.615
 4754SOL    HW115161   5.226   4.044   4.660
 4754SOL    HW215162   5.311   4.182   4.638
 4755SOL     OW15163   2.568   1.320   0.381
 4755SOL    HW115164   2.543   1.330   0.477
 4755SOL    HW215165   2.544   1.228   0.349
 4756SOL     OW15166   5.428   3.405   5.896
 4756SOL    HW115167   5.449   3.502   5.887
 4756SOL    HW215168   5.378   3.389   5.981
 4757SOL     OW15169   2.233   2.188   1.445
 4757SOL    HW115170   2.215   2.284   1.422
 4757SOL    HW215171   2.215   2.173   1.542
 4758SOL     OW15172   1.339   6.962   3.196
 4758SOL    HW115173   1.431   6.998   3.212
 4758SOL    HW215174   1.313   6.978   3.101
 4759SOL     OW15175   0.317   5.111   6.152
 4759SOL    HW115176   0.317   5.025   6.100
 4759SOL    HW215177   0.387   5.172   6.116
 4760SOL     OW15178   1.876   2.269   0.723
 4760SOL    HW115179   1.927   2.210   0.786
 4760SOL    HW215180   1.930   2.286   0.642
 4761SOL     OW15181   0.961   6.344   0.419
 4761SOL    HW115182   0.978   6.423   0.476
 4761SOL    HW215183   1.000   6.262   0.461
 4762SOL     OW15184   0.966   5.207   1.759
 4762SOL    HW115185   0.999   5.254   1.677
 4762SOL    HW215186   1.010   5.247   1.840
 4763SOL     OW15187   5.797   0.502   2.543
 4763SOL    HW115188   5.698   0.493   2.529
 4763SOL    HW215189   5.844   0.430   2.492
 4764SOL     OW15190   4.542   4.213   5.360
 4764SOL    HW115191   4.568   4.117   5.365
 4764SOL    HW215192   4.446   4.224   5.383
 4765SOL     OW15193   3.745   0.537   5.646
 4765SOL    HW115194   3.669   0.600   5.631
 4765SOL    HW215195   3.746   0.468   5.573
 4766SOL     OW15196   6.037   5.087   3.684
 4766SOL    HW115197   6.130   5.116   3.704
 4766SOL    HW215198   5.986   5.074   3.769
 4767SOL     OW15199   3.187   5.371   4.936
 4767SOL    HW115200   3.102   5.378   4.989
 4767SOL    HW215201   3.262   5.343   4.997
 4768SOL     OW15202   4.400   2.160   6.624
 4768SOL    HW115203   4.415   2.176   6.721
 4768SOL    HW215204   4.302   2.156   6.605
 4769SOL     OW15205   5.073   6.240   0.599
 4769SOL    HW115206   4.980   6.234   0.563
 4769SOL    HW215207   5.111   6.330   0.580
 4770SOL     OW15208   6.933   1.856   4.834
 4770SOL    HW115209   6.850   1.812   4.869
 4770SOL    HW215210   6.944   1.835   4.737
 4771SOL     OW15211   3.095   6.262   6.065
 4771SOL    HW115212   3.023   6.331   6.076
 4771SOL    HW215213   3.183   6.302   6.090
 4772SOL     OW15214   3.486   4.774   0.117
 4772SOL    HW115215   3.543   4.692   0.111
 4772SOL    HW215216   3.392   4.748   0.138
 4773SOL     OW15217   6.631   5.181   5.542
 4773SOL    HW115218   6.674   5.104   5.494
 4773SOL    HW215219   6.688   5.262   5.533
 4774SOL     OW15220   1.718   4.089   0.816
 4774SOL    HW115221   1.755   4.125   0.902
 4774SOL    HW215222   1.745   3.993   0.806
 4775SOL     OW15223   5.267   6.264   3.282
 4775SOL    HW115224   5.272   6.359   3.253
 4775SOL    HW215225   5.310   6.206   3.213
 4776SOL     OW15226   0.875   0.252   5.137
 4776SOL    HW115227   0.833   0.164   5.117
 4776SOL    HW215228   0.876   0.308   5.054
 4777SOL     OW15229   1.380   4.791   1.092
 4777SOL    HW115230   1.392   4.805   1.190
 4777SOL    HW215231   1.297   4.738   1.075
 4778SOL     OW15232   6.769   3.177   4.426
 4778SOL    HW115233   6.856   3.142   4.390
 4778SOL    HW215234   6.698   3.170   4.356
 4779SOL     OW15235   5.169   0.534   2.935
 4779SOL    HW115236   5.192   0.444   2.973
 4779SOL    HW215237   5.145   0.524   2.838
 4780SOL     OW15238   6.264   2.814   6.863
 4780SOL    HW115239   6.340   2.778   6.808
 4780SOL    HW215240   6.298   2.885   6.924
 4781SOL     OW15241   2.380   4.970   2.200
 4781SOL    HW115242   2.406   4.943   2.293
 4781SOL    HW215243   2.400   4.894   2.138
 4782SOL     OW15244   6.141   5.076   6.916
 4782SOL    HW115245   6.180   5.086   6.825
 4782SOL    HW215246   6.081   5.153   6.936
 4783SOL     OW15247   5.162   3.412   7.006
 4783SOL    HW115248   5.149   3.318   6.976
 4783SOL    HW215249   5.089   3.470   6.969
 4784SOL     OW15250   6.286   2.112   6.377
 4784SOL    HW115251   6.269   2.200   6.332
 4784SOL    HW215252   6.272   2.122   6.476
 4785SOL     OW15253   0.690   5.667   3.030
 4785SOL    HW115254   0.755   5.715   3.088
 4785SOL    HW215255   0.614   5.729   3.007
 4786SOL     OW15256   2.387   6.969   0.373
 4786SOL    HW115257   2.452   6.949   0.300
 4786SOL    HW215258   2.295   6.977   0.336
 4787SOL     OW15259   3.987   1.475   2.935
 4787SOL    HW115260   3.937   1.508   3.015
 4787SOL    HW215261   3.923   1.449   2.863
 4788SOL     OW15262   6.776   6.731   0.058
 4788SOL    HW115263   6.788   6.739   0.157
 4788SOL    HW215264   6.865   6.739   0.013
 4789SOL     OW15265   5.440   1.783   1.789
 4789SOL    HW115266   5.519   1.794   1.729
 4789SOL    HW215267   5.366   1.738   1.738
 4790SOL     OW15268   5.710   1.370   5.561
 4790SOL    HW115269   5.732   1.464   5.534
 4790SOL    HW215270   5.736   1.356   5.656
 4791SOL     OW15271   0.348   2.829   1.384
 4791SOL    HW115272   0.419   2.823   1.454
 4791SOL    HW215273   0.289   2.908   1.403
 4792SOL     OW15274   2.530   4.581   4.044
 4792SOL    HW115275   2.486   4.666   4.073
 4792SOL    HW215276   2.524   4.513   4.117
 4793SOL     OW15277   1.607   2.136   5.578
 4793SOL    HW115278   1.541   2.111   5.649
 4793SOL    HW215279   1.639   2.229   5.593
 4794SOL     OW15280   4.793   7.001   4.813
 4794SOL    HW115281   4.849   0.051   4.855
 4794SOL    HW215282   4.804   7.004   4.714
 4795SOL     OW15283   6.446   2.175   4.390
 4795SOL    HW115284   6.427   2.188   4.488
 4795SOL    HW215285   6.454   2.264   4.346
 4796SOL     OW15286   4.202   1.214   5.315
 4796SOL    HW115287   4.253   1.130   5.294
 4796SOL    HW215288   4.129   1.226   5.248
 4797SOL     OW15289   0.310   6.798   4.723
 4797SOL    HW115290   0.341   6.877   4.778
 4797SOL    HW215291   0.338   6.811   4.628
 4798SOL     OW15292   0.427   4.489   5.740
 4798SOL    HW115293   0.414   4.410   5.680
 4798SOL    HW215294   0.518   4.484   5.782
 4799SOL     OW15295   4.479   1.622   0.650
 4799SOL    HW115296   4.529   1.540   0.623
 4799SOL    HW215297   4.406   1.598   0.714
 4800SOL     OW15298   2.348   3.187   6.497
 4800SOL    HW115299   2.292   3.106   6.476
 4800SOL    HW215300   2.288   3.266   6.511
 4801SOL     OW15301   3.159   2.298   7.004
 4801SOL    HW115302   3.224   2.263   0.051
 4801SOL    HW215303   3.069   2.256   7.019
 4802SOL     OW15304   0.617   6.308   1.681
 4802SOL    HW115305   0.532   6.261   1.705
 4802SOL    HW215306   0.596   6.384   1.618
 4803SOL     OW15307   0.483   4.424   0.303
 4803SOL    HW115308   0.544   4.460   0.374
 4803SOL    HW215309   0.507   4.329   0.283
 4804SOL     OW15310   6.592   6.229   1.227
 4804SOL    HW115311   6.492   6.224   1.222
 4804SOL    HW215312   6.632   6.187   1.146
 4805SOL     OW15313   6.194   1.029   2.820
 4805SOL    HW115314   6.146   1.074   2.745
 4805SOL    HW215315   6.291   1.020   2.796
 4806SOL     OW15316   1.102   4.361   2.627
 4806SOL    HW115317   1.021   4.307   2.603
 4806SOL    HW215318   1.159   4.308   2.690
 4807SOL     OW15319   0.316   4.896   6.863
 4807SOL    HW115320   0.405   4.888   6.909
 4807SOL    HW215321   0.330   4.917   6.767
 4808SOL     OW15322   4.316   5.641   0.274
 4808SOL    HW115323   4.257   5.717   0.247
 4808SOL    HW215324   4.377   5.618   0.198
 4809SOL     OW15325   3.269   4.399   0.717
 4809SOL    HW115326   3.294   4.396   0.621
 4809SOL    HW215327   3.344   4.362   0.772
 4810SOL     OW15328   1.562   3.734   3.196
 4810SOL    HW115329   1.566   3.758   3.099
 4810SOL    HW215330   1.652   3.747   3.238
 4811SOL     OW15331   3.838   3.738   2.507
 4811SOL    HW115332   3.815   3.832   2.480
 4811SOL    HW215333   3.933   3.736   2.541
 4812SOL     OW15334   0.945   6.940   2.160
 4812SOL    HW115335   0.924   6.937   2.257
 4812SOL    HW215336   0.865   6.973   2.110
 4813SOL     OW15337   5.829   1.351   6.399
 4813SOL    HW115338   5.825   1.252   6.413
 4813SOL    HW215339   5.900   1.373   6.332
 4814SOL     OW15340   6.863   3.027   1.202
 4814SOL    HW115341   6.772   3.042   1.239
 4814SOL    HW215342   6.905   2.947   1.245
 4815SOL     OW15343   5.254   4.421   3.267
 4815SOL    HW115344   5.349   4.418   3.298
 4815SOL    HW215345   5.248   4.381   3.175
 4816SOL     OW15346   2.618   5.185   1.033
 4816SOL    HW115347   2.632   5.282   1.013
 4816SOL    HW215348   2.698   5.133   1.002
 4817SOL     OW15349   2.678   1.509   0.657
 4817SOL    HW115350   2.762   1.482   0.611
 4817SOL    HW215351   2.638   1.430   0.704
 4818SOL     OW15352   0.543   0.516   4.251
 4818SOL    HW115353   0.495   0.429   4.247
 4818SOL    HW215354   0.515   0.574   4.174
 4819SOL     OW15355   2.178   2.431   1.563
 4819SOL    HW115356   2.224   2.408   1.648
 4819SOL    HW215357   2.204   2.523   1.534
 4820SOL     OW15358   6.617   1.826   1.094
 4820SOL    HW115359   6.552   1.773   1.148
 4820SOL    HW215360   6.623   1.919   1.130
 4821SOL     OW15361   0.291   0.063   1.879
 4821SOL    HW115362   0.362   0.027   1.818
 4821SOL    HW215363   0.316   0.154   1.911
 4822SOL     OW15364   1.747   2.866   3.866
 4822SOL    HW115365   1.688   2.921   3.925
 4822SOL    HW215366   1.843   2.893   3.880
 4823SOL     OW15367   0.850   0.982   3.815
 4823SOL    HW115368   0.867   1.065   3.762
 4823SOL    HW215369   0.835   0.905   3.752
 4824SOL     OW15370   5.596   1.789   3.965
 4824SOL    HW115371   5.627   1.830   3.879
 4824SOL    HW215372   5.674   1.748   4.013
 4825SOL     OW15373   1.987   2.398   5.027
 4825SOL    HW115374   1.927   2.323   4.998
 4825SOL    HW215375   1.951   2.438   5.111
 4826SOL     OW15376   0.243   0.666   6.216
 4826SOL    HW115377   0.301   0.585   6.231
 4826SOL    HW215378   0.292   0.731   6.157
 4827SOL     OW15379   5.620   2.492   1.697
 4827SOL    HW115380   5.614   2.402   1.655
 4827SOL    HW215381   5.529   2.520   1.729
 4828SOL     OW15382   5.632   2.626   0.987
 4828SOL    HW115383   5.581   2.681   1.053
 4828SOL    HW215384   5.633   2.672   0.898
 4829SOL     OW15385   3.729   6.555   6.747
 4829SOL    HW115386   3.645   6.607   6.765
 4829SOL    HW215387   3.705   6.466   6.707
 4830SOL     OW15388   4.587   6.537   3.520
 4830SOL    HW115389   4.643   6.501   3.445
 4830SOL    HW215390   4.521   6.602   3.484
 4831SOL     OW15391   0.193   4.965   6.498
 4831SOL    HW115392   0.112   5.006   6.456
 4831SOL    HW215393   0.181   4.866   6.506
 4832SOL     OW15394   2.698   2.418   5.955
 4832SOL    HW115395   2.737   2.443   5.866
 4832SOL    HW215396   2.769   2.424   6.025
 4833SOL     OW15397   4.857   2.112   3.146
 4833SOL    HW115398   4.827   2.035   3.202
 4833SOL    HW215399   4.781   2.177   3.136
 4834SOL     OW15400   3.902   0.009   1.079
 4834SOL    HW115401   3.832   0.015   1.149
 4834SOL    HW215402   3.859   0.003   0.989
 4835SOL     OW15403   0.550   2.077   6.285
 4835SOL    HW115404   0.497   2.143   6.233
 4835SOL    HW215405   0.489   2.018   6.338
 4836SOL     OW15406   4.934   3.083   4.037
 4836SOL    HW115407   4.859   3.055   4.096
 4836SOL    HW215408   4.985   3.157   4.081
 4837SOL     OW15409   5.207   3.999   2.237
 4837SOL    HW115410   5.257   4.009   2.151
 4837SOL    HW215411   5.125   4.056   2.235
 4838SOL     OW15412   1.063   4.633   1.355
 4838SOL    HW115413   0.988   4.591   1.305
 4838SOL    HW215414   1.096   4.570   1.426
 4839SOL     OW15415   1.498   3.056   6.204
 4839SOL    HW115416   1.473   3.000   6.283
 4839SOL    HW215417   1.490   3.153   6.227
 4840SOL     OW15418   0.606   5.436   5.704
 4840SOL    HW115419   0.529   5.372   5.693
 4840SOL    HW215420   0.690   5.393   5.671
 4841SOL     OW15421   3.128   6.304   1.885
 4841SOL    HW115422   3.169   6.383   1.839
 4841SOL    HW215423   3.191   6.269   1.953
 4842SOL     OW15424   3.299   4.963   2.147
 4842SOL    HW115425   3.239   4.975   2.226
 4842SOL    HW215426   3.252   4.909   2.077
 4843SOL     OW15427   6.317   3.447   0.205
 4843SOL    HW115428   6.226   3.425   0.170
 4843SOL    HW215429   6.312   3.459   0.304
 4844SOL     OW15430   6.642   3.954   5.567
 4844SOL    HW115431   6.601   3.863   5.567
 4844SOL    HW215432   6.715   3.958   5.636
 4845SOL     OW15433   5.561   5.511   5.423
 4845SOL    HW115434   5.523   5.593   5.381
 4845SOL    HW215435   5.545   5.515   5.522
 4846SOL     OW15436   6.654   2.717   3.228
 4846SOL    HW115437   6.749   2.710   3.259
 4846SOL    HW215438   6.635   2.646   3.161
 4847SOL     OW15439   2.974   1.322   5.963
 4847SOL    HW115440   2.947   1.268   5.883
 4847SOL    HW215441   3.055   1.281   6.004
 4848SOL     OW15442   1.524   0.900   3.890
 4848SOL    HW115443   1.484   0.877   3.801
 4848SOL    HW215444   1.519   0.998   3.904
 4849SOL     OW15445   1.566   6.642   6.787
 4849SOL    HW115446   1.638   6.587   6.831
 4849SOL    HW215447   1.608   6.716   6.735
 4850SOL     OW15448   3.989   1.593   2.546
 4850SOL    HW115449   4.034   1.662   2.604
 4850SOL    HW215450   4.058   1.543   2.494
 4851SOL     OW15451   4.225   6.018   5.739
 4851SOL    HW115452   4.151   5.969   5.694
 4851SOL    HW215453   4.226   5.994   5.836
 4852SOL     OW15454   1.144   0.217   5.084
 4852SOL    HW115455   1.189   0.306   5.080
 4852SOL    HW215456   1.049   0.229   5.115
 4853SOL     OW15457   3.087   0.952   3.318
 4853SOL    HW115458   3.072   0.874   3.257
 4853SOL    HW215459   3.024   0.946   3.395
 4854SOL     OW15460   4.771   6.962   1.980
 4854SOL    HW115461   4.742   6.911   2.061
 4854SOL    HW215462   4.821   0.023   2.008
 4855SOL     OW15463   6.563   3.234   2.086
 4855SOL    HW115464   6.467   3.217   2.066
 4855SOL    HW215465   6.597   3.164   2.148
 4856SOL     OW15466   1.642   3.689   2.542
 4856SOL    HW115467   1.544   3.702   2.555
 4856SOL    HW215468   1.658   3.607   2.487
 4857SOL     OW15469   1.717   2.233   5.031
 4857SOL    HW115470   1.682   2.161   4.970
 4857SOL    HW215471   1.648   2.305   5.040
 4858SOL     OW15472   1.275   1.052   4.396
 4858SOL    HW115473   1.334   0.976   4.422
 4858SOL    HW215474   1.180   1.020   4.394
 4859SOL     OW15475   1.116   0.440   4.674
 4859SOL    HW115476   1.202   0.393   4.695
 4859SOL    HW215477   1.118   0.471   4.579
 4860SOL     OW15478   3.711   4.310   1.377
 4860SOL    HW115479   3.675   4.386   1.432
 4860SOL    HW215480   3.681   4.224   1.417
 4861SOL     OW15481   5.088   4.777   6.849
 4861SOL    HW115482   5.117   4.873   6.852
 4861SOL    HW215483   5.040   4.753   6.933
 4862SOL     OW15484   2.666   4.872   4.660
 4862SOL    HW115485   2.698   4.801   4.597
 4862SOL    HW215486   2.744   4.927   4.689
 4863SOL     OW15487   5.982   3.656   1.721
 4863SOL    HW115488   5.998   3.611   1.808
 4863SOL    HW215489   5.907   3.722   1.731
 4864SOL     OW15490   3.607   1.203   3.032
 4864SOL    HW115491   3.623   1.198   3.130
 4864SOL    HW215492   3.583   1.297   3.007
 4865SOL     OW15493   2.211   0.410   5.187
 4865SOL    HW115494   2.213   0.393   5.285
 4865SOL    HW215495   2.259   0.336   5.139
 4866SOL     OW15496   6.285   1.885   1.373
 4866SOL    HW115497   6.314   1.812   1.310
 4866SOL    HW215498   6.188   1.903   1.361
 4867SOL     OW15499   3.554   5.547   2.053
 4867SOL    HW115500   3.545   5.647   2.059
 4867SOL    HW215501   3.603   5.513   2.133
 4868SOL     OW15502   6.596   5.366   2.771
 4868SOL    HW115503   6.692   5.340   2.769
 4868SOL    HW215504   6.574   5.422   2.691
 4869SOL     OW15505   1.611   1.522   1.633
 4869SOL    HW115506   1.571   1.612   1.649
 4869SOL    HW215507   1.711   1.529   1.631
 4870SOL     OW15508   0.158   6.359   2.055
 4870SOL    HW115509   0.180   6.431   1.989
 4870SOL    HW215510   0.091   6.296   2.015
 4871SOL     OW15511   1.273   0.510   3.704
 4871SOL    HW115512   1.359   0.460   3.714
 4871SOL    HW215513   1.208   0.455   3.651
 4872SOL     OW15514   6.354   0.264   3.814
 4872SOL    HW115515   6.261   0.300   3.807
 4872SOL    HW215516   6.352   0.165   3.810
 4873SOL     OW15517   6.416   5.448   3.288
 4873SOL    HW115518   6.400   5.351   3.271
 4873SOL    HW215519   6.379   5.503   3.213
 4874SOL     OW15520   6.639   3.279   2.551
 4874SOL    HW115521   6.656   3.181   2.547
 4874SOL    HW215522   6.570   3.304   2.483
 4875SOL     OW15523   6.045   2.299   0.929
 4875SOL    HW115524   5.967   2.309   0.991
 4875SOL    HW215525   6.056   2.382   0.875
 4876SOL     OW15526   5.892   2.307   3.303
 4876SOL    HW115527   5.964   2.304   3.373
 4876SOL    HW215528   5.912   2.240   3.232
 4877SOL     OW15529   1.151   1.869   6.450
 4877SOL    HW115530   1.189   1.892   6.360
 4877SOL    HW215531   1.225   1.865   6.517
 4878SOL     OW15532   6.232   1.574   2.452
 4878SOL    HW115533   6.205   1.489   2.408
 4878SOL    HW215534   6.304   1.619   2.398
 4879SOL     OW15535   4.307   1.093   2.358
 4879SOL    HW115536   4.351   1.098   2.269
 4879SOL    HW215537   4.207   1.096   2.346
 4880SOL     OW15538   5.336   3.597   0.297
 4880SOL    HW115539   5.389   3.633   0.374
 4880SOL    HW215540   5.332   3.665   0.224
 4881SOL     OW15541   1.470   0.552   0.220
 4881SOL    HW115542   1.394   0.611   0.191
 4881SOL    HW215543   1.527   0.601   0.286
 4882SOL     OW15544   4.772   0.788   4.510
 4882SOL    HW115545   4.867   0.805   4.536
 4882SOL    HW215546   4.742   0.857   4.444
 4883SOL     OW15547   5.063   4.923   1.808
 4883SOL    HW115548   5.134   4.981   1.847
 4883SOL    HW215549   5.062   4.935   1.708
 4884SOL     OW15550   2.635   6.664   1.007
 4884SOL    HW115551   2.544   6.684   0.972
 4884SOL    HW215552   2.697   6.739   0.985
 4885SOL     OW15553   2.601   5.610   1.913
 4885SOL    HW115554   2.687   5.583   1.959
 4885SOL    HW215555   2.584   5.707   1.929
 4886SOL     OW15556   0.925   5.813   1.328
 4886SOL    HW115557   0.926   5.891   1.266
 4886SOL    HW215558   0.995   5.747   1.299
 4887SOL     OW15559   0.490   0.541   2.116
 4887SOL    HW115560   0.504   0.604   2.192
 4887SOL    HW215561   0.472   0.593   2.033
 4888SOL     OW15562   2.608   0.248   4.032
 4888SOL    HW115563   2.671   0.196   4.089
 4888SOL    HW215564   2.546   0.186   3.985
 4889SOL     OW15565   6.901   1.721   5.338
 4889SOL    HW115566   6.949   1.711   5.251
 4889SOL    HW215567   6.968   1.721   5.413
 4890SOL     OW15568   0.219   1.222   6.530
 4890SOL    HW115569   0.269   1.160   6.469
 4890SOL    HW215570   0.179   1.297   6.477
 4891SOL     OW15571   2.221   4.745   6.813
 4891SOL    HW115572   2.240   4.768   6.718
 4891SOL    HW215573   2.161   4.665   6.817
 4892SOL     OW15574   3.520   6.015   1.927
 4892SOL    HW115575   3.537   6.046   1.833
 4892SOL    HW215576   3.596   6.042   1.986
 4893SOL     OW15577   6.650   3.162   1.294
 4893SOL    HW115578   6.697   3.205   1.371
 4893SOL    HW215579   6.552   3.184   1.297
 4894SOL     OW15580   2.498   0.816   3.767
 4894SOL    HW115581   2.506   0.915   3.775
 4894SOL    HW215582   2.578   0.780   3.718
 4895SOL     OW15583   0.744   4.635   4.179
 4895SOL    HW115584   0.713   4.605   4.088
 4895SOL    HW215585   0.777   4.557   4.231
 4896SOL     OW15586   1.652   5.077   1.993
 4896SOL    HW115587   1.646   4.994   1.936
 4896SOL    HW215588   1.737   5.125   1.971
 4897SOL     OW15589   1.995   3.681   5.610
 4897SOL    HW115590   1.923   3.617   5.638
 4897SOL    HW215591   1.992   3.762   5.668
 4898SOL     OW15592   4.068   0.626   4.210
 4898SOL    HW115593   4.031   0.700   4.152
 4898SOL    HW215594   4.083   0.545   4.153
 4899SOL     OW15595   5.324   5.420   3.470
 4899SOL    HW115596   5.384   5.449   3.544
 4899SOL    HW215597   5.376   5.365   3.405
 4900SOL     OW15598   3.488   6.368   4.888
 4900SOL    HW115599   3.491   6.274   4.923
 4900SOL    HW215600   3.416   6.375   4.819
 4901SOL     OW15601   2.898   0.666   5.124
 4901SOL    HW115602   2.829   0.709   5.182
 4901SOL    HW215603   2.986   0.713   5.137
 4902SOL     OW15604   2.074   1.757   4.682
 4902SOL    HW115605   2.154   1.795   4.729
 4902SOL    HW215606   2.020   1.831   4.642
 4903SOL     OW15607   4.054   5.482   6.791
 4903SOL    HW115608   4.140   5.496   6.740
 4903SOL    HW215609   3.997   5.417   6.742
 4904SOL     OW15610   2.331   0.106   4.650
 4904SOL    HW115611   2.329   0.197   4.693
 4904SOL    HW215612   2.266   0.046   4.695
 4905SOL     OW15613   3.557   6.908   2.920
 4905SOL    HW115614   3.541   6.934   3.015
 4905SOL    HW215615   3.497   6.831   2.896
 4906SOL     OW15616   5.102   2.146   6.296
 4906SOL    HW115617   5.100   2.088   6.214
 4906SOL    HW215618   5.021   2.128   6.351
 4907SOL     OW15619   4.033   6.236   2.055
 4907SOL    HW115620   4.053   6.314   1.996
 4907SOL    HW215621   4.085   6.157   2.025
 4908SOL     OW15622   5.620   5.518   0.804
 4908SOL    HW115623   5.667   5.458   0.868
 4908SOL    HW215624   5.684   5.586   0.769
 4909SOL     OW15625   0.439   6.869   4.003
 4909SOL    HW115626   0.453   6.963   4.035
 4909SOL    HW215627   0.464   6.805   4.076
 4910SOL     OW15628   5.636   1.171   4.742
 4910SOL    HW115629   5.733   1.152   4.756
 4910SOL    HW215630   5.581   1.101   4.786
 4911SOL     OW15631   1.497   4.194   3.998
 4911SOL    HW115632   1.399   4.212   4.008
 4911SOL    HW215633   1.511   4.096   3.979
 4912SOL     OW15634   5.704   1.832   6.293
 4912SOL    HW115635   5.690   1.734   6.302
 4912SOL    HW215636   5.620   1.880   6.320
 4913SOL     OW15637   4.120   2.978   5.319
 4913SOL    HW115638   4.032   2.984   5.273
 4913SOL    HW215639   4.183   3.044   5.278
 4914SOL     OW15640   2.954   6.965   4.613
 4914SOL    HW115641   3.015   6.909   4.557
 4914SOL    HW215642   2.891   7.016   4.553
 4915SOL     OW15643   3.553   6.449   5.916
 4915SOL    HW115644   3.539   6.546   5.936
 4915SOL    HW215645   3.617   6.410   5.983
 4916SOL     OW15646   1.021   0.426   3.918
 4916SOL    HW115647   1.012   0.337   3.962
 4916SOL    HW215648   1.102   0.472   3.953
 4917SOL     OW15649   2.627   5.659   1.397
 4917SOL    HW115650   2.690   5.720   1.445
 4917SOL    HW215651   2.539   5.704   1.383
 4918SOL     OW15652   5.084   5.327   3.562
 4918SOL    HW115653   5.021   5.401   3.539
 4918SOL    HW215654   5.170   5.341   3.515
 4919SOL     OW15655   3.060   2.566   0.655
 4919SOL    HW115656   2.973   2.525   0.681
 4919SOL    HW215657   3.087   2.533   0.564
 4920SOL     OW15658   5.762   0.835   4.047
 4920SOL    HW115659   5.857   0.866   4.048
 4920SOL    HW215660   5.722   0.847   4.138
 4921SOL     OW15661   1.266   5.096   0.792
 4921SOL    HW115662   1.230   5.146   0.713
 4921SOL    HW215663   1.190   5.072   0.854
 4922SOL     OW15664   2.665   2.469   4.995
 4922SOL    HW115665   2.611   2.475   4.910
 4922SOL    HW215666   2.605   2.481   5.073
 4923SOL     OW15667   3.750   1.854   2.870
 4923SOL    HW115668   3.841   1.861   2.829
 4923SOL    HW215669   3.701   1.941   2.858
 4924SOL     OW15670   3.682   0.772   4.951
 4924SOL    HW115671   3.761   0.822   4.913
 4924SOL    HW215672   3.638   0.827   5.022
 4925SOL     OW15673   6.457   6.887   2.514
 4925SOL    HW115674   6.552   6.908   2.489
 4925SOL    HW215675   6.432   6.938   2.596
 4926SOL     OW15676   4.795   0.980   0.436
 4926SOL    HW115677   4.868   0.964   0.503
 4926SOL    HW215678   4.835   0.985   0.345
 4927SOL     OW15679   3.534   3.777   4.466
 4927SOL    HW115680   3.470   3.810   4.396
 4927SOL    HW215681   3.583   3.697   4.431
 4928SOL     OW15682   2.103   6.489   0.221
 4928SOL    HW115683   2.043   6.470   0.298
 4928SOL    HW215684   2.114   6.406   0.166
 4929SOL     OW15685   6.744   6.190   4.042
 4929SOL    HW115686   6.771   6.286   4.042
 4929SOL    HW215687   6.652   6.181   4.080
 4930SOL     OW15688   5.354   0.997   3.181
 4930SOL    HW115689   5.257   1.003   3.201
 4930SOL    HW215690   5.368   0.944   3.097
 4931SOL     OW15691   0.011   6.752   0.926
 4931SOL    HW115692   6.959   6.735   0.860
 4931SOL    HW215693   0.099   6.740   0.882
 4932SOL     OW15694   3.178   2.912   2.440
 4932SOL    HW115695   3.162   2.964   2.524
 4932SOL    HW215696   3.276   2.900   2.426
 4933SOL     OW15697   2.648   0.193   3.126
 4933SOL    HW115698   2.552   0.211   3.104
 4933SOL    HW215699   2.700   0.278   3.120
 4934SOL     OW15700   2.972   5.735   2.950
 4934SOL    HW115701   3.048   5.708   2.890
 4934SOL    HW215702   2.901   5.665   2.946
 4935SOL     OW15703   1.931   1.758   6.454
 4935SOL    HW115704   1.847   1.764   6.507
 4935SOL    HW215705   1.964   1.664   6.453
 4936SOL     OW15706   2.531   4.410   1.425
 4936SOL    HW115707   2.571   4.432   1.336
 4936SOL    HW215708   2.432   4.401   1.415
 4937SOL     OW15709   6.301   3.256   5.883
 4937SOL    HW115710   6.306   3.355   5.872
 4937SOL    HW215711   6.206   3.228   5.897
 4938SOL     OW15712   2.399   5.253   5.680
 4938SOL    HW115713   2.421   5.276   5.775
 4938SOL    HW215714   2.481   5.219   5.634
 4939SOL     OW15715   5.970   2.390   4.678
 4939SOL    HW115716   5.984   2.293   4.656
 4939SOL    HW215717   5.934   2.398   4.771
 4940SOL     OW15718   0.216   1.534   4.737
 4940SOL    HW115719   0.302   1.522   4.786
 4940SOL    HW215720   0.140   1.534   4.802
 4941SOL     OW15721   5.258   2.420   5.316
 4941SOL    HW115722   5.345   2.468   5.331
 4941SOL    HW215723   5.254   2.340   5.376
 4942SOL     OW15724   4.945   2.147   5.848
 4942SOL    HW115725   4.863   2.097   5.820
 4942SOL    HW215726   4.946   2.237   5.805
 4943SOL     OW15727   4.644   3.225   6.793
 4943SOL    HW115728   4.648   3.269   6.883
 4943SOL    HW215729   4.552   3.234   6.756
 4944SOL     OW15730   1.678   4.410   1.747
 4944SOL    HW115731   1.681   4.423   1.648
 4944SOL    HW215732   1.587   4.380   1.774
 4945SOL     OW15733   1.170   0.509   4.412
 4945SOL    HW115734   1.142   0.450   4.336
 4945SOL    HW215735   1.269   0.504   4.423
 4946SOL     OW15736   1.398   4.366   0.085
 4946SOL    HW115737   1.383   4.464   0.096
 4946SOL    HW215738   1.479   4.338   0.138
 4947SOL     OW15739   2.342   1.026   1.095
 4947SOL    HW115740   2.352   0.956   1.024
 4947SOL    HW215741   2.349   1.117   1.053
 4948SOL     OW15742   1.264   2.060   2.262
 4948SOL    HW115743   1.351   2.109   2.269
 4948SOL    HW215744   1.274   1.986   2.196
 4949SOL     OW15745   4.913   0.041   6.330
 4949SOL    HW115746   4.821   0.003   6.325
 4949SOL    HW215747   4.929   0.102   6.252
 4950SOL     OW15748   2.433   5.588   4.096
 4950SOL    HW115749   2.414   5.490   4.103
 4950SOL    HW215750   2.449   5.625   4.188
 4951SOL     OW15751   5.189   1.813   4.153
 4951SOL    HW115752   5.218   1.908   4.141
 4951SOL    HW215753   5.270   1.755   4.161
 4952SOL     OW15754   0.448   0.766   5.726
 4952SOL    HW115755   0.454   0.859   5.761
 4952SOL    HW215756   0.439   0.702   5.803
 4953SOL     OW15757   2.184   6.450   2.541
 4953SOL    HW115758   2.106   6.511   2.533
 4953SOL    HW215759   2.200   6.429   2.638
 4954SOL     OW15760   4.151   3.524   0.158
 4954SOL    HW115761   4.151   3.477   0.246
 4954SOL    HW215762   4.157   3.623   0.173
 4955SOL     OW15763   2.940   6.225   6.710
 4955SOL    HW115764   3.036   6.252   6.717
 4955SOL    HW215765   2.930   6.130   6.740
 4956SOL     OW15766   2.396   6.755   4.877
 4956SOL    HW115767   2.495   6.762   4.870
 4956SOL    HW215768   2.369   6.659   4.886
 4957SOL     OW15769   6.787   2.079   2.021
 4957SOL    HW115770   6.752   2.111   2.110
 4957SOL    HW215771   6.808   1.981   2.027
 4958SOL     OW15772   6.530   5.428   5.189
 4958SOL    HW115773   6.462   5.445   5.260
 4958SOL    HW215774   6.512   5.488   5.110
 4959SOL     OW15775   6.555   1.364   6.454
 4959SOL    HW115776   6.562   1.329   6.547
 4959SOL    HW215777   6.464   1.401   6.439
 4960SOL     OW15778   3.588   5.531   3.117
 4960SOL    HW115779   3.621   5.446   3.159
 4960SOL    HW215780   3.608   5.529   3.019
 4961SOL     OW15781   4.917   1.492   5.737
 4961SOL    HW115782   4.921   1.533   5.828
 4961SOL    HW215783   4.906   1.564   5.668
 4962SOL     OW15784   6.634   2.102   0.104
 4962SOL    HW115785   6.644   2.145   0.015
 4962SOL    HW215786   6.629   2.172   0.175
 4963SOL     OW15787   6.042   5.433   6.810
 4963SOL    HW115788   6.012   5.373   6.885
 4963SOL    HW215789   6.086   5.515   6.848
 4964SOL     OW15790   3.145   6.801   3.687
 4964SOL    HW115791   3.215   6.871   3.671
 4964SOL    HW215792   3.111   6.810   3.781
 4965SOL     OW15793   0.287   0.418   3.085
 4965SOL    HW115794   0.361   0.471   3.044
 4965SOL    HW215795   0.259   0.460   3.171
 4966SOL     OW15796   2.398   0.232   5.088
 4966SOL    HW115797   2.469   0.272   5.029
 4966SOL    HW215798   2.427   0.143   5.121
 4967SOL     OW15799   3.746   4.090   6.288
 4967SOL    HW115800   3.839   4.094   6.250
 4967SOL    HW215801   3.686   4.045   6.222
 4968SOL     OW15802   6.384   2.360   3.364
 4968SOL    HW115803   6.368   2.443   3.310
 4968SOL    HW215804   6.363   2.378   3.460
 4969SOL     OW15805   2.522   0.235   2.091
 4969SOL    HW115806   2.474   0.230   2.003
 4969SOL    HW215807   2.458   0.257   2.164
 4970SOL     OW15808   1.799   2.010   3.583
 4970SOL    HW115809   1.825   1.914   3.595
 4970SOL    HW215810   1.778   2.050   3.671
 4971SOL     OW15811   6.588   6.740   4.261
 4971SOL    HW115812   6.514   6.695   4.311
 4971SOL    HW215813   6.550   6.796   4.188
 4972SOL     OW15814   2.533   2.706   6.887
 4972SOL    HW115815   2.522   2.648   6.967
 4972SOL    HW215816   2.457   2.691   6.823
 4973SOL     OW15817   1.074   0.297   2.373
 4973SOL    HW115818   1.039   0.330   2.460
 4973SOL    HW215819   1.109   0.204   2.383
 4974SOL     OW15820   6.016   4.916   1.905
 4974SOL    HW115821   6.067   4.845   1.856
 4974SOL    HW215822   5.919   4.912   1.878
 4975SOL     OW15823   5.334   5.027   5.933
 4975SOL    HW115824   5.280   5.094   5.881
 4975SOL    HW215825   5.333   4.940   5.885
 4976SOL     OW15826   2.733   6.993   3.717
 4976SOL    HW115827   2.687   6.921   3.665
 4976SOL    HW215828   2.664   0.029   3.762
 4977SOL     OW15829   4.215   4.169   0.510
 4977SOL    HW115830   4.149   4.179   0.436
 4977SOL    HW215831   4.170   4.183   0.598
 4978SOL     OW15832   0.144   4.200   5.787
 4978SOL    HW115833   0.132   4.156   5.876
 4978SOL    HW215834   0.082   4.159   5.721
 4979SOL     OW15835   0.367   0.168   5.592
 4979SOL    HW115836   0.345   0.221   5.674
 4979SOL    HW215837   0.345   0.072   5.606
 4980SOL     OW15838   4.809   6.135   3.310
 4980SOL    HW115839   4.793   6.055   3.253
 4980SOL    HW215840   4.810   6.109   3.406
 4981SOL     OW15841   5.221   6.216   6.309
 4981SOL    HW115842   5.129   6.238   6.277
 4981SOL    HW215843   5.260   6.295   6.356
 4982SOL     OW15844   2.462   1.615   6.286
 4982SOL    HW115845   2.382   1.658   6.329
 4982SOL    HW215846   2.431   1.545   6.222
 4983SOL     OW15847   5.400   2.103   4.592
 4983SOL    HW115848   5.483   2.143   4.631
 4983SOL    HW215849   5.322   2.123   4.653
 4984SOL     OW15850   6.073   4.638   4.247
 4984SOL    HW115851   5.983   4.608   4.214
 4984SOL    HW215852   6.141   4.624   4.176
 4985SOL     OW15853   6.089   6.311   3.383
 4985SOL    HW115854   6.109   6.222   3.342
 4985SOL    HW215855   6.141   6.382   3.335
 4986SOL     OW15856   5.883   4.190   2.519
 4986SOL    HW115857   5.943   4.149   2.450
 4986SOL    HW215858   5.788   4.168   2.497
 4987SOL     OW15859   1.029   1.431   0.874
 4987SOL    HW115860   1.009   1.333   0.864
 4987SOL    HW215861   1.007   1.478   0.789
 4988SOL     OW15862   5.926   1.111   3.309
 4988SOL    HW115863   5.830   1.107   3.337
 4988SOL    HW215864   5.945   1.202   3.270
 4989SOL     OW15865   5.353   0.517   1.054
 4989SOL    HW115866   5.355   0.614   1.079
 4989SOL    HW215867   5.433   0.471   1.093
 4990SOL     OW15868   1.861   1.429   5.533
 4990SOL    HW115869   1.920   1.508   5.516
 4990SOL    HW215870   1.912   1.345   5.517
 4991SOL     OW15871   0.008   3.960   4.402
 4991SOL    HW115872   0.076   3.888   4.387
 4991SOL    HW215873   6.941   3.919   4.425
 4992SOL     OW15874   4.688   0.865   4.838
 4992SOL    HW115875   4.673   0.944   4.778
 4992SOL    HW215876   4.683   0.781   4.784
 4993SOL     OW15877   3.489   5.241   4.002
 4993SOL    HW115878   3.488   5.142   4.013
 4993SOL    HW215879   3.465   5.284   4.089
 4994SOL     OW15880   1.789   6.944   2.274
 4994SOL    HW115881   1.736   6.863   2.249
 4994SOL    HW215882   1.727   7.018   2.302
 4995SOL     OW15883   6.503   3.219   5.479
 4995SOL    HW115884   6.438   3.194   5.550
 4995SOL    HW215885   6.494   3.157   5.401
 4996SOL     OW15886   1.357   1.353   2.519
 4996SOL    HW115887   1.273   1.336   2.466
 4996SOL    HW215888   1.426   1.285   2.494
 4997SOL     OW15889   5.988   1.939   3.248
 4997SOL    HW115890   6.034   1.866   3.197
 4997SOL    HW215891   6.005   1.927   3.346
 4998SOL     OW15892   2.151   3.806   5.105
 4998SOL    HW115893   2.204   3.886   5.075
 4998SOL    HW215894   2.146   3.805   5.205
 4999SOL     OW15895   5.880   4.714   1.478
 4999SOL    HW115896   5.870   4.773   1.398
 4999SOL    HW215897   5.890   4.619   1.449
 5000SOL     OW15898   2.216   5.991   4.187
 5000SOL    HW115899   2.201   6.071   4.128
 5000SOL    HW215900   2.243   6.022   4.278
 5001SOL     OW15901   1.462   4.194   0.739
 5001SOL    HW115902   1.543   4.142   0.765
 5001SOL    HW215903   1.477   4.291   0.756
 5002SOL     OW15904   1.348   3.144   3.377
 5002SOL    HW115905   1.381   3.236   3.398
 5002SOL    HW215906   1.424   3.088   3.346
 5003SOL     OW15907   2.483   6.431   2.750
 5003SOL    HW115908   2.385   6.433   2.773
 5003SOL    HW215909   2.503   6.351   2.694
 5004SOL     OW15910   3.258   4.926   5.666
 5004SOL    HW115911   3.225   4.895   5.578
 5004SOL    HW215912   3.236   4.859   5.737
 5005SOL     OW15913   3.467   2.302   0.902
 5005SOL    HW115914   3.497   2.208   0.882
 5005SOL    HW215915   3.545   2.364   0.897
 5006SOL     OW15916   4.811   6.933   6.763
 5006SOL    HW115917   4.768   6.856   6.810
 5006SOL    HW215918   4.897   6.955   6.809
 5007SOL     OW15919   1.744   0.268   6.777
 5007SOL    HW115920   1.740   0.276   6.877
 5007SOL    HW215921   1.718   0.175   6.750
 5008SOL     OW15922   6.493   0.693   3.254
 5008SOL    HW115923   6.414   0.748   3.281
 5008SOL    HW215924   6.463   0.609   3.210
 5009SOL     OW15925   1.703   6.114   1.410
 5009SOL    HW115926   1.764   6.089   1.335
 5009SOL    HW215927   1.619   6.061   1.405
 5010SOL     OW15928   3.831   2.961   2.765
 5010SOL    HW115929   3.868   2.881   2.719
 5010SOL    HW215930   3.827   3.038   2.701
 5011SOL     OW15931   1.817   3.592   2.761
 5011SOL    HW115932   1.880   3.669   2.752
 5011SOL    HW215933   1.752   3.593   2.685
 5012SOL     OW15934   4.888   3.490   6.569
 5012SOL    HW115935   4.835   3.405   6.561
 5012SOL    HW215936   4.959   3.491   6.500
 5013SOL     OW15937   5.366   1.469   0.174
 5013SOL    HW115938   5.294   1.406   0.146
 5013SOL    HW215939   5.438   1.418   0.222
 5014SOL     OW15940   5.272   4.286   0.755
 5014SOL    HW115941   5.228   4.363   0.801
 5014SOL    HW215942   5.205   4.240   0.695
 5015SOL     OW15943   4.449   2.140   3.848
 5015SOL    HW115944   4.388   2.126   3.770
 5015SOL    HW215945   4.401   2.187   3.921
 5016SOL     OW15946   2.788   1.913   0.874
 5016SOL    HW115947   2.801   2.007   0.907
 5016SOL    HW215948   2.767   1.854   0.951
 5017SOL     OW15949   1.870   2.463   6.856
 5017SOL    HW115950   1.967   2.448   6.871
 5017SOL    HW215951   1.819   2.443   6.940
 5018SOL     OW15952   0.764   3.943   1.424
 5018SOL    HW115953   0.674   3.899   1.425
 5018SOL    HW215954   0.781   3.981   1.333
 5019SOL     OW15955   2.002   4.931   6.905
 5019SOL    HW115956   2.089   4.881   6.903
 5019SOL    HW215957   1.971   4.947   6.811
 5020SOL     OW15958   5.032   6.828   6.201
 5020SOL    HW115959   4.996   6.891   6.270
 5020SOL    HW215960   4.972   6.827   6.122
 5021SOL     OW15961   1.434   1.677   5.893
 5021SOL    HW115962   1.506   1.620   5.932
 5021SOL    HW215963   1.395   1.734   5.965
 5022SOL     OW15964   1.873   0.192   0.059
 5022SOL    HW115965   1.896   0.286   0.034
 5022SOL    HW215966   1.956   0.136   0.056
 5023SOL     OW15967   6.351   2.615   0.966
 5023SOL    HW115968   6.301   2.654   1.044
 5023SOL    HW215969   6.423   2.554   1.001
 5024SOL     OW15970   6.672   5.744   2.806
 5024SOL    HW115971   6.760   5.699   2.792
 5024SOL    HW215972   6.625   5.755   2.719
 5025SOL     OW15973   3.848   2.061   2.228
 5025SOL    HW115974   3.789   2.098   2.156
 5025SOL    HW215975   3.893   1.979   2.194
 5026SOL     OW15976   5.919   6.422   6.801
 5026SOL    HW115977   5.908   6.470   6.713
 5026SOL    HW215978   5.898   6.326   6.788
 5027SOL     OW15979   0.674   6.860   2.589
 5027SOL    HW115980   0.630   6.847   2.500
 5027SOL    HW215981   0.633   6.799   2.656
 5028SOL     OW15982   0.376   6.116   3.237
 5028SOL    HW115983   0.285   6.077   3.247
 5028SOL    HW215984   0.418   6.083   3.153
 5029SOL     OW15985   7.003   3.709   3.588
 5029SOL    HW115986   6.966   3.639   3.526
 5029SOL    HW215987   0.069   3.743   3.552
 5030SOL     OW15988   6.817   0.808   6.255
 5030SOL    HW115989   6.888   0.774   6.193
 5030SOL    HW215990   6.769   0.884   6.211
 5031SOL     OW15991   5.771   0.529   4.742
 5031SOL    HW115992   5.728   0.549   4.654
 5031SOL    HW215993   5.745   0.598   4.809
 5032SOL     OW15994   1.532   4.032   1.090
 5032SOL    HW115995   1.565   4.126   1.075
 5032SOL    HW215996   1.590   3.968   1.039
 5033SOL     OW15997   1.963   5.534   6.537
 5033SOL    HW115998   1.864   5.541   6.521
 5033SOL    HW215999   2.011   5.529   6.450
 5034SOL     OW16000   6.402   1.856   2.874
 5034SOL    HW116001   6.375   1.853   2.778
 5034SOL    HW216002   6.362   1.936   2.918
 5035SOL     OW16003   6.293   4.773   0.477
 5035SOL    HW116004   6.278   4.677   0.453
 5035SOL    HW216005   6.233   4.831   0.421
 5036SOL     OW16006   7.005   4.856   6.691
 5036SOL    HW116007   0.005   4.781   6.754
 5036SOL    HW216008   0.056   4.924   6.695
 5037SOL     OW16009   5.418   2.391   2.566
 5037SOL    HW116010   5.337   2.399   2.508
 5037SOL    HW216011   5.441   2.294   2.577
 5038SOL     OW16012   2.170   4.281   5.945
 5038SOL    HW116013   2.073   4.302   5.927
 5038SOL    HW216014   2.198   4.327   6.029
 5039SOL     OW16015   2.362   3.351   5.777
 5039SOL    HW116016   2.304   3.401   5.712
 5039SOL    HW216017   2.429   3.297   5.727
 5040SOL     OW16018   1.935   4.972   6.649
 5040SOL    HW116019   2.023   4.977   6.602
 5040SOL    HW216020   1.861   4.996   6.585
 5041SOL     OW16021   1.669   2.567   1.587
 5041SOL    HW116022   1.667   2.474   1.550
 5041SOL    HW216023   1.602   2.623   1.538
 5042SOL     OW16024   6.772   3.119   0.157
 5042SOL    HW116025   6.762   3.163   0.068
 5042SOL    HW216026   6.693   3.060   0.174
 5043SOL     OW16027   2.674   1.504   6.109
 5043SOL    HW116028   2.664   1.590   6.158
 5043SOL    HW216029   2.584   1.473   6.077
 5044SOL     OW16030   5.990   6.434   2.372
 5044SOL    HW116031   6.044   6.386   2.441
 5044SOL    HW216032   5.983   6.531   2.397
 5045SOL     OW16033   5.897   3.083   0.052
 5045SOL    HW116034   5.861   3.049   0.139
 5045SOL    HW216035   5.968   3.151   0.070
 5046SOL     OW16036   3.623   4.110   4.574
 5046SOL    HW116037   3.658   4.112   4.667
 5046SOL    HW216038   3.698   4.091   4.511
 5047SOL     OW16039   0.403   2.717   1.901
 5047SOL    HW116040   0.333   2.783   1.930
 5047SOL    HW216041   0.368   2.664   1.824
 5048SOL     OW16042   0.176   1.438   1.605
 5048SOL    HW116043   0.191   1.532   1.576
 5048SOL    HW216044   0.086   1.430   1.647
 5049SOL     OW16045   6.256   1.614   4.091
 5049SOL    HW116046   6.268   1.592   3.994
 5049SOL    HW216047   6.343   1.599   4.139
 5050SOL     OW16048   1.262   1.104   1.912
 5050SOL    HW116049   1.271   1.180   1.976
 5050SOL    HW216050   1.239   1.021   1.962
 5051SOL     OW16051   4.422   3.169   0.250
 5051SOL    HW116052   4.475   3.115   0.316
 5051SOL    HW216053   4.413   3.117   0.165
 5052SOL     OW16054   2.807   5.272   5.790
 5052SOL    HW116055   2.712   5.241   5.789
 5052SOL    HW216056   2.810   5.370   5.810
 5053SOL     OW16057   1.516   4.147   3.438
 5053SOL    HW116058   1.607   4.110   3.457
 5053SOL    HW216059   1.469   4.168   3.523
 5054SOL     OW16060   3.581   5.369   5.516
 5054SOL    HW116061   3.621   5.370   5.608
 5054SOL    HW216062   3.482   5.361   5.523
 5055SOL     OW16063   1.082   0.427   5.528
 5055SOL    HW116064   1.155   0.440   5.460
 5055SOL    HW216065   1.026   0.510   5.533
 5056SOL     OW16066   6.346   3.392   0.714
 5056SOL    HW116067   6.284   3.319   0.740
 5056SOL    HW216068   6.312   3.437   0.631
 5057SOL     OW16069   0.785   5.340   4.305
 5057SOL    HW116070   0.870   5.366   4.259
 5057SOL    HW216071   0.707   5.365   4.247
 5058SOL     OW16072   2.383   3.641   5.559
 5058SOL    HW116073   2.321   3.719   5.548
 5058SOL    HW216074   2.404   3.603   5.469
 5059SOL     OW16075   5.736   2.944   3.972
 5059SOL    HW116076   5.728   3.040   3.947
 5059SOL    HW216077   5.780   2.893   3.899
 5060SOL     OW16078   0.618   2.838   5.411
 5060SOL    HW116079   0.530   2.793   5.394
 5060SOL    HW216080   0.606   2.912   5.477
 5061SOL     OW16081   3.531   3.247   3.695
 5061SOL    HW116082   3.577   3.165   3.661
 5061SOL    HW216083   3.585   3.327   3.671
 5062SOL     OW16084   5.426   1.502   2.670
 5062SOL    HW116085   5.398   1.542   2.757
 5062SOL    HW216086   5.468   1.572   2.612
 5063SOL     OW16087   1.074   6.321   1.982
 5063SOL    HW116088   1.023   6.321   2.068
 5063SOL    HW216089   1.044   6.399   1.926
 5064SOL     OW16090   4.635   4.423   1.763
 5064SOL    HW116091   4.571   4.351   1.790
 5064SOL    HW216092   4.705   4.433   1.834
 5065SOL     OW16093   1.277   1.789   3.137
 5065SOL    HW116094   1.299   1.851   3.062
 5065SOL    HW216095   1.332   1.706   3.129
 5066SOL     OW16096   3.671   3.936   1.071
 5066SOL    HW116097   3.604   3.966   1.139
 5066SOL    HW216098   3.627   3.932   0.981
 5067SOL     OW16099   3.000   0.799   2.610
 5067SOL    HW116100   3.003   0.800   2.511
 5067SOL    HW216101   2.986   0.705   2.643
 5068SOL     OW16102   3.220   5.009   0.229
 5068SOL    HW116103   3.257   5.030   0.319
 5068SOL    HW216104   3.242   5.084   0.166
 5069SOL     OW16105   1.450   2.272   5.855
 5069SOL    HW116106   1.408   2.193   5.811
 5069SOL    HW216107   1.505   2.241   5.933
 5070SOL     OW16108   5.255   4.985   4.835
 5070SOL    HW116109   5.338   4.930   4.839
 5070SOL    HW216110   5.230   5.000   4.740
 5071SOL     OW16111   3.739   1.527   3.706
 5071SOL    HW116112   3.761   1.500   3.800
 5071SOL    HW216113   3.649   1.491   3.681
 5072SOL     OW16114   1.900   1.306   0.910
 5072SOL    HW116115   1.808   1.296   0.872
 5072SOL    HW216116   1.911   1.397   0.948
 5073SOL     OW16117   1.616   4.698   0.792
 5073SOL    HW116118   1.542   4.751   0.749
 5073SOL    HW216119   1.704   4.742   0.773
 5074SOL     OW16120   3.430   2.044   2.274
 5074SOL    HW116121   3.399   2.063   2.180
 5074SOL    HW216122   3.466   2.128   2.315
 5075SOL     OW16123   1.263   2.515   6.694
 5075SOL    HW116124   1.206   2.582   6.740
 5075SOL    HW216125   1.271   2.433   6.751
 5076SOL     OW16126   5.512   7.015   0.890
 5076SOL    HW116127   5.584   0.058   0.863
 5076SOL    HW216128   5.425   0.022   0.848
 5077SOL     OW16129   1.373   4.254   5.755
 5077SOL    HW116130   1.365   4.266   5.656
 5077SOL    HW216131   1.352   4.340   5.801
 5078SOL     OW16132   0.692   0.931   3.554
 5078SOL    HW116133   0.724   0.843   3.590
 5078SOL    HW216134   0.595   0.943   3.578
 5079SOL     OW16135   2.481   2.705   5.225
 5079SOL    HW116136   2.466   2.804   5.231
 5079SOL    HW216137   2.404   2.662   5.177
 5080SOL     OW16138   6.151   5.894   5.333
 5080SOL    HW116139   6.074   5.955   5.312
 5080SOL    HW216140   6.228   5.917   5.274
 5081SOL     OW16141   2.617   3.947   5.792
 5081SOL    HW116142   2.558   4.028   5.790
 5081SOL    HW216143   2.571   3.874   5.842
 5082SOL     OW16144   4.989   6.922   1.057
 5082SOL    HW116145   5.046   6.967   1.126
 5082SOL    HW216146   4.925   6.988   1.019
 5083SOL     OW16147   2.906   7.018   2.767
 5083SOL    HW116148   2.896   6.919   2.755
 5083SOL    HW216149   2.837   0.044   2.713
 5084SOL     OW16150   0.815   5.249   3.919
 5084SOL    HW116151   0.772   5.222   3.833
 5084SOL    HW216152   0.745   5.257   3.991
 5085SOL     OW16153   6.512   2.696   5.485
 5085SOL    HW116154   6.585   2.701   5.418
 5085SOL    HW216155   6.542   2.740   5.570
 5086SOL     OW16156   1.261   4.699   2.694
 5086SOL    HW116157   1.304   4.613   2.719
 5086SOL    HW216158   1.281   4.768   2.764
 5087SOL     OW16159   0.804   5.222   2.022
 5087SOL    HW116160   0.753   5.164   2.086
 5087SOL    HW216161   0.875   5.272   2.072
 5088SOL     OW16162   5.692   6.889   3.837
 5088SOL    HW116163   5.707   6.790   3.841
 5088SOL    HW216164   5.669   6.916   3.744
 5089SOL     OW16165   6.196   4.682   4.010
 5089SOL    HW116166   6.293   4.698   3.990
 5089SOL    HW216167   6.148   4.659   3.926
 5090SOL     OW16168   1.971   2.348   2.736
 5090SOL    HW116169   1.999   2.431   2.687
 5090SOL    HW216170   1.886   2.313   2.697
 5091SOL     OW16171   6.613   1.107   1.966
 5091SOL    HW116172   6.526   1.059   1.980
 5091SOL    HW216173   6.688   1.041   1.968
 5092SOL     OW16174   3.674   3.422   3.547
 5092SOL    HW116175   3.660   3.520   3.531
 5092SOL    HW216176   3.696   3.377   3.460
 5093SOL     OW16177   3.326   1.326   0.601
 5093SOL    HW116178   3.327   1.393   0.526
 5093SOL    HW216179   3.364   1.240   0.568
 5094SOL     OW16180   2.097   5.647   5.967
 5094SOL    HW116181   2.103   5.632   5.868
 5094SOL    HW216182   2.155   5.725   5.992
 5095SOL     OW16183   0.200   2.605   2.471
 5095SOL    HW116184   0.201   2.558   2.559
 5095SOL    HW216185   0.112   2.650   2.458
 5096SOL     OW16186   4.785   4.583   6.848
 5096SOL    HW116187   4.748   4.675   6.843
 5096SOL    HW216188   4.862   4.573   6.786
 5097SOL     OW16189   0.882   0.017   6.346
 5097SOL    HW116190   0.942   0.032   6.424
 5097SOL    HW216191   0.935   0.021   6.261
 5098SOL     OW16192   2.465   0.599   1.606
 5098SOL    HW116193   2.414   0.528   1.557
 5098SOL    HW216194   2.563   0.584   1.595
 5099SOL     OW16195   0.751   6.763   1.596
 5099SOL    HW116196   0.740   6.826   1.519
 5099SOL    HW216197   0.841   6.720   1.591
 5100SOL     OW16198   3.264   5.601   4.750
 5100SOL    HW116199   3.336   5.659   4.787
 5100SOL    HW216200   3.214   5.557   4.825
 5101SOL     OW16201   4.128   0.255   5.900
 5101SOL    HW116202   4.103   0.305   5.983
 5101SOL    HW216203   4.203   0.304   5.854
 5102SOL     OW16204   4.633   6.325   4.333
 5102SOL    HW116205   4.721   6.308   4.290
 5102SOL    HW216206   4.605   6.244   4.386
 5103SOL     OW16207   6.874   1.403   4.356
 5103SOL    HW116208   6.932   1.327   4.387
 5103SOL    HW216209   6.779   1.385   4.382
 5104SOL     OW16210   1.641   6.300   1.698
 5104SOL    HW116211   1.608   6.224   1.643
 5104SOL    HW216212   1.589   6.305   1.783
 5105SOL     OW16213   3.125   2.526   0.136
 5105SOL    HW116214   3.135   2.437   0.091
 5105SOL    HW216215   3.145   2.599   0.070
 5106SOL     OW16216   4.435   1.527   1.082
 5106SOL    HW116217   4.458   1.612   1.128
 5106SOL    HW216218   4.517   1.469   1.077
 5107SOL     OW16219   4.446   2.511   1.535
 5107SOL    HW116220   4.470   2.596   1.486
 5107SOL    HW216221   4.484   2.433   1.485
 5108SOL     OW16222   4.165   3.982   5.391
 5108SOL    HW116223   4.140   3.929   5.310
 5108SOL    HW216224   4.087   3.988   5.453
 5109SOL     OW16225   0.766   1.916   6.967
 5109SOL    HW116226   0.830   1.953   0.013
 5109SOL    HW216227   0.815   1.890   6.884
 5110SOL     OW16228   0.688   0.201   6.320
 5110SOL    HW116229   0.597   0.167   6.296
 5110SOL    HW216230   0.756   0.128   6.306
 5111SOL     OW16231   1.432   1.047   4.673
 5111SOL    HW116232   1.431   1.144   4.648
 5111SOL    HW216233   1.349   1.026   4.724
 5112SOL     OW16234   1.267   0.097   2.704
 5112SOL    HW116235   1.210   0.165   2.750
 5112SOL    HW216236   1.225   0.071   2.617
 5113SOL     OW16237   2.543   5.949   1.137
 5113SOL    HW116238   2.525   6.047   1.138
 5113SOL    HW216239   2.639   5.932   1.115
 5114SOL     OW16240   3.990   0.354   6.529
 5114SOL    HW116241   4.003   0.261   6.493
 5114SOL    HW216242   4.070   0.410   6.509
 5115SOL     OW16243   1.468   5.410   3.520
 5115SOL    HW116244   1.563   5.441   3.528
 5115SOL    HW216245   1.467   5.315   3.488
 5116SOL     OW16246   0.741   6.569   0.375
 5116SOL    HW116247   0.769   6.643   0.315
 5116SOL    HW216248   0.751   6.482   0.328
 5117SOL     OW16249   1.786   3.776   3.940
 5117SOL    HW116250   1.740   3.823   4.015
 5117SOL    HW216251   1.881   3.758   3.966
 5118SOL     OW16252   5.230   0.985   0.010
 5118SOL    HW116253   5.208   0.988   0.107
 5118SOL    HW216254   5.146   0.977   6.978
 5119SOL     OW16255   5.009   0.961   2.441
 5119SOL    HW116256   5.001   0.984   2.538
 5119SOL    HW216257   5.105   0.946   2.418
 5120SOL     OW16258   4.461   6.979   4.715
 5120SOL    HW116259   4.480   0.051   4.681
 5120SOL    HW216260   4.480   6.975   4.813
 5121SOL     OW16261   3.190   2.797   0.019
 5121SOL    HW116262   3.173   2.896   0.013
 5121SOL    HW216263   3.257   2.771   6.971
 5122SOL     OW16264   3.412   5.997   3.295
 5122SOL    HW116265   3.460   6.081   3.270
 5122SOL    HW216266   3.433   5.926   3.229
 5123SOL     OW16267   4.393   2.237   4.572
 5123SOL    HW116268   4.352   2.286   4.649
 5123SOL    HW216269   4.322   2.214   4.505
 5124SOL     OW16270   2.157   5.869   5.113
 5124SOL    HW116271   2.124   5.951   5.065
 5124SOL    HW216272   2.175   5.797   5.046
 5125SOL     OW16273   6.739   3.973   3.869
 5125SOL    HW116274   6.770   3.954   3.775
 5125SOL    HW216275   6.713   3.888   3.914
 5126SOL     OW16276   6.178   5.272   6.383
 5126SOL    HW116277   6.161   5.299   6.288
 5126SOL    HW216278   6.246   5.334   6.423
 5127SOL     OW16279   0.264   3.730   0.214
 5127SOL    HW116280   0.254   3.745   0.116
 5127SOL    HW216281   0.174   3.715   0.256
 5128SOL     OW16282   0.231   0.293   6.308
 5128SOL    HW116283   0.153   0.332   6.259
 5128SOL    HW216284   0.200   0.259   6.397
 5129SOL     OW16285   6.463   0.187   2.403
 5129SOL    HW116286   6.492   0.203   2.497
 5129SOL    HW216287   6.541   0.155   2.349
 5130SOL     OW16288   0.397   5.310   3.449
 5130SOL    HW116289   0.370   5.351   3.362
 5130SOL    HW216290   0.496   5.295   3.449
 5131SOL     OW16291   2.208   4.592   4.256
 5131SOL    HW116292   2.203   4.681   4.302
 5131SOL    HW216293   2.137   4.587   4.185
 5132SOL     OW16294   3.722   3.122   6.663
 5132SOL    HW116295   3.717   3.192   6.735
 5132SOL    HW216296   3.648   3.136   6.598
 5133SOL     OW16297   2.618   5.569   0.049
 5133SOL    HW116298   2.690   5.596   7.006
 5133SOL    HW216299   2.640   5.480   0.090
 5134SOL     OW16300   0.472   3.480   2.711
 5134SOL    HW116301   0.461   3.401   2.771
 5134SOL    HW216302   0.403   3.549   2.734
 5135SOL     OW16303   6.067   3.064   4.310
 5135SOL    HW116304   5.972   3.077   4.280
 5135SOL    HW216305   6.088   3.128   4.383
 5136SOL     OW16306   3.439   0.782   6.022
 5136SOL    HW116307   3.455   0.866   5.971
 5136SOL    HW216308   3.521   0.724   6.018
 5137SOL     OW16309   4.919   3.250   5.986
 5137SOL    HW116310   4.936   3.156   6.016
 5137SOL    HW216311   4.976   3.271   5.906
 5138SOL     OW16312   3.317   2.704   5.621
 5138SOL    HW116313   3.388   2.717   5.551
 5138SOL    HW216314   3.355   2.649   5.696
 5139SOL     OW16315   1.372   0.505   3.011
 5139SOL    HW116316   1.398   0.531   3.104
 5139SOL    HW216317   1.362   0.405   3.005
 5140SOL     OW16318   4.038   2.405   0.285
 5140SOL    HW116319   4.102   2.410   0.209
 5140SOL    HW216320   4.061   2.475   0.353
 5141SOL     OW16321   6.725   3.573   0.067
 5141SOL    HW116322   6.786   3.579   7.009
 5141SOL    HW216323   6.712   3.664   0.106
 5142SOL     OW16324   5.692   0.305   3.947
 5142SOL    HW116325   5.694   0.398   3.912
 5142SOL    HW216326   5.764   0.251   3.903
 5143SOL     OW16327   6.470   4.433   4.138
 5143SOL    HW116328   6.467   4.532   4.146
 5143SOL    HW216329   6.394   4.402   4.080
 5144SOL     OW16330   0.583   4.939   6.683
 5144SOL    HW116331   0.580   4.840   6.673
 5144SOL    HW216332   0.636   4.979   6.608
 5145SOL     OW16333   2.596   4.873   5.440
 5145SOL    HW116334   2.557   4.907   5.525
 5145SOL    HW216335   2.575   4.938   5.366
 5146SOL     OW16336   3.739   4.040   5.090
 5146SOL    HW116337   3.700   4.107   5.153
 5146SOL    HW216338   3.784   4.089   5.014
 5147SOL     OW16339   0.001   5.041   2.678
 5147SOL    HW116340   0.038   5.123   2.635
 5147SOL    HW216341   0.053   4.961   2.648
 5148SOL     OW16342   6.755   6.307   1.747
 5148SOL    HW116343   6.849   6.275   1.730
 5148SOL    HW216344   6.692   6.253   1.691
 5149SOL     OW16345   6.570   5.988   3.260
 5149SOL    HW116346   6.559   6.086   3.242
 5149SOL    HW216347   6.600   5.943   3.176
 5150SOL     OW16348   2.477   5.212   2.514
 5150SOL    HW116349   2.495   5.290   2.575
 5150SOL    HW216350   2.411   5.239   2.444
 5151SOL     OW16351   5.680   2.409   0.601
 5151SOL    HW116352   5.589   2.370   0.617
 5151SOL    HW216353   5.745   2.335   0.583
 5152SOL     OW16354   2.499   5.141   0.342
 5152SOL    HW116355   2.489   5.062   0.403
 5152SOL    HW216356   2.432   5.211   0.367
 5153SOL     OW16357   2.137   0.233   6.781
 5153SOL    HW116358   2.220   0.255   6.730
 5153SOL    HW216359   2.061   0.222   6.717
 5154SOL     OW16360   1.150   3.862   6.303
 5154SOL    HW116361   1.146   3.828   6.397
 5154SOL    HW216362   1.058   3.887   6.273
 5155SOL     OW16363   4.400   6.488   2.389
 5155SOL    HW116364   4.426   6.524   2.479
 5155SOL    HW216365   4.460   6.412   2.365
 5156SOL     OW16366   5.747   3.775   5.814
 5156SOL    HW116367   5.757   3.869   5.848
 5156SOL    HW216368   5.823   3.719   5.849
 5157SOL     OW16369   3.864   2.042   3.644
 5157SOL    HW116370   3.910   2.105   3.582
 5157SOL    HW216371   3.897   2.058   3.738
 5158SOL     OW16372   3.764   1.413   1.816
 5158SOL    HW116373   3.736   1.410   1.720
 5158SOL    HW216374   3.737   1.501   1.856
 5159SOL     OW16375   6.791   3.511   3.854
 5159SOL    HW116376   6.814   3.424   3.898
 5159SOL    HW216377   6.876   3.558   3.829
 5160SOL     OW16378   0.254   4.862   3.373
 5160SOL    HW116379   0.198   4.907   3.443
 5160SOL    HW216380   0.238   4.764   3.375
 5161SOL     OW16381   1.391   3.664   5.455
 5161SOL    HW116382   1.329   3.730   5.413
 5161SOL    HW216383   1.397   3.582   5.399
 5162SOL     OW16384   1.288   5.051   3.200
 5162SOL    HW116385   1.258   4.965   3.158
 5162SOL    HW216386   1.230   5.072   3.278
 5163SOL     OW16387   3.584   6.448   0.603
 5163SOL    HW116388   3.516   6.470   0.533
 5163SOL    HW216389   3.547   6.471   0.694
 5164SOL     OW16390   4.714   2.293   0.190
 5164SOL    HW116391   4.702   2.195   0.175
 5164SOL    HW216392   4.801   2.322   0.151
 5165SOL     OW16393   6.153   4.351   6.198
 5165SOL    HW116394   6.250   4.354   6.225
 5165SOL    HW216395   6.096   4.369   6.278
 5166SOL     OW16396   0.858   5.134   3.362
 5166SOL    HW116397   0.863   5.190   3.280
 5166SOL    HW216398   0.777   5.076   3.358
 5167SOL     OW16399   6.324   6.206   5.590
 5167SOL    HW116400   6.355   6.112   5.607
 5167SOL    HW216401   6.352   6.234   5.498
 5168SOL     OW16402   5.110   4.058   2.867
 5168SOL    HW116403   5.184   4.063   2.800
 5168SOL    HW216404   5.039   3.996   2.834
 5169SOL     OW16405   3.889   1.601   4.844
 5169SOL    HW116406   3.958   1.637   4.906
 5169SOL    HW216407   3.854   1.676   4.787
 5170SOL     OW16408   0.680   4.468   5.870
 5170SOL    HW116409   0.766   4.424   5.842
 5170SOL    HW216410   0.696   4.566   5.882
 5171SOL     OW16411   1.004   5.656   4.459
 5171SOL    HW116412   0.984   5.687   4.552
 5171SOL    HW216413   0.996   5.557   4.454
 5172SOL     OW16414   0.665   2.058   1.896
 5172SOL    HW116415   0.604   2.016   1.963
 5172SOL    HW216416   0.659   2.158   1.904
 5173SOL     OW16417   5.420   4.418   6.350
 5173SOL    HW116418   5.414   4.458   6.442
 5173SOL    HW216419   5.515   4.421   6.319
 5174SOL     OW16420   2.096   4.540   3.198
 5174SOL    HW116421   2.101   4.578   3.290
 5174SOL    HW216422   2.014   4.483   3.190
 5175SOL     OW16423   2.257   3.860   6.738
 5175SOL    HW116424   2.302   3.781   6.696
 5175SOL    HW216425   2.295   3.875   6.829
 5176SOL     OW16426   4.691   2.885   6.513
 5176SOL    HW116427   4.707   2.864   6.610
 5176SOL    HW216428   4.628   2.817   6.475
 5177SOL     OW16429   4.705   0.164   6.988
 5177SOL    HW116430   4.682   0.198   6.897
 5177SOL    HW216431   4.737   0.069   6.981
 5178SOL     OW16432   1.201   4.138   1.862
 5178SOL    HW116433   1.257   4.064   1.825
 5178SOL    HW216434   1.119   4.148   1.806
 5179SOL     OW16435   3.915   6.051   4.039
 5179SOL    HW116436   3.870   5.994   4.107
 5179SOL    HW216437   3.901   6.147   4.061
 5180SOL     OW16438   3.185   3.077   0.316
 5180SOL    HW116439   3.090   3.046   0.313
 5180SOL    HW216440   3.246   2.998   0.315
 5181SOL     OW16441   5.801   2.388   2.096
 5181SOL    HW116442   5.854   2.304   2.086
 5181SOL    HW216443   5.786   2.406   2.194
 5182SOL     OW16444   3.907   4.432   1.631
 5182SOL    HW116445   3.955   4.495   1.692
 5182SOL    HW216446   3.811   4.460   1.622
 5183SOL     OW16447   4.406   1.638   2.607
 5183SOL    HW116448   4.350   1.656   2.527
 5183SOL    HW216449   4.403   1.540   2.629
 5184SOL     OW16450   6.978   2.685   4.464
 5184SOL    HW116451   0.046   2.674   4.418
 5184SOL    HW216452   6.907   2.641   4.409
 5185SOL     OW16453   5.316   0.977   2.731
 5185SOL    HW116454   5.331   1.044   2.658
 5185SOL    HW216455   5.329   0.885   2.695
 5186SOL     OW16456   6.180   3.148   0.419
 5186SOL    HW116457   6.203   3.152   0.322
 5186SOL    HW216458   6.247   3.091   0.467
 5187SOL     OW16459   0.495   0.104   4.111
 5187SOL    HW116460   0.507   0.132   4.206
 5187SOL    HW216461   0.502   0.184   4.051
 5188SOL     OW16462   0.630   6.127   0.386
 5188SOL    HW116463   0.602   6.191   0.315
 5188SOL    HW216464   0.658   6.041   0.344
 5189SOL     OW16465   4.819   4.979   0.691
 5189SOL    HW116466   4.791   4.887   0.661
 5189SOL    HW216467   4.870   4.972   0.777
 5190SOL     OW16468   7.019   3.176   4.319
 5190SOL    HW116469   0.037   3.105   4.378
 5190SOL    HW216470   0.052   3.183   4.235
 5191SOL     OW16471   3.665   0.524   2.011
 5191SOL    HW116472   3.664   0.621   1.987
 5191SOL    HW216473   3.620   0.472   1.939
 5192SOL     OW16474   2.902   4.737   2.449
 5192SOL    HW116475   2.898   4.815   2.387
 5192SOL    HW216476   2.994   4.731   2.489
 5193SOL     OW16477   5.018   4.539   4.472
 5193SOL    HW116478   5.074   4.465   4.433
 5193SOL    HW216479   4.921   4.513   4.468
 5194SOL     OW16480   3.834   1.475   0.464
 5194SOL    HW116481   3.752   1.518   0.503
 5194SOL    HW216482   3.900   1.545   0.438
 5195SOL     OW16483   5.714   5.773   4.566
 5195SOL    HW116484   5.675   5.862   4.546
 5195SOL    HW216485   5.788   5.783   4.633
 5196SOL     OW16486   2.798   4.008   0.881
 5196SOL    HW116487   2.825   3.985   0.787
 5196SOL    HW216488   2.803   3.926   0.939
 5197SOL     OW16489   2.182   5.948   5.484
 5197SOL    HW116490   2.233   5.911   5.406
 5197SOL    HW216491   2.224   6.034   5.513
 5198SOL     OW16492   4.076   6.760   3.015
 5198SOL    HW116493   4.036   6.701   2.945
 5198SOL    HW216494   4.075   6.855   2.984
 5199SOL     OW16495   1.394   6.200   0.493
 5199SOL    HW116496   1.489   6.218   0.520
 5199SOL    HW216497   1.336   6.275   0.522
 5200SOL     OW16498   1.163   1.622   5.458
 5200SOL    HW116499   1.162   1.529   5.422
 5200SOL    HW216500   1.145   1.687   5.384
 5201SOL     OW16501   6.272   6.316   4.405
 5201SOL    HW116502   6.236   6.372   4.330
 5201SOL    HW216503   6.359   6.354   4.436
 5202SOL     OW16504   5.631   4.110   5.618
 5202SOL    HW116505   5.602   4.166   5.540
 5202SOL    HW216506   5.667   4.023   5.584
 5203SOL     OW16507   2.255   0.990   6.744
 5203SOL    HW116508   2.222   1.084   6.734
 5203SOL    HW216509   2.348   0.991   6.780
 5204SOL     OW16510   4.369   6.833   6.688
 5204SOL    HW116511   4.351   6.790   6.599
 5204SOL    HW216512   4.395   6.762   6.754
 5205SOL     OW16513   6.557   5.969   0.323
 5205SOL    HW116514   6.526   5.959   0.228
 5205SOL    HW216515   6.549   5.881   0.370
 5206SOL     OW16516   7.012   4.996   0.090
 5206SOL    HW116517   0.073   4.945   0.115
 5206SOL    HW216518   7.011   5.011   7.012
 5207SOL     OW16519   1.231   6.793   3.886
 5207SOL    HW116520   1.175   6.876   3.883
 5207SOL    HW216521   1.244   6.766   3.982
 5208SOL     OW16522   5.044   2.308   0.065
 5208SOL    HW116523   5.061   2.386   0.004
 5208SOL    HW216524   5.105   2.314   0.144
 5209SOL     OW16525   5.553   0.591   1.424
 5209SOL    HW116526   5.559   0.514   1.360
 5209SOL    HW216527   5.594   0.564   1.511
 5210SOL     OW16528   4.868   3.174   0.388
 5210SOL    HW116529   4.791   3.196   0.447
 5210SOL    HW216530   4.952   3.213   0.426
 5211SOL     OW16531   4.116   1.990   5.318
 5211SOL    HW116532   4.026   1.979   5.361
 5211SOL    HW216533   4.104   2.018   5.223
 5212SOL     OW16534   1.009   3.326   1.033
 5212SOL    HW116535   1.081   3.265   1.002
 5212SOL    HW216536   0.939   3.335   0.962
 5213SOL     OW16537   4.309   3.186   1.077
 5213SOL    HW116538   4.215   3.218   1.089
 5213SOL    HW216539   4.321   3.155   0.982
 5214SOL     OW16540   5.276   2.651   6.164
 5214SOL    HW116541   5.258   2.633   6.261
 5214SOL    HW216542   5.372   2.677   6.152
 5215SOL     OW16543   1.104   4.819   4.130
 5215SOL    HW116544   1.070   4.901   4.083
 5215SOL    HW216545   1.190   4.789   4.087
 5216SOL     OW16546   4.154   4.356   1.479
 5216SOL    HW116547   4.056   4.362   1.496
 5216SOL    HW216548   4.170   4.301   1.397
 5217SOL     OW16549   3.576   5.583   4.576
 5217SOL    HW116550   3.545   5.488   4.585
 5217SOL    HW216551   3.534   5.639   4.647
 5218SOL     OW16552   0.588   1.010   1.362
 5218SOL    HW116553   0.592   0.946   1.439
 5218SOL    HW216554   0.603   0.961   1.276
 5219SOL     OW16555   3.338   1.521   4.912
 5219SOL    HW116556   3.391   1.556   4.834
 5219SOL    HW216557   3.297   1.596   4.962
 5220SOL     OW16558   1.415   5.897   2.813
 5220SOL    HW116559   1.433   5.897   2.715
 5220SOL    HW216560   1.502   5.889   2.863
 5221SOL     OW16561   6.040   1.416   2.947
 5221SOL    HW116562   5.962   1.477   2.958
 5221SOL    HW216563   6.124   1.470   2.941
 5222SOL     OW16564   3.548   6.778   2.336
 5222SOL    HW116565   3.464   6.764   2.283
 5222SOL    HW216566   3.626   6.784   2.274
 5223SOL     OW16567   6.760   2.775   6.949
 5223SOL    HW116568   6.788   2.869   6.967
 5223SOL    HW216569   6.839   2.715   6.956
 5224SOL     OW16570   6.348   3.235   4.356
 5224SOL    HW116571   6.388   3.317   4.398
 5224SOL    HW216572   6.253   3.227   4.385
 5225SOL     OW16573   6.896   1.162   4.066
 5225SOL    HW116574   6.827   1.109   4.116
 5225SOL    HW216575   6.850   1.221   3.999
 5226SOL     OW16576   6.664   6.921   4.479
 5226SOL    HW116577   6.580   6.928   4.533
 5226SOL    HW216578   6.642   6.914   4.382
 5227SOL     OW16579   0.489   3.847   5.219
 5227SOL    HW116580   0.426   3.770   5.219
 5227SOL    HW216581   0.527   3.859   5.128
 5228SOL     OW16582   0.358   2.655   0.066
 5228SOL    HW116583   0.367   2.622   6.993
 5228SOL    HW216584   0.389   2.584   0.129
 5229SOL     OW16585   2.703   6.760   0.358
 5229SOL    HW116586   2.758   6.682   0.325
 5229SOL    HW216587   2.666   6.739   0.448
 5230SOL     OW16588   6.646   6.171   2.240
 5230SOL    HW116589   6.681   6.265   2.236
 5230SOL    HW216590   6.703   6.112   2.183
 5231SOL     OW16591   4.194   2.279   4.025
 5231SOL    HW116592   4.283   2.269   4.071
 5231SOL    HW216593   4.122   2.290   4.093
 5232SOL     OW16594   1.303   3.689   6.103
 5232SOL    HW116595   1.267   3.724   6.189
 5232SOL    HW216596   1.232   3.694   6.033
 5233SOL     OW16597   4.415   1.362   2.662
 5233SOL    HW116598   4.427   1.336   2.566
 5233SOL    HW216599   4.393   1.281   2.716
 5234SOL     OW16600   2.975   2.581   5.904
 5234SOL    HW116601   3.031   2.553   5.982
 5234SOL    HW216602   2.993   2.520   5.827
 5235SOL     OW16603   1.759   2.808   1.045
 5235SOL    HW116604   1.702   2.868   1.101
 5235SOL    HW216605   1.705   2.775   0.967
 5236SOL     OW16606   3.959   5.588   2.130
 5236SOL    HW116607   3.990   5.523   2.061
 5236SOL    HW216608   3.946   5.678   2.088
 5237SOL     OW16609   0.873   0.966   4.750
 5237SOL    HW116610   0.949   1.001   4.804
 5237SOL    HW216611   0.881   0.998   4.655
 5238SOL     OW16612   0.870   4.816   0.446
 5238SOL    HW116613   0.949   4.878   0.446
 5238SOL    HW216614   0.786   4.870   0.437
 5239SOL     OW16615   3.550   2.615   6.098
 5239SOL    HW116616   3.557   2.515   6.095
 5239SOL    HW216617   3.638   2.656   6.072
 5240SOL     OW16618   3.434   2.237   5.241
 5240SOL    HW116619   3.509   2.292   5.203
 5240SOL    HW216620   3.347   2.275   5.210
 5241SOL     OW16621   6.957   5.495   4.390
 5241SOL    HW116622   6.861   5.513   4.371
 5241SOL    HW216623   6.976   5.398   4.377
 5242SOL     OW16624   6.501   0.132   0.650
 5242SOL    HW116625   6.506   0.228   0.620
 5242SOL    HW216626   6.530   0.126   0.745
 5243SOL     OW16627   1.942   5.719   1.484
 5243SOL    HW116628   1.950   5.810   1.524
 5243SOL    HW216629   1.980   5.651   1.548
 5244SOL     OW16630   3.208   4.429   5.942
 5244SOL    HW116631   3.139   4.385   6.000
 5244SOL    HW216632   3.162   4.482   5.871
 5245SOL     OW16633   4.007   4.221   0.329
 5245SOL    HW116634   3.968   4.208   0.237
 5245SOL    HW216635   3.947   4.280   0.382
 5246SOL     OW16636   6.056   2.532   1.272
 5246SOL    HW116637   6.031   2.562   1.363
 5246SOL    HW216638   6.030   2.602   1.205
 5247SOL     OW16639   2.627   0.328   6.444
 5247SOL    HW116640   2.651   0.347   6.539
 5247SOL    HW216641   2.710   0.328   6.388
 5248SOL     OW16642   6.253   1.615   2.966
 5248SOL    HW116643   6.310   1.681   2.917
 5248SOL    HW216644   6.310   1.557   3.023
 5249SOL     OW16645   0.511   5.468   6.445
 5249SOL    HW116646   0.593   5.435   6.491
 5249SOL    HW216647   0.534   5.500   6.353
 5250SOL     OW16648   2.053   5.960   6.800
 5250SOL    HW116649   1.992   5.972   6.878
 5250SOL    HW216650   2.115   6.038   6.794
 5251SOL     OW16651   1.072   3.688   0.035
 5251SOL    HW116652   0.981   3.648   0.024
 5251SOL    HW216653   1.129   3.660   6.978
 5252SOL     OW16654   2.609   6.144   0.485
 5252SOL    HW116655   2.645   6.184   0.401
 5252SOL    HW216656   2.634   6.202   0.563
 5253SOL     OW16657   6.755   3.834   4.436
 5253SOL    HW116658   6.683   3.795   4.378
 5253SOL    HW216659   6.714   3.869   4.520
 5254SOL     OW16660   5.167   1.380   2.898
 5254SOL    HW116661   5.206   1.318   2.966
 5254SOL    HW216662   5.145   1.329   2.815
 5255SOL     OW16663   5.613   2.210   4.701
 5255SOL    HW116664   5.638   2.162   4.785
 5255SOL    HW216665   5.628   2.308   4.713
 5256SOL     OW16666   5.030   1.745   3.708
 5256SOL    HW116667   4.987   1.825   3.749
 5256SOL    HW216668   5.020   1.749   3.608
 5257SOL     OW16669   5.513   6.921   1.952
 5257SOL    HW116670   5.415   6.931   1.936
 5257SOL    HW216671   5.564   6.968   1.880
 5258SOL     OW16672   5.857   3.054   1.525
 5258SOL    HW116673   5.860   3.152   1.548
 5258SOL    HW216674   5.946   3.013   1.546
 5259SOL     OW16675   4.836   6.634   2.279
 5259SOL    HW116676   4.736   6.634   2.278
 5259SOL    HW216677   4.869   6.582   2.358
 5260SOL     OW16678   4.983   3.372   0.790
 5260SOL    HW116679   4.930   3.412   0.864
 5260SOL    HW216680   4.993   3.273   0.806
 5261SOL     OW16681   0.676   3.911   6.003
 5261SOL    HW116682   0.628   3.998   5.997
 5261SOL    HW216683   0.769   3.921   5.966
 5262SOL     OW16684   2.251   1.482   3.946
 5262SOL    HW116685   2.323   1.519   4.004
 5262SOL    HW216686   2.246   1.535   3.861
 5263SOL     OW16687   1.760   1.277   3.468
 5263SOL    HW116688   1.792   1.316   3.554
 5263SOL    HW216689   1.811   1.193   3.447
 5264SOL     OW16690   0.293   2.177   1.738
 5264SOL    HW116691   0.316   2.093   1.788
 5264SOL    HW216692   0.230   2.154   1.664
 5265SOL     OW16693   6.446   3.857   4.017
 5265SOL    HW116694   6.426   3.903   3.931
 5265SOL    HW216695   6.529   3.801   4.007
 5266SOL     OW16696   3.065   5.017   6.966
 5266SOL    HW116697   3.089   4.980   6.876
 5266SOL    HW216698   3.017   4.947   7.019
 5267SOL     OW16699   5.130   2.904   5.041
 5267SOL    HW116700   5.191   2.982   5.053
 5267SOL    HW216701   5.120   2.883   4.944
 5268SOL     OW16702   5.456   1.698   0.370
 5268SOL    HW116703   5.407   1.651   0.444
 5268SOL    HW216704   5.433   1.657   0.283
 5269SOL     OW16705   0.975   5.740   2.941
 5269SOL    HW116706   0.996   5.655   2.891
 5269SOL    HW216707   1.031   5.814   2.906
 5270SOL     OW16708   6.014   1.077   1.457
 5270SOL    HW116709   6.069   1.117   1.384
 5270SOL    HW216710   5.994   0.982   1.435
 5271SOL     OW16711   6.593   5.588   5.890
 5271SOL    HW116712   6.553   5.604   5.980
 5271SOL    HW216713   6.615   5.676   5.847
 5272SOL     OW16714   3.066   5.775   2.227
 5272SOL    HW116715   3.123   5.855   2.250
 5272SOL    HW216716   3.001   5.799   2.156
 5273SOL     OW16717   6.904   2.701   3.699
 5273SOL    HW116718   6.899   2.610   3.659
 5273SOL    HW216719   6.976   2.754   3.654
 5274SOL     OW16720   5.920   0.022   2.452
 5274SOL    HW116721   5.828   7.019   2.421
 5274SOL    HW216722   5.961   6.964   2.499
 5275SOL     OW16723   3.872   1.669   0.884
 5275SOL    HW116724   3.783   1.669   0.839
 5275SOL    HW216725   3.911   1.761   0.881
 5276SOL     OW16726   1.901   6.789   0.880
 5276SOL    HW116727   1.856   6.711   0.924
 5276SOL    HW216728   1.848   6.819   0.801
 5277SOL     OW16729   2.026   1.257   2.271
 5277SOL    HW116730   2.065   1.307   2.349
 5277SOL    HW216731   2.069   1.167   2.265
 5278SOL     OW16732   5.766   6.599   3.905
 5278SOL    HW116733   5.839   6.570   3.843
 5278SOL    HW216734   5.805   6.647   3.983
 5279SOL     OW16735   2.442   5.422   6.387
 5279SOL    HW116736   2.394   5.341   6.354
 5279SOL    HW216737   2.535   5.423   6.351
 5280SOL     OW16738   2.768   5.618   4.857
 5280SOL    HW116739   2.862   5.585   4.846
 5280SOL    HW216740   2.736   5.599   4.950
 5281SOL     OW16741   0.554   2.317   2.352
 5281SOL    HW116742   0.529   2.315   2.449
 5281SOL    HW216743   0.636   2.260   2.338
 5282SOL     OW16744   2.980   1.659   3.989
 5282SOL    HW116745   3.070   1.631   3.955
 5282SOL    HW216746   2.940   1.724   3.925
 5283SOL     OW16747   4.372   6.664   1.463
 5283SOL    HW116748   4.421   6.738   1.509
 5283SOL    HW216749   4.286   6.699   1.425
 5284SOL     OW16750   4.893   4.207   3.348
 5284SOL    HW116751   4.826   4.190   3.275
 5284SOL    HW216752   4.938   4.295   3.330
 5285SOL     OW16753   2.399   4.798   4.119
 5285SOL    HW116754   2.302   4.807   4.142
 5285SOL    HW216755   2.422   4.862   4.046
 5286SOL     OW16756   1.836   4.876   0.343
 5286SOL    HW116757   1.871   4.898   0.252
 5286SOL    HW216758   1.753   4.820   0.334
 5287SOL     OW16759   3.020   0.000   0.475
 5287SOL    HW116760   2.980   7.011   0.384
 5287SOL    HW216761   3.022   6.932   0.521
 5288SOL     OW16762   3.131   6.986   2.208
 5288SOL    HW116763   3.058   6.965   2.273
 5288SOL    HW216764   3.114   0.054   2.166
 5289SOL     OW16765   2.373   5.113   6.621
 5289SOL    HW116766   2.445   5.057   6.663
 5289SOL    HW216767   2.327   5.166   6.691
 5290SOL     OW16768   2.424   5.928   4.884
 5290SOL    HW116769   2.380   5.845   4.917
 5290SOL    HW216770   2.455   5.983   4.962
 5291SOL     OW16771   2.514   5.587   5.839
 5291SOL    HW116772   2.534   5.597   5.936
 5291SOL    HW216773   2.600   5.578   5.788
 5292SOL     OW16774   6.768   3.225   6.318
 5292SOL    HW116775   6.788   3.323   6.320
 5292SOL    HW216776   6.712   3.204   6.238
 5293SOL     OW16777   0.231   0.852   4.691
 5293SOL    HW116778   0.211   0.805   4.605
 5293SOL    HW216779   0.284   0.935   4.673
 5294SOL     OW16780   4.182   3.512   5.738
 5294SOL    HW116781   4.156   3.585   5.674
 5294SOL    HW216782   4.260   3.542   5.792
 5295SOL     OW16783   6.299   0.580   2.784
 5295SOL    HW116784   6.334   0.638   2.710
 5295SOL    HW216785   6.260   0.497   2.745
 5296SOL     OW16786   2.259   5.202   6.846
 5296SOL    HW116787   2.319   5.157   6.912
 5296SOL    HW216788   2.166   5.206   6.882
 5297SOL     OW16789   2.084   1.785   1.648
 5297SOL    HW116790   2.103   1.851   1.575
 5297SOL    HW216791   2.170   1.760   1.692
 5298SOL     OW16792   0.179   5.860   1.129
 5298SOL    HW116793   0.087   5.825   1.111
 5298SOL    HW216794   0.224   5.802   1.198
 5299SOL     OW16795   2.979   1.842   0.638
 5299SOL    HW116796   3.022   1.931   0.656
 5299SOL    HW216797   2.906   1.827   0.704
 5300SOL     OW16798   0.175   5.618   2.774
 5300SOL    HW116799   0.243   5.548   2.795
 5300SOL    HW216800   0.218   5.694   2.726
 5301SOL     OW16801   4.581   1.314   0.379
 5301SOL    HW116802   4.652   1.253   0.415
 5301SOL    HW216803   4.530   1.267   0.307
 5302SOL     OW16804   5.397   5.152   3.526
 5302SOL    HW116805   5.375   5.067   3.575
 5302SOL    HW216806   5.379   5.140   3.428
 5303SOL     OW16807   0.196   6.386   4.110
 5303SOL    HW116808   0.197   6.469   4.054
 5303SOL    HW216809   0.189   6.306   4.051
 5304SOL     OW16810   6.357   2.170   5.812
 5304SOL    HW116811   6.339   2.269   5.819
 5304SOL    HW216812   6.400   2.138   5.897
 5305SOL     OW16813   1.351   6.611   4.416
 5305SOL    HW116814   1.339   6.632   4.513
 5305SOL    HW216815   1.399   6.524   4.406
 5306SOL     OW16816   1.355   5.809   4.733
 5306SOL    HW116817   1.346   5.735   4.666
 5306SOL    HW216818   1.396   5.773   4.817
 5307SOL     OW16819   4.131   6.436   6.821
 5307SOL    HW116820   4.158   6.384   6.902
 5307SOL    HW216821   4.112   6.531   6.848
 5308SOL     OW16822   0.746   7.002   4.766
 5308SOL    HW116823   0.682   6.978   4.693
 5308SOL    HW216824   0.815   0.044   4.731
 5309SOL     OW16825   3.486   4.093   2.695
 5309SOL    HW116826   3.585   4.089   2.707
 5309SOL    HW216827   3.463   4.154   2.619
 5310SOL     OW16828   5.300   3.057   2.016
 5310SOL    HW116829   5.253   3.113   1.948
 5310SOL    HW216830   5.266   2.963   2.012
 5311SOL     OW16831   0.496   5.819   0.650
 5311SOL    HW116832   0.432   5.759   0.601
 5311SOL    HW216833   0.503   5.906   0.602
 5312SOL     OW16834   7.018   4.451   2.106
 5312SOL    HW116835   6.992   4.438   2.202
 5312SOL    HW216836   0.055   4.374   2.077
 5313SOL     OW16837   1.113   5.373   0.060
 5313SOL    HW116838   1.142   5.424   0.142
 5313SOL    HW216839   1.015   5.387   0.046
 5314SOL     OW16840   4.528   5.123   0.642
 5314SOL    HW116841   4.497   5.109   0.736
 5314SOL    HW216842   4.626   5.103   0.636
 5315SOL     OW16843   4.328   4.509   1.607
 5315SOL    HW116844   4.358   4.569   1.532
 5315SOL    HW216845   4.257   4.447   1.574
 5316SOL     OW16846   6.338   4.899   4.705
 5316SOL    HW116847   6.424   4.922   4.750
 5316SOL    HW216848   6.322   4.800   4.711
 5317SOL     OW16849   6.183   1.595   4.671
 5317SOL    HW116850   6.188   1.574   4.769
 5317SOL    HW216851   6.223   1.521   4.618
 5318SOL     OW16852   0.008   1.738   5.566
 5318SOL    HW116853   6.961   1.691   5.622
 5318SOL    HW216854   0.098   1.696   5.579
 5319SOL     OW16855   4.664   6.781   6.962
 5319SOL    HW116856   4.574   6.823   6.975
 5319SOL    HW216857   4.709   6.769   0.029
 5320SOL     OW16858   5.623   5.373   6.615
 5320SOL    HW116859   5.586   5.356   6.524
 5320SOL    HW216860   5.577   5.451   6.656
 5321SOL     OW16861   1.092   5.521   2.808
 5321SOL    HW116862   1.048   5.469   2.882
 5321SOL    HW216863   1.166   5.467   2.769
 5322SOL     OW16864   4.006   6.778   6.068
 5322SOL    HW116865   4.080   6.712   6.074
 5322SOL    HW216866   3.932   6.751   6.130
 5323SOL     OW16867   4.049   2.978   0.921
 5323SOL    HW116868   3.965   2.928   0.940
 5323SOL    HW216869   4.117   2.958   0.991
 5324SOL     OW16870   3.775   2.435   1.643
 5324SOL    HW116871   3.723   2.389   1.571
 5324SOL    HW216872   3.742   2.404   1.733
 5325SOL     OW16873   5.948   6.675   3.520
 5325SOL    HW116874   6.048   6.668   3.521
 5325SOL    HW216875   5.920   6.748   3.458
 5326SOL     OW16876   6.313   5.347   2.830
 5326SOL    HW116877   6.413   5.360   2.831
 5326SOL    HW216878   6.283   5.328   2.736
 5327SOL     OW16879   0.554   5.881   5.802
 5327SOL    HW116880   0.617   5.952   5.770
 5327SOL    HW216881   0.514   5.834   5.723
 5328SOL     OW16882   3.880   2.002   5.427
 5328SOL    HW116883   3.896   1.999   5.526
 5328SOL    HW216884   3.803   1.942   5.404
 5329SOL     OW16885   0.557   3.723   6.846
 5329SOL    HW116886   0.488   3.687   6.908
 5329SOL    HW216887   0.519   3.801   6.796
 5330SOL     OW16888   3.294   4.151   6.646
 5330SOL    HW116889   3.279   4.071   6.587
 5330SOL    HW216890   3.391   4.171   6.651
 5331SOL     OW16891   5.403   1.386   1.418
 5331SOL    HW116892   5.398   1.342   1.508
 5331SOL    HW216893   5.391   1.484   1.429
 5332SOL     OW16894   6.371   4.009   0.338
 5332SOL    HW116895   6.383   4.105   0.313
 5332SOL    HW216896   6.445   3.981   0.399
 5333SOL     OW16897   1.132   0.766   3.685
 5333SOL    HW116898   1.034   0.759   3.701
 5333SOL    HW216899   1.176   0.679   3.708
 5334SOL     OW16900   4.533   5.062   5.200
 5334SOL    HW116901   4.515   4.967   5.174
 5334SOL    HW216902   4.457   5.096   5.254
 5335SOL     OW16903   0.047   4.748   2.045
 5335SOL    HW116904   7.020   4.675   2.094
 5335SOL    HW216905   0.117   4.708   1.986
 5336SOL     OW16906   2.479   1.820   3.540
 5336SOL    HW116907   2.574   1.808   3.567
 5336SOL    HW216908   2.419   1.789   3.614
 5337SOL     OW16909   5.858   5.162   2.561
 5337SOL    HW116910   5.890   5.135   2.470
 5337SOL    HW216911   5.933   5.153   2.627
 5338SOL     OW16912   5.662   2.098   6.854
 5338SOL    HW116913   5.709   2.185   6.842
 5338SOL    HW216914   5.632   2.089   6.949
 5339SOL     OW16915   5.525   1.633   1.999
 5339SOL    HW116916   5.582   1.556   1.973
 5339SOL    HW216917   5.497   1.683   1.917
 5340SOL     OW16918   5.555   3.511   1.318
 5340SOL    HW116919   5.603   3.596   1.302
 5340SOL    HW216920   5.456   3.526   1.310
 5341SOL     OW16921   3.899   4.917   4.926
 5341SOL    HW116922   3.829   4.985   4.948
 5341SOL    HW216923   3.924   4.867   5.009
 5342SOL     OW16924   4.378   6.124   5.060
 5342SOL    HW116925   4.418   6.074   4.983
 5342SOL    HW216926   4.326   6.202   5.024
 5343SOL     OW16927   3.823   3.726   4.920
 5343SOL    HW116928   3.818   3.629   4.946
 5343SOL    HW216929   3.770   3.740   4.836
 5344SOL     OW16930   0.657   1.375   6.891
 5344SOL    HW116931   0.698   1.463   6.915
 5344SOL    HW216932   0.628   1.376   6.795
 5345SOL     OW16933   4.970   0.985   6.942
 5345SOL    HW116934   4.989   1.083   6.935
 5345SOL    HW216935   4.889   0.963   6.887
 5346SOL     OW16936   2.532   4.867   4.357
 5346SOL    HW116937   2.499   4.952   4.399
 5346SOL    HW216938   2.502   4.863   4.262
 5347SOL     OW16939   6.932   3.546   3.370
 5347SOL    HW116940   7.007   3.484   3.394
 5347SOL    HW216941   6.845   3.497   3.374
 5348SOL     OW16942   0.480   1.073   5.781
 5348SOL    HW116943   0.425   1.124   5.848
 5348SOL    HW216944   0.455   1.101   5.689
 5349SOL     OW16945   2.684   3.338   1.474
 5349SOL    HW116946   2.656   3.359   1.568
 5349SOL    HW216947   2.667   3.418   1.416
 5350SOL     OW16948   2.414   6.460   5.532
 5350SOL    HW116949   2.486   6.393   5.512
 5350SOL    HW216950   2.344   6.455   5.460
 5351SOL     OW16951   0.146   5.018   2.049
 5351SOL    HW116952   0.174   4.996   1.955
 5351SOL    HW216953   0.074   4.955   2.077
 5352SOL     OW16954   2.215   4.277   2.837
 5352SOL    HW116955   2.232   4.271   2.739
 5352SOL    HW216956   2.274   4.348   2.877
 5353SOL     OW16957   3.853   5.121   3.314
 5353SOL    HW116958   3.762   5.078   3.319
 5353SOL    HW216959   3.920   5.061   3.357
 5354SOL     OW16960   2.599   4.239   6.661
 5354SOL    HW116961   2.670   4.169   6.646
 5354SOL    HW216962   2.628   4.325   6.621
 5355SOL     OW16963   5.336   4.582   5.064
 5355SOL    HW116964   5.237   4.577   5.048
 5355SOL    HW216965   5.373   4.490   5.072
 5356SOL     OW16966   6.770   3.794   1.736
 5356SOL    HW116967   6.745   3.722   1.800
 5356SOL    HW216968   6.728   3.774   1.647
 5357SOL     OW16969   4.090   4.674   1.337
 5357SOL    HW116970   4.190   4.678   1.340
 5357SOL    HW216971   4.060   4.579   1.332
 5358SOL     OW16972   4.654   1.809   0.883
 5358SOL    HW116973   4.555   1.802   0.870
 5358SOL    HW216974   4.699   1.730   0.841
 5359SOL     OW16975   1.888   1.923   6.745
 5359SOL    HW116976   1.832   1.855   6.699
 5359SOL    HW216977   1.836   2.007   6.758
 5360SOL     OW16978   5.567   5.593   3.521
 5360SOL    HW116979   5.575   5.495   3.538
 5360SOL    HW216980   5.499   5.633   3.583
 5361SOL     OW16981   1.980   6.424   3.974
 5361SOL    HW116982   1.914   6.379   3.914
 5361SOL    HW216983   2.003   6.514   3.939
 5362SOL     OW16984   6.260   6.902   2.773
 5362SOL    HW116985   6.324   6.831   2.802
 5362SOL    HW216986   6.178   6.859   2.736
 5363SOL     OW16987   5.272   6.461   4.895
 5363SOL    HW116988   5.207   6.525   4.937
 5363SOL    HW216989   5.315   6.505   4.816
 5364SOL     OW16990   5.940   0.287   2.416
 5364SOL    HW116991   5.913   0.196   2.450
 5364SOL    HW216992   6.021   0.278   2.358
 5365SOL     OW16993   3.442   3.119   2.419
 5365SOL    HW116994   3.524   3.159   2.378
 5365SOL    HW216995   3.417   3.171   2.500
 5366SOL     OW16996   0.023   0.567   2.281
 5366SOL    HW116997   0.057   0.506   2.210
 5366SOL    HW216998   0.044   0.528   2.371
 5367SOL     OW16999   6.561   0.141   0.926
 5367SOL    HW117000   6.642   0.085   0.945
 5367SOL    HW217001   6.527   0.179   1.012
 5368SOL     OW17002   6.152   6.133   2.095
 5368SOL    HW117003   6.242   6.155   2.134
 5368SOL    HW217004   6.094   6.094   2.166
 5369SOL     OW17005   2.899   5.763   1.471
 5369SOL    HW117006   2.944   5.674   1.481
 5369SOL    HW217007   2.949   5.818   1.404
 5370SOL     OW17008   4.730   3.498   1.489
 5370SOL    HW117009   4.650   3.531   1.439
 5370SOL    HW217010   4.747   3.403   1.465
 5371SOL     OW17011   6.987   5.189   5.380
 5371SOL    HW117012   6.968   5.091   5.382
 5371SOL    HW217013   6.936   5.232   5.305
 5372SOL     OW17014   1.486   6.552   2.697
 5372SOL    HW117015   1.498   6.513   2.788
 5372SOL    HW217016   1.535   6.495   2.630
 5373SOL     OW17017   3.738   6.884   5.889
 5373SOL    HW117018   3.684   6.907   5.807
 5373SOL    HW217019   3.754   6.967   5.942
 5374SOL     OW17020   2.622   4.159   1.014
 5374SOL    HW117021   2.690   4.117   0.953
 5374SOL    HW217022   2.635   4.124   1.107
 5375SOL     OW17023   0.645   5.295   5.405
 5375SOL    HW117024   0.684   5.320   5.494
 5375SOL    HW217025   0.591   5.371   5.370
 5376SOL     OW17026   1.221   2.072   1.864
 5376SOL    HW117027   1.142   2.122   1.898
 5376SOL    HW217028   1.246   2.107   1.773
 5377SOL     OW17029   1.393   0.956   2.876
 5377SOL    HW117030   1.307   0.918   2.842
 5377SOL    HW217031   1.395   0.949   2.975
 5378SOL     OW17032   6.837   0.575   1.787
 5378SOL    HW117033   6.780   0.599   1.865
 5378SOL    HW217034   6.927   0.546   1.819
 5379SOL     OW17035   1.488   3.210   5.228
 5379SOL    HW117036   1.392   3.185   5.237
 5379SOL    HW217037   1.537   3.138   5.179
 5380SOL     OW17038   3.323   6.910   1.554
 5380SOL    HW117039   3.405   6.895   1.610
 5380SOL    HW217040   3.340   6.877   1.462
 5381SOL     OW17041   6.094   6.067   2.799
 5381SOL    HW117042   6.037   6.105   2.726
 5381SOL    HW217043   6.038   6.052   2.881
 5382SOL     OW17044   2.961   2.144   2.857
 5382SOL    HW117045   2.889   2.200   2.898
 5382SOL    HW217046   2.919   2.078   2.794
 5383SOL     OW17047   1.685   3.169   4.670
 5383SOL    HW117048   1.719   3.239   4.607
 5383SOL    HW217049   1.762   3.122   4.712
 5384SOL     OW17050   4.895   5.376   4.864
 5384SOL    HW117051   4.988   5.346   4.841
 5384SOL    HW217052   4.854   5.312   4.928
 5385SOL     OW17053   5.829   3.234   4.547
 5385SOL    HW117054   5.888   3.264   4.472
 5385SOL    HW217055   5.879   3.241   4.633
 5386SOL     OW17056   5.998   1.597   3.788
 5386SOL    HW117057   6.096   1.602   3.805
 5386SOL    HW217058   5.948   1.605   3.875
 5387SOL     OW17059   2.778   6.307   3.533
 5387SOL    HW117060   2.695   6.252   3.525
 5387SOL    HW217061   2.847   6.273   3.470
 5388SOL     OW17062   1.649   6.554   2.967
 5388SOL    HW117063   1.597   6.591   3.043
 5388SOL    HW217064   1.729   6.612   2.949
 5389SOL     OW17065   4.012   2.223   4.660
 5389SOL    HW117066   3.969   2.147   4.612
 5389SOL    HW217067   4.039   2.293   4.594
 5390SOL     OW17068   5.102   4.008   3.914
 5390SOL    HW117069   5.201   4.010   3.899
 5390SOL    HW217070   5.070   3.914   3.915
 5391SOL     OW17071   2.973   1.841   0.193
 5391SOL    HW117072   2.915   1.919   0.218
 5391SOL    HW217073   3.069   1.865   0.208
 5392SOL     OW17074   4.874   3.543   2.504
 5392SOL    HW117075   4.802   3.610   2.486
 5392SOL    HW217076   4.958   3.573   2.460
 5393SOL     OW17077   4.454   1.095   5.721
 5393SOL    HW117078   4.370   1.132   5.759
 5393SOL    HW217079   4.507   1.168   5.678
 5394SOL     OW17080   0.445   6.141   0.865
 5394SOL    HW117081   0.423   6.044   0.864
 5394SOL    HW217082   0.440   6.175   0.959
 5395SOL     OW17083   4.772   1.413   1.025
 5395SOL    HW117084   4.855   1.358   1.034
 5395SOL    HW217085   4.796   1.506   1.000
 5396SOL     OW17086   5.012   5.629   1.847
 5396SOL    HW117087   5.028   5.561   1.775
 5396SOL    HW217088   4.919   5.620   1.882
 5397SOL     OW17089   0.120   2.044   1.576
 5397SOL    HW117090   0.189   2.001   1.517
 5397SOL    HW217091   0.031   2.042   1.530
 5398SOL     OW17092   3.598   2.130   3.569
 5398SOL    HW117093   3.540   2.128   3.650
 5398SOL    HW217094   3.687   2.089   3.591
 5399SOL     OW17095   2.597   6.487   5.916
 5399SOL    HW117096   2.609   6.491   6.015
 5399SOL    HW217097   2.658   6.417   5.878
 5400SOL     OW17098   3.164   3.491   1.097
 5400SOL    HW117099   3.093   3.544   1.142
 5400SOL    HW217100   3.211   3.548   1.029
 5401SOL     OW17101   5.551   4.208   2.804
 5401SOL    HW117102   5.458   4.191   2.769
 5401SOL    HW217103   5.617   4.182   2.733
 5402SOL     OW17104   3.347   6.243   1.040
 5402SOL    HW117105   3.259   6.281   1.068
 5402SOL    HW217106   3.358   6.152   1.081
 5403SOL     OW17107   5.050   3.106   6.643
 5403SOL    HW117108   4.978   3.173   6.658
 5403SOL    HW217109   5.128   3.150   6.599
 5404SOL     OW17110   1.132   0.654   0.713
 5404SOL    HW117111   1.221   0.615   0.740
 5404SOL    HW217112   1.144   0.713   0.633
 5405SOL     OW17113   5.880   5.277   0.253
 5405SOL    HW117114   5.926   5.266   0.341
 5405SOL    HW217115   5.788   5.239   0.258
 5406SOL     OW17116   1.781   1.200   5.251
 5406SOL    HW117117   1.741   1.181   5.340
 5406SOL    HW217118   1.850   1.130   5.230
 5407SOL     OW17119   2.978   1.522   0.738
 5407SOL    HW117120   2.973   1.494   0.642
 5407SOL    HW217121   3.069   1.558   0.758
 5408SOL     OW17122   2.971   1.647   4.763
 5408SOL    HW117123   2.995   1.703   4.843
 5408SOL    HW217124   3.043   1.655   4.694
 5409SOL     OW17125   6.597   1.782   2.191
 5409SOL    HW117126   6.637   1.726   2.119
 5409SOL    HW217127   6.500   1.762   2.199
 5410SOL     OW17128   0.642   3.459   0.139
 5410SOL    HW117129   0.582   3.441   0.062
 5410SOL    HW217130   0.593   3.509   0.210
 5411SOL     OW17131   5.253   4.144   6.987
 5411SOL    HW117132   5.217   4.228   0.006
 5411SOL    HW217133   5.260   4.074   0.037
 5412SOL     OW17134   2.386   1.408   6.115
 5412SOL    HW117135   2.366   1.376   6.208
 5412SOL    HW217136   2.343   1.345   6.049
 5413SOL     OW17137   7.019   6.981   6.002
 5413SOL    HW117138   0.008   6.891   5.959
 5413SOL    HW217139   0.083   7.005   6.049
 5414SOL     OW17140   6.584   4.618   5.392
 5414SOL    HW117141   6.573   4.686   5.465
 5414SOL    HW217142   6.675   4.627   5.351
 5415SOL     OW17143   3.177   5.483   0.381
 5415SOL    HW117144   3.216   5.562   0.333
 5415SOL    HW217145   3.077   5.489   0.376
 5416SOL     OW17146   2.741   5.311   5.049
 5416SOL    HW117147   2.699   5.261   4.973
 5416SOL    HW217148   2.703   5.403   5.053
 5417SOL     OW17149   3.827   6.840   4.025
 5417SOL    HW117150   3.803   6.758   4.077
 5417SOL    HW217151   3.885   6.814   3.948
 5418SOL     OW17152   5.477   5.341   4.850
 5418SOL    HW117153   5.534   5.422   4.864
 5418SOL    HW217154   5.534   5.259   4.858
 5419SOL     OW17155   4.219   6.329   0.042
 5419SOL    HW117156   4.247   6.392   0.114
 5419SOL    HW217157   4.293   6.264   0.024
 5420SOL     OW17158   2.020   2.160   0.926
 5420SOL    HW117159   1.939   2.148   0.984
 5420SOL    HW217160   2.100   2.179   0.984
 5421SOL     OW17161   3.282   5.539   1.821
 5421SOL    HW117162   3.321   5.488   1.898
 5421SOL    HW217163   3.183   5.545   1.831
 5422SOL     OW17164   1.980   5.601   4.034
 5422SOL    HW117165   1.933   5.684   4.005
 5422SOL    HW217166   1.993   5.603   4.133
 5423SOL     OW17167   6.260   5.251   1.310
 5423SOL    HW117168   6.244   5.229   1.214
 5423SOL    HW217169   6.172   5.267   1.356
 5424SOL     OW17170   4.863   3.792   3.996
 5424SOL    HW117171   4.900   3.758   3.910
 5424SOL    HW217172   4.880   3.724   4.068
 5425SOL     OW17173   6.411   3.010   4.576
 5425SOL    HW117174   6.472   2.934   4.553
 5425SOL    HW217175   6.425   3.085   4.512
 5426SOL     OW17176   4.366   5.694   2.327
 5426SOL    HW117177   4.289   5.726   2.383
 5426SOL    HW217178   4.406   5.613   2.370
 5427SOL     OW17179   4.889   2.774   0.024
 5427SOL    HW117180   4.829   2.735   0.095
 5427SOL    HW217181   4.928   2.860   0.058
 5428SOL     OW17182   5.178   6.521   2.370
 5428SOL    HW117183   5.098   6.480   2.414
 5428SOL    HW217184   5.196   6.474   2.283
 5429SOL     OW17185   2.152   6.827   4.806
 5429SOL    HW117186   2.245   6.819   4.843
 5429SOL    HW217187   2.157   6.839   4.707
 5430SOL     OW17188   2.151   2.853   5.859
 5430SOL    HW117189   2.191   2.781   5.802
 5430SOL    HW217190   2.169   2.942   5.816
 5431SOL     OW17191   3.292   4.568   6.177
 5431SOL    HW117192   3.264   4.536   6.086
 5431SOL    HW217193   3.370   4.514   6.208
 5432SOL     OW17194   5.427   5.468   0.300
 5432SOL    HW117195   5.449   5.386   0.353
 5432SOL    HW217196   5.495   5.539   0.319
 5433SOL     OW17197   1.694   0.105   0.769
 5433SOL    HW117198   1.708   0.087   0.866
 5433SOL    HW217199   1.607   0.066   0.740
 5434SOL     OW17200   4.718   0.990   5.058
 5434SOL    HW117201   4.785   1.063   5.045
 5434SOL    HW217202   4.720   0.929   4.979
 5435SOL     OW17203   6.293   3.573   0.945
 5435SOL    HW117204   6.356   3.639   0.984
 5435SOL    HW217205   6.326   3.542   0.856
 5436SOL     OW17206   6.928   5.396   4.081
 5436SOL    HW117207   6.835   5.367   4.104
 5436SOL    HW217208   6.993   5.352   4.142
 5437SOL     OW17209   3.320   4.511   5.640
 5437SOL    HW117210   3.299   4.415   5.656
 5437SOL    HW217211   3.304   4.563   5.724
 5438SOL     OW17212   5.375   4.915   2.287
 5438SOL    HW117213   5.359   5.010   2.316
 5438SOL    HW217214   5.405   4.861   2.366
 5439SOL     OW17215   1.626   3.739   0.186
 5439SOL    HW117216   1.565   3.815   0.212
 5439SOL    HW217217   1.571   3.659   0.162
 5440SOL     OW17218   5.532   6.805   3.345
 5440SOL    HW117219   5.599   6.820   3.271
 5440SOL    HW217220   5.520   6.707   3.359
 5441SOL     OW17221   5.381   3.418   3.171
 5441SOL    HW117222   5.477   3.425   3.146
 5441SOL    HW217223   5.332   3.366   3.101
 5442SOL     OW17224   3.545   7.001   3.187
 5442SOL    HW117225   3.587   0.062   3.227
 5442SOL    HW217226   3.604   6.922   3.202
 5443SOL     OW17227   4.462   6.693   3.880
 5443SOL    HW117228   4.555   6.663   3.900
 5443SOL    HW217229   4.397   6.627   3.917
 5444SOL     OW17230   6.980   1.787   4.002
 5444SOL    HW117231   6.900   1.830   4.044
 5444SOL    HW217232   0.017   1.746   4.074
 5445SOL     OW17233   5.104   4.225   4.194
 5445SOL    HW117234   5.159   4.309   4.196
 5445SOL    HW217235   5.080   4.199   4.288
 5446SOL     OW17236   6.323   4.471   4.483
 5446SOL    HW117237   6.313   4.557   4.433
 5446SOL    HW217238   6.402   4.421   4.448
 5447SOL     OW17239   2.194   1.923   0.922
 5447SOL    HW117240   2.132   2.002   0.921
 5447SOL    HW217241   2.230   1.911   1.014
 5448SOL     OW17242   4.783   5.507   3.923
 5448SOL    HW117243   4.751   5.589   3.970
 5448SOL    HW217244   4.867   5.529   3.872
 5449SOL     OW17245   2.662   1.074   1.600
 5449SOL    HW117246   2.671   1.173   1.590
 5449SOL    HW217247   2.703   1.029   1.520
 5450SOL     OW17248   3.800   6.428   1.002
 5450SOL    HW117249   3.861   6.507   1.010
 5450SOL    HW217250   3.819   6.379   0.917
 5451SOL     OW17251   1.350   6.222   3.547
 5451SOL    HW117252   1.441   6.189   3.570
 5451SOL    HW217253   1.345   6.321   3.562
 5452SOL     OW17254   2.427   4.288   0.921
 5452SOL    HW117255   2.520   4.264   0.949
 5452SOL    HW217256   2.407   4.383   0.948
 5453SOL     OW17257   5.098   4.171   1.949
 5453SOL    HW117258   5.015   4.173   1.894
 5453SOL    HW217259   5.075   4.190   2.044
 5454SOL     OW17260   5.442   6.367   1.953
 5454SOL    HW117261   5.537   6.392   1.976
 5454SOL    HW217262   5.441   6.280   1.905
 5455SOL     OW17263   0.324   1.808   3.294
 5455SOL    HW117264   0.271   1.890   3.313
 5455SOL    HW217265   0.306   1.739   3.365
 5456SOL     OW17266   4.073   1.203   6.790
 5456SOL    HW117267   4.087   1.106   6.769
 5456SOL    HW217268   4.009   1.212   6.866
 5457SOL     OW17269   6.330   1.429   0.542
 5457SOL    HW117270   6.269   1.362   0.585
 5457SOL    HW217271   6.409   1.444   0.602
 5458SOL     OW17272   6.714   5.039   1.482
 5458SOL    HW117273   6.739   4.962   1.540
 5458SOL    HW217274   6.778   5.046   1.406
 5459SOL     OW17275   2.164   4.808   4.671
 5459SOL    HW117276   2.229   4.772   4.604
 5459SOL    HW217277   2.147   4.739   4.742
 5460SOL     OW17278   2.392   0.557   1.890
 5460SOL    HW117279   2.402   0.458   1.887
 5460SOL    HW217280   2.413   0.596   1.800
 5461SOL     OW17281   1.172   1.372   5.344
 5461SOL    HW117282   1.251   1.388   5.284
 5461SOL    HW217283   1.095   1.340   5.289
 5462SOL     OW17284   5.370   6.393   6.959
 5462SOL    HW117285   5.413   6.412   6.871
 5462SOL    HW217286   5.425   6.327   7.010
 5463SOL     OW17287   6.698   1.977   6.801
 5463SOL    HW117288   6.614   2.005   6.848
 5463SOL    HW217289   6.687   1.991   6.703
 5464SOL     OW17290   6.319   5.520   5.355
 5464SOL    HW117291   6.227   5.557   5.363
 5464SOL    HW217292   6.386   5.592   5.373
 5465SOL     OW17293   6.982   0.213   3.048
 5465SOL    HW117294   0.016   0.215   2.965
 5465SOL    HW217295   6.927   0.296   3.053
 5466SOL     OW17296   6.241   2.852   5.627
 5466SOL    HW117297   6.187   2.813   5.701
 5466SOL    HW217298   6.230   2.797   5.544
 5467SOL     OW17299   5.651   3.860   3.571
 5467SOL    HW117300   5.603   3.789   3.519
 5467SOL    HW217301   5.587   3.930   3.599
 5468SOL     OW17302   6.931   2.672   4.168
 5468SOL    HW117303   7.001   2.742   4.182
 5468SOL    HW217304   6.976   2.584   4.151
 5469SOL     OW17305   3.323   6.353   6.139
 5469SOL    HW117306   3.295   6.327   6.231
 5469SOL    HW217307   3.405   6.410   6.143
 5470SOL     OW17308   3.889   5.332   3.472
 5470SOL    HW117309   3.926   5.300   3.559
 5470SOL    HW217310   3.888   5.256   3.406
 5471SOL     OW17311   5.623   0.141   2.432
 5471SOL    HW117312   5.674   0.183   2.507
 5471SOL    HW217313   5.587   0.212   2.372
 5472SOL     OW17314   3.340   3.457   6.524
 5472SOL    HW117315   3.321   3.525   6.454
 5472SOL    HW217316   3.256   3.406   6.546
 5473SOL     OW17317   2.324   4.385   0.112
 5473SOL    HW117318   2.316   4.373   0.211
 5473SOL    HW217319   2.243   4.433   0.077
 5474SOL     OW17320   0.264   5.842   4.034
 5474SOL    HW117321   0.262   5.743   4.021
 5474SOL    HW217322   0.212   5.886   3.960
 5475SOL     OW17323   1.667   2.088   0.772
 5475SOL    HW117324   1.712   2.161   0.721
 5475SOL    HW217325   1.693   2.093   0.868
 5476SOL     OW17326   2.538   4.574   5.085
 5476SOL    HW117327   2.522   4.671   5.070
 5476SOL    HW217328   2.626   4.548   5.046
 5477SOL     OW17329   1.608   3.456   3.211
 5477SOL    HW117330   1.598   3.555   3.218
 5477SOL    HW217331   1.645   3.433   3.121
 5478SOL     OW17332   5.292   6.527   5.388
 5478SOL    HW117333   5.263   6.526   5.292
 5478SOL    HW217334   5.291   6.433   5.424
 5479SOL     OW17335   4.353   1.621   4.823
 5479SOL    HW117336   4.358   1.710   4.867
 5479SOL    HW217337   4.444   1.592   4.795
 5480SOL     OW17338   6.018   4.595   5.048
 5480SOL    HW117339   5.964   4.678   5.057
 5480SOL    HW217340   5.964   4.525   5.002
 5481SOL     OW17341   4.898   1.084   4.690
 5481SOL    HW117342   4.933   0.996   4.659
 5481SOL    HW217343   4.798   1.085   4.682
 5482SOL     OW17344   3.076   3.941   3.053
 5482SOL    HW117345   2.988   3.980   3.078
 5482SOL    HW217346   3.082   3.930   2.954
 5483SOL     OW17347   6.232   2.270   5.092
 5483SOL    HW117348   6.216   2.316   5.179
 5483SOL    HW217349   6.301   2.198   5.105
 5484SOL     OW17350   6.335   0.619   3.646
 5484SOL    HW117351   6.339   0.692   3.578
 5484SOL    HW217352   6.405   0.633   3.716
 5485SOL     OW17353   3.288   6.357   4.705
 5485SOL    HW117354   3.197   6.397   4.693
 5485SOL    HW217355   3.287   6.261   4.677
 5486SOL     OW17356   1.709   6.580   4.141
 5486SOL    HW117357   1.665   6.491   4.156
 5486SOL    HW217358   1.722   6.595   4.043
 5487SOL     OW17359   5.486   3.239   6.400
 5487SOL    HW117360   5.516   3.203   6.312
 5487SOL    HW217361   5.549   3.208   6.472
 5488SOL     OW17362   5.381   1.921   1.387
 5488SOL    HW117363   5.301   1.928   1.327
 5488SOL    HW217364   5.461   1.959   1.340
 5489SOL     OW17365   0.933   4.061   1.612
 5489SOL    HW117366   1.018   4.073   1.561
 5489SOL    HW217367   0.872   4.002   1.560
 5490SOL     OW17368   3.429   0.078   0.940
 5490SOL    HW117369   3.424   0.067   0.841
 5490SOL    HW217370   3.507   0.137   0.963
 5491SOL     OW17371   1.358   4.029   6.268
 5491SOL    HW117372   1.284   3.964   6.286
 5491SOL    HW217373   1.445   3.990   6.297
 5492SOL     OW17374   1.208   2.311   6.458
 5492SOL    HW117375   1.193   2.394   6.511
 5492SOL    HW217376   1.145   2.310   6.380
 5493SOL     OW17377   4.056   3.665   4.286
 5493SOL    HW117378   4.064   3.629   4.193
 5493SOL    HW217379   4.093   3.599   4.352
 5494SOL     OW17380   5.997   2.963   6.822
 5494SOL    HW117381   5.965   3.014   6.903
 5494SOL    HW217382   6.047   2.882   6.851
 5495SOL     OW17383   3.028   2.377   1.469
 5495SOL    HW117384   2.972   2.305   1.511
 5495SOL    HW217385   3.068   2.434   1.541
 5496SOL     OW17386   2.534   6.527   3.741
 5496SOL    HW117387   2.435   6.512   3.740
 5496SOL    HW217388   2.577   6.468   3.809
 5497SOL     OW17389   0.069   2.084   3.649
 5497SOL    HW117390   0.005   2.110   3.576
 5497SOL    HW217391   0.042   1.995   3.686
 5498SOL     OW17392   5.217   0.254   1.380
 5498SOL    HW117393   5.196   0.348   1.352
 5498SOL    HW217394   5.177   0.236   1.470
 5499SOL     OW17395   0.990   0.544   3.569
 5499SOL    HW117396   0.935   0.466   3.598
 5499SOL    HW217397   1.044   0.518   3.489
 5500SOL     OW17398   1.819   6.249   6.923
 5500SOL    HW117399   1.776   6.167   6.884
 5500SOL    HW217400   1.882   6.221   6.996
 5501SOL     OW17401   3.687   0.262   0.973
 5501SOL    HW117402   3.743   0.257   0.890
 5501SOL    HW217403   3.644   0.352   0.979
 5502SOL     OW17404   5.487   4.140   6.834
 5502SOL    HW117405   5.478   4.059   6.776
 5502SOL    HW217406   5.398   4.161   6.876
 5503SOL     OW17407   0.334   5.067   2.905
 5503SOL    HW117408   0.259   5.010   2.937
 5503SOL    HW217409   0.307   5.164   2.912
 5504SOL     OW17410   3.870   1.188   5.904
 5504SOL    HW117411   3.783   1.167   5.949
 5504SOL    HW217412   3.914   1.264   5.952
 5505SOL     OW17413   2.301   5.321   4.110
 5505SOL    HW117414   2.259   5.381   4.179
 5505SOL    HW217415   2.362   5.256   4.155
 5506SOL     OW17416   0.410   0.849   6.065
 5506SOL    HW117417   0.466   0.896   6.133
 5506SOL    HW217418   0.339   0.911   6.032
 5507SOL     OW17419   2.327   6.971   3.007
 5507SOL    HW117420   2.351   6.906   3.079
 5507SOL    HW217421   2.378   6.948   2.924
 5508SOL     OW17422   1.673   1.220   0.169
 5508SOL    HW117423   1.635   1.305   0.204
 5508SOL    HW217424   1.770   1.213   0.193
 5509SOL     OW17425   0.997   6.591   0.545
 5509SOL    HW117426   0.921   6.637   0.500
 5509SOL    HW217427   1.083   6.638   0.522
 5510SOL     OW17428   5.403   6.391   0.782
 5510SOL    HW117429   5.343   6.325   0.828
 5510SOL    HW217430   5.355   6.478   0.771
 5511SOL     OW17431   2.771   0.094   4.447
 5511SOL    HW117432   2.776   0.170   4.512
 5511SOL    HW217433   2.806   0.123   4.358
 5512SOL     OW17434   5.712   2.432   1.342
 5512SOL    HW117435   5.686   2.508   1.401
 5512SOL    HW217436   5.700   2.346   1.391
 5513SOL     OW17437   3.509   3.987   5.782
 5513SOL    HW117438   3.427   3.942   5.816
 5513SOL    HW217439   3.516   4.078   5.821
 5514SOL     OW17440   4.336   5.802   2.068
 5514SOL    HW117441   4.297   5.717   2.031
 5514SOL    HW217442   4.366   5.786   2.162
 5515SOL     OW17443   0.290   4.852   1.166
 5515SOL    HW117444   0.305   4.918   1.240
 5515SOL    HW217445   0.373   4.848   1.109
 5516SOL     OW17446   1.579   3.687   6.766
 5516SOL    HW117447   1.526   3.604   6.748
 5516SOL    HW217448   1.520   3.754   6.813
 5517SOL     OW17449   2.159   2.800   2.361
 5517SOL    HW117450   2.065   2.772   2.341
 5517SOL    HW217451   2.174   2.893   2.330
 5518SOL     OW17452   6.271   0.104   6.221
 5518SOL    HW117453   6.211   0.050   6.281
 5518SOL    HW217454   6.360   0.113   6.265
 5519SOL     OW17455   5.087   3.292   2.731
 5519SOL    HW117456   5.019   3.263   2.665
 5519SOL    HW217457   5.168   3.327   2.683
 5520SOL     OW17458   6.787   5.552   2.584
 5520SOL    HW117459   6.706   5.516   2.539
 5520SOL    HW217460   6.856   5.575   2.515
 5521SOL     OW17461   4.313   0.031   2.229
 5521SOL    HW117462   4.289   6.977   2.292
 5521SOL    HW217463   4.229   0.079   2.202
 5522SOL     OW17464   0.547   5.371   0.770
 5522SOL    HW117465   0.484   5.333   0.838
 5522SOL    HW217466   0.595   5.449   0.809
 5523SOL     OW17467   2.832   6.814   3.049
 5523SOL    HW117468   2.931   6.812   3.033
 5523SOL    HW217469   2.793   6.726   3.020
 5524SOL     OW17470   5.641   5.188   4.521
 5524SOL    HW117471   5.672   5.250   4.594
 5524SOL    HW217472   5.623   5.098   4.561
 5525SOL     OW17473   6.744   3.190   6.911
 5525SOL    HW117474   6.754   3.257   6.837
 5525SOL    HW217475   6.793   3.106   6.887
 5526SOL     OW17476   5.304   4.727   4.653
 5526SOL    HW117477   5.372   4.699   4.721
 5526SOL    HW217478   5.221   4.673   4.664
 5527SOL     OW17479   0.182   3.403   4.152
 5527SOL    HW117480   0.273   3.377   4.184
 5527SOL    HW217481   0.190   3.474   4.082
 5528SOL     OW17482   1.106   2.127   6.666
 5528SOL    HW117483   1.138   2.189   6.595
 5528SOL    HW217484   1.175   2.056   6.681
 5529SOL     OW17485   2.036   0.431   4.479
 5529SOL    HW117486   2.046   0.345   4.530
 5529SOL    HW217487   1.998   0.411   4.389
 5530SOL     OW17488   0.430   2.412   2.118
 5530SOL    HW117489   0.399   2.507   2.125
 5530SOL    HW217490   0.469   2.383   2.206
 5531SOL     OW17491   3.334   3.774   2.148
 5531SOL    HW117492   3.340   3.872   2.127
 5531SOL    HW217493   3.408   3.726   2.101
 5532SOL     OW17494   1.691   1.449   0.339
 5532SOL    HW117495   1.606   1.482   0.298
 5532SOL    HW217496   1.675   1.420   0.433
 5533SOL     OW17497   3.013   0.655   3.204
 5533SOL    HW117498   2.946   0.671   3.132
 5533SOL    HW217499   3.100   0.698   3.179
 5534SOL     OW17500   0.539   2.452   5.373
 5534SOL    HW117501   0.629   2.411   5.387
 5534SOL    HW217502   0.526   2.471   5.275
 5535SOL     OW17503   0.584   3.078   4.331
 5535SOL    HW117504   0.636   3.062   4.247
 5535SOL    HW217505   0.646   3.081   4.409
 5536SOL     OW17506   2.968   0.863   4.215
 5536SOL    HW117507   2.971   0.794   4.142
 5536SOL    HW217508   2.969   0.817   4.303
 5537SOL     OW17509   2.963   0.644   4.444
 5537SOL    HW117510   3.031   0.694   4.497
 5537SOL    HW217511   2.982   0.546   4.449
 5538SOL     OW17512   3.354   6.746   5.208
 5538SOL    HW117513   3.350   6.754   5.307
 5538SOL    HW217514   3.283   6.803   5.167
 5539SOL     OW17515   1.410   2.939   0.373
 5539SOL    HW117516   1.420   3.029   0.330
 5539SOL    HW217517   1.332   2.940   0.436
 5540SOL     OW17518   6.309   3.544   2.965
 5540SOL    HW117519   6.213   3.573   2.961
 5540SOL    HW217520   6.326   3.499   3.052
 5541SOL     OW17521   5.855   1.250   6.714
 5541SOL    HW117522   5.851   1.344   6.747
 5541SOL    HW217523   5.839   1.249   6.615
 5542SOL     OW17524   6.107   6.553   6.204
 5542SOL    HW117525   6.176   6.482   6.186
 5542SOL    HW217526   6.148   6.625   6.260
 5543SOL     OW17527   2.934   5.505   5.944
 5543SOL    HW117528   3.021   5.543   5.914
 5543SOL    HW217529   2.941   5.477   6.039
 5544SOL     OW17530   5.677   6.063   6.232
 5544SOL    HW117531   5.660   6.160   6.213
 5544SOL    HW217532   5.622   6.035   6.311
 5545SOL     OW17533   4.661   1.489   3.387
 5545SOL    HW117534   4.667   1.575   3.438
 5545SOL    HW217535   4.565   1.458   3.386
 5546SOL     OW17536   1.507   6.398   4.385
 5546SOL    HW117537   1.570   6.433   4.455
 5546SOL    HW217538   1.554   6.333   4.327
 5547SOL     OW17539   3.573   0.633   4.593
 5547SOL    HW117540   3.670   0.634   4.614
 5547SOL    HW217541   3.526   0.570   4.655
 5548SOL     OW17542   5.714   3.180   4.914
 5548SOL    HW117543   5.660   3.115   4.860
 5548SOL    HW217544   5.761   3.243   4.852
 5549SOL     OW17545   4.106   4.357   0.691
 5549SOL    HW117546   4.160   4.343   0.773
 5549SOL    HW217547   4.015   4.390   0.716
 5550SOL     OW17548   2.212   4.127   2.325
 5550SOL    HW117549   2.114   4.149   2.329
 5550SOL    HW217550   2.240   4.122   2.229
 5551SOL     OW17551   1.591   6.074   3.620
 5551SOL    HW117552   1.610   5.990   3.670
 5551SOL    HW217553   1.634   6.069   3.529
 5552SOL     OW17554   6.629   0.263   6.989
 5552SOL    HW117555   6.638   0.280   0.066
 5552SOL    HW217556   6.538   0.293   6.959
 5553SOL     OW17557   4.722   6.890   0.583
 5553SOL    HW117558   4.813   6.930   0.571
 5553SOL    HW217559   4.728   6.791   0.574
 5554SOL     OW17560   4.433   2.013   6.233
 5554SOL    HW117561   4.427   1.977   6.140
 5554SOL    HW217562   4.435   2.113   6.230
 5555SOL     OW17563   0.876   3.684   3.455
 5555SOL    HW117564   0.942   3.756   3.433
 5555SOL    HW217565   0.786   3.710   3.420
 5556SOL     OW17566   7.001   1.689   3.205
 5556SOL    HW117567   0.002   1.677   3.302
 5556SOL    HW217568   0.054   1.653   3.149
 5557SOL     OW17569   3.173   6.930   2.847
 5557SOL    HW117570   3.090   6.953   2.796
 5557SOL    HW217571   3.238   6.884   2.786
 5558SOL     OW17572   3.717   3.311   5.625
 5558SOL    HW117573   3.730   3.395   5.677
 5558SOL    HW217574   3.651   3.328   5.551
 5559SOL     OW17575   1.477   0.630   1.289
 5559SOL    HW117576   1.572   0.606   1.269
 5559SOL    HW217577   1.468   0.648   1.387
 5560SOL     OW17578   0.579   5.930   2.437
 5560SOL    HW117579   0.670   5.925   2.479
 5560SOL    HW217580   0.516   5.976   2.500
 5561SOL     OW17581   1.376   1.551   3.970
 5561SOL    HW117582   1.365   1.573   3.873
 5561SOL    HW217583   1.319   1.612   4.025
 5562SOL     OW17584   4.098   2.321   6.553
 5562SOL    HW117585   4.130   2.244   6.498
 5562SOL    HW217586   3.999   2.327   6.547
 5563SOL     OW17587   4.037   5.216   1.969
 5563SOL    HW117588   4.028   5.190   2.065
 5563SOL    HW217589   4.128   5.190   1.936
 5564SOL     OW17590   4.800   0.476   1.334
 5564SOL    HW117591   4.830   0.397   1.280
 5564SOL    HW217592   4.752   0.541   1.275
 5565SOL     OW17593   4.671   1.694   5.895
 5565SOL    HW117594   4.632   1.733   5.979
 5565SOL    HW217595   4.771   1.698   5.900
 5566SOL     OW17596   1.549   4.928   6.749
 5566SOL    HW117597   1.598   4.957   6.666
 5566SOL    HW217598   1.580   4.836   6.775
 5567SOL     OW17599   0.022   2.255   0.645
 5567SOL    HW117600   0.063   2.236   0.734
 5567SOL    HW217601   6.950   2.291   0.658
 5568SOL     OW17602   4.155   1.749   3.672
 5568SOL    HW117603   4.138   1.652   3.689
 5568SOL    HW217604   4.086   1.785   3.610
 5569SOL     OW17605   1.168   1.865   2.425
 5569SOL    HW117606   1.075   1.859   2.389
 5569SOL    HW217607   1.217   1.938   2.378
 5570SOL     OW17608   5.902   4.455   4.798
 5570SOL    HW117609   5.993   4.450   4.758
 5570SOL    HW217610   5.833   4.452   4.725
 5571SOL     OW17611   7.017   5.658   0.689
 5571SOL    HW117612   0.033   5.739   0.643
 5571SOL    HW217613   0.064   5.584   0.683
 5572SOL     OW17614   1.299   2.226   5.140
 5572SOL    HW117615   1.278   2.241   5.043
 5572SOL    HW217616   1.381   2.168   5.147
 5573SOL     OW17617   2.350   4.728   4.485
 5573SOL    HW117618   2.374   4.635   4.513
 5573SOL    HW217619   2.422   4.764   4.426
 5574SOL     OW17620   0.232   2.020   2.318
 5574SOL    HW117621   0.202   2.105   2.275
 5574SOL    HW217622   0.199   1.942   2.265
 5575SOL     OW17623   0.172   1.059   1.215
 5575SOL    HW117624   0.266   1.089   1.197
 5575SOL    HW217625   0.151   1.070   1.312
 5576SOL     OW17626   0.683   5.296   1.782
 5576SOL    HW117627   0.763   5.305   1.841
 5576SOL    HW217628   0.635   5.210   1.803
 5577SOL     OW17629   3.176   3.356   5.237
 5577SOL    HW117630   3.077   3.345   5.241
 5577SOL    HW217631   3.221   3.270   5.258
 5578SOL     OW17632   3.530   3.774   0.732
 5578SOL    HW117633   3.605   3.717   0.699
 5578SOL    HW217634   3.484   3.817   0.654
 5579SOL     OW17635   0.815   3.861   6.775
 5579SOL    HW117636   0.846   3.953   6.797
 5579SOL    HW217637   0.771   3.820   6.855
 5580SOL     OW17638   5.415   2.914   5.524
 5580SOL    HW117639   5.483   2.856   5.479
 5580SOL    HW217640   5.368   2.969   5.455
 5581SOL     OW17641   1.553   6.887   1.543
 5581SOL    HW117642   1.481   6.842   1.490
 5581SOL    HW217643   1.638   6.835   1.534
 5582SOL     OW17644   2.872   3.877   4.980
 5582SOL    HW117645   2.776   3.903   4.989
 5582SOL    HW217646   2.879   3.788   4.933
 5583SOL     OW17647   4.992   0.164   2.527
 5583SOL    HW117648   5.053   0.090   2.498
 5583SOL    HW217649   5.022   0.199   2.615
 5584SOL     OW17650   5.745   4.215   3.839
 5584SOL    HW117651   5.685   4.163   3.900
 5584SOL    HW217652   5.759   4.307   3.877
 5585SOL     OW17653   5.008   6.243   3.954
 5585SOL    HW117654   5.037   6.181   3.882
 5585SOL    HW217655   5.083   6.304   3.979
 5586SOL     OW17656   0.355   2.552   6.830
 5586SOL    HW117657   0.439   2.597   6.799
 5586SOL    HW217658   0.276   2.602   6.797
 5587SOL     OW17659   4.189   6.715   1.967
 5587SOL    HW117660   4.272   6.764   1.940
 5587SOL    HW217661   4.109   6.770   1.945
 5588SOL     OW17662   1.695   5.996   2.744
 5588SOL    HW117663   1.668   5.914   2.794
 5588SOL    HW217664   1.791   6.017   2.763
 5589SOL     OW17665   5.938   3.906   5.361
 5589SOL    HW117666   6.026   3.882   5.399
 5589SOL    HW217667   5.927   3.863   5.271
 5590SOL     OW17668   6.413   5.592   4.262
 5590SOL    HW117669   6.352   5.659   4.305
 5590SOL    HW217670   6.416   5.609   4.164
 5591SOL     OW17671   5.545   2.073   0.572
 5591SOL    HW117672   5.519   2.079   0.669
 5591SOL    HW217673   5.588   1.984   0.554
 5592SOL     OW17674   0.147   4.619   2.735
 5592SOL    HW117675   0.124   4.545   2.672
 5592SOL    HW217676   0.065   4.644   2.788
 5593SOL     OW17677   0.190   2.929   6.680
 5593SOL    HW117678   0.252   2.866   6.633
 5593SOL    HW217679   0.239   2.974   6.755
 5594SOL     OW17680   3.455   1.045   6.748
 5594SOL    HW117681   3.462   1.055   6.847
 5594SOL    HW217682   3.512   0.969   6.717
 5595SOL     OW17683   6.305   0.702   5.007
 5595SOL    HW117684   6.403   0.721   5.000
 5595SOL    HW217685   6.258   0.781   5.047
 5596SOL     OW17686   4.839   0.829   3.418
 5596SOL    HW117687   4.791   0.772   3.352
 5596SOL    HW217688   4.914   0.876   3.372
 5597SOL     OW17689   5.525   2.529   5.349
 5597SOL    HW117690   5.591   2.473   5.398
 5597SOL    HW217691   5.551   2.625   5.356
 5598SOL     OW17692   6.374   3.878   3.754
 5598SOL    HW117693   6.310   3.804   3.736
 5598SOL    HW217694   6.423   3.900   3.670
 5599SOL     OW17695   0.867   2.898   1.802
 5599SOL    HW117696   0.809   2.897   1.884
 5599SOL    HW217697   0.958   2.863   1.825
 5600SOL     OW17698   2.787   0.262   2.183
 5600SOL    HW117699   2.837   0.304   2.107
 5600SOL    HW217700   2.691   0.253   2.158
 5601SOL     OW17701   2.671   0.783   6.352
 5601SOL    HW117702   2.611   0.731   6.292
 5601SOL    HW217703   2.619   0.819   6.429
 5602SOL     OW17704   0.127   1.084   1.497
 5602SOL    HW117705   0.156   1.017   1.565
 5602SOL    HW217706   0.099   1.168   1.543
 5603SOL     OW17707   5.961   2.381   6.995
 5603SOL    HW117708   5.928   2.430   0.056
 5603SOL    HW217709   6.032   2.436   6.950
 5604SOL     OW17710   6.107   2.048   4.357
 5604SOL    HW117711   6.190   1.995   4.374
 5604SOL    HW217712   6.061   2.067   4.443
 5605SOL     OW17713   0.584   0.969   5.049
 5605SOL    HW117714   0.601   0.871   5.058
 5605SOL    HW217715   0.518   0.998   5.118
 5606SOL     OW17716   5.126   6.899   0.810
 5606SOL    HW117717   5.149   6.805   0.783
 5606SOL    HW217718   5.094   6.900   0.904
 5607SOL     OW17719   6.246   1.360   3.615
 5607SOL    HW117720   6.200   1.275   3.642
 5607SOL    HW217721   6.278   1.352   3.521
 5608SOL     OW17722   6.482   0.732   3.872
 5608SOL    HW117723   6.481   0.829   3.896
 5608SOL    HW217724   6.453   0.678   3.951
 5609SOL     OW17725   4.096   6.335   1.452
 5609SOL    HW117726   4.079   6.239   1.471
 5609SOL    HW217727   4.052   6.361   1.367
 5610SOL     OW17728   4.454   5.213   1.427
 5610SOL    HW117729   4.486   5.151   1.355
 5610SOL    HW217730   4.385   5.276   1.390
 5611SOL     OW17731   0.901   5.298   3.159
 5611SOL    HW117732   0.846   5.328   3.081
 5611SOL    HW217733   0.979   5.360   3.171
 5612SOL     OW17734   4.290   2.594   5.935
 5612SOL    HW117735   4.253   2.687   5.931
 5612SOL    HW217736   4.382   2.593   5.897
 5613SOL     OW17737   5.736   5.645   5.171
 5613SOL    HW117738   5.762   5.666   5.266
 5613SOL    HW217739   5.740   5.546   5.157
 5614SOL     OW17740   5.005   2.568   4.797
 5614SOL    HW117741   4.919   2.518   4.787
 5614SOL    HW217742   5.081   2.503   4.804
 5615SOL     OW17743   6.873   1.555   3.834
 5615SOL    HW117744   6.940   1.573   3.907
 5615SOL    HW217745   6.818   1.637   3.819
 5616SOL     OW17746   2.571   2.074   5.711
 5616SOL    HW117747   2.651   2.079   5.651
 5616SOL    HW217748   2.600   2.095   5.805
 5617SOL     OW17749   2.424   5.846   5.766
 5617SOL    HW117750   2.325   5.860   5.763
 5617SOL    HW217751   2.444   5.752   5.791
 5618SOL     OW17752   6.649   4.434   4.610
 5618SOL    HW117753   6.577   4.424   4.678
 5618SOL    HW217754   6.617   4.398   4.522
 5619SOL     OW17755   3.949   3.967   4.660
 5619SOL    HW117756   4.014   3.917   4.718
 5619SOL    HW217757   3.969   3.946   4.564
 5620SOL     OW17758   4.199   3.760   0.868
 5620SOL    HW117759   4.199   3.718   0.777
 5620SOL    HW217760   4.224   3.856   0.860
 5621SOL     OW17761   2.462   2.539   0.076
 5621SOL    HW117762   2.368   2.562   0.100
 5621SOL    HW217763   2.510   2.506   0.158
 5622SOL     OW17764   4.640   0.751   5.796
 5622SOL    HW117765   4.677   0.806   5.721
 5622SOL    HW217766   4.591   0.812   5.859
 5623SOL     OW17767   4.608   6.227   5.467
 5623SOL    HW117768   4.561   6.147   5.503
 5623SOL    HW217769   4.607   6.225   5.367
 5624SOL     OW17770   0.578   4.242   3.561
 5624SOL    HW117771   0.637   4.323   3.565
 5624SOL    HW217772   0.611   4.174   3.627
 5625SOL     OW17773   6.623   0.025   5.118
 5625SOL    HW117774   6.602   7.007   5.207
 5625SOL    HW217775   6.551   0.089   5.092
 5626SOL     OW17776   2.565   5.655   3.865
 5626SOL    HW117777   2.528   5.741   3.828
 5626SOL    HW217778   2.509   5.625   3.942
 5627SOL     OW17779   0.797   5.094   6.881
 5627SOL    HW117780   0.865   5.141   6.826
 5627SOL    HW217781   0.778   5.004   6.841
 5628SOL     OW17782   2.117   2.252   2.321
 5628SOL    HW117783   2.194   2.238   2.384
 5628SOL    HW217784   2.151   2.274   2.230
 5629SOL     OW17785   3.900   3.522   1.955
 5629SOL    HW117786   3.861   3.459   2.022
 5629SOL    HW217787   3.865   3.615   1.971
 5630SOL     OW17788   1.706   3.727   6.295
 5630SOL    HW117789   1.698   3.736   6.196
 5630SOL    HW217790   1.776   3.660   6.317
 5631SOL     OW17791   4.684   1.803   1.841
 5631SOL    HW117792   4.721   1.846   1.924
 5631SOL    HW217793   4.586   1.790   1.850
 5632SOL     OW17794   3.327   2.296   5.849
 5632SOL    HW117795   3.358   2.358   5.777
 5632SOL    HW217796   3.235   2.323   5.878
 5633SOL     OW17797   5.784   5.176   4.278
 5633SOL    HW117798   5.753   5.218   4.364
 5633SOL    HW217799   5.743   5.085   4.269
 5634SOL     OW17800   2.046   4.666   3.924
 5634SOL    HW117801   2.131   4.701   3.885
 5634SOL    HW217802   2.007   4.736   3.985
 5635SOL     OW17803   1.855   5.417   6.973
 5635SOL    HW117804   1.840   5.483   6.900
 5635SOL    HW217805   1.949   5.423   7.005
 5636SOL     OW17806   4.565   0.161   4.532
 5636SOL    HW117807   4.663   0.170   4.510
 5636SOL    HW217808   4.513   0.224   4.474
 5637SOL     OW17809   4.652   6.894   3.413
 5637SOL    HW117810   4.593   6.821   3.446
 5637SOL    HW217811   4.722   6.914   3.481
 5638SOL     OW17812   0.021   3.550   1.023
 5638SOL    HW117813   0.102   3.524   1.076
 5638SOL    HW217814   0.018   3.498   0.938
 5639SOL     OW17815   1.775   0.260   2.130
 5639SOL    HW117816   1.808   0.225   2.218
 5639SOL    HW217817   1.848   0.308   2.083
 5640SOL     OW17818   3.203   0.574   3.560
 5640SOL    HW117819   3.247   0.648   3.509
 5640SOL    HW217820   3.186   0.603   3.654
 5641SOL     OW17821   0.466   4.929   5.082
 5641SOL    HW117822   0.386   4.874   5.107
 5641SOL    HW217823   0.545   4.901   5.137
 5642SOL     OW17824   1.441   6.131   4.478
 5642SOL    HW117825   1.389   6.215   4.461
 5642SOL    HW217826   1.494   6.107   4.397
 5643SOL     OW17827   4.425   1.517   4.027
 5643SOL    HW117828   4.339   1.564   4.048
 5643SOL    HW217829   4.482   1.576   3.970
 5644SOL     OW17830   3.351   6.656   5.487
 5644SOL    HW117831   3.290   6.585   5.523
 5644SOL    HW217832   3.356   6.731   5.553
 5645SOL     OW17833   6.322   4.740   3.205
 5645SOL    HW117834   6.238   4.694   3.234
 5645SOL    HW217835   6.301   4.806   3.133
 5646SOL     OW17836   1.077   5.760   3.893
 5646SOL    HW117837   0.996   5.708   3.921
 5646SOL    HW217838   1.062   5.799   3.802
 5647SOL     OW17839   4.796   6.191   0.555
 5647SOL    HW117840   4.698   6.203   0.573
 5647SOL    HW217841   4.843   6.166   0.640
 5648SOL     OW17842   1.577   0.075   3.186
 5648SOL    HW117843   1.677   0.065   3.186
 5648SOL    HW217844   1.553   0.170   3.202
 5649SOL     OW17845   0.451   0.915   4.383
 5649SOL    HW117846   0.469   0.840   4.446
 5649SOL    HW217847   0.378   0.889   4.319
 5650SOL     OW17848   0.705   5.863   0.331
 5650SOL    HW117849   0.682   5.766   0.335
 5650SOL    HW217850   0.771   5.885   0.403
 5651SOL     OW17851   1.748   1.217   1.181
 5651SOL    HW117852   1.793   1.133   1.211
 5651SOL    HW217853   1.655   1.220   1.219
 5652SOL     OW17854   6.139   6.993   1.852
 5652SOL    HW117855   6.069   6.944   1.905
 5652SOL    HW217856   6.099   0.054   1.811
 5653SOL     OW17857   6.415   6.163   6.713
 5653SOL    HW117858   6.501   6.187   6.668
 5653SOL    HW217859   6.421   6.069   6.749
 5654SOL     OW17860   6.724   6.865   4.953
 5654SOL    HW117861   6.797   6.834   5.015
 5654SOL    HW217862   6.667   6.932   5.000
 5655SOL     OW17863   1.183   3.708   4.269
 5655SOL    HW117864   1.129   3.642   4.216
 5655SOL    HW217865   1.217   3.664   4.352
 5656SOL     OW17866   0.197   3.766   6.699
 5656SOL    HW117867   0.155   3.757   6.609
 5656SOL    HW217868   0.157   3.844   6.747
 5657SOL     OW17869   6.035   1.970   0.194
 5657SOL    HW117870   6.094   1.889   0.186
 5657SOL    HW217871   6.091   2.050   0.214
 5658SOL     OW17872   3.646   3.741   6.650
 5658SOL    HW117873   3.670   3.644   6.645
 5658SOL    HW217874   3.722   3.795   6.614
 5659SOL     OW17875   3.815   3.210   4.805
 5659SOL    HW117876   3.719   3.226   4.826
 5659SOL    HW217877   3.872   3.265   4.866
 5660SOL     OW17878   5.033   6.709   0.355
 5660SOL    HW117879   5.123   6.669   0.337
 5660SOL    HW217880   5.044   6.788   0.416
 5661SOL     OW17881   1.486   5.675   4.931
 5661SOL    HW117882   1.462   5.579   4.933
 5661SOL    HW217883   1.552   5.694   5.004
 5662SOL     OW17884   2.719   5.970   3.664
 5662SOL    HW117885   2.818   5.958   3.666
 5662SOL    HW217886   2.682   5.926   3.581
 5663SOL     OW17887   1.857   3.248   6.741
 5663SOL    HW117888   1.816   3.156   6.742
 5663SOL    HW217889   1.919   3.257   6.818
 5664SOL     OW17890   6.863   4.225   4.306
 5664SOL    HW117891   6.777   4.218   4.257
 5664SOL    HW217892   6.909   4.136   4.305
 5665SOL     OW17893   1.825   0.894   0.504
 5665SOL    HW117894   1.875   0.917   0.421
 5665SOL    HW217895   1.825   0.972   0.566
 5666SOL     OW17896   5.850   6.972   2.921
 5666SOL    HW117897   5.853   6.880   2.959
 5666SOL    HW217898   5.938   7.018   2.937
 5667SOL     OW17899   1.715   5.156   4.530
 5667SOL    HW117900   1.668   5.092   4.468
 5667SOL    HW217901   1.776   5.105   4.591
 5668SOL     OW17902   5.282   2.709   3.798
 5668SOL    HW117903   5.299   2.745   3.890
 5668SOL    HW217904   5.258   2.784   3.737
 5669SOL     OW17905   0.017   3.462   0.035
 5669SOL    HW117906   7.001   3.406   0.109
 5669SOL    HW217907   6.964   3.486   6.993
 5670SOL     OW17908   0.050   3.048   3.563
 5670SOL    HW117909   0.095   2.964   3.593
 5670SOL    HW217910   0.119   3.119   3.546
 5671SOL     OW17911   6.328   6.263   6.473
 5671SOL    HW117912   6.368   6.224   6.556
 5671SOL    HW217913   6.250   6.320   6.498
 5672SOL     OW17914   4.474   3.966   0.215
 5672SOL    HW117915   4.508   3.975   0.122
 5672SOL    HW217916   4.548   3.936   0.275
 5673SOL     OW17917   1.355   0.752   1.933
 5673SOL    HW117918   1.285   0.822   1.949
 5673SOL    HW217919   1.327   0.695   1.855
 5674SOL     OW17920   0.086   4.975   4.963
 5674SOL    HW117921   0.026   5.054   4.948
 5674SOL    HW217922   0.031   4.893   4.975
 5675SOL     OW17923   4.380   2.740   7.011
 5675SOL    HW117924   4.415   2.788   6.931
 5675SOL    HW217925   4.287   2.772   0.010
 5676SOL     OW17926   2.621   2.367   2.587
 5676SOL    HW117927   2.684   2.385   2.512
 5676SOL    HW217928   2.643   2.277   2.627
 5677SOL     OW17929   1.174   1.682   0.158
 5677SOL    HW117930   1.270   1.702   0.177
 5677SOL    HW217931   1.160   1.583   0.158
 5678SOL     OW17932   4.306   6.800   2.690
 5678SOL    HW117933   4.207   6.816   2.691
 5678SOL    HW217934   4.349   6.862   2.756
 5679SOL     OW17935   0.212   0.866   4.212
 5679SOL    HW117936   0.198   0.957   4.173
 5679SOL    HW217937   0.231   0.801   4.138
 5680SOL     OW17938   1.578   5.255   6.290
 5680SOL    HW117939   1.606   5.166   6.254
 5680SOL    HW217940   1.478   5.259   6.295
 5681SOL     OW17941   0.433   4.467   0.743
 5681SOL    HW117942   0.411   4.373   0.719
 5681SOL    HW217943   0.530   4.475   0.766
 5682SOL     OW17944   2.091   5.044   5.107
 5682SOL    HW117945   2.039   4.980   5.163
 5682SOL    HW217946   2.074   5.026   5.010
 5683SOL     OW17947   4.601   1.157   6.217
 5683SOL    HW117948   4.580   1.172   6.120
 5683SOL    HW217949   4.679   1.214   6.242
 5684SOL     OW17950   2.972   3.574   5.390
 5684SOL    HW117951   3.034   3.595   5.466
 5684SOL    HW217952   2.989   3.638   5.315
 5685SOL     OW17953   2.111   2.069   2.661
 5685SOL    HW117954   2.040   1.999   2.660
 5685SOL    HW217955   2.069   2.159   2.657
 5686SOL     OW17956   2.594   1.079   6.597
 5686SOL    HW117957   2.598   1.095   6.695
 5686SOL    HW217958   2.674   1.120   6.553
 5687SOL     OW17959   1.063   5.064   0.421
 5687SOL    HW117960   1.114   5.135   0.470
 5687SOL    HW217961   0.974   5.100   0.393
 5688SOL     OW17962   0.454   2.547   1.551
 5688SOL    HW117963   0.363   2.583   1.572
 5688SOL    HW217964   0.464   2.456   1.589
 5689SOL     OW17965   3.228   1.595   0.800
 5689SOL    HW117966   3.296   1.599   0.873
 5689SOL    HW217967   3.270   1.618   0.713
 5690SOL     OW17968   2.517   5.939   6.993
 5690SOL    HW117969   2.531   5.890   6.907
 5690SOL    HW217970   2.481   5.876   0.041
 5691SOL     OW17971   3.415   0.212   2.361
 5691SOL    HW117972   3.327   0.192   2.404
 5691SOL    HW217973   3.472   0.264   2.424
 5692SOL     OW17974   5.558   3.626   0.859
 5692SOL    HW117975   5.472   3.677   0.866
 5692SOL    HW217976   5.563   3.559   0.933
 5693SOL     OW17977   4.950   2.019   2.920
 5693SOL    HW117978   4.927   2.068   3.005
 5693SOL    HW217979   5.044   1.988   2.925
 5694SOL     OW17980   1.023   1.792   3.289
 5694SOL    HW117981   1.021   1.728   3.366
 5694SOL    HW217982   1.108   1.779   3.237
 5695SOL     OW17983   1.709   1.976   2.999
 5695SOL    HW117984   1.695   1.888   2.954
 5695SOL    HW217985   1.622   2.023   3.008
 5696SOL     OW17986   0.590   0.915   2.914
 5696SOL    HW117987   0.632   0.997   2.876
 5696SOL    HW217988   0.625   0.899   3.006
 5697SOL     OW17989   5.563   2.382   0.894
 5697SOL    HW117990   5.608   2.467   0.920
 5697SOL    HW217991   5.570   2.316   0.968
 5698SOL     OW17992   1.379   4.769   4.060
 5698SOL    HW117993   1.420   4.768   4.151
 5698SOL    HW217994   1.431   4.709   3.999
 5699SOL     OW17995   0.673   2.735   3.148
 5699SOL    HW117996   0.594   2.788   3.179
 5699SOL    HW217997   0.743   2.734   3.219
 5700SOL     OW17998   6.567   6.812   3.111
 5700SOL    HW117999   6.576   6.774   3.203
 5700SOL    HW218000   6.635   6.883   3.097
 5701SOL     OW18001   1.651   0.580   1.633
 5701SOL    HW118002   1.553   0.589   1.653
 5701SOL    HW218003   1.688   0.670   1.608
 5702SOL     OW18004   2.764   5.525   4.175
 5702SOL    HW118005   2.787   5.527   4.078
 5702SOL    HW218006   2.795   5.438   4.215
 5703SOL     OW18007   6.425   4.425   1.728
 5703SOL    HW118008   6.521   4.401   1.719
 5703SOL    HW218009   6.370   4.341   1.725
 5704SOL     OW18010   4.751   4.574   2.858
 5704SOL    HW118011   4.801   4.523   2.928
 5704SOL    HW218012   4.653   4.568   2.876
 5705SOL     OW18013   4.975   6.957   0.014
 5705SOL    HW118014   4.899   6.906   0.056
 5705SOL    HW218015   5.049   6.895   7.013
 5706SOL     OW18016   6.861   3.914   1.483
 5706SOL    HW118017   6.892   4.005   1.454
 5706SOL    HW218018   6.859   3.910   1.583
 5707SOL     OW18019   0.253   6.265   0.149
 5707SOL    HW118020   0.243   6.264   0.049
 5707SOL    HW218021   0.344   6.298   0.173
 5708SOL     OW18022   5.121   5.238   1.863
 5708SOL    HW118023   5.038   5.270   1.818
 5708SOL    HW218024   5.120   5.265   1.960
 5709SOL     OW18025   1.406   0.911   2.295
 5709SOL    HW118026   1.451   0.822   2.288
 5709SOL    HW218027   1.387   0.931   2.391
 5710SOL     OW18028   2.278   2.640   1.001
 5710SOL    HW118029   2.199   2.578   1.002
 5710SOL    HW218030   2.247   2.733   1.019
 5711SOL     OW18031   5.262   0.796   2.969
 5711SOL    HW118032   5.227   0.702   2.978
 5711SOL    HW218033   5.362   0.794   2.970
 5712SOL     OW18034   6.503   0.691   6.447
 5712SOL    HW118035   6.411   0.700   6.485
 5712SOL    HW218036   6.557   0.772   6.469
 5713SOL     OW18037   3.545   2.897   1.880
 5713SOL    HW118038   3.593   2.811   1.898
 5713SOL    HW218039   3.447   2.879   1.872
 5714SOL     OW18040   0.353   5.692   0.480
 5714SOL    HW118041   0.378   5.690   0.384
 5714SOL    HW218042   0.354   5.599   0.517
 5715SOL     OW18043   1.206   0.532   2.810
 5715SOL    HW118044   1.258   0.534   2.895
 5715SOL    HW218045   1.267   0.552   2.733
 5716SOL     OW18046   1.554   4.792   6.384
 5716SOL    HW118047   1.595   4.719   6.439
 5716SOL    HW218048   1.615   4.814   6.308
 5717SOL     OW18049   1.722   4.814   1.158
 5717SOL    HW118050   1.648   4.841   1.095
 5717SOL    HW218051   1.765   4.731   1.123
 5718SOL     OW18052   0.114   3.668   5.807
 5718SOL    HW118053   0.117   3.690   5.904
 5718SOL    HW218054   0.044   3.599   5.790
 5719SOL     OW18055   2.794   2.372   6.396
 5719SOL    HW118056   2.861   2.375   6.470
 5719SOL    HW218057   2.702   2.377   6.435
 5720SOL     OW18058   1.916   6.052   4.675
 5720SOL    HW118059   1.890   5.967   4.630
 5720SOL    HW218060   2.009   6.044   4.711
 5721SOL     OW18061   6.620   3.098   1.007
 5721SOL    HW118062   6.718   3.085   1.013
 5721SOL    HW218063   6.574   3.042   1.076
 5722SOL     OW18064   0.080   1.656   5.107
 5722SOL    HW118065   0.174   1.638   5.078
 5722SOL    HW218066   0.017   1.630   5.034
 5723SOL     OW18067   5.111   2.933   0.542
 5723SOL    HW118068   5.093   2.907   0.447
 5723SOL    HW218069   5.024   2.948   0.589
 5724SOL     OW18070   5.437   2.996   4.884
 5724SOL    HW118071   5.391   2.924   4.832
 5724SOL    HW218072   5.406   3.086   4.853
 5725SOL     OW18073   5.391   5.493   4.590
 5725SOL    HW118074   5.389   5.413   4.650
 5725SOL    HW218075   5.441   5.567   4.636
 5726SOL     OW18076   0.111   5.284   4.253
 5726SOL    HW118077   0.106   5.186   4.272
 5726SOL    HW218078   0.166   5.329   4.323
 5727SOL     OW18079   0.081   1.735   4.261
 5727SOL    HW118080   7.005   1.749   4.283
 5727SOL    HW218081   0.137   1.762   4.339
 5728SOL     OW18082   3.829   0.416   6.106
 5728SOL    HW118083   3.928   0.418   6.092
 5728SOL    HW218084   3.795   0.324   6.087
 5729SOL     OW18085   1.360   0.953   0.787
 5729SOL    HW118086   1.305   0.926   0.709
 5729SOL    HW218087   1.316   0.923   0.872
 5730SOL     OW18088   5.287   5.114   6.533
 5730SOL    HW118089   5.354   5.187   6.522
 5730SOL    HW218090   5.200   5.152   6.564
 5731SOL     OW18091   0.199   6.544   3.889
 5731SOL    HW118092   0.160   6.636   3.900
 5731SOL    HW218093   0.230   6.532   3.795
 5732SOL     OW18094   6.658   5.525   4.610
 5732SOL    HW118095   6.673   5.508   4.512
 5732SOL    HW218096   6.567   5.564   4.624
 5733SOL     OW18097   4.232   6.633   5.815
 5733SOL    HW118098   4.256   6.718   5.767
 5733SOL    HW218099   4.289   6.558   5.780
 5734SOL     OW18100   1.166   6.719   5.299
 5734SOL    HW118101   1.145   6.789   5.230
 5734SOL    HW218102   1.194   6.763   5.384
 5735SOL     OW18103   4.444   1.790   1.534
 5735SOL    HW118104   4.350   1.788   1.502
 5735SOL    HW218105   4.447   1.828   1.627
 5736SOL     OW18106   6.381   3.815   0.170
 5736SOL    HW118107   6.302   3.756   0.184
 5736SOL    HW218108   6.376   3.893   0.232
 5737SOL     OW18109   5.743   6.916   1.308
 5737SOL    HW118110   5.842   6.925   1.295
 5737SOL    HW218111   5.719   6.947   1.400
 5738SOL     OW18112   2.442   2.331   5.803
 5738SOL    HW118113   2.451   2.232   5.791
 5738SOL    HW218114   2.498   2.378   5.735
 5739SOL     OW18115   1.490   0.264   5.880
 5739SOL    HW118116   1.421   0.195   5.899
 5739SOL    HW218117   1.445   0.351   5.857
 5740SOL     OW18118   4.252   3.671   1.120
 5740SOL    HW118119   4.281   3.758   1.160
 5740SOL    HW218120   4.226   3.685   1.025
 5741SOL     OW18121   0.877   4.398   4.310
 5741SOL    HW118122   0.926   4.313   4.328
 5741SOL    HW218123   0.795   4.403   4.367
 5742SOL     OW18124   5.243   6.969   1.997
 5742SOL    HW118125   5.177   6.913   1.947
 5742SOL    HW218126   5.265   0.030   1.944
 5743SOL     OW18127   2.441   5.247   5.111
 5743SOL    HW118128   2.478   5.307   5.182
 5743SOL    HW218129   2.348   5.276   5.088
 5744SOL     OW18130   4.779   1.040   1.807
 5744SOL    HW118131   4.727   1.120   1.777
 5744SOL    HW218132   4.796   0.980   1.729
 5745SOL     OW18133   2.333   0.994   4.049
 5745SOL    HW118134   2.298   1.064   3.987
 5745SOL    HW218135   2.265   0.922   4.061
 5746SOL     OW18136   6.012   6.864   1.442
 5746SOL    HW118137   5.926   6.864   1.494
 5746SOL    HW218138   6.041   6.958   1.427
 5747SOL     OW18139   6.661   4.757   2.681
 5747SOL    HW118140   6.708   4.683   2.730
 5747SOL    HW218141   6.721   4.837   2.676
 5748SOL     OW18142   1.866   6.001   1.195
 5748SOL    HW118143   1.951   5.949   1.195
 5748SOL    HW218144   1.794   5.946   1.153
 5749SOL     OW18145   1.767   0.529   4.976
 5749SOL    HW118146   1.808   0.620   4.985
 5749SOL    HW218147   1.837   0.459   4.984
 5750SOL     OW18148   4.803   6.247   4.678
 5750SOL    HW118149   4.767   6.168   4.629
 5750SOL    HW218150   4.900   6.260   4.654
 5751SOL     OW18151   2.196   3.043   4.826
 5751SOL    HW118152   2.263   3.042   4.900
 5751SOL    HW218153   2.124   3.109   4.847
 5752SOL     OW18154   6.636   1.071   6.847
 5752SOL    HW118155   6.632   0.977   6.882
 5752SOL    HW218156   6.712   1.080   6.783
 5753SOL     OW18157   3.507   3.954   5.491
 5753SOL    HW118158   3.407   3.947   5.484
 5753SOL    HW218159   3.534   3.951   5.587
 5754SOL     OW18160   5.665   4.564   1.596
 5754SOL    HW118161   5.761   4.551   1.570
 5754SOL    HW218162   5.638   4.658   1.577
 5755SOL     OW18163   2.270   3.581   6.235
 5755SOL    HW118164   2.263   3.577   6.135
 5755SOL    HW218165   2.318   3.500   6.269
 5756SOL     OW18166   6.070   6.402   3.997
 5756SOL    HW118167   6.053   6.459   3.917
 5756SOL    HW218168   5.993   6.339   4.010
 5757SOL     OW18169   6.908   6.482   2.608
 5757SOL    HW118170   6.834   6.489   2.675
 5757SOL    HW218171   6.921   6.387   2.581
 5758SOL     OW18172   2.435   0.908   4.297
 5758SOL    HW118173   2.528   0.877   4.316
 5758SOL    HW218174   2.425   0.925   4.199
 5759SOL     OW18175   5.086   1.497   6.654
 5759SOL    HW118176   5.104   1.574   6.715
 5759SOL    HW218177   5.128   1.414   6.689
 5760SOL     OW18178   1.033   4.798   1.151
 5760SOL    HW118179   1.076   4.758   1.070
 5760SOL    HW218180   1.062   4.747   1.232
 5761SOL     OW18181   5.651   0.031   6.228
 5761SOL    HW118182   5.598   0.086   6.164
 5761SOL    HW218183   5.625   6.956   6.219
 5762SOL     OW18184   4.567   6.447   0.291
 5762SOL    HW118185   4.533   6.377   0.354
 5762SOL    HW218186   4.656   6.479   0.323
 5763SOL     OW18187   0.149   0.610   0.310
 5763SOL    HW118188   0.247   0.591   0.320
 5763SOL    HW218189   0.136   0.694   0.258
 5764SOL     OW18190   4.284   4.692   6.173
 5764SOL    HW118191   4.274   4.594   6.192
 5764SOL    HW218192   4.266   4.744   6.256
 5765SOL     OW18193   6.712   4.457   6.493
 5765SOL    HW118194   6.657   4.431   6.572
 5765SOL    HW218195   6.709   4.383   6.425
 5766SOL     OW18196   2.684   2.373   0.530
 5766SOL    HW118197   2.613   2.400   0.595
 5766SOL    HW218198   2.661   2.408   0.439
 5767SOL     OW18199   2.575   6.489   0.435
 5767SOL    HW118200   2.602   6.553   0.506
 5767SOL    HW218201   2.496   6.524   0.385
 5768SOL     OW18202   0.597   0.219   2.836
 5768SOL    HW118203   0.584   0.196   2.739
 5768SOL    HW218204   0.517   0.191   2.888
 5769SOL     OW18205   2.400   6.307   4.378
 5769SOL    HW118206   2.453   6.328   4.296
 5769SOL    HW218207   2.326   6.374   4.389
 5770SOL     OW18208   6.137   0.537   6.566
 5770SOL    HW118209   6.178   0.465   6.510
 5770SOL    HW218210   6.039   0.544   6.545
 5771SOL     OW18211   0.940   6.062   2.816
 5771SOL    HW118212   1.005   6.017   2.876
 5771SOL    HW218213   0.877   6.118   2.870
 5772SOL     OW18214   6.581   2.629   0.050
 5772SOL    HW118215   6.557   2.634   0.147
 5772SOL    HW218216   6.651   2.697   0.029
 5773SOL     OW18217   5.118   1.128   4.149
 5773SOL    HW118218   5.066   1.158   4.069
 5773SOL    HW218219   5.166   1.206   4.189
 5774SOL     OW18220   2.798   5.256   3.651
 5774SOL    HW118221   2.779   5.164   3.686
 5774SOL    HW218222   2.719   5.315   3.667
 5775SOL     OW18223   1.875   0.388   1.797
 5775SOL    HW118224   1.860   0.317   1.729
 5775SOL    HW218225   1.787   0.430   1.822
 5776SOL     OW18226   6.957   1.115   6.244
 5776SOL    HW118227   6.961   1.091   6.148
 5776SOL    HW218228   6.874   1.169   6.261
 5777SOL     OW18229   6.292   0.804   4.211
 5777SOL    HW118230   6.334   0.780   4.298
 5777SOL    HW218231   6.284   0.722   4.154
 5778SOL     OW18232   1.941   0.104   1.356
 5778SOL    HW118233   1.954   0.181   1.293
 5778SOL    HW218234   1.906   0.138   1.443
 5779SOL     OW18235   4.271   0.878   0.581
 5779SOL    HW118236   4.281   0.834   0.492
 5779SOL    HW218237   4.232   0.813   0.646
 5780SOL     OW18238   5.554   5.671   2.966
 5780SOL    HW118239   5.627   5.622   3.012
 5780SOL    HW218240   5.589   5.714   2.883
 5781SOL     OW18241   1.145   3.990   4.346
 5781SOL    HW118242   1.169   3.900   4.310
 5781SOL    HW218243   1.225   4.050   4.344
 5782SOL     OW18244   1.623   1.253   0.953
 5782SOL    HW118245   1.536   1.208   0.975
 5782SOL    HW218246   1.682   1.254   1.034
 5783SOL     OW18247   2.110   1.135   0.921
 5783SOL    HW118248   2.039   1.205   0.927
 5783SOL    HW218249   2.181   1.154   0.989
 5784SOL     OW18250   0.319   6.652   6.604
 5784SOL    HW118251   0.364   6.602   6.678
 5784SOL    HW218252   0.229   6.684   6.636
 5785SOL     OW18253   2.259   1.953   1.313
 5785SOL    HW118254   2.273   2.014   1.391
 5785SOL    HW218255   2.175   1.901   1.326
 5786SOL     OW18256   0.970   4.302   0.855
 5786SOL    HW118257   1.067   4.293   0.833
 5786SOL    HW218258   0.916   4.291   0.772
 5787SOL     OW18259   4.577   2.589   4.821
 5787SOL    HW118260   4.668   2.549   4.833
 5787SOL    HW218261   4.556   2.594   4.723
 5788SOL     OW18262   3.370   0.499   1.641
 5788SOL    HW118263   3.452   0.518   1.693
 5788SOL    HW218264   3.363   0.401   1.624
 5789SOL     OW18265   3.189   3.032   6.107
 5789SOL    HW118266   3.183   2.961   6.037
 5789SOL    HW218267   3.281   3.071   6.107
 5790SOL     OW18268   6.948   5.184   5.002
 5790SOL    HW118269   6.906   5.121   5.067
 5790SOL    HW218270   6.920   5.278   5.024
 5791SOL     OW18271   2.784   1.958   2.434
 5791SOL    HW118272   2.761   1.863   2.454
 5791SOL    HW218273   2.797   1.969   2.335
 5792SOL     OW18274   5.215   3.955   2.508
 5792SOL    HW118275   5.224   4.009   2.424
 5792SOL    HW218276   5.254   3.864   2.493
 5793SOL     OW18277   5.606   0.648   4.961
 5793SOL    HW118278   5.522   0.620   5.008
 5793SOL    HW218279   5.625   0.745   4.981
 5794SOL     OW18280   3.308   0.015   6.649
 5794SOL    HW118281   3.354   0.007   6.737
 5794SOL    HW218282   3.259   6.951   6.629
 5795SOL     OW18283   0.128   0.022   0.826
 5795SOL    HW118284   0.173   0.096   0.775
 5795SOL    HW218285   0.048   7.012   0.776
 5796SOL     OW18286   4.556   0.701   6.584
 5796SOL    HW118287   4.581   0.632   6.516
 5796SOL    HW218288   4.460   0.726   6.573
 5797SOL     OW18289   5.363   1.326   0.617
 5797SOL    HW118290   5.300   1.253   0.592
 5797SOL    HW218291   5.313   1.413   0.619
 5798SOL     OW18292   0.193   3.821   4.244
 5798SOL    HW118293   0.161   3.727   4.232
 5798SOL    HW218294   0.285   3.830   4.206
 5799SOL     OW18295   0.203   0.398   3.750
 5799SOL    HW118296   0.254   0.480   3.723
 5799SOL    HW218297   0.200   0.335   3.673
 5800SOL     OW18298   0.733   0.146   1.574
 5800SOL    HW118299   0.636   0.134   1.593
 5800SOL    HW218300   0.785   0.137   1.659
 5801SOL     OW18301   2.227   2.558   3.698
 5801SOL    HW118302   2.246   2.526   3.791
 5801SOL    HW218303   2.298   2.523   3.636
 5802SOL     OW18304   6.439   3.382   2.373
 5802SOL    HW118305   6.392   3.304   2.331
 5802SOL    HW218306   6.385   3.416   2.450
 5803SOL     OW18307   1.490   5.285   3.919
 5803SOL    HW118308   1.432   5.362   3.894
 5803SOL    HW218309   1.488   5.217   3.845
 5804SOL     OW18310   6.589   5.933   3.646
 5804SOL    HW118311   6.627   5.987   3.571
 5804SOL    HW218312   6.555   5.996   3.717
 5805SOL     OW18313   1.084   2.725   0.735
 5805SOL    HW118314   1.018   2.723   0.809
 5805SOL    HW218315   1.067   2.649   0.673
 5806SOL     OW18316   6.890   4.785   4.982
 5806SOL    HW118317   6.884   4.719   4.907
 5806SOL    HW218318   6.798   4.814   5.009
 5807SOL     OW18319   1.413   5.419   1.123
 5807SOL    HW118320   1.424   5.353   1.197
 5807SOL    HW218321   1.329   5.472   1.138
 5808SOL     OW18322   6.623   0.045   4.755
 5808SOL    HW118323   6.686   0.079   4.684
 5808SOL    HW218324   6.673   7.008   4.819
 5809SOL     OW18325   6.215   2.376   5.374
 5809SOL    HW118326   6.123   2.344   5.398
 5809SOL    HW218327   6.229   2.467   5.412
 5810SOL     OW18328   4.105   1.439   5.839
 5810SOL    HW118329   4.149   1.480   5.919
 5810SOL    HW218330   4.043   1.505   5.797
 5811SOL     OW18331   2.870   1.960   5.531
 5811SOL    HW118332   2.862   1.891   5.603
 5811SOL    HW218333   2.915   1.920   5.451
 5812SOL     OW18334   4.848   3.518   6.133
 5812SOL    HW118335   4.756   3.520   6.170
 5812SOL    HW218336   4.846   3.487   6.038
 5813SOL     OW18337   2.644   6.994   0.824
 5813SOL    HW118338   2.596   6.951   0.748
 5813SOL    HW218339   2.720   6.936   0.853
 5814SOL     OW18340   0.095   2.832   1.863
 5814SOL    HW118341   0.129   2.839   1.957
 5814SOL    HW218342   0.149   2.892   1.803
 5815SOL     OW18343   4.927   1.931   4.174
 5815SOL    HW118344   4.934   1.901   4.078
 5815SOL    HW218345   5.005   1.990   4.195
 5816SOL     OW18346   6.248   4.790   0.789
 5816SOL    HW118347   6.252   4.799   0.690
 5816SOL    HW218348   6.329   4.741   0.822
 5817SOL     OW18349   5.969   5.354   5.836
 5817SOL    HW118350   5.876   5.324   5.815
 5817SOL    HW218351   6.029   5.337   5.758
 5818SOL     OW18352   6.780   5.765   5.270
 5818SOL    HW118353   6.856   5.705   5.295
 5818SOL    HW218354   6.810   5.828   5.198
 5819SOL     OW18355   3.067   5.280   6.706
 5819SOL    HW118356   3.101   5.342   6.776
 5819SOL    HW218357   2.974   5.250   6.729
 5820SOL     OW18358   4.276   4.651   2.550
 5820SOL    HW118359   4.177   4.659   2.540
 5820SOL    HW218360   4.316   4.619   2.464
 5821SOL     OW18361   6.741   0.911   1.561
 5821SOL    HW118362   6.823   0.941   1.511
 5821SOL    HW218363   6.729   0.813   1.550
 5822SOL     OW18364   1.544   2.667   1.794
 5822SOL    HW118365   1.589   2.631   1.712
 5822SOL    HW218366   1.460   2.615   1.811
 5823SOL     OW18367   2.669   6.785   4.940
 5823SOL    HW118368   2.732   6.845   4.891
 5823SOL    HW218369   2.693   6.785   5.037
 5824SOL     OW18370   0.567   6.248   3.379
 5824SOL    HW118371   0.514   6.318   3.428
 5824SOL    HW218372   0.505   6.192   3.324
 5825SOL     OW18373   0.185   6.179   5.306
 5825SOL    HW118374   0.244   6.221   5.236
 5825SOL    HW218375   0.235   6.174   5.392
 5826SOL     OW18376   0.640   6.263   6.001
 5826SOL    HW118377   0.653   6.354   5.960
 5826SOL    HW218378   0.704   6.199   5.959
 5827SOL     OW18379   1.276   3.323   4.969
 5827SOL    HW118380   1.312   3.284   4.884
 5827SOL    HW218381   1.191   3.372   4.950
 5828SOL     OW18382   4.698   1.384   2.900
 5828SOL    HW118383   4.637   1.448   2.855
 5828SOL    HW218384   4.729   1.314   2.835
 5829SOL     OW18385   1.465   0.715   4.735
 5829SOL    HW118386   1.525   0.776   4.787
 5829SOL    HW218387   1.370   0.738   4.754
 5830SOL     OW18388   4.613   0.026   5.337
 5830SOL    HW118389   4.643   0.095   5.271
 5830SOL    HW218390   4.693   7.008   5.382
 5831SOL     OW18391   1.501   1.242   5.943
 5831SOL    HW118392   1.510   1.212   5.848
 5831SOL    HW218393   1.591   1.267   5.979
 5832SOL     OW18394   3.728   4.101   0.573
 5832SOL    HW118395   3.756   4.197   0.578
 5832SOL    HW218396   3.643   4.094   0.521
 5833SOL     OW18397   3.896   3.138   5.420
 5833SOL    HW118398   3.886   3.201   5.497
 5833SOL    HW218399   3.985   3.150   5.377
 5834SOL     OW18400   6.662   4.236   6.347
 5834SOL    HW118401   6.651   4.288   6.262
 5834SOL    HW218402   6.591   4.166   6.352
 5835SOL     OW18403   5.974   2.066   2.809
 5835SOL    HW118404   5.906   2.116   2.755
 5835SOL    HW218405   5.989   1.976   2.768
 5836SOL     OW18406   2.895   6.644   2.160
 5836SOL    HW118407   2.853   6.729   2.192
 5836SOL    HW218408   2.979   6.665   2.110
 5837SOL     OW18409   3.791   3.269   6.875
 5837SOL    HW118410   3.711   3.330   6.876
 5837SOL    HW218411   3.792   3.215   6.959
 5838SOL     OW18412   2.953   1.882   1.649
 5838SOL    HW118413   2.933   1.802   1.705
 5838SOL    HW218414   3.043   1.918   1.673
 5839SOL     OW18415   0.763   2.152   0.645
 5839SOL    HW118416   0.822   2.084   0.689
 5839SOL    HW218417   0.670   2.117   0.639
 5840SOL     OW18418   0.390   3.933   0.531
 5840SOL    HW118419   0.418   3.839   0.551
 5840SOL    HW218420   0.339   3.934   0.445
 5841SOL     OW18421   5.208   0.760   1.680
 5841SOL    HW118422   5.112   0.779   1.704
 5841SOL    HW218423   5.214   0.738   1.583
 5842SOL     OW18424   4.839   2.286   2.023
 5842SOL    HW118425   4.819   2.290   1.925
 5842SOL    HW218426   4.766   2.332   2.074
 5843SOL     OW18427   1.342   3.966   1.700
 5843SOL    HW118428   1.360   3.868   1.702
 5843SOL    HW218429   1.303   3.990   1.610
 5844SOL     OW18430   1.250   5.957   5.039
 5844SOL    HW118431   1.282   5.977   5.132
 5844SOL    HW218432   1.310   6.003   4.973
 5845SOL     OW18433   1.298   0.247   1.842
 5845SOL    HW118434   1.291   0.147   1.844
 5845SOL    HW218435   1.270   0.283   1.931
 5846SOL     OW18436   5.450   3.332   5.639
 5846SOL    HW118437   5.438   3.351   5.736
 5846SOL    HW218438   5.361   3.331   5.594
 5847SOL     OW18439   2.682   2.398   1.826
 5847SOL    HW118440   2.670   2.440   1.736
 5847SOL    HW218441   2.774   2.417   1.860
 5848SOL     OW18442   1.642   5.630   3.217
 5848SOL    HW118443   1.734   5.594   3.205
 5848SOL    HW218444   1.640   5.692   3.295
 5849SOL     OW18445   2.073   6.910   5.084
 5849SOL    HW118446   2.087   6.898   4.986
 5849SOL    HW218447   2.031   6.828   5.122
 5850SOL     OW18448   0.149   3.423   2.166
 5850SOL    HW118449   0.077   3.461   2.107
 5850SOL    HW218450   0.125   3.440   2.262
 5851SOL     OW18451   5.255   3.851   4.165
 5851SOL    HW118452   5.224   3.756   4.154
 5851SOL    HW218453   5.280   3.888   4.075
 5852SOL     OW18454   4.860   5.935   2.646
 5852SOL    HW118455   4.889   6.031   2.643
 5852SOL    HW218456   4.767   5.929   2.680
 5853SOL     OW18457   4.358   5.123   5.990
 5853SOL    HW118458   4.270   5.085   5.961
 5853SOL    HW218459   4.429   5.053   5.981
 5854SOL     OW18460   4.306   4.545   5.766
 5854SOL    HW118461   4.327   4.477   5.696
 5854SOL    HW218462   4.389   4.595   5.789
 5855SOL     OW18463   1.191   1.582   4.857
 5855SOL    HW118464   1.213   1.524   4.778
 5855SOL    HW218465   1.092   1.593   4.863
 5856SOL     OW18466   1.237   6.530   3.023
 5856SOL    HW118467   1.316   6.563   3.075
 5856SOL    HW218468   1.159   6.519   3.085
 5857SOL     OW18469   6.564   3.655   5.503
 5857SOL    HW118470   6.576   3.579   5.439
 5857SOL    HW218471   6.505   3.627   5.578
 5858SOL     OW18472   2.323   2.548   3.203
 5858SOL    HW118473   2.381   2.597   3.138
 5858SOL    HW218474   2.330   2.450   3.185
 5859SOL     OW18475   6.329   6.215   1.217
 5859SOL    HW118476   6.327   6.117   1.238
 5859SOL    HW218477   6.255   6.261   1.266
 5860SOL     OW18478   0.587   5.025   2.954
 5860SOL    HW118479   0.650   5.054   2.882
 5860SOL    HW218480   0.500   5.073   2.944
 5861SOL     OW18481   5.161   0.883   4.323
 5861SOL    HW118482   5.254   0.850   4.310
 5861SOL    HW218483   5.145   0.964   4.266
 5862SOL     OW18484   6.148   5.210   1.803
 5862SOL    HW118485   6.120   5.156   1.724
 5862SOL    HW218486   6.220   5.160   1.852
 5863SOL     OW18487   2.876   1.953   4.622
 5863SOL    HW118488   2.804   1.886   4.639
 5863SOL    HW218489   2.914   1.984   4.710
 5864SOL     OW18490   3.449   3.232   2.071
 5864SOL    HW118491   3.425   3.175   2.150
 5864SOL    HW218492   3.406   3.321   2.081
 5865SOL     OW18493   5.631   0.907   5.078
 5865SOL    HW118494   5.730   0.913   5.093
 5865SOL    HW218495   5.583   0.941   5.159
 5866SOL     OW18496   2.980   2.928   1.183
 5866SOL    HW118497   2.933   3.008   1.221
 5866SOL    HW218498   2.939   2.845   1.221
 5867SOL     OW18499   1.591   3.042   1.485
 5867SOL    HW118500   1.519   3.028   1.553
 5867SOL    HW218501   1.650   3.117   1.515
 5868SOL     OW18502   1.209   1.521   5.986
 5868SOL    HW118503   1.222   1.458   5.910
 5868SOL    HW218504   1.289   1.580   5.995
 5869SOL     OW18505   1.731   4.536   2.840
 5869SOL    HW118506   1.645   4.485   2.842
 5869SOL    HW218507   1.760   4.557   2.934
 5870SOL     OW18508   4.610   6.272   5.166
 5870SOL    HW118509   4.549   6.205   5.125
 5870SOL    HW218510   4.705   6.247   5.147
 5871SOL     OW18511   3.793   3.080   1.848
 5871SOL    HW118512   3.806   3.111   1.754
 5871SOL    HW218513   3.706   3.031   1.855
 5872SOL     OW18514   4.375   6.989   0.982
 5872SOL    HW118515   4.299   6.986   1.047
 5872SOL    HW218516   4.369   6.911   0.920
 5873SOL     OW18517   3.459   6.430   2.299
 5873SOL    HW118518   3.422   6.494   2.367
 5873SOL    HW218519   3.533   6.377   2.340
 5874SOL     OW18520   2.308   4.332   4.668
 5874SOL    HW118521   2.367   4.369   4.596
 5874SOL    HW218522   2.341   4.363   4.757
 5875SOL     OW18523   3.756   1.829   0.576
 5875SOL    HW118524   3.851   1.843   0.548
 5875SOL    HW218525   3.754   1.768   0.656
 5876SOL     OW18526   3.999   3.495   1.717
 5876SOL    HW118527   3.953   3.515   1.803
 5876SOL    HW218528   4.098   3.498   1.730
 5877SOL     OW18529   6.246   6.445   0.995
 5877SOL    HW118530   6.339   6.480   0.984
 5877SOL    HW218531   6.250   6.347   1.015
 5878SOL     OW18532   0.234   6.080   4.418
 5878SOL    HW118533   0.241   6.091   4.318
 5878SOL    HW218534   0.203   6.166   4.458
 5879SOL     OW18535   1.446   3.872   6.884
 5879SOL    HW118536   1.380   3.888   6.810
 5879SOL    HW218537   1.399   3.879   6.972
 5880SOL     OW18538   4.039   3.918   0.328
 5880SOL    HW118539   4.093   3.904   0.245
 5880SOL    HW218540   4.055   4.011   0.362
 5881SOL     OW18541   0.277   5.423   3.187
 5881SOL    HW118542   0.188   5.388   3.157
 5881SOL    HW218543   0.287   5.519   3.161
 5882SOL     OW18544   0.222   6.348   1.076
 5882SOL    HW118545   0.145   6.320   1.018
 5882SOL    HW218546   0.253   6.269   1.130
 5883SOL     OW18547   0.852   1.806   6.727
 5883SOL    HW118548   0.943   1.775   6.755
 5883SOL    HW218549   0.844   1.801   6.627
 5884SOL     OW18550   2.880   1.631   4.281
 5884SOL    HW118551   2.831   1.705   4.327
 5884SOL    HW218552   2.929   1.668   4.201
 5885SOL     OW18553   0.304   0.386   2.473
 5885SOL    HW118554   0.266   0.294   2.481
 5885SOL    HW218555   0.380   0.396   2.537
 5886SOL     OW18556   0.341   2.394   4.740
 5886SOL    HW118557   0.249   2.357   4.739
 5886SOL    HW218558   0.406   2.323   4.712
 5887SOL     OW18559   2.858   1.250   3.531
 5887SOL    HW118560   2.786   1.268   3.598
 5887SOL    HW218561   2.934   1.203   3.575
 5888SOL     OW18562   3.291   0.894   1.841
 5888SOL    HW118563   3.368   0.948   1.807
 5888SOL    HW218564   3.275   0.914   1.937
 5889SOL     OW18565   1.033   6.280   1.247
 5889SOL    HW118566   0.940   6.250   1.224
 5889SOL    HW218567   1.041   6.379   1.231
 5890SOL     OW18568   1.740   0.218   4.638
 5890SOL    HW118569   1.672   0.255   4.575
 5890SOL    HW218570   1.706   0.223   4.732
 5891SOL     OW18571   2.997   3.193   6.009
 5891SOL    HW118572   2.934   3.145   5.947
 5891SOL    HW218573   3.060   3.127   6.050
 5892SOL     OW18574   0.282   5.688   1.334
 5892SOL    HW118575   0.357   5.641   1.288
 5892SOL    HW218576   0.295   5.680   1.433
 5893SOL     OW18577   1.425   4.290   4.600
 5893SOL    HW118578   1.512   4.295   4.552
 5893SOL    HW218579   1.428   4.349   4.681
 5894SOL     OW18580   6.679   5.562   4.339
 5894SOL    HW118581   6.696   5.652   4.379
 5894SOL    HW218582   6.586   5.557   4.304
 5895SOL     OW18583   5.223   3.471   4.412
 5895SOL    HW118584   5.278   3.417   4.348
 5895SOL    HW218585   5.145   3.417   4.443
 5896SOL     OW18586   4.407   1.144   0.216
 5896SOL    HW118587   4.361   1.181   0.135
 5896SOL    HW218588   4.347   1.153   0.295
 5897SOL     OW18589   3.978   0.615   1.196
 5897SOL    HW118590   3.998   0.680   1.269
 5897SOL    HW218591   3.907   0.551   1.227
 5898SOL     OW18592   2.462   6.587   2.988
 5898SOL    HW118593   2.388   6.531   3.028
 5898SOL    HW218594   2.497   6.542   2.906
 5899SOL     OW18595   5.111   6.629   5.775
 5899SOL    HW118596   5.077   6.645   5.868
 5899SOL    HW218597   5.202   6.589   5.779
 5900SOL     OW18598   5.089   5.006   3.542
 5900SOL    HW118599   5.054   5.099   3.548
 5900SOL    HW218600   5.060   4.965   3.455
 5901SOL     OW18601   2.484   0.398   0.100
 5901SOL    HW118602   2.394   0.357   0.113
 5901SOL    HW218603   2.555   0.328   0.112
 5902SOL     OW18604   6.756   2.374   6.092
 5902SOL    HW118605   6.696   2.411   6.020
 5902SOL    HW218606   6.807   2.296   6.056
 5903SOL     OW18607   4.071   3.773   0.588
 5903SOL    HW118608   4.064   3.801   0.493
 5903SOL    HW218609   4.037   3.679   0.598
 5904SOL     OW18610   0.936   3.560   2.052
 5904SOL    HW118611   0.895   3.468   2.060
 5904SOL    HW218612   0.866   3.629   2.071
 5905SOL     OW18613   6.299   6.169   3.036
 5905SOL    HW118614   6.226   6.175   2.968
 5905SOL    HW218615   6.259   6.143   3.124
 5906SOL     OW18616   4.412   1.768   3.540
 5906SOL    HW118617   4.319   1.768   3.576
 5906SOL    HW218618   4.425   1.848   3.481
 5907SOL     OW18619   1.428   4.893   1.343
 5907SOL    HW118620   1.457   4.857   1.431
 5907SOL    HW218621   1.486   4.970   1.316
 5908SOL     OW18622   0.405   2.812   6.577
 5908SOL    HW118623   0.484   2.770   6.621
 5908SOL    HW218624   0.424   2.825   6.479
 5909SOL     OW18625   6.704   5.223   0.994
 5909SOL    HW118626   6.801   5.198   0.999
 5909SOL    HW218627   6.652   5.164   1.056
 5910SOL     OW18628   0.354   3.277   3.868
 5910SOL    HW118629   0.340   3.189   3.824
 5910SOL    HW218630   0.338   3.269   3.966
 5911SOL     OW18631   6.196   6.710   6.418
 5911SOL    HW118632   6.174   6.795   6.370
 5911SOL    HW218633   6.192   6.726   6.517
 5912SOL     OW18634   0.091   0.517   5.715
 5912SOL    HW118635   0.188   0.499   5.700
 5912SOL    HW218636   0.044   0.522   5.627
 5913SOL     OW18637   4.859   2.664   6.105
 5913SOL    HW118638   4.857   2.564   6.116
 5913SOL    HW218639   4.903   2.706   6.184
 5914SOL     OW18640   1.402   5.269   0.004
 5914SOL    HW118641   1.473   5.339   7.013
 5914SOL    HW218642   1.316   5.312   0.032
 5915SOL     OW18643   4.483   5.778   1.140
 5915SOL    HW118644   4.539   5.808   1.063
 5915SOL    HW218645   4.503   5.834   1.220
 5916SOL     OW18646   6.173   6.393   3.669
 5916SOL    HW118647   6.250   6.364   3.726
 5916SOL    HW218648   6.191   6.368   3.574
 5917SOL     OW18649   3.400   4.185   4.266
 5917SOL    HW118650   3.363   4.272   4.235
 5917SOL    HW218651   3.392   4.179   4.366
 5918SOL     OW18652   2.335   4.621   5.292
 5918SOL    HW118653   2.296   4.547   5.347
 5918SOL    HW218654   2.423   4.592   5.255
 5919SOL     OW18655   3.767   3.049   3.135
 5919SOL    HW118656   3.767   3.027   3.232
 5919SOL    HW218657   3.860   3.049   3.100
 5920SOL     OW18658   4.996   0.735   6.169
 5920SOL    HW118659   5.036   0.769   6.084
 5920SOL    HW218660   5.068   0.715   6.235
 5921SOL     OW18661   4.203   5.141   6.595
 5921SOL    HW118662   4.106   5.130   6.572
 5921SOL    HW218663   4.222   5.237   6.613
 5922SOL     OW18664   5.703   3.417   4.085
 5922SOL    HW118665   5.644   3.473   4.144
 5922SOL    HW218666   5.698   3.452   3.991
 5923SOL     OW18667   0.140   1.747   1.723
 5923SOL    HW118668   0.053   1.788   1.753
 5923SOL    HW218669   0.168   1.788   1.636
 5924SOL     OW18670   6.536   0.114   2.709
 5924SOL    HW118671   6.481   0.124   2.792
 5924SOL    HW218672   6.594   0.195   2.697
 5925SOL     OW18673   3.892   6.698   1.567
 5925SOL    HW118674   3.800   6.679   1.534
 5925SOL    HW218675   3.902   6.662   1.660
 5926SOL     OW18676   3.682   5.099   2.528
 5926SOL    HW118677   3.707   5.012   2.570
 5926SOL    HW218678   3.602   5.086   2.470
 5927SOL     OW18679   1.061   4.917   2.280
 5927SOL    HW118680   1.022   4.965   2.359
 5927SOL    HW218681   0.988   4.886   2.220
 5928SOL     OW18682   3.273   6.697   1.005
 5928SOL    HW118683   3.230   6.656   1.085
 5928SOL    HW218684   3.337   6.767   1.034
 5929SOL     OW18685   6.218   0.873   6.157
 5929SOL    HW118686   6.311   0.837   6.154
 5929SOL    HW218687   6.187   0.893   6.063
 5930SOL     OW18688   6.908   3.901   3.273
 5930SOL    HW118689   6.974   3.914   3.199
 5930SOL    HW218690   6.948   3.843   3.343
 5931SOL     OW18691   6.468   6.713   2.830
 5931SOL    HW118692   6.513   6.742   2.914
 5931SOL    HW218693   6.537   6.696   2.759
 5932SOL     OW18694   3.429   6.766   0.772
 5932SOL    HW118695   3.392   6.697   0.709
 5932SOL    HW218696   3.355   6.824   0.805
 5933SOL     OW18697   6.378   5.051   4.119
 5933SOL    HW118698   6.313   5.111   4.071
 5933SOL    HW218699   6.341   5.026   4.208
 5934SOL     OW18700   3.438   2.916   5.132
 5934SOL    HW118701   3.418   2.836   5.190
 5934SOL    HW218702   3.502   2.976   5.180
 5935SOL     OW18703   6.937   5.432   6.254
 5935SOL    HW118704   6.885   5.412   6.171
 5935SOL    HW218705   6.879   5.483   6.318
 5936SOL     OW18706   3.215   2.823   1.324
 5936SOL    HW118707   3.145   2.858   1.262
 5936SOL    HW218708   3.175   2.810   1.415
 5937SOL     OW18709   6.119   3.242   1.795
 5937SOL    HW118710   6.130   3.301   1.875
 5937SOL    HW218711   6.031   3.262   1.751
 5938SOL     OW18712   6.448   5.727   3.638
 5938SOL    HW118713   6.370   5.734   3.702
 5938SOL    HW218714   6.510   5.804   3.654
 5939SOL     OW18715   1.899   5.508   3.242
 5939SOL    HW118716   1.895   5.608   3.242
 5939SOL    HW218717   1.989   5.479   3.211
 5940SOL     OW18718   4.904   5.289   2.531
 5940SOL    HW118719   4.922   5.204   2.481
 5940SOL    HW218720   4.807   5.294   2.555
 5941SOL     OW18721   5.873   3.663   2.245
 5941SOL    HW118722   5.787   3.617   2.261
 5941SOL    HW218723   5.864   3.725   2.167
 5942SOL     OW18724   4.952   3.526   6.854
 5942SOL    HW118725   4.929   3.480   6.769
 5942SOL    HW218726   4.867   3.552   6.902
 5943SOL     OW18727   3.237   4.006   6.048
 5943SOL    HW118728   3.190   3.918   6.034
 5943SOL    HW218729   3.169   4.078   6.061
 5944SOL     OW18730   6.998   2.325   6.953
 5944SOL    HW118731   0.041   2.304   6.879
 5944SOL    HW218732   7.006   2.255   0.004
 5945SOL     OW18733   6.632   4.837   5.059
 5945SOL    HW118734   6.620   4.891   4.976
 5945SOL    HW218735   6.603   4.743   5.042
 5946SOL     OW18736   3.161   3.714   6.025
 5946SOL    HW118737   3.215   3.752   5.949
 5946SOL    HW218738   3.140   3.618   6.006
 5947SOL     OW18739   3.828   3.421   3.149
 5947SOL    HW118740   3.828   3.360   3.069
 5947SOL    HW218741   3.904   3.486   3.142
 5948SOL     OW18742   4.099   4.892   2.713
 5948SOL    HW118743   4.187   4.862   2.748
 5948SOL    HW218744   4.098   4.883   2.613
 5949SOL     OW18745   5.168   4.324   1.733
 5949SOL    HW118746   5.253   4.377   1.726
 5949SOL    HW218747   5.139   4.320   1.829
 5950SOL     OW18748   5.342   1.636   5.072
 5950SOL    HW118749   5.279   1.652   5.148
 5950SOL    HW218750   5.300   1.574   5.006
 5951SOL     OW18751   1.616   5.013   4.336
 5951SOL    HW118752   1.559   5.062   4.270
 5951SOL    HW218753   1.580   4.921   4.350
 5952SOL     OW18754   5.404   5.701   3.683
 5952SOL    HW118755   5.360   5.785   3.650
 5952SOL    HW218756   5.369   5.678   3.774
 5953SOL     OW18757   6.598   3.863   5.071
 5953SOL    HW118758   6.608   3.805   4.990
 5953SOL    HW218759   6.640   3.816   5.150
 5954SOL     OW18760   6.098   5.601   5.811
 5954SOL    HW118761   6.042   5.667   5.760
 5954SOL    HW218762   6.047   5.517   5.824
 5955SOL     OW18763   4.308   5.235   1.926
 5955SOL    HW118764   4.377   5.164   1.911
 5955SOL    HW218765   4.326   5.282   2.012
 5956SOL     OW18766   4.758   2.488   4.269
 5956SOL    HW118767   4.768   2.390   4.254
 5956SOL    HW218768   4.842   2.535   4.241
 5957SOL     OW18769   3.128   1.079   4.709
 5957SOL    HW118770   3.064   1.109   4.637
 5957SOL    HW218771   3.176   0.997   4.678
 5958SOL     OW18772   4.447   0.341   2.767
 5958SOL    HW118773   4.410   0.252   2.792
 5958SOL    HW218774   4.398   0.412   2.818
 5959SOL     OW18775   4.442   2.790   5.558
 5959SOL    HW118776   4.375   2.768   5.487
 5959SOL    HW218777   4.486   2.877   5.537
 5960SOL     OW18778   4.053   5.468   5.132
 5960SOL    HW118779   3.955   5.459   5.111
 5960SOL    HW218780   4.096   5.378   5.129
 5961SOL     OW18781   4.394   2.099   3.094
 5961SOL    HW118782   4.362   2.147   3.012
 5961SOL    HW218783   4.449   2.020   3.067
 5962SOL     OW18784   6.184   6.473   6.584
 5962SOL    HW118785   6.095   6.517   6.593
 5962SOL    HW218786   6.255   6.535   6.619
 5963SOL     OW18787   3.037   3.689   6.315
 5963SOL    HW118788   3.096   3.716   6.391
 5963SOL    HW218789   3.054   3.593   6.293
 5964SOL     OW18790   1.199   6.694   4.930
 5964SOL    HW118791   1.275   6.734   4.982
 5964SOL    HW218792   1.171   6.758   4.858
 5965SOL     OW18793   1.867   1.637   6.993
 5965SOL    HW118794   1.869   1.574   0.050
 5965SOL    HW218795   1.773   1.666   6.976
 5966SOL     OW18796   2.614   5.866   6.094
 5966SOL    HW118797   2.577   5.959   6.094
 5966SOL    HW218798   2.713   5.869   6.084
 5967SOL     OW18799   2.780   0.082   6.110
 5967SOL    HW118800   2.696   0.137   6.106
 5967SOL    HW218801   2.760   7.011   6.076
 5968SOL     OW18802   5.304   2.301   0.278
 5968SOL    HW118803   5.396   2.277   0.307
 5968SOL    HW218804   5.243   2.298   0.357
 5969SOL     OW18805   5.882   0.442   6.751
 5969SOL    HW118806   5.832   0.528   6.757
 5969SOL    HW218807   5.967   0.455   6.701
 5970SOL     OW18808   0.238   4.458   2.345
 5970SOL    HW118809   0.275   4.416   2.428
 5970SOL    HW218810   0.271   4.408   2.265
 5971SOL     OW18811   0.160   1.242   1.953
 5971SOL    HW118812   0.150   1.180   2.031
 5971SOL    HW218813   0.070   1.264   1.915
 5972SOL     OW18814   4.865   6.111   6.612
 5972SOL    HW118815   4.793   6.095   6.679
 5972SOL    HW218816   4.892   6.024   6.571
 5973SOL     OW18817   1.796   3.044   1.856
 5973SOL    HW118818   1.865   3.026   1.925
 5973SOL    HW218819   1.714   2.991   1.876
 5974SOL     OW18820   5.511   5.836   0.162
 5974SOL    HW118821   5.525   5.935   0.171
 5974SOL    HW218822   5.448   5.818   0.087
 5975SOL     OW18823   3.797   6.865   0.797
 5975SOL    HW118824   3.870   6.866   0.728
 5975SOL    HW218825   3.739   6.785   0.781
 5976SOL     OW18826   3.910   2.598   6.164
 5976SOL    HW118827   3.963   2.648   6.232
 5976SOL    HW218828   3.869   2.664   6.100
 5977SOL     OW18829   1.214   6.610   0.810
 5977SOL    HW118830   1.201   6.660   0.895
 5977SOL    HW218831   1.131   6.619   0.754
 5978SOL     OW18832   3.826   5.376   0.964
 5978SOL    HW118833   3.823   5.473   0.939
 5978SOL    HW218834   3.738   5.333   0.941
 5979SOL     OW18835   6.414   0.759   2.932
 5979SOL    HW118836   6.377   0.750   3.024
 5979SOL    HW218837   6.373   0.690   2.872
 5980SOL     OW18838   3.890   3.911   1.781
 5980SOL    HW118839   3.924   3.897   1.687
 5980SOL    HW218840   3.849   4.001   1.788
 5981SOL     OW18841   5.117   2.014   0.642
 5981SOL    HW118842   5.075   1.923   0.646
 5981SOL    HW218843   5.129   2.041   0.546
 5982SOL     OW18844   6.325   2.225   1.971
 5982SOL    HW118845   6.320   2.144   1.911
 5982SOL    HW218846   6.362   2.198   2.060
 5983SOL     OW18847   1.194   1.197   4.183
 5983SOL    HW118848   1.096   1.183   4.192
 5983SOL    HW218849   1.242   1.146   4.254
 5984SOL     OW18850   5.624   6.018   3.446
 5984SOL    HW118851   5.680   5.992   3.525
 5984SOL    HW218852   5.616   5.940   3.383
 5985SOL     OW18853   6.534   3.030   3.763
 5985SOL    HW118854   6.623   3.074   3.751
 5985SOL    HW218855   6.542   2.933   3.739
 5986SOL     OW18856   3.012   4.010   4.485
 5986SOL    HW118857   2.981   3.962   4.567
 5986SOL    HW218858   3.058   4.095   4.511
 5987SOL     OW18859   5.702   0.517   4.183
 5987SOL    HW118860   5.695   0.457   4.103
 5987SOL    HW218861   5.668   0.608   4.159
 5988SOL     OW18862   4.331   0.915   5.569
 5988SOL    HW118863   4.319   0.948   5.475
 5988SOL    HW218864   4.383   0.983   5.622
 5989SOL     OW18865   1.958   5.846   6.333
 5989SOL    HW118866   1.969   5.761   6.282
 5989SOL    HW218867   1.884   5.900   6.293
 5990SOL     OW18868   3.180   3.288   0.702
 5990SOL    HW118869   3.153   3.342   0.622
 5990SOL    HW218870   3.279   3.272   0.699
 5991SOL     OW18871   4.353   5.504   0.005
 5991SOL    HW118872   4.258   5.481   0.027
 5991SOL    HW218873   4.355   5.572   6.952
 5992SOL     OW18874   3.394   0.085   2.131
 5992SOL    HW118875   3.404   0.142   2.213
 5992SOL    HW218876   3.304   0.041   2.133
 5993SOL     OW18877   3.771   4.155   5.976
 5993SOL    HW118878   3.741   4.062   5.996
 5993SOL    HW218879   3.693   4.209   5.944
 5994SOL     OW18880   6.705   2.274   0.286
 5994SOL    HW118881   6.710   2.205   0.358
 5994SOL    HW218882   6.787   2.330   0.287
 5995SOL     OW18883   4.867   3.233   2.557
 5995SOL    HW118884   4.853   3.167   2.483
 5995SOL    HW218885   4.836   3.324   2.528
 5996SOL     OW18886   0.210   6.695   0.756
 5996SOL    HW118887   0.166   6.618   0.710
 5996SOL    HW218888   0.271   6.743   0.691
 5997SOL     OW18889   0.382   5.003   2.647
 5997SOL    HW118890   0.301   4.950   2.620
 5997SOL    HW218891   0.371   5.034   2.742
 5998SOL     OW18892   6.320   1.742   2.181
 5998SOL    HW118893   6.292   1.705   2.092
 5998SOL    HW218894   6.320   1.842   2.177
 5999SOL     OW18895   2.966   2.922   1.787
 5999SOL    HW118896   2.995   2.828   1.802
 5999SOL    HW218897   2.945   2.936   1.690
 6000SOL     OW18898   2.313   6.451   6.924
 6000SOL    HW118899   2.219   6.417   6.920
 6000SOL    HW218900   2.331   6.510   6.845
 6001SOL     OW18901   6.739   5.037   0.198
 6001SOL    HW118902   6.719   4.982   0.117
 6001SOL    HW218903   6.836   5.058   0.201
 6002SOL     OW18904   5.621   0.249   0.160
 6002SOL    HW118905   5.674   0.200   0.090
 6002SOL    HW218906   5.680   0.265   0.239
 6003SOL     OW18907   5.609   2.163   5.087
 6003SOL    HW118908   5.549   2.090   5.121
 6003SOL    HW218909   5.670   2.127   5.017
 6004SOL     OW18910   0.085   4.055   2.640
 6004SOL    HW118911   0.010   4.017   2.695
 6004SOL    HW218912   0.054   4.065   2.545
 6005SOL     OW18913   5.172   5.521   4.900
 6005SOL    HW118914   5.104   5.526   4.827
 6005SOL    HW218915   5.207   5.427   4.906
 6006SOL     OW18916   2.238   0.460   5.686
 6006SOL    HW118917   2.232   0.444   5.785
 6006SOL    HW218918   2.149   0.490   5.652
 6007SOL     OW18919   5.702   3.864   5.513
 6007SOL    HW118920   5.700   3.801   5.590
 6007SOL    HW218921   5.758   3.825   5.440
 6008SOL     OW18922   2.599   5.042   5.221
 6008SOL    HW118923   2.512   5.079   5.188
 6008SOL    HW218924   2.672   5.107   5.200
 6009SOL     OW18925   2.871   0.511   3.405
 6009SOL    HW118926   2.896   0.499   3.501
 6009SOL    HW218927   2.933   0.577   3.362
 6010SOL     OW18928   1.102   5.423   3.789
 6010SOL    HW118929   1.191   5.470   3.789
 6010SOL    HW218930   1.073   5.407   3.883
 6011SOL     OW18931   6.142   2.985   3.512
 6011SOL    HW118932   6.137   2.887   3.494
 6011SOL    HW218933   6.155   3.034   3.425
 6012SOL     OW18934   5.754   0.824   0.897
 6012SOL    HW118935   5.694   0.904   0.908
 6012SOL    HW218936   5.761   0.801   0.799
 6013SOL     OW18937   5.492   1.084   2.914
 6013SOL    HW118938   5.422   1.038   2.860
 6013SOL    HW218939   5.580   1.080   2.866
 6014SOL     OW18940   3.669   4.023   3.181
 6014SOL    HW118941   3.608   4.063   3.112
 6014SOL    HW218942   3.615   3.968   3.245
 6015SOL     OW18943   5.401   4.010   4.335
 6015SOL    HW118944   5.337   3.973   4.267
 6015SOL    HW218945   5.349   4.051   4.410
 6016SOL     OW18946   6.601   2.549   5.834
 6016SOL    HW118947   6.679   2.602   5.801
 6016SOL    HW218948   6.590   2.468   5.775
 6017SOL     OW18949   6.267   4.656   3.569
 6017SOL    HW118950   6.339   4.597   3.532
 6017SOL    HW218951   6.207   4.602   3.628
 6018SOL     OW18952   3.762   0.863   6.280
 6018SOL    HW118953   3.665   0.886   6.267
 6018SOL    HW218954   3.803   0.840   6.191
 6019SOL     OW18955   1.112   2.964   4.792
 6019SOL    HW118956   1.041   2.894   4.788
 6019SOL    HW218957   1.091   3.030   4.864
 6020SOL     OW18958   0.592   5.215   0.536
 6020SOL    HW118959   0.573   5.246   0.629
 6020SOL    HW218960   0.535   5.266   0.471
 6021SOL     OW18961   4.853   0.924   3.078
 6021SOL    HW118962   4.754   0.919   3.066
 6021SOL    HW218963   4.898   0.921   2.989
 6022SOL     OW18964   6.473   1.887   3.257
 6022SOL    HW118965   6.498   1.807   3.202
 6022SOL    HW218966   6.445   1.857   3.348
 6023SOL     OW18967   5.857   1.210   1.639
 6023SOL    HW118968   5.870   1.170   1.729
 6023SOL    HW218969   5.919   1.167   1.574
 6024SOL     OW18970   1.450   4.474   2.065
 6024SOL    HW118971   1.453   4.571   2.044
 6024SOL    HW218972   1.455   4.460   2.164
 6025SOL     OW18973   3.160   1.706   3.270
 6025SOL    HW118974   3.193   1.612   3.255
 6025SOL    HW218975   3.232   1.771   3.243
 6026SOL     OW18976   6.938   5.156   5.675
 6026SOL    HW118977   6.904   5.248   5.656
 6026SOL    HW218978   6.999   5.128   5.601
 6027SOL     OW18979   0.305   3.488   5.662
 6027SOL    HW118980   0.344   3.520   5.576
 6027SOL    HW218981   0.284   3.567   5.721
 6028SOL     OW18982   5.864   4.758   0.893
 6028SOL    HW118983   5.895   4.818   0.820
 6028SOL    HW218984   5.820   4.678   0.854
 6029SOL     OW18985   2.428   6.599   4.542
 6029SOL    HW118986   2.371   6.581   4.462
 6029SOL    HW218987   2.385   6.558   4.623
 6030SOL     OW18988   4.297   5.099   2.622
 6030SOL    HW118989   4.213   5.091   2.675
 6030SOL    HW218990   4.367   5.144   2.678
 6031SOL     OW18991   3.282   5.543   4.469
 6031SOL    HW118992   3.258   5.570   4.563
 6031SOL    HW218993   3.339   5.614   4.427
 6032SOL     OW18994   2.154   4.539   2.174
 6032SOL    HW118995   2.060   4.563   2.151
 6032SOL    HW218996   2.172   4.561   2.270
 6033SOL     OW18997   2.442   2.531   3.486
 6033SOL    HW118998   2.514   2.463   3.483
 6033SOL    HW218999   2.401   2.542   3.396
 6034SOL     OW19000   1.296   0.522   5.385
 6034SOL    HW119001   1.333   0.479   5.302
 6034SOL    HW219002   1.366   0.580   5.426
 6035SOL     OW19003   1.379   1.271   2.088
 6035SOL    HW119004   1.375   1.370   2.079
 6035SOL    HW219005   1.474   1.240   2.085
 6036SOL     OW19006   5.085   5.187   3.107
 6036SOL    HW119007   5.139   5.271   3.098
 6036SOL    HW219008   5.058   5.156   3.016
 6037SOL     OW19009   3.847   6.920   0.495
 6037SOL    HW119010   3.778   6.848   0.497
 6037SOL    HW219011   3.926   6.892   0.550
 6038SOL     OW19012   1.411   3.047   5.904
 6038SOL    HW119013   1.486   2.981   5.897
 6038SOL    HW219014   1.384   3.057   5.999
 6039SOL     OW19015   3.875   3.132   2.559
 6039SOL    HW119016   3.846   3.056   2.501
 6039SOL    HW219017   3.821   3.213   2.536
 6040SOL     OW19018   1.578   2.422   1.135
 6040SOL    HW119019   1.646   2.355   1.105
 6040SOL    HW219020   1.563   2.488   1.061
 6041SOL     OW19021   2.870   0.974   5.223
 6041SOL    HW119022   2.965   1.003   5.230
 6041SOL    HW219023   2.828   0.975   5.314
 6042SOL     OW19024   4.275   6.838   2.406
 6042SOL    HW119025   4.296   6.813   2.500
 6042SOL    HW219026   4.263   6.755   2.351
 6043SOL     OW19027   0.965   6.084   5.331
 6043SOL    HW119028   0.980   6.130   5.243
 6043SOL    HW219029   1.035   6.014   5.345
 6044SOL     OW19030   1.510   2.688   1.411
 6044SOL    HW119031   1.549   2.757   1.350
 6044SOL    HW219032   1.468   2.615   1.357
 6045SOL     OW19033   6.163   3.681   2.652
 6045SOL    HW119034   6.088   3.722   2.600
 6045SOL    HW219035   6.197   3.748   2.719
 6046SOL     OW19036   3.357   2.571   1.325
 6046SOL    HW119037   3.275   2.626   1.339
 6046SOL    HW219038   3.348   2.517   1.241
 6047SOL     OW19039   5.349   2.028   1.900
 6047SOL    HW119040   5.415   2.102   1.910
 6047SOL    HW219041   5.395   1.945   1.869
 6048SOL     OW19042   4.733   5.248   5.445
 6048SOL    HW119043   4.695   5.215   5.531
 6048SOL    HW219044   4.665   5.302   5.397
 6049SOL     OW19045   4.667   3.410   7.018
 6049SOL    HW119046   4.586   3.424   0.054
 6049SOL    HW219047   4.748   3.409   0.056
 6050SOL     OW19048   3.082   4.645   5.781
 6050SOL    HW119049   3.116   4.704   5.854
 6050SOL    HW219050   2.986   4.623   5.798
 6051SOL     OW19051   1.594   0.385   3.499
 6051SOL    HW119052   1.682   0.410   3.461
 6051SOL    HW219053   1.530   0.365   3.425
 6052SOL     OW19054   5.607   1.356   1.235
 6052SOL    HW119055   5.530   1.351   1.299
 6052SOL    HW219056   5.667   1.278   1.249
 6053SOL     OW19057   4.252   1.298   6.305
 6053SOL    HW119058   4.204   1.248   6.377
 6053SOL    HW219059   4.330   1.347   6.346
 6054SOL     OW19060   2.712   2.770   0.080
 6054SOL    HW119061   2.786   2.836   0.068
 6054SOL    HW219062   2.675   2.746   7.011
 6055SOL     OW19063   5.269   0.010   5.320
 6055SOL    HW119064   5.295   6.968   5.246
 6055SOL    HW219065   5.240   0.097   5.281
 6056SOL     OW19066   4.956   3.338   5.024
 6056SOL    HW119067   4.934   3.307   5.117
 6056SOL    HW219068   4.905   3.422   5.004
 6057SOL     OW19069   0.129   1.169   2.471
 6057SOL    HW119070   0.160   1.219   2.552
 6057SOL    HW219071   0.100   1.077   2.498
 6058SOL     OW19072   4.829   3.821   1.839
 6058SOL    HW119073   4.814   3.739   1.783
 6058SOL    HW219074   4.790   3.901   1.792
 6059SOL     OW19075   5.074   5.502   6.586
 6059SOL    HW119076   5.046   5.422   6.533
 6059SOL    HW219077   5.068   5.583   6.529
 6060SOL     OW19078   3.107   3.412   6.213
 6060SOL    HW119079   3.205   3.394   6.225
 6060SOL    HW219080   3.078   3.378   6.123
 6061SOL     OW19081   4.850   3.458   1.012
 6061SOL    HW119082   4.771   3.399   0.995
 6061SOL    HW219083   4.897   3.427   1.095
 6062SOL     OW19084   2.573   1.502   5.710
 6062SOL    HW119085   2.608   1.553   5.631
 6062SOL    HW219086   2.645   1.440   5.743
 6063SOL     OW19087   4.590   2.372   6.198
 6063SOL    HW119088   4.492   2.390   6.197
 6063SOL    HW219089   4.614   2.324   6.283
 6064SOL     OW19090   1.111   0.229   1.312
 6064SOL    HW119091   1.140   0.159   1.377
 6064SOL    HW219092   1.087   0.313   1.361
 6065SOL     OW19093   0.949   6.374   3.034
 6065SOL    HW119094   0.881   6.302   3.045
 6065SOL    HW219095   1.011   6.374   3.112
 6066SOL     OW19096   4.830   1.690   5.008
 6066SOL    HW119097   4.843   1.623   4.935
 6066SOL    HW219098   4.910   1.749   5.015
 6067SOL     OW19099   5.745   0.775   5.962
 6067SOL    HW119100   5.651   0.753   5.936
 6067SOL    HW219101   5.756   0.874   5.966
 6068SOL     OW19102   4.688   2.768   4.594
 6068SOL    HW119103   4.593   2.794   4.613
 6068SOL    HW219104   4.747   2.847   4.608
 6069SOL     OW19105   5.939   3.056   5.092
 6069SOL    HW119106   5.889   3.032   5.008
 6069SOL    HW219107   5.940   3.156   5.102
 6070SOL     OW19108   2.899   2.115   1.469
 6070SOL    HW119109   2.956   2.090   1.391
 6070SOL    HW219110   2.898   2.040   1.534
 6071SOL     OW19111   6.077   5.625   5.327
 6071SOL    HW119112   6.072   5.724   5.313
 6071SOL    HW219113   5.996   5.594   5.377
 6072SOL     OW19114   6.835   0.287   1.950
 6072SOL    HW119115   6.776   0.340   2.011
 6072SOL    HW219116   6.789   0.274   1.862
 6073SOL     OW19117   5.661   3.069   0.642
 6073SOL    HW119118   5.572   3.066   0.598
 6073SOL    HW219119   5.732   3.078   0.572
 6074SOL     OW19120   0.999   5.795   2.363
 6074SOL    HW119121   1.021   5.743   2.446
 6074SOL    HW219122   0.956   5.733   2.296
 6075SOL     OW19123   4.731   0.558   5.982
 6075SOL    HW119124   4.827   0.533   5.999
 6075SOL    HW219125   4.727   0.628   5.911
 6076SOL     OW19126   3.466   5.483   3.403
 6076SOL    HW119127   3.452   5.548   3.328
 6076SOL    HW219128   3.436   5.525   3.489
 6077SOL     OW19129   6.626   4.959   1.057
 6077SOL    HW119130   6.528   4.947   1.043
 6077SOL    HW219131   6.642   5.004   1.145
 6078SOL     OW19132   5.012   5.317   0.391
 6078SOL    HW119133   5.063   5.344   0.473
 6078SOL    HW219134   4.986   5.399   0.340
 6079SOL     OW19135   4.393   3.588   5.911
 6079SOL    HW119136   4.435   3.639   5.986
 6079SOL    HW219137   4.350   3.505   5.946
 6080SOL     OW19138   0.097   6.229   0.837
 6080SOL    HW119139   0.186   6.274   0.830
 6080SOL    HW219140   0.081   6.176   0.754
 6081SOL     OW19141   6.626   2.598   5.064
 6081SOL    HW119142   6.677   2.537   5.003
 6081SOL    HW219143   6.601   2.681   5.014
 6082SOL     OW19144   2.715   0.708   3.638
 6082SOL    HW119145   2.760   0.619   3.651
 6082SOL    HW219146   2.762   0.777   3.694
 6083SOL     OW19147   5.900   5.957   0.148
 6083SOL    HW119148   5.896   6.022   0.223
 6083SOL    HW219149   5.996   5.934   0.129
 6084SOL     OW19150   0.856   6.866   3.227
 6084SOL    HW119151   0.830   6.788   3.171
 6084SOL    HW219152   0.779   6.892   3.287
 6085SOL     OW19153   0.083   6.793   6.975
 6085SOL    HW119154   0.076   6.749   0.044
 6085SOL    HW219155   0.136   6.877   6.984
 6086SOL     OW19156   2.994   1.266   5.545
 6086SOL    HW119157   2.967   1.208   5.621
 6086SOL    HW219158   2.938   1.350   5.546
 6087SOL     OW19159   3.794   6.045   1.056
 6087SOL    HW119160   3.892   6.066   1.062
 6087SOL    HW219161   3.756   6.089   0.975
 6088SOL     OW19162   5.051   6.352   4.626
 6088SOL    HW119163   5.035   6.411   4.705
 6088SOL    HW219164   5.092   6.405   4.552
 6089SOL     OW19165   5.632   2.627   2.486
 6089SOL    HW119166   5.570   2.630   2.564
 6089SOL    HW219167   5.721   2.663   2.513
 6090SOL     OW19168   2.386   5.528   4.644
 6090SOL    HW119169   2.463   5.575   4.602
 6090SOL    HW219170   2.303   5.582   4.631
 6091SOL     OW19171   2.088   1.362   0.542
 6091SOL    HW119172   2.127   1.301   0.472
 6091SOL    HW219173   2.093   1.457   0.510
 6092SOL     OW19174   4.725   0.732   2.650
 6092SOL    HW119175   4.751   0.719   2.746
 6092SOL    HW219176   4.632   0.699   2.636
 6093SOL     OW19177   2.138   2.975   1.868
 6093SOL    HW119178   2.116   2.962   1.964
 6093SOL    HW219179   2.148   3.073   1.848
 6094SOL     OW19180   1.710   5.879   2.363
 6094SOL    HW119181   1.618   5.854   2.394
 6094SOL    HW219182   1.737   5.964   2.408
 6095SOL     OW19183   5.235   4.626   0.440
 6095SOL    HW119184   5.253   4.528   0.432
 6095SOL    HW219185   5.252   4.670   0.352
 6096SOL     OW19186   6.314   6.986   3.786
 6096SOL    HW119187   6.224   6.952   3.813
 6096SOL    HW219188   6.345   6.937   3.705
 6097SOL     OW19189   2.018   5.704   2.107
 6097SOL    HW119190   2.055   5.626   2.157
 6097SOL    HW219191   1.982   5.771   2.172
 6098SOL     OW19192   0.643   1.527   5.032
 6098SOL    HW119193   0.681   1.603   5.084
 6098SOL    HW219194   0.579   1.476   5.089
 6099SOL     OW19195   5.540   6.216   0.079
 6099SOL    HW119196   5.526   6.189   0.174
 6099SOL    HW219197   5.637   6.211   0.057
 6100SOL     OW19198   5.531   6.271   1.538
 6100SOL    HW119199   5.489   6.197   1.487
 6100SOL    HW219200   5.626   6.283   1.508
 6101SOL     OW19201   6.994   2.997   3.300
 6101SOL    HW119202   6.930   3.047   3.242
 6101SOL    HW219203   6.994   3.037   3.392
 6102SOL     OW19204   3.470   5.756   3.163
 6102SOL    HW119205   3.514   5.668   3.148
 6102SOL    HW219206   3.429   5.788   3.078
 6103SOL     OW19207   6.306   1.819   1.700
 6103SOL    HW119208   6.360   1.888   1.651
 6103SOL    HW219209   6.257   1.763   1.633
 6104SOL     OW19210   5.363   0.511   5.636
 6104SOL    HW119211   5.414   0.557   5.563
 6104SOL    HW219212   5.275   0.480   5.600
 6105SOL     OW19213   3.346   5.871   6.872
 6105SOL    HW119214   3.272   5.921   6.916
 6105SOL    HW219215   3.416   5.936   6.840
 6106SOL     OW19216   1.210   4.715   6.165
 6106SOL    HW119217   1.112   4.711   6.145
 6106SOL    HW219218   1.244   4.624   6.186
 6107SOL     OW19219   4.406   5.882   5.194
 6107SOL    HW119220   4.451   5.947   5.132
 6107SOL    HW219221   4.457   5.795   5.194
 6108SOL     OW19222   2.332   2.629   2.208
 6108SOL    HW119223   2.404   2.589   2.264
 6108SOL    HW219224   2.266   2.676   2.266
 6109SOL     OW19225   5.811   1.774   5.087
 6109SOL    HW119226   5.825   1.699   5.022
 6109SOL    HW219227   5.733   1.753   5.146
 6110SOL     OW19228   3.343   3.835   1.132
 6110SOL    HW119229   3.366   3.743   1.101
 6110SOL    HW219230   3.244   3.849   1.128
 6111SOL     OW19231   1.370   3.370   2.681
 6111SOL    HW119232   1.456   3.320   2.669
 6111SOL    HW219233   1.341   3.408   2.593
 6112SOL     OW19234   2.968   0.039   3.098
 6112SOL    HW119235   2.929   0.005   3.013
 6112SOL    HW219236   2.927   7.011   3.175
 6113SOL     OW19237   3.162   2.438   6.099
 6113SOL    HW119238   3.127   2.348   6.070
 6113SOL    HW219239   3.247   2.425   6.149
 6114SOL     OW19240   5.027   4.853   2.154
 6114SOL    HW119241   5.038   4.778   2.219
 6114SOL    HW219242   5.103   4.917   2.164
 6115SOL     OW19243   6.026   0.936   4.036
 6115SOL    HW119244   6.042   0.894   4.125
 6115SOL    HW219245   6.084   0.893   3.967
 6116SOL     OW19246   4.178   1.475   6.106
 6116SOL    HW119247   4.250   1.543   6.110
 6116SOL    HW219248   4.202   1.397   6.164
 6117SOL     OW19249   1.390   1.033   3.461
 6117SOL    HW119250   1.305   0.983   3.447
 6117SOL    HW219251   1.374   1.131   3.448
 6118SOL     OW19252   6.954   1.257   1.646
 6118SOL    HW119253   6.875   1.278   1.588
 6118SOL    HW219254   6.927   1.261   1.742
 6119SOL     OW19255   1.130   4.039   6.960
 6119SOL    HW119256   1.133   3.953   7.011
 6119SOL    HW219257   1.161   4.023   6.867
 6120SOL     OW19258   3.807   6.138   5.463
 6120SOL    HW119259   3.869   6.078   5.412
 6120SOL    HW219260   3.744   6.082   5.517
 6121SOL     OW19261   0.480   3.465   4.980
 6121SOL    HW119262   0.510   3.397   5.046
 6121SOL    HW219263   0.402   3.516   5.018
 6122SOL     OW19264   4.421   5.338   0.502
 6122SOL    HW119265   4.495   5.403   0.485
 6122SOL    HW219266   4.457   5.258   0.551
 6123SOL     OW19267   5.309   7.015   6.103
 6123SOL    HW119268   5.226   0.037   6.069
 6123SOL    HW219269   5.315   0.008   6.202
 6124SOL     OW19270   1.807   6.539   5.859
 6124SOL    HW119271   1.804   6.631   5.900
 6124SOL    HW219272   1.752   6.477   5.914
 6125SOL     OW19273   2.136   4.187   0.601
 6125SOL    HW119274   2.122   4.118   0.672
 6125SOL    HW219275   2.233   4.208   0.594
 6126SOL     OW19276   0.856   0.355   4.424
 6126SOL    HW119277   0.884   0.438   4.376
 6126SOL    HW219278   0.834   0.377   4.519
 6127SOL     OW19279   2.994   0.170   1.332
 6127SOL    HW119280   2.983   0.263   1.368
 6127SOL    HW219281   3.091   0.154   1.312
 6128SOL     OW19282   6.575   3.848   0.787
 6128SOL    HW119283   6.549   3.785   0.713
 6128SOL    HW219284   6.526   3.935   0.775
 6129SOL     OW19285   0.017   3.759   2.273
 6129SOL    HW119286   6.975   3.704   2.219
 6129SOL    HW219287   0.040   3.710   2.357
 6130SOL     OW19288   5.648   2.997   2.590
 6130SOL    HW119289   5.720   2.929   2.580
 6130SOL    HW219290   5.577   2.982   2.521
 6131SOL     OW19291   0.716   1.660   4.178
 6131SOL    HW119292   0.798   1.605   4.162
 6131SOL    HW219293   0.699   1.665   4.277
 6132SOL     OW19294   4.612   1.736   0.252
 6132SOL    HW119295   4.710   1.741   0.232
 6132SOL    HW219296   4.587   1.810   0.314
 6133SOL     OW19297   1.998   3.384   2.647
 6133SOL    HW119298   1.945   3.336   2.578
 6133SOL    HW219299   1.938   3.448   2.696
 6134SOL     OW19300   4.110   4.673   0.052
 6134SOL    HW119301   4.074   4.733   7.002
 6134SOL    HW219302   4.209   4.686   0.060
 6135SOL     OW19303   6.862   0.173   0.291
 6135SOL    HW119304   6.931   0.234   0.251
 6135SOL    HW219305   6.787   0.228   0.329
 6136SOL     OW19306   1.381   2.819   1.980
 6136SOL    HW119307   1.417   2.802   2.072
 6136SOL    HW219308   1.281   2.826   1.985
 6137SOL     OW19309   6.415   4.060   2.116
 6137SOL    HW119310   6.346   4.133   2.114
 6137SOL    HW219311   6.432   4.028   2.023
 6138SOL     OW19312   3.754   6.821   2.752
 6138SOL    HW119313   3.679   6.830   2.817
 6138SOL    HW219314   3.718   6.796   2.662
 6139SOL     OW19315   1.502   6.606   6.092
 6139SOL    HW119316   1.491   6.553   6.008
 6139SOL    HW219317   1.412   6.634   6.126
 6140SOL     OW19318   0.861   6.449   2.105
 6140SOL    HW119319   0.931   6.458   2.176
 6140SOL    HW219320   0.902   6.468   2.016
 6141SOL     OW19321   0.679   6.851   6.302
 6141SOL    HW119322   0.745   6.925   6.321
 6141SOL    HW219323   0.691   6.778   6.369
 6142SOL     OW19324   0.702   6.279   6.715
 6142SOL    HW119325   0.796   6.259   6.744
 6142SOL    HW219326   0.641   6.272   6.794
 6143SOL     OW19327   6.583   3.388   1.012
 6143SOL    HW119328   6.645   3.456   1.053
 6143SOL    HW219329   6.606   3.297   1.046
 6144SOL     OW19330   4.801   4.873   4.299
 6144SOL    HW119331   4.708   4.855   4.268
 6144SOL    HW219332   4.823   4.970   4.283
 6145SOL     OW19333   5.440   4.918   4.439
 6145SOL    HW119334   5.357   4.950   4.484
 6145SOL    HW219335   5.512   4.904   4.507
 6146SOL     OW19336   3.166   5.775   3.819
 6146SOL    HW119337   3.243   5.798   3.879
 6146SOL    HW219338   3.123   5.691   3.851
 6147SOL     OW19339   2.042   1.987   4.446
 6147SOL    HW119340   2.027   2.086   4.452
 6147SOL    HW219341   2.015   1.955   4.355
 6148SOL     OW19342   4.909   6.904   5.459
 6148SOL    HW119343   4.877   6.810   5.470
 6148SOL    HW219344   5.008   6.906   5.472
 6149SOL     OW19345   2.811   6.390   1.391
 6149SOL    HW119346   2.809   6.426   1.298
 6149SOL    HW219347   2.759   6.305   1.395
 6150SOL     OW19348   5.447   5.317   0.710
 6150SOL    HW119349   5.381   5.305   0.785
 6150SOL    HW219350   5.497   5.402   0.723
 6151SOL     OW19351   6.001   5.074   6.406
 6151SOL    HW119352   6.006   4.998   6.341
 6151SOL    HW219353   6.074   5.139   6.387
 6152SOL     OW19354   6.506   5.770   4.523
 6152SOL    HW119355   6.416   5.762   4.565
 6152SOL    HW219356   6.504   5.839   4.451
 6153SOL     OW19357   5.257   4.787   1.464
 6153SOL    HW119358   5.276   4.697   1.425
 6153SOL    HW219359   5.285   4.788   1.560
 6154SOL     OW19360   6.352   2.487   2.585
 6154SOL    HW119361   6.392   2.470   2.494
 6154SOL    HW219362   6.261   2.526   2.575
 6155SOL     OW19363   1.369   1.446   3.313
 6155SOL    HW119364   1.444   1.385   3.286
 6155SOL    HW219365   1.348   1.432   3.410
 6156SOL     OW19366   4.342   4.509   1.883
 6156SOL    HW119367   4.390   4.429   1.918
 6156SOL    HW219368   4.342   4.507   1.783
 6157SOL     OW19369   0.006   1.921   4.555
 6157SOL    HW119370   7.020   1.973   4.470
 6157SOL    HW219371   0.097   1.881   4.562
 6158SOL     OW19372   3.697   1.959   6.266
 6158SOL    HW119373   3.626   2.024   6.239
 6158SOL    HW219374   3.735   1.986   6.355
 6159SOL     OW19375   4.601   2.174   1.707
 6159SOL    HW119376   4.604   2.152   1.805
 6159SOL    HW219377   4.506   2.174   1.676
 6160SOL     OW19378   5.235   1.351   6.317
 6160SOL    HW119379   5.146   1.396   6.316
 6160SOL    HW219380   5.263   1.329   6.223
 6161SOL     OW19381   5.182   1.669   5.279
 6161SOL    HW119382   5.106   1.604   5.276
 6161SOL    HW219383   5.148   1.759   5.304
 6162SOL     OW19384   6.825   6.210   3.416
 6162SOL    HW119385   6.829   6.286   3.351
 6162SOL    HW219386   6.780   6.239   3.500
 6163SOL     OW19387   5.995   6.615   1.328
 6163SOL    HW119388   5.901   6.580   1.337
 6163SOL    HW219389   6.000   6.705   1.371
 6164SOL     OW19390   3.217   3.887   3.474
 6164SOL    HW119391   3.275   3.919   3.549
 6164SOL    HW219392   3.225   3.949   3.396
 6165SOL     OW19393   4.757   1.697   6.851
 6165SOL    HW119394   4.728   1.651   6.768
 6165SOL    HW219395   4.852   1.672   6.872
 6166SOL     OW19396   5.444   1.939   6.345
 6166SOL    HW119397   5.416   2.002   6.417
 6166SOL    HW219398   5.367   1.880   6.321
 6167SOL     OW19399   1.058   4.918   2.776
 6167SOL    HW119400   1.024   4.951   2.864
 6167SOL    HW219401   1.145   4.962   2.755
 6168SOL     OW19402   1.474   3.416   2.297
 6168SOL    HW119403   1.531   3.497   2.310
 6168SOL    HW219404   1.404   3.412   2.367
 6169SOL     OW19405   1.321   2.224   6.876
 6169SOL    HW119406   1.399   2.212   6.938
 6169SOL    HW219407   1.253   2.283   6.920
 6170SOL     OW19408   2.182   4.157   5.280
 6170SOL    HW119409   2.266   4.106   5.261
 6170SOL    HW219410   2.146   4.194   5.195
 6171SOL     OW19411   1.300   3.531   1.176
 6171SOL    HW119412   1.375   3.472   1.146
 6171SOL    HW219413   1.256   3.572   1.096
 6172SOL     OW19414   1.937   1.664   2.908
 6172SOL    HW119415   2.030   1.697   2.925
 6172SOL    HW219416   1.901   1.621   2.991
 6173SOL     OW19417   6.307   5.756   2.110
 6173SOL    HW119418   6.209   5.765   2.099
 6173SOL    HW219419   6.327   5.682   2.174
 6174SOL     OW19420   5.098   5.001   3.945
 6174SOL    HW119421   5.084   5.089   3.901
 6174SOL    HW219422   5.108   5.014   4.043
 6175SOL     OW19423   4.686   0.488   3.622
 6175SOL    HW119424   4.763   0.483   3.559
 6175SOL    HW219425   4.622   0.560   3.592
 6176SOL     OW19426   5.491   3.511   6.525
 6176SOL    HW119427   5.555   3.482   6.596
 6176SOL    HW219428   5.470   3.432   6.467
 6177SOL     OW19429   5.378   0.775   1.132
 6177SOL    HW119430   5.472   0.749   1.156
 6177SOL    HW219431   5.367   0.874   1.145
 6178SOL     OW19432   4.999   4.741   2.997
 6178SOL    HW119433   4.998   4.641   2.999
 6178SOL    HW219434   4.966   4.773   2.908
 6179SOL     OW19435   0.091   5.017   4.339
 6179SOL    HW119436   0.162   4.961   4.296
 6179SOL    HW219437   0.014   4.959   4.365
 6180SOL     OW19438   3.869   4.390   6.947
 6180SOL    HW119439   3.858   4.439   6.860
 6180SOL    HW219440   3.866   4.455   0.001
 6181SOL     OW19441   3.634   6.668   0.925
 6181SOL    HW119442   3.546   6.676   0.878
 6181SOL    HW219443   3.646   6.573   0.956
 6182SOL     OW19444   5.169   3.271   5.538
 6182SOL    HW119445   5.088   3.241   5.488
 6182SOL    HW219446   5.165   3.238   5.632
 6183SOL     OW19447   2.248   1.678   3.144
 6183SOL    HW119448   2.195   1.619   3.205
 6183SOL    HW219449   2.229   1.774   3.166
 6184SOL     OW19450   1.898   6.559   6.211
 6184SOL    HW119451   1.913   6.638   6.152
 6184SOL    HW219452   1.867   6.481   6.156
 6185SOL     OW19453   0.183   4.253   6.485
 6185SOL    HW119454   0.240   4.318   6.535
 6185SOL    HW219455   0.228   4.229   6.399
 6186SOL     OW19456   6.809   0.081   5.880
 6186SOL    HW119457   6.731   0.019   5.867
 6186SOL    HW219458   6.886   0.030   5.917
 6187SOL     OW19459   4.676   4.931   3.128
 6187SOL    HW119460   4.640   4.943   3.036
 6187SOL    HW219461   4.608   4.882   3.184
 6188SOL     OW19462   2.496   0.119   1.010
 6188SOL    HW119463   2.543   0.093   0.926
 6188SOL    HW219464   2.439   0.044   1.042
 6189SOL     OW19465   5.032   4.263   3.770
 6189SOL    HW119466   5.112   4.322   3.763
 6189SOL    HW219467   5.053   4.173   3.731
 6190SOL     OW19468   0.723   3.951   5.354
 6190SOL    HW119469   0.772   4.024   5.306
 6190SOL    HW219470   0.635   3.935   5.310
 6191SOL     OW19471   3.658   1.918   6.915
 6191SOL    HW119472   3.622   1.883   6.829
 6191SOL    HW219473   3.741   1.868   6.939
 6192SOL     OW19474   3.816   2.300   6.498
 6192SOL    HW119475   3.789   2.329   6.406
 6192SOL    HW219476   3.817   2.200   6.502
 6193SOL     OW19477   5.016   1.218   2.290
 6193SOL    HW119478   4.991   1.121   2.285
 6193SOL    HW219479   4.935   1.274   2.276
 6194SOL     OW19480   1.679   0.143   1.041
 6194SOL    HW119481   1.750   0.193   1.089
 6194SOL    HW219482   1.592   0.192   1.049
 6195SOL     OW19483   4.566   6.472   5.572
 6195SOL    HW119484   4.618   6.387   5.573
 6195SOL    HW219485   4.468   6.451   5.565
 6196SOL     OW19486   5.707   2.764   1.722
 6196SOL    HW119487   5.699   2.676   1.675
 6196SOL    HW219488   5.656   2.762   1.807
 6197SOL     OW19489   4.338   4.842   0.761
 6197SOL    HW119490   4.241   4.823   0.748
 6197SOL    HW219491   4.392   4.768   0.721
 6198SOL     OW19492   3.803   6.376   2.195
 6198SOL    HW119493   3.891   6.419   2.174
 6198SOL    HW219494   3.818   6.296   2.253
 6199SOL     OW19495   1.216   0.890   0.558
 6199SOL    HW119496   1.273   0.808   0.551
 6199SOL    HW219497   1.145   0.887   0.488
 6200SOL     OW19498   1.504   1.179   5.627
 6200SOL    HW119499   1.532   1.275   5.628
 6200SOL    HW219500   1.408   1.172   5.599
 6201SOL     OW19501   0.804   3.388   5.427
 6201SOL    HW119502   0.758   3.457   5.482
 6201SOL    HW219503   0.786   3.297   5.465
 6202SOL     OW19504   3.782   1.686   2.395
 6202SOL    HW119505   3.695   1.669   2.442
 6202SOL    HW219506   3.858   1.667   2.457
 6203SOL     OW19507   0.033   6.757   2.877
 6203SOL    HW119508   0.089   6.805   2.809
 6203SOL    HW219509   0.084   6.678   2.911
 6204SOL     OW19510   0.271   5.388   4.863
 6204SOL    HW119511   0.297   5.306   4.913
 6204SOL    HW219512   0.186   5.372   4.813
 6205SOL     OW19513   5.969   6.286   1.062
 6205SOL    HW119514   6.027   6.363   1.087
 6205SOL    HW219515   5.944   6.293   0.965
 6206SOL     OW19516   6.959   1.228   3.569
 6206SOL    HW119517   0.006   1.282   3.619
 6206SOL    HW219518   6.956   1.257   3.474
 6207SOL     OW19519   1.490   4.897   5.336
 6207SOL    HW119520   1.480   4.824   5.269
 6207SOL    HW219521   1.462   4.984   5.296
 6208SOL     OW19522   5.829   1.429   5.798
 6208SOL    HW119523   5.792   1.463   5.884
 6208SOL    HW219524   5.928   1.442   5.796
 6209SOL     OW19525   4.654   5.614   6.872
 6209SOL    HW119526   4.682   5.532   6.922
 6209SOL    HW219527   4.555   5.628   6.884
 6210SOL     OW19528   5.199   3.313   3.003
 6210SOL    HW119529   5.137   3.271   3.069
 6210SOL    HW219530   5.159   3.307   2.911
 6211SOL     OW19531   3.150   6.251   5.437
 6211SOL    HW119532   3.097   6.195   5.501
 6211SOL    HW219533   3.202   6.320   5.488
 6212SOL     OW19534   1.916   5.496   3.778
 6212SOL    HW119535   2.012   5.489   3.751
 6212SOL    HW219536   1.909   5.548   3.864
 6213SOL     OW19537   5.878   0.184   0.565
 6213SOL    HW119538   5.794   0.132   0.576
 6213SOL    HW219539   5.953   0.122   0.542
 6214SOL     OW19540   5.096   4.781   4.360
 6214SOL    HW119541   5.140   4.693   4.375
 6214SOL    HW219542   4.999   4.767   4.340
 6215SOL     OW19543   4.237   1.125   0.426
 6215SOL    HW119544   4.237   1.204   0.487
 6215SOL    HW219545   4.236   1.041   0.480
 6216SOL     OW19546   6.285   1.019   2.122
 6216SOL    HW119547   6.259   1.086   2.191
 6216SOL    HW219548   6.369   0.972   2.150
 6217SOL     OW19549   0.306   3.862   2.607
 6217SOL    HW119550   0.293   3.859   2.508
 6217SOL    HW219551   0.229   3.909   2.649
 6218SOL     OW19552   3.792   5.558   6.492
 6218SOL    HW119553   3.888   5.586   6.486
 6218SOL    HW219554   3.787   5.458   6.502
 6219SOL     OW19555   0.897   2.926   4.375
 6219SOL    HW119556   0.853   2.836   4.379
 6219SOL    HW219557   0.860   2.984   4.447
 6220SOL     OW19558   1.989   1.904   5.363
 6220SOL    HW119559   2.023   1.811   5.380
 6220SOL    HW219560   1.912   1.923   5.424
 6221SOL     OW19561   5.912   6.126   6.552
 6221SOL    HW119562   5.958   6.175   6.625
 6221SOL    HW219563   5.825   6.089   6.586
 6222SOL     OW19564   0.974   6.599   1.596
 6222SOL    HW119565   1.071   6.619   1.613
 6222SOL    HW219566   0.959   6.501   1.599
 6223SOL     OW19567   1.010   5.007   3.927
 6223SOL    HW119568   0.973   5.099   3.918
 6223SOL    HW219569   0.967   4.948   3.858
 6224SOL     OW19570   2.661   1.780   6.141
 6224SOL    HW119571   2.596   1.786   6.066
 6224SOL    HW219572   2.612   1.786   6.228
 6225SOL     OW19573   3.807   4.109   6.561
 6225SOL    HW119574   3.762   4.120   6.472
 6225SOL    HW219575   3.895   4.156   6.560
 6226SOL     OW19576   6.682   1.602   5.214
 6226SOL    HW119577   6.757   1.665   5.235
 6226SOL    HW219578   6.611   1.610   5.284
 6227SOL     OW19579   3.538   5.674   5.315
 6227SOL    HW119580   3.621   5.684   5.260
 6227SOL    HW219581   3.473   5.615   5.267
 6228SOL     OW19582   1.482   2.344   2.796
 6228SOL    HW119583   1.460   2.345   2.698
 6228SOL    HW219584   1.417   2.403   2.844
 6229SOL     OW19585   0.306   2.140   3.017
 6229SOL    HW119586   0.374   2.100   3.078
 6229SOL    HW219587   0.221   2.088   3.023
 6230SOL     OW19588   0.572   1.825   3.710
 6230SOL    HW119589   0.482   1.787   3.733
 6230SOL    HW219590   0.569   1.868   3.620
 6231SOL     OW19591   6.350   5.942   1.302
 6231SOL    HW119592   6.282   5.991   1.356
 6231SOL    HW219593   6.440   5.949   1.346
 6232SOL     OW19594   6.937   0.465   1.037
 6232SOL    HW119595   6.996   0.521   0.978
 6232SOL    HW219596   6.922   0.511   1.124
 6233SOL     OW19597   6.958   0.927   1.377
 6233SOL    HW119598   0.002   1.002   1.391
 6233SOL    HW219599   6.975   0.854   1.443
 6234SOL     OW19600   6.556   1.050   5.432
 6234SOL    HW119601   6.611   1.098   5.363
 6234SOL    HW219602   6.578   1.087   5.523
 6235SOL     OW19603   1.099   6.551   1.196
 6235SOL    HW119604   1.175   6.595   1.149
 6235SOL    HW219605   1.037   6.620   1.231
 6236SOL     OW19606   0.515   3.857   1.071
 6236SOL    HW119607   0.497   3.817   1.161
 6236SOL    HW219608   0.465   3.943   1.061
 6237SOL     OW19609   3.003   0.222   6.613
 6237SOL    HW119610   3.099   0.224   6.583
 6237SOL    HW219611   2.994   0.163   6.693
 6238SOL     OW19612   3.821   4.893   2.651
 6238SOL    HW119613   3.858   4.805   2.620
 6238SOL    HW219614   3.862   4.916   2.739
 6239SOL     OW19615   2.701   0.316   1.801
 6239SOL    HW119616   2.616   0.296   1.850
 6239SOL    HW219617   2.726   0.237   1.744
 6240SOL     OW19618   1.953   3.051   5.474
 6240SOL    HW119619   2.016   3.121   5.507
 6240SOL    HW219620   1.878   3.094   5.423
 6241SOL     OW19621   3.612   6.982   1.982
 6241SOL    HW119622   3.536   7.008   2.042
 6241SOL    HW219623   3.691   0.019   2.003
 6242SOL     OW19624   4.607   0.522   3.888
 6242SOL    HW119625   4.705   0.508   3.898
 6242SOL    HW219626   4.586   0.542   3.793
 6243SOL     OW19627   5.881   6.289   4.429
 6243SOL    HW119628   5.805   6.235   4.392
 6243SOL    HW219629   5.901   6.365   4.367
 6244SOL     OW19630   6.933   2.346   1.673
 6244SOL    HW119631   6.946   2.388   1.583
 6244SOL    HW219632   6.913   2.249   1.662
 6245SOL     OW19633   1.520   4.217   0.480
 6245SOL    HW119634   1.514   4.201   0.578
 6245SOL    HW219635   1.559   4.136   0.436
 6246SOL     OW19636   2.128   1.953   5.632
 6246SOL    HW119637   2.145   1.988   5.540
 6246SOL    HW219638   2.033   1.922   5.640
 6247SOL     OW19639   0.351   6.236   4.725
 6247SOL    HW119640   0.297   6.200   4.802
 6247SOL    HW219641   0.411   6.164   4.690
 6248SOL     OW19642   3.581   3.291   0.584
 6248SOL    HW119643   3.535   3.212   0.625
 6248SOL    HW219644   3.529   3.374   0.605
 6249SOL     OW19645   0.820   3.933   0.686
 6249SOL    HW119646   0.767   3.872   0.626
 6249SOL    HW219647   0.792   3.917   0.781
 6250SOL     OW19648   6.649   0.013   0.235
 6250SOL    HW119649   6.719   0.083   0.246
 6250SOL    HW219650   6.674   6.953   0.288
 6251SOL     OW19651   4.280   5.401   6.497
 6251SOL    HW119652   4.364   5.412   6.550
 6251SOL    HW219653   4.297   5.341   6.419
 6252SOL     OW19654   1.676   6.168   5.598
 6252SOL    HW119655   1.634   6.259   5.589
 6252SOL    HW219656   1.738   6.153   5.521
 6253SOL     OW19657   2.415   4.420   3.507
 6253SOL    HW119658   2.324   4.436   3.547
 6253SOL    HW219659   2.484   4.425   3.579
 6254SOL     OW19660   5.283   1.668   1.311
 6254SOL    HW119661   5.201   1.686   1.366
 6254SOL    HW219662   5.351   1.740   1.327
 6255SOL     OW19663   3.561   0.545   1.012
 6255SOL    HW119664   3.572   0.573   0.917
 6255SOL    HW219665   3.485   0.596   1.053
 6256SOL     OW19666   3.513   5.375   1.810
 6256SOL    HW119667   3.425   5.399   1.770
 6256SOL    HW219668   3.522   5.421   1.899
 6257SOL     OW19669   4.934   2.010   1.183
 6257SOL    HW119670   4.936   2.104   1.148
 6257SOL    HW219671   4.841   1.974   1.173
 6258SOL     OW19672   3.563   0.388   3.904
 6258SOL    HW119673   3.609   0.451   3.967
 6258SOL    HW219674   3.487   0.344   3.951
 6259SOL     OW19675   2.164   2.433   6.890
 6259SOL    HW119676   2.141   2.367   6.962
 6259SOL    HW219677   2.245   2.401   6.841
 6260SOL     OW19678   3.278   5.276   0.148
 6260SOL    HW119679   3.306   5.345   0.081
 6260SOL    HW219680   3.210   5.315   0.210
 6261SOL     OW19681   3.499   1.082   7.015
 6261SOL    HW119682   3.466   1.033   0.075
 6261SOL    HW219683   3.527   1.174   0.021
 6262SOL     OW19684   2.615   6.303   1.585
 6262SOL    HW119685   2.656   6.212   1.588
 6262SOL    HW219686   2.592   6.332   1.678
 6263SOL     OW19687   0.063   1.043   5.547
 6263SOL    HW119688   7.012   1.040   5.479
 6263SOL    HW219689   0.130   0.970   5.530
 6264SOL     OW19690   1.550   0.158   1.617
 6264SOL    HW119691   1.496   0.143   1.700
 6264SOL    HW219692   1.553   0.074   1.563
 6265SOL     OW19693   3.817   3.452   0.233
 6265SOL    HW119694   3.834   3.544   0.269
 6265SOL    HW219695   3.844   3.384   0.300
 6266SOL     OW19696   3.854   0.895   4.718
 6266SOL    HW119697   3.846   0.943   4.805
 6266SOL    HW219698   3.887   0.958   4.648
 6267SOL     OW19699   2.057   6.810   6.183
 6267SOL    HW119700   2.002   6.865   6.246
 6267SOL    HW219701   2.143   6.785   6.226
 6268SOL     OW19702   2.437   0.279   3.344
 6268SOL    HW119703   2.433   0.359   3.405
 6268SOL    HW219704   2.532   0.255   3.328
 6269SOL     OW19705   0.105   6.547   1.776
 6269SOL    HW119706   0.075   6.459   1.738
 6269SOL    HW219707   0.177   6.586   1.718
 6270SOL     OW19708   1.815   7.000   5.780
 6270SOL    HW119709   1.792   6.905   5.804
 6270SOL    HW219710   1.890   0.011   5.837
 6271SOL     OW19711   6.578   2.385   6.492
 6271SOL    HW119712   6.540   2.449   6.425
 6271SOL    HW219713   6.624   2.436   6.564
 6272SOL     OW19714   0.352   3.204   0.091
 6272SOL    HW119715   0.349   3.304   0.083
 6272SOL    HW219716   0.325   3.178   0.184
 6273SOL     OW19717   1.193   6.631   2.291
 6273SOL    HW119718   1.275   6.678   2.259
 6273SOL    HW219719   1.203   6.609   2.388
 6274SOL     OW19720   3.240   5.495   5.951
 6274SOL    HW119721   3.289   5.430   6.009
 6274SOL    HW219722   3.275   5.489   5.857
 6275SOL     OW19723   2.323   5.975   6.591
 6275SOL    HW119724   2.369   6.007   6.674
 6275SOL    HW219725   2.353   6.030   6.513
 6276SOL     OW19726   1.362   4.296   3.268
 6276SOL    HW119727   1.401   4.317   3.179
 6276SOL    HW219728   1.428   4.245   3.322
 6277SOL     OW19729   5.317   4.023   1.849
 6277SOL    HW119730   5.229   4.072   1.846
 6277SOL    HW219731   5.390   4.084   1.821
 6278SOL     OW19732   4.997   6.037   4.794
 6278SOL    HW119733   4.995   5.969   4.867
 6278SOL    HW219734   4.917   6.096   4.802
 6279SOL     OW19735   3.465   6.978   6.887
 6279SOL    HW119736   3.543   7.002   6.829
 6279SOL    HW219737   3.454   6.879   6.889
 6280SOL     OW19738   1.055   2.454   5.030
 6280SOL    HW119739   1.073   2.357   5.016
 6280SOL    HW219740   1.077   2.479   5.125
 6281SOL     OW19741   0.794   4.988   4.134
 6281SOL    HW119742   0.811   4.909   4.193
 6281SOL    HW219743   0.848   4.980   4.051
 6282SOL     OW19744   0.701   5.990   5.391
 6282SOL    HW119745   0.646   6.026   5.315
 6282SOL    HW219746   0.796   6.018   5.379
 6283SOL     OW19747   6.169   3.259   5.389
 6283SOL    HW119748   6.206   3.352   5.386
 6283SOL    HW219749   6.219   3.204   5.456
 6284SOL     OW19750   0.805   5.495   4.767
 6284SOL    HW119751   0.758   5.432   4.829
 6284SOL    HW219752   0.739   5.533   4.703
 6285SOL     OW19753   0.225   3.810   4.683
 6285SOL    HW119754   0.286   3.739   4.719
 6285SOL    HW219755   0.152   3.766   4.630
 6286SOL     OW19756   5.746   1.715   3.708
 6286SOL    HW119757   5.833   1.666   3.716
 6286SOL    HW219758   5.675   1.652   3.676
 6287SOL     OW19759   3.609   5.016   4.673
 6287SOL    HW119760   3.647   5.037   4.764
 6287SOL    HW219761   3.650   4.933   4.638
 6288SOL     OW19762   5.203   4.333   2.953
 6288SOL    HW119763   5.224   4.235   2.950
 6288SOL    HW219764   5.250   4.379   2.877
 6289SOL     OW19765   1.875   4.794   0.790
 6289SOL    HW119766   1.954   4.808   0.849
 6289SOL    HW219767   1.906   4.770   0.698
 6290SOL     OW19768   6.505   5.316   5.730
 6290SOL    HW119769   6.465   5.404   5.705
 6290SOL    HW219770   6.533   5.267   5.647
 6291SOL     OW19771   4.135   3.465   4.470
 6291SOL    HW119772   4.059   3.402   4.484
 6291SOL    HW219773   4.198   3.459   4.548
 6292SOL     OW19774   1.272   2.311   4.537
 6292SOL    HW119775   1.226   2.345   4.455
 6292SOL    HW219776   1.223   2.342   4.618
 6293SOL     OW19777   3.268   0.844   0.593
 6293SOL    HW119778   3.218   0.902   0.658
 6293SOL    HW219779   3.349   0.806   0.638
 6294SOL     OW19780   3.812   6.252   3.839
 6294SOL    HW119781   3.781   6.334   3.887
 6294SOL    HW219782   3.733   6.202   3.804
 6295SOL     OW19783   5.598   4.780   6.047
 6295SOL    HW119784   5.529   4.708   6.038
 6295SOL    HW219785   5.555   4.863   6.083
 6296SOL     OW19786   0.754   6.469   5.860
 6296SOL    HW119787   0.785   6.563   5.870
 6296SOL    HW219788   0.822   6.416   5.809
 6297SOL     OW19789   5.347   0.610   3.865
 6297SOL    HW119790   5.308   0.661   3.941
 6297SOL    HW219791   5.352   0.513   3.889
 6298SOL     OW19792   1.548   2.686   0.351
 6298SOL    HW119793   1.517   2.651   0.263
 6298SOL    HW219794   1.490   2.764   0.378
 6299SOL     OW19795   5.885   2.233   0.505
 6299SOL    HW119796   5.979   2.254   0.533
 6299SOL    HW219797   5.878   2.136   0.483
 6300SOL     OW19798   6.309   0.640   0.403
 6300SOL    HW119799   6.254   0.721   0.379
 6300SOL    HW219800   6.308   0.627   0.502
 6301SOL     OW19801   3.788   6.882   0.015
 6301SOL    HW119802   3.856   6.887   6.963
 6301SOL    HW219803   3.755   6.788   0.022
 6302SOL     OW19804   1.493   0.587   3.234
 6302SOL    HW119805   1.567   0.635   3.187
 6302SOL    HW219806   1.478   0.628   3.324
 6303SOL     OW19807   1.903   1.199   3.867
 6303SOL    HW119808   1.899   1.226   3.964
 6303SOL    HW219809   1.854   1.267   3.812
 6304SOL     OW19810   2.494   0.786   1.356
 6304SOL    HW119811   2.477   0.707   1.415
 6304SOL    HW219812   2.434   0.781   1.276
 6305SOL     OW19813   6.606   6.726   1.356
 6305SOL    HW119814   6.669   6.652   1.381
 6305SOL    HW219815   6.592   6.786   1.435
 6306SOL     OW19816   0.853   4.200   3.926
 6306SOL    HW119817   0.917   4.138   3.970
 6306SOL    HW219818   0.790   4.238   3.994
 6307SOL     OW19819   3.557   4.250   5.200
 6307SOL    HW119820   3.522   4.227   5.109
 6307SOL    HW219821   3.480   4.260   5.263
 6308SOL     OW19822   2.097   2.303   4.527
 6308SOL    HW119823   2.193   2.329   4.519
 6308SOL    HW219824   2.061   2.336   4.615
 6309SOL     OW19825   6.057   4.588   5.429
 6309SOL    HW119826   5.980   4.548   5.379
 6309SOL    HW219827   6.142   4.543   5.400
 6310SOL     OW19828   2.247   6.043   2.713
 6310SOL    HW119829   2.289   5.963   2.755
 6310SOL    HW219830   2.219   6.022   2.619
 6311SOL     OW19831   4.908   1.152   6.187
 6311SOL    HW119832   4.914   1.137   6.286
 6311SOL    HW219833   4.885   1.067   6.141
 6312SOL     OW19834   6.349   5.929   5.540
 6312SOL    HW119835   6.421   5.942   5.472
 6312SOL    HW219836   6.261   5.919   5.494
 6313SOL     OW19837   0.202   6.117   4.895
 6313SOL    HW119838   0.151   6.182   4.951
 6313SOL    HW219839   0.191   6.025   4.932
 6314SOL     OW19840   4.172   0.098   1.913
 6314SOL    HW119841   4.116   0.105   1.830
 6314SOL    HW219842   4.115   0.119   1.993
 6315SOL     OW19843   2.007   2.539   5.581
 6315SOL    HW119844   2.045   2.537   5.673
 6315SOL    HW219845   2.008   2.633   5.547
 6316SOL     OW19846   4.916   1.679   0.206
 6316SOL    HW119847   4.936   1.621   0.286
 6316SOL    HW219848   4.893   1.771   0.236
 6317SOL     OW19849   4.239   5.128   1.593
 6317SOL    HW119850   4.166   5.180   1.549
 6317SOL    HW219851   4.315   5.118   1.528
 6318SOL     OW19852   3.633   1.332   5.623
 6318SOL    HW119853   3.675   1.408   5.674
 6318SOL    HW219854   3.696   1.303   5.551
 6319SOL     OW19855   6.272   1.855   4.711
 6319SOL    HW119856   6.353   1.845   4.654
 6319SOL    HW219857   6.213   1.775   4.699
 6320SOL     OW19858   5.940   6.553   5.147
 6320SOL    HW119859   5.915   6.460   5.123
 6320SOL    HW219860   6.005   6.589   5.080
 6321SOL     OW19861   3.440   3.026   0.973
 6321SOL    HW119862   3.442   2.982   1.063
 6321SOL    HW219863   3.490   3.112   0.976
 6322SOL     OW19864   1.713   2.481   0.667
 6322SOL    HW119865   1.780   2.413   0.694
 6322SOL    HW219866   1.708   2.486   0.567
 6323SOL     OW19867   2.926   2.638   1.730
 6323SOL    HW119868   2.850   2.612   1.671
 6323SOL    HW219869   2.960   2.558   1.778
 6324SOL     OW19870   5.316   0.546   6.678
 6324SOL    HW119871   5.223   0.514   6.658
 6324SOL    HW219872   5.338   0.623   6.619
 6325SOL     OW19873   1.814   2.118   2.297
 6325SOL    HW119874   1.807   2.019   2.301
 6325SOL    HW219875   1.900   2.147   2.340
 6326SOL     OW19876   4.783   4.916   1.877
 6326SOL    HW119877   4.874   4.938   1.840
 6326SOL    HW219878   4.792   4.885   1.971
 6327SOL     OW19879   6.594   0.714   4.964
 6327SOL    HW119880   6.599   0.705   5.064
 6327SOL    HW219881   6.681   0.685   4.924
 6328SOL     OW19882   3.143   3.346   0.038
 6328SOL    HW119883   3.192   3.354   0.124
 6328SOL    HW219884   3.160   3.428   7.003
 6329SOL     OW19885   2.307   2.200   3.525
 6329SOL    HW119886   2.339   2.172   3.434
 6329SOL    HW219887   2.257   2.286   3.516
 6330SOL     OW19888   4.939   0.460   1.076
 6330SOL    HW119889   4.925   0.368   1.113
 6330SOL    HW219890   4.853   0.512   1.082
 6331SOL     OW19891   6.623   3.047   5.285
 6331SOL    HW119892   6.586   2.955   5.289
 6331SOL    HW219893   6.633   3.076   5.190
 6332SOL     OW19894   0.197   3.392   1.181
 6332SOL    HW119895   0.273   3.348   1.229
 6332SOL    HW219896   0.121   3.327   1.172
 6333SOL     OW19897   4.513   5.457   5.027
 6333SOL    HW119898   4.444   5.460   4.955
 6333SOL    HW219899   4.597   5.415   4.991
 6334SOL     OW19900   2.822   0.664   2.061
 6334SOL    HW119901   2.883   0.743   2.054
 6334SOL    HW219902   2.728   0.693   2.041
 6335SOL     OW19903   3.110   0.222   0.005
 6335SOL    HW119904   3.077   0.281   6.952
 6335SOL    HW219905   3.164   0.147   6.987
 6336SOL     OW19906   0.579   2.144   5.627
 6336SOL    HW119907   0.607   2.142   5.723
 6336SOL    HW219908   0.654   2.180   5.572
 6337SOL     OW19909   4.986   4.962   5.810
 6337SOL    HW119910   5.033   4.885   5.767
 6337SOL    HW219911   4.992   4.954   5.909
 6338SOL     OW19912   3.280   1.827   4.308
 6338SOL    HW119913   3.229   1.742   4.296
 6338SOL    HW219914   3.335   1.821   4.392
 6339SOL     OW19915   1.201   3.564   3.231
 6339SOL    HW119916   1.264   3.620   3.284
 6339SOL    HW219917   1.206   3.591   3.135
 6340SOL     OW19918   1.591   5.160   2.454
 6340SOL    HW119919   1.509   5.174   2.508
 6340SOL    HW219920   1.566   5.122   2.365
 6341SOL     OW19921   0.470   4.078   4.412
 6341SOL    HW119922   0.451   4.059   4.509
 6341SOL    HW219923   0.481   4.177   4.399
 6342SOL     OW19924   1.906   1.005   1.764
 6342SOL    HW119925   1.964   1.076   1.803
 6342SOL    HW219926   1.915   0.921   1.817
 6343SOL     OW19927   4.793   2.179   6.886
 6343SOL    HW119928   4.834   2.150   6.800
 6343SOL    HW219929   4.853   2.153   6.962
 6344SOL     OW19930   5.355   2.733   4.333
 6344SOL    HW119931   5.409   2.777   4.404
 6344SOL    HW219932   5.398   2.647   4.306
 6345SOL     OW19933   5.970   2.965   2.284
 6345SOL    HW119934   6.009   3.045   2.330
 6345SOL    HW219935   5.913   2.995   2.207
 6346SOL     OW19936   6.659   5.300   3.970
 6346SOL    HW119937   6.668   5.203   3.948
 6346SOL    HW219938   6.628   5.350   3.890
 6347SOL     OW19939   2.021   0.015   0.315
 6347SOL    HW119940   2.038   0.029   0.413
 6347SOL    HW219941   1.960   6.957   0.303
 6348SOL     OW19942   0.875   3.741   5.443
 6348SOL    HW119943   0.933   3.715   5.365
 6348SOL    HW219944   0.837   3.832   5.427
 6349SOL     OW19945   2.158   0.396   1.185
 6349SOL    HW119946   2.127   0.470   1.245
 6349SOL    HW219947   2.256   0.382   1.197
 6350SOL     OW19948   0.711   5.732   3.850
 6350SOL    HW119949   0.785   5.678   3.889
 6350SOL    HW219950   0.638   5.743   3.918
 6351SOL     OW19951   6.681   3.729   3.994
 6351SOL    HW119952   6.740   3.729   4.075
 6351SOL    HW219953   6.677   3.636   3.956
 6352SOL     OW19954   4.000   6.150   4.940
 6352SOL    HW119955   4.009   6.210   5.020
 6352SOL    HW219956   4.092   6.125   4.908
 6353SOL     OW19957   0.653   6.794   6.045
 6353SOL    HW119958   0.718   6.726   6.010
 6353SOL    HW219959   0.677   6.818   6.139
 6354SOL     OW19960   2.153   5.584   2.698
 6354SOL    HW119961   2.203   5.524   2.760
 6354SOL    HW219962   2.077   5.627   2.747
 6355SOL     OW19963   0.827   5.422   0.007
 6355SOL    HW119964   0.789   5.502   6.980
 6355SOL    HW219965   0.757   5.382   0.066
 6356SOL     OW19966   4.619   5.788   1.971
 6356SOL    HW119967   4.525   5.801   2.002
 6356SOL    HW219968   4.619   5.774   1.872
 6357SOL     OW19969   6.029   3.655   2.978
 6357SOL    HW119970   5.957   3.724   2.966
 6357SOL    HW219971   5.988   3.565   2.984
 6358SOL     OW19972   0.823   2.288   6.168
 6358SOL    HW119973   0.756   2.214   6.175
 6358SOL    HW219974   0.795   2.352   6.097
 6359SOL     OW19975   5.873   6.760   6.875
 6359SOL    HW119976   5.882   6.688   6.943
 6359SOL    HW219977   5.951   6.822   6.882
 6360SOL     OW19978   1.413   4.218   3.684
 6360SOL    HW119979   1.316   4.221   3.660
 6360SOL    HW219980   1.422   4.205   3.783
 6361SOL     OW19981   0.829   6.965   1.772
 6361SOL    HW119982   0.770   6.887   1.752
 6361SOL    HW219983   0.810   6.998   1.864
 6362SOL     OW19984   6.669   6.195   0.154
 6362SOL    HW119985   6.747   6.169   0.097
 6362SOL    HW219986   6.663   6.133   0.232
 6363SOL     OW19987   1.576   4.977   3.297
 6363SOL    HW119988   1.638   5.041   3.252
 6363SOL    HW219989   1.499   4.957   3.236
 6364SOL     OW19990   2.880   1.147   5.745
 6364SOL    HW119991   2.815   1.119   5.816
 6364SOL    HW219992   2.924   1.066   5.706
 6365SOL     OW19993   5.644   0.593   3.902
 6365SOL    HW119994   5.554   0.623   3.872
 6365SOL    HW219995   5.686   0.665   3.959
 6366SOL     OW19996   0.938   5.982   6.193
 6366SOL    HW119997   0.972   5.933   6.113
 6366SOL    HW219998   0.932   6.080   6.172
 6367SOL     OW19999   4.358   1.431   5.411
 6367SOL    HW120000   4.302   1.484   5.474
 6367SOL    HW220001   4.302   1.361   5.367
 6368SOL     OW20002   3.560   4.987   4.013
 6368SOL    HW120003   3.635   4.930   3.978
 6368SOL    HW220004   3.536   4.957   4.106
 6369SOL     OW20005   2.320   5.439   3.419
 6369SOL    HW120006   2.313   5.353   3.468
 6369SOL    HW220007   2.295   5.515   3.480
 6370SOL     OW20008   0.138   2.777   3.641
 6370SOL    HW120009   0.184   2.732   3.717
 6370SOL    HW220010   0.202   2.790   3.566
 6371SOL     OW20011   5.052   4.547   3.874
 6371SOL    HW120012   5.144   4.559   3.911
 6371SOL    HW220013   4.993   4.621   3.908
 6372SOL     OW20014   2.036   0.570   1.665
 6372SOL    HW120015   2.013   0.577   1.762
 6372SOL    HW220016   1.962   0.522   1.617
 6373SOL     OW20017   4.887   3.965   2.516
 6373SOL    HW120018   4.927   3.917   2.438
 6373SOL    HW220019   4.812   4.023   2.486
 6374SOL     OW20020   3.284   4.022   3.207
 6374SOL    HW120021   3.345   3.943   3.218
 6374SOL    HW220022   3.202   3.994   3.157
 6375SOL     OW20023   0.049   2.045   3.964
 6375SOL    HW120024   6.986   2.091   3.932
 6375SOL    HW220025   0.028   1.950   3.986
 6376SOL     OW20026   5.741   2.022   4.555
 6376SOL    HW120027   5.702   2.098   4.607
 6376SOL    HW220028   5.710   2.027   4.460
 6377SOL     OW20029   6.608   1.968   5.311
 6377SOL    HW120030   6.580   1.928   5.224
 6377SOL    HW220031   6.626   1.895   5.377
 6378SOL     OW20032   4.386   5.336   4.377
 6378SOL    HW120033   4.350   5.243   4.382
 6378SOL    HW220034   4.377   5.380   4.467
 6379SOL     OW20035   1.526   3.742   4.495
 6379SOL    HW120036   1.492   3.824   4.541
 6379SOL    HW220037   1.471   3.663   4.522
 6380SOL     OW20038   0.283   1.770   5.317
 6380SOL    HW120039   0.306   1.726   5.230
 6380SOL    HW220040   0.261   1.700   5.385
 6381SOL     OW20041   3.948   3.171   1.606
 6381SOL    HW120042   4.011   3.191   1.681
 6381SOL    HW220043   3.973   3.083   1.564
 6382SOL     OW20044   1.782   2.038   1.026
 6382SOL    HW120045   1.765   1.939   1.029
 6382SOL    HW220046   1.794   2.072   1.119
 6383SOL     OW20047   1.647   1.967   2.690
 6383SOL    HW120048   1.742   1.964   2.660
 6383SOL    HW220049   1.631   1.897   2.760
 6384SOL     OW20050   6.213   4.253   2.096
 6384SOL    HW120051   6.118   4.246   2.126
 6384SOL    HW220052   6.229   4.342   2.054
 6385SOL     OW20053   0.576   4.540   3.947
 6385SOL    HW120054   0.512   4.563   4.020
 6385SOL    HW220055   0.563   4.602   3.870
 6386SOL     OW20056   2.257   4.753   6.249
 6386SOL    HW120057   2.209   4.839   6.233
 6386SOL    HW220058   2.197   4.677   6.224
 6387SOL     OW20059   6.922   2.173   6.533
 6387SOL    HW120060   7.000   2.110   6.531
 6387SOL    HW220061   6.840   2.126   6.498
 6388SOL     OW20062   3.705   5.556   1.786
 6388SOL    HW120063   3.633   5.491   1.808
 6388SOL    HW220064   3.707   5.629   1.854
 6389SOL     OW20065   0.716   5.880   2.207
 6389SOL    HW120066   0.733   5.964   2.155
 6389SOL    HW220067   0.648   5.898   2.278
 6390SOL     OW20068   0.956   1.185   5.898
 6390SOL    HW120069   0.889   1.244   5.943
 6390SOL    HW220070   1.047   1.204   5.935
 6391SOL     OW20071   2.976   6.984   5.815
 6391SOL    HW120072   2.891   6.988   5.866
 6391SOL    HW220073   3.031   0.044   5.835
 6392SOL     OW20074   2.934   5.183   2.503
 6392SOL    HW120075   2.865   5.123   2.463
 6392SOL    HW220076   2.908   5.206   2.597
 6393SOL     OW20077   6.744   6.950   2.501
 6393SOL    HW120078   6.697   6.946   2.589
 6393SOL    HW220079   6.825   6.892   2.503
 6394SOL     OW20080   2.098   5.091   0.570
 6394SOL    HW120081   2.062   5.080   0.477
 6394SOL    HW220082   2.098   5.188   0.594
 6395SOL     OW20083   0.438   2.269   0.543
 6395SOL    HW120084   0.367   2.336   0.565
 6395SOL    HW220085   0.514   2.315   0.497
 6396SOL     OW20086   4.544   3.064   6.226
 6396SOL    HW120087   4.489   3.057   6.309
 6396SOL    HW220088   4.640   3.077   6.250
 6397SOL     OW20089   5.826   2.011   0.359
 6397SOL    HW120090   5.896   1.989   0.292
 6397SOL    HW220091   5.735   1.997   0.319
 6398SOL     OW20092   2.272   6.784   1.904
 6398SOL    HW120093   2.360   6.763   1.862
 6398SOL    HW220094   2.199   6.758   1.841
 6399SOL     OW20095   1.360   6.313   6.833
 6399SOL    HW120096   1.359   6.366   6.749
 6399SOL    HW220097   1.367   6.216   6.812
 6400SOL     OW20098   2.399   6.314   2.416
 6400SOL    HW120099   2.475   6.380   2.410
 6400SOL    HW220100   2.321   6.358   2.462
 6401SOL     OW20101   5.900   4.848   3.350
 6401SOL    HW120102   5.816   4.881   3.393
 6401SOL    HW220103   5.971   4.839   3.420
 6402SOL     OW20104   3.342   1.938   3.227
 6402SOL    HW120105   3.382   1.969   3.141
 6402SOL    HW220106   3.351   2.009   3.296
 6403SOL     OW20107   6.827   6.094   6.993
 6403SOL    HW120108   6.885   6.158   6.942
 6403SOL    HW220109   6.770   6.042   6.928
 6404SOL     OW20110   4.411   1.643   1.808
 6404SOL    HW120111   4.374   1.736   1.815
 6404SOL    HW220112   4.349   1.587   1.752
 6405SOL     OW20113   2.623   0.471   3.898
 6405SOL    HW120114   2.602   0.386   3.946
 6405SOL    HW220115   2.653   0.540   3.963
 6406SOL     OW20116   0.448   2.928   2.982
 6406SOL    HW120117   0.366   2.954   3.033
 6406SOL    HW220118   0.439   2.833   2.951
 6407SOL     OW20119   2.601   5.988   4.654
 6407SOL    HW120120   2.566   6.079   4.628
 6407SOL    HW220121   2.561   5.961   4.741
 6408SOL     OW20122   5.345   1.681   6.696
 6408SOL    HW120123   5.385   1.603   6.746
 6408SOL    HW220124   5.399   1.763   6.713
 6409SOL     OW20125   6.839   4.402   4.073
 6409SOL    HW120126   6.895   4.334   4.122
 6409SOL    HW220127   6.743   4.387   4.093
 6410SOL     OW20128   1.582   1.448   6.927
 6410SOL    HW120129   1.509   1.380   6.932
 6410SOL    HW220130   1.670   1.402   6.924
 6411SOL     OW20131   1.062   2.621   2.978
 6411SOL    HW120132   1.086   2.659   2.888
 6411SOL    HW220133   1.055   2.695   3.044
 6412SOL     OW20134   0.573   2.497   5.061
 6412SOL    HW120135   0.526   2.412   5.086
 6412SOL    HW220136   0.505   2.568   5.044
 6413SOL     OW20137   4.203   4.835   4.059
 6413SOL    HW120138   4.146   4.849   4.141
 6413SOL    HW220139   4.274   4.768   4.079
 6414SOL     OW20140   5.591   1.118   0.691
 6414SOL    HW120141   5.521   1.064   0.738
 6414SOL    HW220142   5.555   1.209   0.671
 6415SOL     OW20143   1.799   2.963   2.864
 6415SOL    HW120144   1.808   2.864   2.879
 6415SOL    HW220145   1.848   2.989   2.782
 6416SOL     OW20146   1.005   1.395   6.789
 6416SOL    HW120147   0.934   1.393   6.860
 6416SOL    HW220148   0.968   1.355   6.705
 6417SOL     OW20149   6.524   5.151   1.279
 6417SOL    HW120150   6.459   5.227   1.288
 6417SOL    HW220151   6.554   5.123   1.370
 6418SOL     OW20152   4.840   4.178   1.826
 6418SOL    HW120153   4.795   4.148   1.743
 6418SOL    HW220154   4.773   4.192   1.899
 6419SOL     OW20155   2.225   4.679   3.403
 6419SOL    HW120156   2.202   4.774   3.423
 6419SOL    HW220157   2.314   4.657   3.443
 6420SOL     OW20158   3.346   5.035   4.912
 6420SOL    HW120159   3.357   5.120   4.862
 6420SOL    HW220160   3.394   5.040   4.999
 6421SOL     OW20161   5.261   0.548   2.628
 6421SOL    HW120162   5.296   0.640   2.645
 6421SOL    HW220163   5.338   0.485   2.614
 6422SOL     OW20164   0.152   0.742   4.460
 6422SOL    HW120165   0.079   0.674   4.466
 6422SOL    HW220166   0.162   0.772   4.365
 6423SOL     OW20167   4.568   5.270   3.026
 6423SOL    HW120168   4.498   5.304   3.089
 6423SOL    HW220169   4.655   5.260   3.075
 6424SOL     OW20170   6.982   5.947   5.938
 6424SOL    HW120171   7.017   6.006   5.865
 6424SOL    HW220172   0.030   5.879   5.963
 6425SOL     OW20173   6.402   6.500   3.027
 6425SOL    HW120174   6.360   6.584   2.994
 6425SOL    HW220175   6.487   6.483   2.978
 6426SOL     OW20176   1.361   5.145   2.592
 6426SOL    HW120177   1.288   5.090   2.550
 6426SOL    HW220178   1.368   5.121   2.689
 6427SOL     OW20179   3.447   3.277   4.667
 6427SOL    HW120180   3.498   3.205   4.620
 6427SOL    HW220181   3.408   3.240   4.752
 6428SOL     OW20182   5.870   3.570   5.990
 6428SOL    HW120183   5.831   3.639   6.050
 6428SOL    HW220184   5.811   3.489   5.989
 6429SOL     OW20185   1.880   1.829   6.133
 6429SOL    HW120186   1.975   1.820   6.103
 6429SOL    HW220187   1.840   1.739   6.146
 6430SOL     OW20188   6.433   1.021   2.468
 6430SOL    HW120189   6.412   1.116   2.490
 6430SOL    HW220190   6.352   0.965   2.480
 6431SOL     OW20191   5.593   6.929   3.578
 6431SOL    HW120192   5.537   6.877   3.514
 6431SOL    HW220193   5.573   0.006   3.567
 6432SOL     OW20194   4.054   4.230   6.590
 6432SOL    HW120195   4.130   4.183   6.545
 6432SOL    HW220196   4.047   4.323   6.556
 6433SOL     OW20197   2.557   4.803   6.526
 6433SOL    HW120198   2.462   4.780   6.543
 6433SOL    HW220199   2.591   4.860   6.601
 6434SOL     OW20200   2.353   4.072   0.070
 6434SOL    HW120201   2.306   4.100   0.154
 6434SOL    HW220202   2.349   4.146   0.003
 6435SOL     OW20203   4.811   6.764   0.181
 6435SOL    HW120204   4.894   6.765   0.237
 6435SOL    HW220205   4.736   6.807   0.231
 6436SOL     OW20206   2.098   3.210   3.091
 6436SOL    HW120207   2.152   3.129   3.068
 6436SOL    HW220208   2.004   3.182   3.114
 6437SOL     OW20209   2.404   2.103   0.633
 6437SOL    HW120210   2.496   2.065   0.644
 6437SOL    HW220211   2.356   2.053   0.561
 6438SOL     OW20212   6.456   4.837   6.249
 6438SOL    HW120213   6.409   4.858   6.335
 6438SOL    HW220214   6.546   4.881   6.249
 6439SOL     OW20215   5.661   1.381   1.673
 6439SOL    HW120216   5.735   1.315   1.680
 6439SOL    HW220217   5.575   1.334   1.655
 6440SOL     OW20218   2.114   1.528   6.169
 6440SOL    HW120219   2.186   1.594   6.192
 6440SOL    HW220220   2.154   1.438   6.154
 6441SOL     OW20221   6.775   6.408   2.333
 6441SOL    HW120222   6.738   6.454   2.413
 6441SOL    HW220223   6.863   6.447   2.308
 6442SOL     OW20224   2.198   0.779   4.512
 6442SOL    HW120225   2.138   0.759   4.434
 6442SOL    HW220226   2.291   0.795   4.479
 6443SOL     OW20227   4.119   2.297   5.337
 6443SOL    HW120228   4.136   2.380   5.283
 6443SOL    HW220229   4.043   2.246   5.297
 6444SOL     OW20230   6.238   2.884   3.847
 6444SOL    HW120231   6.251   2.949   3.772
 6444SOL    HW220232   6.162   2.915   3.905
 6445SOL     OW20233   3.934   3.372   5.021
 6445SOL    HW120234   4.004   3.352   5.088
 6445SOL    HW220235   3.869   3.439   5.059
 6446SOL     OW20236   1.334   1.106   6.428
 6446SOL    HW120237   1.363   1.166   6.503
 6446SOL    HW220238   1.238   1.082   6.439
 6447SOL     OW20239   5.400   5.097   3.186
 6447SOL    HW120240   5.422   5.143   3.100
 6447SOL    HW220241   5.304   5.068   3.184
 6448SOL     OW20242   3.989   5.479   1.853
 6448SOL    HW120243   3.989   5.380   1.865
 6448SOL    HW220244   3.899   5.509   1.822
 6449SOL     OW20245   3.428   4.805   0.475
 6449SOL    HW120246   3.508   4.854   0.440
 6449SOL    HW220247   3.353   4.870   0.490
 6450SOL     OW20248   0.759   4.065   1.160
 6450SOL    HW120249   0.736   4.158   1.133
 6450SOL    HW220250   0.741   4.002   1.084
 6451SOL     OW20251   2.685   0.294   4.663
 6451SOL    HW120252   2.598   0.273   4.618
 6451SOL    HW220253   2.726   0.375   4.620
 6452SOL     OW20254   3.982   6.140   4.599
 6452SOL    HW120255   3.987   6.047   4.562
 6452SOL    HW220256   3.936   6.138   4.687
 6453SOL     OW20257   2.502   6.383   1.196
 6453SOL    HW120258   2.586   6.328   1.203
 6453SOL    HW220259   2.516   6.471   1.243
 6454SOL     OW20260   2.111   1.875   3.297
 6454SOL    HW120261   2.123   1.969   3.326
 6454SOL    HW220262   2.025   1.839   3.333
 6455SOL     OW20263   0.368   2.561   3.716
 6455SOL    HW120264   0.271   2.557   3.743
 6455SOL    HW220265   0.378   2.527   3.623
 6456SOL     OW20266   1.095   0.963   3.485
 6456SOL    HW120267   1.123   0.889   3.545
 6456SOL    HW220268   1.041   1.030   3.537
 6457SOL     OW20269   5.019   1.774   0.631
 6457SOL    HW120270   5.037   1.686   0.587
 6457SOL    HW220271   4.965   1.760   0.714
 6458SOL     OW20272   0.481   6.463   3.891
 6458SOL    HW120273   0.500   6.552   3.850
 6458SOL    HW220274   0.390   6.463   3.932
 6459SOL     OW20275   6.335   3.573   0.476
 6459SOL    HW120276   6.239   3.546   0.472
 6459SOL    HW220277   6.360   3.618   0.390
 6460SOL     OW20278   5.168   6.266   5.711
 6460SOL    HW120279   5.078   6.265   5.667
 6460SOL    HW220280   5.239   6.253   5.641
 6461SOL     OW20281   2.457   4.928   5.671
 6461SOL    HW120282   2.489   4.972   5.755
 6461SOL    HW220283   2.361   4.952   5.655
 6462SOL     OW20284   2.313   2.691   4.474
 6462SOL    HW120285   2.264   2.695   4.387
 6462SOL    HW220286   2.290   2.771   4.529
 6463SOL     OW20287   6.547   3.542   6.552
 6463SOL    HW120288   6.570   3.509   6.460
 6463SOL    HW220289   6.569   3.639   6.558
 6464SOL     OW20290   1.278   5.623   4.544
 6464SOL    HW120291   1.183   5.625   4.510
 6464SOL    HW220292   1.296   5.534   4.585
 6465SOL     OW20293   6.579   2.973   2.809
 6465SOL    HW120294   6.661   3.008   2.856
 6465SOL    HW220295   6.605   2.938   2.719
 6466SOL     OW20296   1.202   1.405   6.228
 6466SOL    HW120297   1.189   1.476   6.158
 6466SOL    HW220298   1.199   1.315   6.185
 6467SOL     OW20299   3.180   1.321   0.329
 6467SOL    HW120300   3.141   1.246   0.381
 6467SOL    HW220301   3.155   1.313   0.233
 6468SOL     OW20302   3.611   6.199   0.431
 6468SOL    HW120303   3.568   6.158   0.512
 6468SOL    HW220304   3.577   6.292   0.419
 6469SOL     OW20305   5.329   1.258   4.595
 6469SOL    HW120306   5.342   1.165   4.559
 6469SOL    HW220307   5.398   1.319   4.557
 6470SOL     OW20308   6.161   3.924   0.494
 6470SOL    HW120309   6.224   3.976   0.436
 6470SOL    HW220310   6.213   3.868   0.558
 6471SOL     OW20311   6.301   6.922   5.745
 6471SOL    HW120312   6.295   6.979   5.663
 6471SOL    HW220313   6.279   6.977   5.826
 6472SOL     OW20314   0.521   6.109   1.259
 6472SOL    HW120315   0.563   6.050   1.328
 6472SOL    HW220316   0.478   6.188   1.304
 6473SOL     OW20317   3.474   0.874   4.683
 6473SOL    HW120318   3.510   0.797   4.631
 6473SOL    HW220319   3.549   0.918   4.733
 6474SOL     OW20320   1.941   4.617   6.046
 6474SOL    HW120321   1.869   4.563   6.003
 6474SOL    HW220322   2.003   4.556   6.095
 6475SOL     OW20323   6.267   5.157   3.789
 6475SOL    HW120324   6.334   5.084   3.773
 6475SOL    HW220325   6.248   5.162   3.887
 6476SOL     OW20326   4.435   3.532   0.877
 6476SOL    HW120327   4.446   3.589   0.796
 6476SOL    HW220328   4.373   3.578   0.942
 6477SOL     OW20329   6.547   4.744   1.481
 6477SOL    HW120330   6.633   4.746   1.533
 6477SOL    HW220331   6.562   4.783   1.390
 6478SOL     OW20332   3.247   0.415   2.262
 6478SOL    HW120333   3.241   0.492   2.325
 6478SOL    HW220334   3.300   0.341   2.304
 6479SOL     OW20335   4.128   5.757   4.079
 6479SOL    HW120336   4.152   5.728   3.986
 6479SOL    HW220337   4.057   5.697   4.115
 6480SOL     OW20338   2.901   1.901   6.124
 6480SOL    HW120339   2.809   1.859   6.124
 6480SOL    HW220340   2.970   1.828   6.123
 6481SOL     OW20341   3.893   1.942   1.887
 6481SOL    HW120342   3.935   1.920   1.975
 6481SOL    HW220343   3.872   2.039   1.883
 6482SOL     OW20344   0.348   0.796   6.458
 6482SOL    HW120345   0.302   0.744   6.386
 6482SOL    HW220346   0.292   0.795   6.541
 6483SOL     OW20347   1.149   6.109   1.794
 6483SOL    HW120348   1.086   6.032   1.804
 6483SOL    HW220349   1.122   6.183   1.856
 6484SOL     OW20350   3.620   6.690   1.536
 6484SOL    HW120351   3.565   6.642   1.604
 6484SOL    HW220352   3.569   6.699   1.451
 6485SOL     OW20353   2.181   4.747   3.710
 6485SOL    HW120354   2.115   4.813   3.674
 6485SOL    HW220355   2.272   4.766   3.672
 6486SOL     OW20356   2.421   4.824   3.623
 6486SOL    HW120357   2.482   4.857   3.551
 6486SOL    HW220358   2.412   4.894   3.694
 6487SOL     OW20359   6.980   6.549   4.863
 6487SOL    HW120360   6.881   6.560   4.853
 6487SOL    HW220361   0.004   6.578   4.778
 6488SOL     OW20362   3.927   6.347   4.193
 6488SOL    HW120363   4.012   6.300   4.213
 6488SOL    HW220364   3.871   6.353   4.275
 6489SOL     OW20365   3.078   2.840   6.723
 6489SOL    HW120366   3.168   2.796   6.715
 6489SOL    HW220367   3.018   2.783   6.779
 6490SOL     OW20368   3.960   0.813   6.645
 6490SOL    HW120369   4.028   0.846   6.710
 6490SOL    HW220370   3.978   0.852   6.554
 6491SOL     OW20371   3.372   0.535   0.608
 6491SOL    HW120372   3.437   0.594   0.655
 6491SOL    HW220373   3.363   0.564   0.512
 6492SOL     OW20374   4.675   5.212   0.368
 6492SOL    HW120375   4.717   5.243   0.454
 6492SOL    HW220376   4.693   5.279   0.296
 6493SOL     OW20377   1.385   5.025   4.976
 6493SOL    HW120378   1.387   5.084   5.057
 6493SOL    HW220379   1.360   5.079   4.896
 6494SOL     OW20380   0.141   0.502   3.333
 6494SOL    HW120381   0.098   0.413   3.323
 6494SOL    HW220382   0.070   0.573   3.339
 6495SOL     OW20383   5.038   6.729   4.308
 6495SOL    HW120384   5.044   6.783   4.392
 6495SOL    HW220385   4.977   6.651   4.323
 6496SOL     OW20386   6.917   0.621   3.292
 6496SOL    HW120387   6.869   0.597   3.376
 6496SOL    HW220388   6.873   0.700   3.249
 6497SOL     OW20389   1.936   2.652   0.908
 6497SOL    HW120390   1.897   2.740   0.935
 6497SOL    HW220391   1.996   2.664   0.829
 6498SOL     OW20392   2.210   4.108   3.107
 6498SOL    HW120393   2.272   4.141   3.036
 6498SOL    HW220394   2.207   4.175   3.182
 6499SOL     OW20395   4.892   2.780   4.945
 6499SOL    HW120396   4.940   2.707   4.896
 6499SOL    HW220397   4.959   2.838   4.990
 6500SOL     OW20398   7.000   3.921   4.020
 6500SOL    HW120399   0.051   3.975   4.065
 6500SOL    HW220400   6.928   3.982   3.986
 6501SOL     OW20401   6.689   2.530   6.713
 6501SOL    HW120402   6.740   2.614   6.697
 6501SOL    HW220403   6.620   2.545   6.783
 6502SOL     OW20404   6.082   2.671   1.872
 6502SOL    HW120405   5.999   2.616   1.876
 6502SOL    HW220406   6.119   2.668   1.779
 6503SOL     OW20407   4.668   1.222   3.108
 6503SOL    HW120408   4.692   1.298   3.048
 6503SOL    HW220409   4.739   1.210   3.177
 6504SOL     OW20410   4.478   5.798   6.048
 6504SOL    HW120411   4.393   5.748   6.033
 6504SOL    HW220412   4.514   5.829   5.960
 6505SOL     OW20413   5.480   6.046   1.371
 6505SOL    HW120414   5.518   5.960   1.407
 6505SOL    HW220415   5.532   6.074   1.290
 6506SOL     OW20416   6.602   2.565   1.814
 6506SOL    HW120417   6.535   2.491   1.812
 6506SOL    HW220418   6.583   2.626   1.891
 6507SOL     OW20419   1.984   5.154   5.482
 6507SOL    HW120420   2.056   5.183   5.418
 6507SOL    HW220421   1.924   5.088   5.437
 6508SOL     OW20422   1.158   0.850   2.791
 6508SOL    HW120423   1.162   0.757   2.755
 6508SOL    HW220424   1.119   0.910   2.722
 6509SOL     OW20425   2.809   1.891   4.355
 6509SOL    HW120426   2.724   1.944   4.346
 6509SOL    HW220427   2.835   1.886   4.451
 6510SOL     OW20428   6.501   4.905   6.803
 6510SOL    HW120429   6.420   4.941   6.756
 6510SOL    HW220430   6.529   4.819   6.761
 6511SOL     OW20431   4.550   1.406   4.468
 6511SOL    HW120432   4.596   1.445   4.389
 6511SOL    HW220433   4.559   1.468   4.546
 6512SOL     OW20434   4.864   6.302   2.178
 6512SOL    HW120435   4.818   6.215   2.195
 6512SOL    HW220436   4.801   6.364   2.132
 6513SOL     OW20437   3.193   5.398   2.979
 6513SOL    HW120438   3.164   5.305   3.002
 6513SOL    HW220439   3.191   5.455   3.061
 6514SOL     OW20440   5.835   1.252   3.877
 6514SOL    HW120441   5.741   1.219   3.877
 6514SOL    HW220442   5.861   1.279   3.784
 6515SOL     OW20443   0.494   4.938   4.803
 6515SOL    HW120444   0.593   4.944   4.785
 6515SOL    HW220445   0.479   4.915   4.899
 6516SOL     OW20446   0.115   3.241   1.599
 6516SOL    HW120447   0.130   3.269   1.694
 6516SOL    HW220448   0.049   3.304   1.557
 6517SOL     OW20449   6.246   0.171   1.041
 6517SOL    HW120450   6.199   0.084   1.024
 6517SOL    HW220451   6.342   0.163   1.015
 6518SOL     OW20452   6.847   6.862   6.598
 6518SOL    HW120453   6.806   6.779   6.561
 6518SOL    HW220454   6.894   6.912   6.525
 6519SOL     OW20455   1.490   1.328   3.562
 6519SOL    HW120456   1.588   1.307   3.555
 6519SOL    HW220457   1.447   1.264   3.626
 6520SOL     OW20458   5.368   5.577   2.489
 6520SOL    HW120459   5.367   5.553   2.586
 6520SOL    HW220460   5.425   5.511   2.439
 6521SOL     OW20461   2.243   2.998   4.302
 6521SOL    HW120462   2.269   2.983   4.397
 6521SOL    HW220463   2.149   2.966   4.287
 6522SOL     OW20464   4.184   4.380   0.109
 6522SOL    HW120465   4.155   4.473   0.131
 6522SOL    HW220466   4.137   4.315   0.169
 6523SOL     OW20467   4.403   1.547   6.598
 6523SOL    HW120468   4.444   1.632   6.632
 6523SOL    HW220469   4.325   1.523   6.657
 6524SOL     OW20470   2.661   3.996   1.675
 6524SOL    HW120471   2.674   4.046   1.590
 6524SOL    HW220472   2.577   3.943   1.670
 6525SOL     OW20473   2.031   4.872   2.516
 6525SOL    HW120474   2.000   4.824   2.598
 6525SOL    HW220475   2.027   4.971   2.531
 6526SOL     OW20476   2.368   6.554   6.660
 6526SOL    HW120477   2.320   6.630   6.615
 6526SOL    HW220478   2.408   6.494   6.590
 6527SOL     OW20479   0.875   2.829   4.777
 6527SOL    HW120480   0.842   2.779   4.858
 6527SOL    HW220481   0.805   2.894   4.748
 6528SOL     OW20482   6.676   1.027   4.930
 6528SOL    HW120483   6.670   0.929   4.912
 6528SOL    HW220484   6.747   1.067   4.871
 6529SOL     OW20485   1.284   1.779   2.649
 6529SOL    HW120486   1.263   1.809   2.556
 6529SOL    HW220487   1.341   1.697   2.645
 6530SOL     OW20488   0.086   3.961   0.316
 6530SOL    HW120489   0.092   3.921   0.408
 6530SOL    HW220490   0.036   3.899   0.256
 6531SOL     OW20491   5.564   2.951   5.118
 6531SOL    HW120492   5.539   2.975   5.024
 6531SOL    HW220493   5.655   2.986   5.138
 6532SOL     OW20494   6.377   0.917   0.210
 6532SOL    HW120495   6.291   0.966   0.228
 6532SOL    HW220496   6.369   0.823   0.244
 6533SOL     OW20497   4.584   0.006   1.613
 6533SOL    HW120498   4.608   0.072   1.684
 6533SOL    HW220499   4.485   7.009   1.617
 6534SOL     OW20500   3.378   4.232   1.310
 6534SOL    HW120501   3.412   4.177   1.233
 6534SOL    HW220502   3.305   4.182   1.356
 6535SOL     OW20503   6.083   3.985   4.401
 6535SOL    HW120504   6.166   3.935   4.376
 6535SOL    HW220505   6.102   4.083   4.402
 6536SOL     OW20506   1.027   1.511   5.664
 6536SOL    HW120507   0.950   1.560   5.705
 6536SOL    HW220508   1.081   1.574   5.608
 6537SOL     OW20509   6.573   5.231   0.220
 6537SOL    HW120510   6.475   5.214   0.229
 6537SOL    HW220511   6.621   5.145   0.208
 6538SOL     OW20512   2.704   3.239   6.767
 6538SOL    HW120513   2.786   3.264   6.818
 6538SOL    HW220514   2.695   3.139   6.766
 6539SOL     OW20515   3.799   0.858   5.994
 6539SOL    HW120516   3.754   0.940   6.028
 6539SOL    HW220517   3.844   0.878   5.907
 6540SOL     OW20518   4.441   1.814   5.271
 6540SOL    HW120519   4.402   1.856   5.353
 6540SOL    HW220520   4.446   1.715   5.284
 6541SOL     OW20521   4.805   1.702   5.289
 6541SOL    HW120522   4.850   1.693   5.200
 6541SOL    HW220523   4.719   1.651   5.289
 6542SOL     OW20524   6.155   4.324   4.288
 6542SOL    HW120525   6.173   4.419   4.263
 6542SOL    HW220526   6.197   4.305   4.377
 6543SOL     OW20527   6.046   3.273   5.709
 6543SOL    HW120528   6.030   3.241   5.615
 6543SOL    HW220529   5.960   3.268   5.760
 6544SOL     OW20530   0.471   6.326   2.775
 6544SOL    HW120531   0.471   6.372   2.863
 6544SOL    HW220532   0.459   6.394   2.702
 6545SOL     OW20533   4.625   1.840   0.569
 6545SOL    HW120534   4.667   1.893   0.641
 6545SOL    HW220535   4.577   1.761   0.609
 6546SOL     OW20536   3.483   4.309   6.818
 6546SOL    HW120537   3.572   4.354   6.823
 6546SOL    HW220538   3.434   4.319   6.905
 6547SOL     OW20539   4.594   1.546   5.633
 6547SOL    HW120540   4.660   1.566   5.561
 6547SOL    HW220541   4.638   1.556   5.723
 6548SOL     OW20542   1.144   4.444   6.910
 6548SOL    HW120543   1.140   4.380   6.987
 6548SOL    HW220544   1.205   4.408   6.839
 6549SOL     OW20545   4.735   0.973   1.328
 6549SOL    HW120546   4.793   0.896   1.355
 6549SOL    HW220547   4.669   0.942   1.259
 6550SOL     OW20548   0.571   6.653   4.221
 6550SOL    HW120549   0.619   6.594   4.286
 6550SOL    HW220550   0.472   6.637   4.229
 6551SOL     OW20551   1.257   4.902   2.507
 6551SOL    HW120552   1.169   4.905   2.461
 6551SOL    HW220553   1.257   4.829   2.576
 6552SOL     OW20554   1.921   6.538   5.599
 6552SOL    HW120555   1.931   6.614   5.535
 6552SOL    HW220556   1.845   6.557   5.662
 6553SOL     OW20557   0.531   2.133   3.207
 6553SOL    HW120558   0.575   2.167   3.123
 6553SOL    HW220559   0.587   2.159   3.286
 6554SOL     OW20560   6.682   1.170   5.203
 6554SOL    HW120561   6.606   1.216   5.157
 6554SOL    HW220562   6.720   1.101   5.142
 6555SOL     OW20563   0.169   2.270   2.220
 6555SOL    HW120564   0.104   2.283   2.145
 6555SOL    HW220565   0.249   2.327   2.205
 6556SOL     OW20566   5.072   4.584   4.968
 6556SOL    HW120567   4.994   4.615   4.914
 6556SOL    HW220568   5.051   4.496   5.011
 6557SOL     OW20569   3.250   6.389   1.441
 6557SOL    HW120570   3.157   6.405   1.475
 6557SOL    HW220571   3.266   6.447   1.361
 6558SOL     OW20572   6.138   4.934   0.305
 6558SOL    HW120573   6.216   4.996   0.294
 6558SOL    HW220574   6.120   4.889   0.218
 6559SOL     OW20575   1.103   4.523   5.974
 6559SOL    HW120576   1.190   4.516   6.025
 6559SOL    HW220577   1.109   4.597   5.907
 6560SOL     OW20578   4.419   5.500   0.742
 6560SOL    HW120579   4.392   5.439   0.668
 6560SOL    HW220580   4.514   5.481   0.769
 6561SOL     OW20581   3.815   4.171   1.722
 6561SOL    HW120582   3.721   4.169   1.689
 6561SOL    HW220583   3.860   4.256   1.692
 6562SOL     OW20584   5.728   4.086   0.931
 6562SOL    HW120585   5.742   4.030   0.848
 6562SOL    HW220586   5.666   4.038   0.993
 6563SOL     OW20587   5.730   6.678   0.628
 6563SOL    HW120588   5.765   6.771   0.620
 6563SOL    HW220589   5.653   6.677   0.692
 6564SOL     OW20590   7.013   4.354   3.247
 6564SOL    HW120591   0.027   4.295   3.320
 6564SOL    HW220592   6.955   4.425   3.287
 6565SOL     OW20593   6.591   2.776   3.692
 6565SOL    HW120594   6.526   2.720   3.743
 6565SOL    HW220595   6.683   2.759   3.727
 6566SOL     OW20596   3.802   5.850   2.571
 6566SOL    HW120597   3.872   5.918   2.549
 6566SOL    HW220598   3.753   5.823   2.488
 6567SOL     OW20599   4.143   1.547   1.755
 6567SOL    HW120600   4.082   1.626   1.750
 6567SOL    HW220601   4.120   1.492   1.836
 6568SOL     OW20602   4.197   1.129   4.004
 6568SOL    HW120603   4.285   1.168   3.974
 6568SOL    HW220604   4.141   1.200   4.045
 6569SOL     OW20605   2.693   3.650   6.720
 6569SOL    HW120606   2.673   3.745   6.695
 6569SOL    HW220607   2.618   3.591   6.690
 6570SOL     OW20608   4.155   0.494   2.562
 6570SOL    HW120609   4.196   0.498   2.470
 6570SOL    HW220610   4.070   0.546   2.562
 6571SOL     OW20611   2.601   5.437   2.229
 6571SOL    HW120612   2.533   5.478   2.167
 6571SOL    HW220613   2.655   5.510   2.272
 6572SOL     OW20614   6.460   5.107   5.876
 6572SOL    HW120615   6.466   5.186   5.815
 6572SOL    HW220616   6.366   5.075   5.880
 6573SOL     OW20617   2.406   1.581   2.016
 6573SOL    HW120618   2.369   1.543   2.101
 6573SOL    HW220619   2.504   1.600   2.028
 6574SOL     OW20620   3.819   5.727   3.213
 6574SOL    HW120621   3.835   5.634   3.180
 6574SOL    HW220622   3.771   5.723   3.301
 6575SOL     OW20623   1.146   0.388   2.119
 6575SOL    HW120624   1.089   0.456   2.072
 6575SOL    HW220625   1.108   0.370   2.210
 6576SOL     OW20626   2.203   5.760   6.464
 6576SOL    HW120627   2.258   5.828   6.514
 6576SOL    HW220628   2.107   5.789   6.465
 6577SOL     OW20629   0.607   0.914   3.990
 6577SOL    HW120630   0.573   0.988   3.931
 6577SOL    HW220631   0.694   0.941   4.030
 6578SOL     OW20632   1.208   4.178   2.925
 6578SOL    HW120633   1.169   4.137   2.842
 6578SOL    HW220634   1.135   4.193   2.992
 6579SOL     OW20635   6.970   3.425   5.224
 6579SOL    HW120636   6.914   3.420   5.307
 6579SOL    HW220637   7.010   3.517   5.217
 6580SOL     OW20638   6.942   2.012   0.830
 6580SOL    HW120639   0.013   2.041   0.803
 6580SOL    HW220640   6.905   2.075   0.898
 6581SOL     OW20641   2.469   1.270   0.083
 6581SOL    HW120642   2.460   1.191   0.142
 6581SOL    HW220643   2.497   1.350   0.137
 6582SOL     OW20644   1.463   1.225   1.232
 6582SOL    HW120645   1.463   1.125   1.238
 6582SOL    HW220646   1.443   1.263   1.322
 6583SOL     OW20647   3.313   7.006   4.520
 6583SOL    HW120648   3.393   6.953   4.547
 6583SOL    HW220649   3.237   6.943   4.502
 6584SOL     OW20650   4.283   1.749   0.472
 6584SOL    HW120651   4.301   1.814   0.399
 6584SOL    HW220652   4.347   1.672   0.466
 6585SOL     OW20653   6.459   6.572   0.236
 6585SOL    HW120654   6.388   6.588   0.167
 6585SOL    HW220655   6.540   6.627   0.213
 6586SOL     OW20656   6.802   1.570   5.640
 6586SOL    HW120657   6.820   1.472   5.627
 6586SOL    HW220658   6.778   1.587   5.736
 6587SOL     OW20659   2.536   6.115   5.063
 6587SOL    HW120660   2.526   6.162   4.975
 6587SOL    HW220661   2.633   6.095   5.078
 6588SOL     OW20662   1.053   3.867   2.123
 6588SOL    HW120663   1.093   3.776   2.127
 6588SOL    HW220664   1.070   3.908   2.033
 6589SOL     OW20665   5.138   0.464   0.540
 6589SOL    HW120666   5.045   0.499   0.551
 6589SOL    HW220667   5.166   0.475   0.445
 6590SOL     OW20668   0.981   0.992   5.060
 6590SOL    HW120669   0.926   0.988   4.977
 6590SOL    HW220670   0.964   0.912   5.117
 6591SOL     OW20671   5.465   5.889   1.716
 6591SOL    HW120672   5.385   5.878   1.775
 6591SOL    HW220673   5.546   5.856   1.764
 6592SOL     OW20674   5.995   6.977   4.108
 6592SOL    HW120675   5.907   0.002   4.095
 6592SOL    HW220676   6.060   0.020   4.149
 6593SOL     OW20677   2.741   1.736   2.842
 6593SOL    HW120678   2.804   1.727   2.918
 6593SOL    HW220679   2.650   1.707   2.870
 6594SOL     OW20680   3.758   2.186   6.966
 6594SOL    HW120681   3.679   2.228   6.919
 6594SOL    HW220682   3.754   2.087   6.955
 6595SOL     OW20683   1.022   3.363   0.511
 6595SOL    HW120684   0.947   3.423   0.482
 6595SOL    HW220685   0.985   3.276   0.542
 6596SOL     OW20686   3.364   6.271   4.389
 6596SOL    HW120687   3.420   6.248   4.310
 6596SOL    HW220688   3.284   6.211   4.392
 6597SOL     OW20689   2.776   5.595   2.362
 6597SOL    HW120690   2.873   5.616   2.370
 6597SOL    HW220691   2.734   5.597   2.453
 6598SOL     OW20692   1.232   6.704   4.151
 6598SOL    HW120693   1.155   6.675   4.208
 6598SOL    HW220694   1.287   6.771   4.202
 6599SOL     OW20695   5.170   6.938   5.546
 6599SOL    HW120696   5.205   6.853   5.586
 6599SOL    HW220697   5.219   6.957   5.461
 6600SOL     OW20698   5.004   5.261   6.156
 6600SOL    HW120699   5.069   5.316   6.105
 6600SOL    HW220700   4.913   5.271   6.116
 6601SOL     OW20701   0.901   2.006   5.441
 6601SOL    HW120702   0.840   1.928   5.427
 6601SOL    HW220703   0.923   2.047   5.353
 6602SOL     OW20704   0.943   1.501   1.459
 6602SOL    HW120705   0.994   1.421   1.430
 6602SOL    HW220706   0.902   1.545   1.379
 6603SOL     OW20707   0.355   2.835   4.013
 6603SOL    HW120708   0.453   2.819   4.017
 6603SOL    HW220709   0.306   2.749   4.032
 6604SOL     OW20710   2.187   6.635   1.230
 6604SOL    HW120711   2.245   6.620   1.150
 6604SOL    HW220712   2.133   6.552   1.247
 6605SOL     OW20713   5.554   4.052   1.341
 6605SOL    HW120714   5.457   4.075   1.346
 6605SOL    HW220715   5.609   4.133   1.361
 6606SOL     OW20716   6.377   6.253   2.241
 6606SOL    HW120717   6.455   6.192   2.253
 6606SOL    HW220718   6.409   6.348   2.236
 6607SOL     OW20719   1.487   2.984   2.633
 6607SOL    HW120720   1.580   2.946   2.627
 6607SOL    HW220721   1.431   2.946   2.559
 6608SOL     OW20722   6.401   6.441   1.474
 6608SOL    HW120723   6.448   6.507   1.533
 6608SOL    HW220724   6.338   6.490   1.413
 6609SOL     OW20725   4.796   1.126   5.713
 6609SOL    HW120726   4.737   1.147   5.635
 6609SOL    HW220727   4.794   1.202   5.778
 6610SOL     OW20728   2.199   0.659   6.819
 6610SOL    HW120729   2.216   0.687   6.725
 6610SOL    HW220730   2.212   0.737   6.880
 6611SOL     OW20731   6.378   3.131   3.561
 6611SOL    HW120732   6.290   3.094   3.533
 6611SOL    HW220733   6.408   3.087   3.645
 6612SOL     OW20734   6.373   1.876   6.623
 6612SOL    HW120735   6.423   1.792   6.642
 6612SOL    HW220736   6.322   1.905   6.704
 6613SOL     OW20737   6.761   6.303   4.947
 6613SOL    HW120738   6.727   6.386   4.992
 6613SOL    HW220739   6.860   6.311   4.934
 6614SOL     OW20740   5.360   5.987   1.038
 6614SOL    HW120741   5.438   6.025   1.088
 6614SOL    HW220742   5.374   5.889   1.024
 6615SOL     OW20743   1.189   4.644   2.223
 6615SOL    HW120744   1.283   4.672   2.245
 6615SOL    HW220745   1.127   4.720   2.241
 6616SOL     OW20746   3.323   1.330   6.426
 6616SOL    HW120747   3.376   1.336   6.510
 6616SOL    HW220748   3.298   1.235   6.408
 6617SOL     OW20749   4.052   5.264   2.772
 6617SOL    HW120750   3.968   5.251   2.825
 6617SOL    HW220751   4.128   5.283   2.834
 6618SOL     OW20752   1.143   2.709   2.596
 6618SOL    HW120753   1.169   2.779   2.663
 6618SOL    HW220754   1.221   2.650   2.576
 6619SOL     OW20755   6.158   0.148   4.250
 6619SOL    HW120756   6.155   0.077   4.320
 6619SOL    HW220757   6.077   0.206   4.257
 6620SOL     OW20758   1.177   2.714   5.656
 6620SOL    HW120759   1.254   2.774   5.681
 6620SOL    HW220760   1.208   2.619   5.658
 6621SOL     OW20761   2.218   3.290   6.149
 6621SOL    HW120762   2.211   3.344   6.065
 6621SOL    HW220763   2.312   3.256   6.158
 6622SOL     OW20764   6.074   0.165   1.388
 6622SOL    HW120765   6.059   0.150   1.291
 6622SOL    HW220766   6.078   0.264   1.406
 6623SOL     OW20767   2.417   3.123   6.071
 6623SOL    HW120768   2.487   3.139   6.140
 6623SOL    HW220769   2.419   3.027   6.044
 6624SOL     OW20770   0.747   5.807   4.945
 6624SOL    HW120771   0.842   5.798   4.975
 6624SOL    HW220772   0.701   5.718   4.953
 6625SOL     OW20773   5.158   2.148   5.424
 6625SOL    HW120774   5.169   2.206   5.505
 6625SOL    HW220775   5.078   2.089   5.436
 6626SOL     OW20776   4.884   5.413   5.823
 6626SOL    HW120777   4.963   5.412   5.760
 6626SOL    HW220778   4.820   5.485   5.795
 6627SOL     OW20779   2.707   0.057   5.244
 6627SOL    HW120780   2.648   0.059   5.163
 6627SOL    HW220781   2.674   0.123   5.311
 6628SOL     OW20782   4.677   4.402   4.865
 6628SOL    HW120783   4.645   4.347   4.942
 6628SOL    HW220784   4.630   4.490   4.865
 6629SOL     OW20785   4.512   6.013   0.203
 6629SOL    HW120786   4.520   5.957   0.285
 6629SOL    HW220787   4.601   6.023   0.160
 6630SOL     OW20788   3.951   1.215   1.563
 6630SOL    HW120789   3.952   1.236   1.465
 6630SOL    HW220790   3.960   1.300   1.615
 6631SOL     OW20791   2.613   5.479   2.865
 6631SOL    HW120792   2.559   5.466   2.948
 6631SOL    HW220793   2.709   5.494   2.889
 6632SOL     OW20794   0.425   6.328   1.404
 6632SOL    HW120795   0.498   6.371   1.457
 6632SOL    HW220796   0.345   6.388   1.402
 6633SOL     OW20797   0.976   4.617   6.388
 6633SOL    HW120798   0.963   4.628   6.290
 6633SOL    HW220799   0.888   4.612   6.434
 6634SOL     OW20800   6.292   2.306   4.080
 6634SOL    HW120801   6.193   2.298   4.063
 6634SOL    HW220802   6.309   2.386   4.137
 6635SOL     OW20803   4.321   4.666   3.083
 6635SOL    HW120804   4.379   4.655   3.001
 6635SOL    HW220805   4.362   4.616   3.159
 6636SOL     OW20806   4.840   2.557   5.804
 6636SOL    HW120807   4.749   2.558   5.845
 6636SOL    HW220808   4.909   2.572   5.876
 6637SOL     OW20809   1.441   0.203   6.515
 6637SOL    HW120810   1.506   0.269   6.553
 6637SOL    HW220811   1.440   0.121   6.573
 6638SOL     OW20812   3.307   3.728   4.126
 6638SOL    HW120813   3.272   3.641   4.161
 6638SOL    HW220814   3.265   3.803   4.177
 6639SOL     OW20815   5.728   5.069   6.415
 6639SOL    HW120816   5.671   5.145   6.383
 6639SOL    HW220817   5.824   5.096   6.412
 6640SOL     OW20818   1.211   1.868   5.297
 6640SOL    HW120819   1.308   1.864   5.319
 6640SOL    HW220820   1.178   1.962   5.303
 6641SOL     OW20821   2.254   1.977   6.904
 6641SOL    HW120822   2.182   2.032   6.946
 6641SOL    HW220823   2.343   2.006   6.939
 6642SOL     OW20824   3.273   5.145   6.379
 6642SOL    HW120825   3.337   5.082   6.424
 6642SOL    HW220826   3.187   5.098   6.360
 6643SOL     OW20827   6.190   5.431   0.203
 6643SOL    HW120828   6.216   5.527   0.200
 6643SOL    HW220829   6.090   5.422   0.197
 6644SOL     OW20830   2.469   4.711   2.108
 6644SOL    HW120831   2.567   4.727   2.121
 6644SOL    HW220832   2.450   4.613   2.114
 6645SOL     OW20833   6.642   5.231   0.492
 6645SOL    HW120834   6.584   5.150   0.501
 6645SOL    HW220835   6.614   5.283   0.411
 6646SOL     OW20836   4.010   0.037   5.172
 6646SOL    HW120837   4.084   0.104   5.160
 6646SOL    HW220838   3.974   0.011   5.083
 6647SOL     OW20839   4.400   0.913   2.134
 6647SOL    HW120840   4.431   0.821   2.161
 6647SOL    HW220841   4.301   0.912   2.123
 6648SOL     OW20842   3.937   0.103   2.400
 6648SOL    HW120843   3.922   0.004   2.395
 6648SOL    HW220844   3.881   0.142   2.473
 6649SOL     OW20845   5.508   0.450   6.815
 6649SOL    HW120846   5.429   0.484   6.764
 6649SOL    HW220847   5.500   0.476   6.912
 6650SOL     OW20848   2.926   1.488   5.007
 6650SOL    HW120849   2.849   1.529   5.057
 6650SOL    HW220850   2.933   1.532   4.917
 6651SOL     OW20851   1.949   1.607   5.933
 6651SOL    HW120852   2.012   1.632   5.859
 6651SOL    HW220853   2.001   1.578   6.013
 6652SOL     OW20854   0.249   4.454   0.402
 6652SOL    HW120855   0.342   4.447   0.367
 6652SOL    HW220856   0.221   4.366   0.440
 6653SOL     OW20857   3.464   2.910   2.655
 6653SOL    HW120858   3.393   2.907   2.726
 6653SOL    HW220859   3.465   3.001   2.614
 6654SOL     OW20860   1.872   3.629   1.706
 6654SOL    HW120861   1.842   3.550   1.654
 6654SOL    HW220862   1.822   3.710   1.675
 6655SOL     OW20863   1.728   6.978   2.848
 6655SOL    HW120864   1.641   6.950   2.807
 6655SOL    HW220865   1.769   0.030   2.793
 6656SOL     OW20866   6.190   1.998   2.182
 6656SOL    HW120867   6.285   2.027   2.192
 6656SOL    HW220868   6.173   1.919   2.241
 6657SOL     OW20869   5.919   6.565   6.575
 6657SOL    HW120870   5.893   6.547   6.481
 6657SOL    HW220871   5.904   6.662   6.596
 6658SOL     OW20872   6.340   1.096   5.257
 6658SOL    HW120873   6.422   1.074   5.312
 6658SOL    HW220874   6.278   1.152   5.312
 6659SOL     OW20875   2.240   2.607   0.456
 6659SOL    HW120876   2.240   2.705   0.436
 6659SOL    HW220877   2.147   2.571   0.445
 6660SOL     OW20878   1.061   5.779   0.689
 6660SOL    HW120879   1.020   5.871   0.688
 6660SOL    HW220880   0.989   5.711   0.677
 6661SOL     OW20881   1.005   6.695   4.563
 6661SOL    HW120882   0.929   6.686   4.628
 6661SOL    HW220883   1.053   6.608   4.556
 6662SOL     OW20884   0.760   1.160   0.039
 6662SOL    HW120885   0.719   1.203   0.120
 6662SOL    HW220886   0.747   1.220   6.981
 6663SOL     OW20887   0.129   5.566   4.007
 6663SOL    HW120888   0.030   5.552   4.006
 6663SOL    HW220889   0.174   5.477   4.013
 6664SOL     OW20890   2.739   6.175   6.881
 6664SOL    HW120891   2.764   6.094   6.933
 6664SOL    HW220892   2.819   6.210   6.832
 6665SOL     OW20893   1.358   6.475   4.021
 6665SOL    HW120894   1.381   6.416   4.099
 6665SOL    HW220895   1.316   6.559   4.055
 6666SOL     OW20896   5.487   6.983   5.694
 6666SOL    HW120897   5.458   6.965   5.600
 6666SOL    HW220898   5.476   0.060   5.713
 6667SOL     OW20899   6.446   5.789   6.539
 6667SOL    HW120900   6.515   5.851   6.577
 6667SOL    HW220901   6.484   5.744   6.458
 6668SOL     OW20902   6.829   6.036   1.513
 6668SOL    HW120903   6.736   6.063   1.537
 6668SOL    HW220904   6.872   6.108   1.459
 6669SOL     OW20905   1.752   2.409   3.786
 6669SOL    HW120906   1.680   2.418   3.718
 6669SOL    HW220907   1.729   2.464   3.866
 6670SOL     OW20908   3.976   2.590   5.416
 6670SOL    HW120909   4.035   2.560   5.491
 6670SOL    HW220910   4.011   2.553   5.330
 6671SOL     OW20911   6.014   5.660   1.308
 6671SOL    HW120912   6.033   5.687   1.214
 6671SOL    HW220913   5.968   5.735   1.355
 6672SOL     OW20914   6.669   1.579   6.249
 6672SOL    HW120915   6.617   1.504   6.291
 6672SOL    HW220916   6.609   1.659   6.239
 6673SOL     OW20917   5.538   6.033   3.792
 6673SOL    HW120918   5.494   6.009   3.879
 6673SOL    HW220919   5.590   5.955   3.758
 6674SOL     OW20920   0.785   5.119   5.783
 6674SOL    HW120921   0.743   5.139   5.871
 6674SOL    HW220922   0.778   5.021   5.764
 6675SOL     OW20923   4.833   3.489   1.954
 6675SOL    HW120924   4.787   3.554   2.014
 6675SOL    HW220925   4.874   3.416   2.008
 6676SOL     OW20926   6.914   4.178   5.624
 6676SOL    HW120927   6.880   4.269   5.602
 6676SOL    HW220928   6.893   4.116   5.548
 6677SOL     OW20929   0.705   1.747   6.090
 6677SOL    HW120930   0.714   1.720   5.994
 6677SOL    HW220931   0.610   1.739   6.118
 6678SOL     OW20932   3.068   3.374   6.547
 6678SOL    HW120933   3.088   3.281   6.577
 6678SOL    HW220934   2.984   3.373   6.492
 6679SOL     OW20935   2.210   1.707   3.669
 6679SOL    HW120936   2.219   1.699   3.570
 6679SOL    HW220937   2.113   1.702   3.694
 6680SOL     OW20938   4.273   0.401   6.375
 6680SOL    HW120939   4.277   0.394   6.474
 6680SOL    HW220940   4.332   0.331   6.334
 6681SOL     OW20941   4.352   5.681   0.534
 6681SOL    HW120942   4.337   5.640   0.444
 6681SOL    HW220943   4.362   5.608   0.602
 6682SOL     OW20944   1.096   4.243   3.375
 6682SOL    HW120945   1.024   4.312   3.371
 6682SOL    HW220946   1.185   4.285   3.357
 6683SOL     OW20947   5.897   2.773   5.529
 6683SOL    HW120948   5.914   2.865   5.566
 6683SOL    HW220949   5.924   2.770   5.433
 6684SOL     OW20950   2.669   6.601   1.545
 6684SOL    HW120951   2.647   6.597   1.447
 6684SOL    HW220952   2.648   6.513   1.588
 6685SOL     OW20953   6.069   3.431   6.093
 6685SOL    HW120954   6.003   3.481   6.037
 6685SOL    HW220955   6.051   3.333   6.086
 6686SOL     OW20956   5.346   6.012   4.851
 6686SOL    HW120957   5.416   6.026   4.921
 6686SOL    HW220958   5.292   5.931   4.874
 6687SOL     OW20959   0.928   3.140   0.680
 6687SOL    HW120960   0.911   3.080   0.759
 6687SOL    HW220961   0.846   3.194   0.661
 6688SOL     OW20962   6.935   4.525   1.448
 6688SOL    HW120963   6.906   4.429   1.455
 6688SOL    HW220964   0.012   4.532   1.467
 6689SOL     OW20965   4.668   3.053   0.003
 6689SOL    HW120966   4.571   3.064   0.026
 6689SOL    HW220967   4.683   3.081   6.929
 6690SOL     OW20968   2.425   0.855   0.910
 6690SOL    HW120969   2.437   0.882   0.815
 6690SOL    HW220970   2.514   0.857   0.957
 6691SOL     OW20971   2.986   6.143   1.379
 6691SOL    HW120972   3.020   6.049   1.371
 6691SOL    HW220973   3.023   6.184   1.462
 6692SOL     OW20974   3.963   3.893   5.183
 6692SOL    HW120975   4.024   3.854   5.114
 6692SOL    HW220976   3.876   3.916   5.142
 6693SOL     OW20977   4.191   3.732   5.574
 6693SOL    HW120978   4.267   3.788   5.540
 6693SOL    HW220979   4.110   3.748   5.518
 6694SOL     OW20980   4.849   5.240   0.603
 6694SOL    HW120981   4.899   5.248   0.517
 6694SOL    HW220982   4.851   5.145   0.634
 6695SOL     OW20983   2.875   1.346   6.668
 6695SOL    HW120984   2.967   1.376   6.645
 6695SOL    HW220985   2.843   1.281   6.600
 6696SOL     OW20986   1.126   3.080   5.834
 6696SOL    HW120987   1.104   3.177   5.838
 6696SOL    HW220988   1.219   3.065   5.870
 6697SOL     OW20989   4.595   2.205   2.420
 6697SOL    HW120990   4.552   2.139   2.480
 6697SOL    HW220991   4.691   2.180   2.406
 6698SOL     OW20992   2.877   2.692   1.270
 6698SOL    HW120993   2.866   2.671   1.367
 6698SOL    HW220994   2.802   2.651   1.218
 6699SOL     OW20995   3.087   5.250   5.910
 6699SOL    HW120996   3.123   5.342   5.929
 6699SOL    HW220997   2.992   5.257   5.881
 6700SOL     OW20998   6.852   6.847   0.496
 6700SOL    HW120999   6.938   6.796   0.490
 6700SOL    HW221000   6.866   6.926   0.556
 6701SOL     OW21001   5.482   2.858   1.552
 6701SOL    HW121002   5.579   2.867   1.576
 6701SOL    HW221003   5.467   2.896   1.461
 6702SOL     OW21004   2.656   2.054   1.676
 6702SOL    HW121005   2.676   2.104   1.591
 6702SOL    HW221006   2.702   2.098   1.752
 6703SOL     OW21007   6.421   2.208   6.634
 6703SOL    HW121008   6.466   2.281   6.583
 6703SOL    HW221009   6.477   2.182   6.713
 6704SOL     OW21010   3.515   2.023   3.022
 6704SOL    HW121011   3.497   2.063   2.932
 6704SOL    HW221012   3.548   2.095   3.084
 6705SOL     OW21013   6.745   2.041   1.169
 6705SOL    HW121014   6.669   2.105   1.158
 6705SOL    HW221015   6.831   2.086   1.146
 6706SOL     OW21016   1.344   3.655   2.045
 6706SOL    HW121017   1.357   3.754   2.041
 6706SOL    HW221018   1.428   3.609   2.018
 6707SOL     OW21019   7.012   6.300   3.656
 6707SOL    HW121020   6.997   6.221   3.597
 6707SOL    HW221021   6.958   6.290   3.739
 6708SOL     OW21022   6.989   5.486   2.369
 6708SOL    HW121023   7.006   5.430   2.449
 6708SOL    HW221024   6.954   5.429   2.295
 6709SOL     OW21025   2.802   6.921   2.249
 6709SOL    HW121026   2.849   6.962   2.327
 6709SOL    HW221027   2.714   6.966   2.236
 6710SOL     OW21028   3.099   1.155   5.319
 6710SOL    HW121029   3.053   1.178   5.405
 6710SOL    HW221030   3.113   1.238   5.265
 6711SOL     OW21031   5.117   5.353   0.044
 6711SOL    HW121032   5.041   5.292   0.063
 6711SOL    HW221033   5.203   5.307   0.066
 6712SOL     OW21034   4.776   4.963   0.311
 6712SOL    HW121035   4.719   4.887   0.279
 6712SOL    HW221036   4.719   5.044   0.325
 6713SOL     OW21037   2.339   0.798   2.513
 6713SOL    HW121038   2.404   0.848   2.571
 6713SOL    HW221039   2.351   0.700   2.527
 6714SOL     OW21040   6.388   1.056   6.386
 6714SOL    HW121041   6.377   1.114   6.467
 6714SOL    HW221042   6.329   0.976   6.394
 6715SOL     OW21043   6.802   0.069   6.266
 6715SOL    HW121044   6.868   0.065   6.340
 6715SOL    HW221045   6.849   0.093   6.181
 6716SOL     OW21046   0.347   5.862   1.681
 6716SOL    HW121047   0.312   5.775   1.646
 6716SOL    HW221048   0.422   5.845   1.744
 6717SOL     OW21049   4.255   2.434   0.100
 6717SOL    HW121050   4.274   2.369   0.026
 6717SOL    HW221051   4.313   2.515   0.089
 6718SOL     OW21052   4.941   0.223   6.108
 6718SOL    HW121053   4.951   0.323   6.114
 6718SOL    HW221054   5.015   0.186   6.053
 6719SOL     OW21055   1.702   6.803   6.596
 6719SOL    HW121056   1.776   6.738   6.579
 6719SOL    HW221057   1.642   6.807   6.516
 6720SOL     OW21058   0.774   6.030   3.496
 6720SOL    HW121059   0.724   5.944   3.510
 6720SOL    HW221060   0.710   6.100   3.463
 6721SOL     OW21061   6.427   0.627   5.763
 6721SOL    HW121062   6.437   0.700   5.831
 6721SOL    HW221063   6.517   0.600   5.729
 6722SOL     OW21064   0.116   3.565   1.396
 6722SOL    HW121065   0.128   3.503   1.319
 6722SOL    HW221066   0.025   3.551   1.435
 6723SOL     OW21067   2.011   6.667   3.227
 6723SOL    HW121068   2.024   6.722   3.145
 6723SOL    HW221069   2.071   6.699   3.300
 6724SOL     OW21070   1.117   3.886   5.633
 6724SOL    HW121071   1.116   3.787   5.637
 6724SOL    HW221072   1.198   3.921   5.680
 6725SOL     OW21073   1.264   3.948   1.071
 6725SOL    HW121074   1.344   4.007   1.076
 6725SOL    HW221075   1.268   3.892   0.988
 6726SOL     OW21076   0.845   2.107   5.063
 6726SOL    HW121077   0.811   2.137   4.973
 6726SOL    HW221078   0.777   2.128   5.133
 6727SOL     OW21079   6.314   3.947   5.773
 6727SOL    HW121080   6.231   3.999   5.795
 6727SOL    HW221081   6.287   3.853   5.748
 6728SOL     OW21082   4.314   1.451   3.742
 6728SOL    HW121083   4.218   1.461   3.769
 6728SOL    HW221084   4.372   1.451   3.824
 6729SOL     OW21085   0.150   1.746   2.582
 6729SOL    HW121086   0.176   1.692   2.502
 6729SOL    HW221087   0.097   1.826   2.553
 6730SOL     OW21088   2.678   5.931   6.503
 6730SOL    HW121089   2.586   5.892   6.500
 6730SOL    HW221090   2.678   6.019   6.454
 6731SOL     OW21091   1.131   5.603   0.984
 6731SOL    HW121092   1.088   5.693   0.983
 6731SOL    HW221093   1.134   5.568   1.078
 6732SOL     OW21094   5.009   4.973   6.100
 6732SOL    HW121095   5.061   4.952   6.183
 6732SOL    HW221096   4.982   5.069   6.101
 6733SOL     OW21097   3.738   4.669   0.475
 6733SOL    HW121098   3.682   4.742   0.436
 6733SOL    HW221099   3.823   4.707   0.512
 6734SOL     OW21100   6.330   2.414   4.806
 6734SOL    HW121101   6.268   2.364   4.866
 6734SOL    HW221102   6.301   2.510   4.801
 6735SOL     OW21103   0.008   4.802   4.603
 6735SOL    HW121104   0.064   4.882   4.626
 6735SOL    HW221105   0.055   4.719   4.632
 6736SOL     OW21106   3.300   3.904   6.944
 6736SOL    HW121107   3.265   3.990   6.907
 6736SOL    HW221108   3.273   3.896   0.019
 6737SOL     OW21109   2.099   2.767   0.674
 6737SOL    HW121110   2.102   2.865   0.693
 6737SOL    HW221111   2.192   2.733   0.658
 6738SOL     OW21112   1.670   4.156   2.905
 6738SOL    HW121113   1.759   4.137   2.946
 6738SOL    HW221114   1.648   4.082   2.841
 6739SOL     OW21115   3.599   4.875   5.816
 6739SOL    HW121116   3.539   4.854   5.894
 6739SOL    HW221117   3.655   4.955   5.838
 6740SOL     OW21118   1.814   1.322   4.092
 6740SOL    HW121119   1.843   1.322   4.188
 6740SOL    HW221120   1.748   1.396   4.077
 6741SOL     OW21121   4.245   1.226   5.854
 6741SOL    HW121122   4.193   1.310   5.837
 6741SOL    HW221123   4.185   1.160   5.899
 6742SOL     OW21124   6.458   6.018   2.888
 6742SOL    HW121125   6.404   6.088   2.935
 6742SOL    HW221126   6.403   5.935   2.877
 6743SOL     OW21127   4.295   4.451   0.478
 6743SOL    HW121128   4.220   4.404   0.525
 6743SOL    HW221129   4.363   4.384   0.449
 6744SOL     OW21130   5.358   6.013   6.173
 6744SOL    HW121131   5.310   6.101   6.179
 6744SOL    HW221132   5.395   5.989   6.262
 6745SOL     OW21133   0.345   6.731   2.454
 6745SOL    HW121134   0.418   6.745   2.387
 6745SOL    HW221135   0.350   6.639   2.491
 6746SOL     OW21136   0.752   1.147   2.825
 6746SOL    HW121137   0.742   1.142   2.725
 6746SOL    HW221138   0.720   1.236   2.857
 6747SOL     OW21139   5.493   0.955   4.804
 6747SOL    HW121140   5.511   0.916   4.894
 6747SOL    HW221141   5.402   0.997   4.804
 6748SOL     OW21142   1.261   0.116   3.409
 6748SOL    HW121143   1.281   0.115   3.506
 6748SOL    HW221144   1.292   0.031   3.367
 6749SOL     OW21145   2.795   5.981   0.077
 6749SOL    HW121146   2.699   5.952   0.075
 6749SOL    HW221147   2.836   5.952   0.164
 6750SOL     OW21148   4.594   1.380   5.034
 6750SOL    HW121149   4.546   1.293   5.042
 6750SOL    HW221150   4.645   1.384   4.949
 6751SOL     OW21151   3.677   1.239   3.291
 6751SOL    HW121152   3.675   1.158   3.348
 6751SOL    HW221153   3.757   1.295   3.315
 6752SOL     OW21154   6.934   3.287   2.834
 6752SOL    HW121155   7.013   3.301   2.893
 6752SOL    HW221156   6.938   3.197   2.792
 6753SOL     OW21157   4.331   1.020   6.173
 6753SOL    HW121158   4.234   1.039   6.155
 6753SOL    HW221159   4.378   1.106   6.196
 6754SOL     OW21160   6.862   1.819   0.141
 6754SOL    HW121161   6.798   1.766   0.085
 6754SOL    HW221162   6.956   1.797   0.115
 6755SOL     OW21163   4.440   1.357   3.178
 6755SOL    HW121164   4.351   1.350   3.131
 6755SOL    HW221165   4.507   1.299   3.132
 6756SOL     OW21166   4.050   4.893   4.707
 6756SOL    HW121167   3.986   4.903   4.784
 6756SOL    HW221168   4.029   4.960   4.637
 6757SOL     OW21169   4.218   0.293   1.496
 6757SOL    HW121170   4.145   0.338   1.444
 6757SOL    HW221171   4.296   0.277   1.435
 6758SOL     OW21172   6.876   3.082   0.901
 6758SOL    HW121173   6.940   3.032   0.959
 6758SOL    HW221174   6.914   3.171   0.878
 6759SOL     OW21175   0.983   4.184   4.609
 6759SOL    HW121176   0.997   4.279   4.635
 6759SOL    HW221177   1.001   4.173   4.511
 6760SOL     OW21178   6.618   5.028   4.004
 6760SOL    HW121179   6.529   5.016   4.047
 6760SOL    HW221180   6.689   4.990   4.063
 6761SOL     OW21181   6.259   2.362   6.290
 6761SOL    HW121182   6.197   2.385   6.365
 6761SOL    HW221183   6.325   2.435   6.278
 6762SOL     OW21184   6.744   5.692   3.249
 6762SOL    HW121185   6.722   5.637   3.168
 6762SOL    HW221186   6.687   5.662   3.325
 6763SOL     OW21187   6.985   5.386   3.790
 6763SOL    HW121188   0.062   5.404   3.778
 6763SOL    HW221189   6.964   5.378   3.887
 6764SOL     OW21190   2.933   5.279   6.449
 6764SOL    HW121191   2.990   5.288   6.531
 6764SOL    HW221192   2.898   5.186   6.443
 6765SOL     OW21193   4.633   5.005   3.942
 6765SOL    HW121194   4.634   4.964   3.851
 6765SOL    HW221195   4.637   4.933   4.011
 6766SOL     OW21196   4.346   6.749   6.433
 6766SOL    HW121197   4.421   6.685   6.426
 6766SOL    HW221198   4.361   6.826   6.371
 6767SOL     OW21199   0.978   2.256   0.507
 6767SOL    HW121200   0.887   2.233   0.542
 6767SOL    HW221201   1.037   2.175   0.511
 6768SOL     OW21202   7.020   6.576   3.600
 6768SOL    HW121203   6.961   6.610   3.674
 6768SOL    HW221204   0.004   6.476   3.605
 6769SOL     OW21205   3.119   0.616   5.385
 6769SOL    HW121206   3.104   0.586   5.291
 6769SOL    HW221207   3.116   0.716   5.389
 6770SOL     OW21208   6.683   1.738   2.896
 6770SOL    HW121209   6.589   1.767   2.879
 6770SOL    HW221210   6.728   1.717   2.809
 6771SOL     OW21211   3.511   1.105   2.774
 6771SOL    HW121212   3.545   1.015   2.801
 6771SOL    HW221213   3.515   1.167   2.852
 6772SOL     OW21214   5.408   2.636   2.669
 6772SOL    HW121215   5.328   2.655   2.725
 6772SOL    HW221216   5.409   2.538   2.645
 6773SOL     OW21217   6.712   0.018   1.907
 6773SOL    HW121218   6.719   0.118   1.913
 6773SOL    HW221219   6.620   7.013   1.880
 6774SOL     OW21220   1.993   2.455   4.750
 6774SOL    HW121221   2.055   2.534   4.752
 6774SOL    HW221222   1.952   2.444   4.840
 6775SOL     OW21223   0.422   2.432   3.465
 6775SOL    HW121224   0.426   2.405   3.368
 6775SOL    HW221225   0.465   2.362   3.521
 6776SOL     OW21226   4.099   3.318   1.369
 6776SOL    HW121227   4.079   3.289   1.276
 6776SOL    HW221228   4.162   3.254   1.412
 6777SOL     OW21229   4.207   5.917   0.523
 6777SOL    HW121230   4.264   5.985   0.477
 6777SOL    HW221231   4.258   5.832   0.533
 6778SOL     OW21232   6.235   3.423   2.598
 6778SOL    HW121233   6.232   3.522   2.613
 6778SOL    HW221234   6.145   3.383   2.616
 6779SOL     OW21235   5.447   4.926   6.697
 6779SOL    HW121236   5.518   4.884   6.640
 6779SOL    HW221237   5.387   4.982   6.639
 6780SOL     OW21238   1.671   3.407   2.939
 6780SOL    HW121239   1.738   3.447   2.877
 6780SOL    HW221240   1.632   3.325   2.898
 6781SOL     OW21241   6.734   1.769   3.746
 6781SOL    HW121242   6.722   1.713   3.664
 6781SOL    HW221243   6.669   1.844   3.745
 6782SOL     OW21244   0.709   0.875   3.211
 6782SOL    HW121245   0.673   0.801   3.268
 6782SOL    HW221246   0.792   0.912   3.253
 6783SOL     OW21247   0.703   3.949   5.035
 6783SOL    HW121248   0.674   3.954   4.939
 6783SOL    HW221249   0.735   4.039   5.065
 6784SOL     OW21250   2.152   4.264   1.786
 6784SOL    HW121251   2.180   4.246   1.691
 6784SOL    HW221252   2.161   4.361   1.805
 6785SOL     OW21253   5.706   5.252   5.881
 6785SOL    HW121254   5.618   5.290   5.912
 6785SOL    HW221255   5.689   5.175   5.820
 6786SOL     OW21256   7.007   3.278   6.177
 6786SOL    HW121257   0.002   3.208   6.246
 6786SOL    HW221258   6.921   3.259   6.129
 6787SOL     OW21259   3.295   2.241   1.509
 6787SOL    HW121260   3.275   2.204   1.600
 6787SOL    HW221261   3.219   2.298   1.479
 6788SOL     OW21262   0.392   4.340   2.562
 6788SOL    HW121263   0.417   4.342   2.659
 6788SOL    HW221264   0.474   4.353   2.506
 6789SOL     OW21265   0.057   4.697   4.334
 6789SOL    HW121266   6.982   4.675   4.354
 6789SOL    HW221267   0.112   4.683   4.416
 6790SOL     OW21268   0.335   4.412   6.638
 6790SOL    HW121269   0.350   4.416   6.737
 6790SOL    HW221270   0.370   4.495   6.596
 6791SOL     OW21271   4.154   2.068   3.248
 6791SOL    HW121272   4.251   2.091   3.236
 6791SOL    HW221273   4.144   1.968   3.246
 6792SOL     OW21274   4.635   0.348   5.321
 6792SOL    HW121275   4.713   0.314   5.373
 6792SOL    HW221276   4.622   0.292   5.240
 6793SOL     OW21277   3.370   1.711   0.012
 6793SOL    HW121278   3.451   1.769   0.022
 6793SOL    HW221279   3.293   1.767   7.003
 6794SOL     OW21280   4.604   1.273   5.581
 6794SOL    HW121281   4.602   1.367   5.616
 6794SOL    HW221282   4.614   1.276   5.481
 6795SOL     OW21283   0.873   6.784   0.234
 6795SOL    HW121284   0.942   6.732   0.183
 6795SOL    HW221285   0.825   6.845   0.171
 6796SOL     OW21286   5.658   0.262   2.700
 6796SOL    HW121287   5.712   0.320   2.761
 6796SOL    HW221288   5.640   0.174   2.745
 6797SOL     OW21289   6.665   1.590   0.472
 6797SOL    HW121290   6.646   1.682   0.506
 6797SOL    HW221291   6.758   1.563   0.496
 6798SOL     OW21292   6.357   0.702   1.078
 6798SOL    HW121293   6.449   0.687   1.114
 6798SOL    HW221294   6.315   0.779   1.127
 6799SOL     OW21295   5.389   0.295   2.531
 6799SOL    HW121296   5.305   0.257   2.570
 6799SOL    HW221297   5.463   0.229   2.540
 6800SOL     OW21298   1.962   2.258   1.583
 6800SOL    HW121299   2.038   2.311   1.546
 6800SOL    HW221300   1.998   2.184   1.641
 6801SOL     OW21301   0.482   6.457   3.539
 6801SOL    HW121302   0.501   6.527   3.607
 6801SOL    HW221303   0.392   6.418   3.554
 6802SOL     OW21304   3.582   5.768   0.606
 6802SOL    HW121305   3.629   5.851   0.636
 6802SOL    HW221306   3.635   5.724   0.533
 6803SOL     OW21307   4.452   3.430   0.141
 6803SOL    HW121308   4.411   3.340   0.156
 6803SOL    HW221309   4.411   3.496   0.205
 6804SOL     OW21310   3.207   5.158   2.723
 6804SOL    HW121311   3.299   5.121   2.716
 6804SOL    HW221312   3.178   5.158   2.819
 6805SOL     OW21313   0.800   5.168   0.364
 6805SOL    HW121314   0.732   5.176   0.437
 6805SOL    HW221315   0.763   5.205   0.279
 6806SOL     OW21316   0.146   0.528   4.056
 6806SOL    HW121317   0.194   0.478   4.129
 6806SOL    HW221318   0.058   0.485   4.038
 6807SOL     OW21319   3.701   4.096   3.615
 6807SOL    HW121320   3.657   4.099   3.705
 6807SOL    HW221321   3.646   4.148   3.549
 6808SOL     OW21322   5.864   1.028   4.839
 6808SOL    HW121323   5.898   0.948   4.789
 6808SOL    HW221324   5.935   1.060   4.902
 6809SOL     OW21325   5.965   4.068   0.674
 6809SOL    HW121326   5.966   3.991   0.737
 6809SOL    HW221327   6.027   4.051   0.598
 6810SOL     OW21328   3.479   0.823   2.923
 6810SOL    HW121329   3.420   0.899   2.949
 6810SOL    HW221330   3.437   0.773   2.847
 6811SOL     OW21331   6.676   3.164   1.850
 6811SOL    HW121332   6.759   3.108   1.847
 6811SOL    HW221333   6.654   3.186   1.945
 6812SOL     OW21334   3.264   3.922   4.675
 6812SOL    HW121335   3.337   3.981   4.643
 6812SOL    HW221336   3.274   3.831   4.634
 6813SOL     OW21337   5.594   3.364   2.548
 6813SOL    HW121338   5.554   3.281   2.586
 6813SOL    HW221339   5.677   3.388   2.598
 6814SOL     OW21340   4.812   1.883   6.479
 6814SOL    HW121341   4.779   1.793   6.508
 6814SOL    HW221342   4.901   1.873   6.434
 6815SOL     OW21343   1.467   5.684   6.926
 6815SOL    HW121344   1.540   5.750   6.905
 6815SOL    HW221345   1.506   5.604   6.971
 6816SOL     OW21346   6.790   1.788   4.546
 6816SOL    HW121347   6.878   1.834   4.555
 6816SOL    HW221348   6.716   1.851   4.570
 6817SOL     OW21349   2.504   2.588   4.032
 6817SOL    HW121350   2.461   2.677   4.046
 6817SOL    HW221351   2.510   2.568   3.935
 6818SOL     OW21352   2.325   6.126   0.188
 6818SOL    HW121353   2.353   6.118   0.283
 6818SOL    HW221354   2.385   6.071   0.130
 6819SOL     OW21355   4.433   0.685   2.626
 6819SOL    HW121356   4.389   0.626   2.694
 6819SOL    HW221357   4.366   0.714   2.558
 6820SOL     OW21358   1.358   5.722   1.827
 6820SOL    HW121359   1.361   5.622   1.819
 6820SOL    HW221360   1.354   5.748   1.923
 6821SOL     OW21361   4.747   2.982   5.965
 6821SOL    HW121362   4.691   3.065   5.976
 6821SOL    HW221363   4.806   2.992   5.886
 6822SOL     OW21364   6.724   2.950   6.403
 6822SOL    HW121365   6.715   3.032   6.459
 6822SOL    HW221366   6.775   2.972   6.320
 6823SOL     OW21367   5.112   4.320   6.754
 6823SOL    HW121368   5.163   4.393   6.800
 6823SOL    HW221369   5.029   4.357   6.714
 6824SOL     OW21370   1.813   1.684   0.463
 6824SOL    HW121371   1.809   1.584   0.451
 6824SOL    HW221372   1.902   1.709   0.500
 6825SOL     OW21373   6.331   6.306   0.729
 6825SOL    HW121374   6.384   6.283   0.647
 6825SOL    HW221375   6.363   6.393   0.766
 6826SOL     OW21376   0.869   3.464   3.882
 6826SOL    HW121377   0.834   3.558   3.878
 6826SOL    HW221378   0.799   3.402   3.847
 6827SOL     OW21379   5.115   5.480   5.675
 6827SOL    HW121380   5.130   5.516   5.583
 6827SOL    HW221381   5.160   5.539   5.742
 6828SOL     OW21382   3.839   1.426   2.712
 6828SOL    HW121383   3.894   1.485   2.652
 6828SOL    HW221384   3.762   1.478   2.749
 6829SOL     OW21385   5.359   0.226   5.094
 6829SOL    HW121386   5.262   0.217   5.119
 6829SOL    HW221387   5.370   0.209   4.996
 6830SOL     OW21388   5.887   1.255   3.609
 6830SOL    HW121389   5.968   1.248   3.552
 6830SOL    HW221390   5.806   1.268   3.551
 6831SOL     OW21391   1.285   0.855   5.916
 6831SOL    HW121392   1.369   0.908   5.904
 6831SOL    HW221393   1.286   0.810   6.005
 6832SOL     OW21394   2.349   3.586   0.392
 6832SOL    HW121395   2.373   3.671   0.347
 6832SOL    HW221396   2.397   3.510   0.349
 6833SOL     OW21397   3.285   5.316   6.176
 6833SOL    HW121398   3.255   5.266   6.257
 6833SOL    HW221399   3.328   5.253   6.112
 6834SOL     OW21400   5.207   0.287   0.938
 6834SOL    HW121401   5.229   0.372   0.985
 6834SOL    HW221402   5.181   0.218   1.006
 6835SOL     OW21403   3.740   1.409   4.969
 6835SOL    HW121404   3.800   1.476   4.927
 6835SOL    HW221405   3.706   1.347   4.898
 6836SOL     OW21406   2.181   4.395   6.204
 6836SOL    HW121407   2.246   4.371   6.276
 6836SOL    HW221408   2.088   4.396   6.241
 6837SOL     OW21409   0.369   1.126   2.891
 6837SOL    HW121410   0.302   1.150   2.961
 6837SOL    HW221411   0.430   1.054   2.926
 6838SOL     OW21412   2.289   4.384   5.393
 6838SOL    HW121413   2.352   4.348   5.461
 6838SOL    HW221414   2.260   4.311   5.331
 6839SOL     OW21415   5.648   2.073   3.494
 6839SOL    HW121416   5.600   1.986   3.486
 6839SOL    HW221417   5.727   2.073   3.432
 6840SOL     OW21418   2.680   6.221   5.640
 6840SOL    HW121419   2.773   6.184   5.636
 6840SOL    HW221420   2.634   6.185   5.721
 6841SOL     OW21421   3.838   4.725   1.193
 6841SOL    HW121422   3.847   4.781   1.111
 6841SOL    HW221423   3.924   4.728   1.245
 6842SOL     OW21424   1.915   2.626   6.638
 6842SOL    HW121425   1.978   2.668   6.703
 6842SOL    HW221426   1.865   2.552   6.683
 6843SOL     OW21427   5.277   1.412   1.819
 6843SOL    HW121428   5.186   1.389   1.785
 6843SOL    HW221429   5.278   1.405   1.918
 6844SOL     OW21430   5.389   6.099   4.378
 6844SOL    HW121431   5.417   6.111   4.473
 6844SOL    HW221432   5.403   6.004   4.351
 6845SOL     OW21433   5.174   4.374   2.611
 6845SOL    HW121434   5.264   4.386   2.569
 6845SOL    HW221435   5.151   4.457   2.663
 6846SOL     OW21436   4.060   2.889   1.497
 6846SOL    HW121437   4.122   2.965   1.481
 6846SOL    HW221438   4.051   2.874   1.596
 6847SOL     OW21439   6.143   4.007   1.692
 6847SOL    HW121440   6.135   3.995   1.791
 6847SOL    HW221441   6.056   4.040   1.655
 6848SOL     OW21442   2.469   6.170   3.222
 6848SOL    HW121443   2.561   6.186   3.187
 6848SOL    HW221444   2.407   6.150   3.146
 6849SOL     OW21445   2.941   5.736   4.625
 6849SOL    HW121446   2.930   5.832   4.601
 6849SOL    HW221447   2.875   5.681   4.574
 6850SOL     OW21448   5.439   3.160   2.640
 6850SOL    HW121449   5.514   3.095   2.628
 6850SOL    HW221450   5.424   3.175   2.738
 6851SOL     OW21451   1.551   3.480   4.630
 6851SOL    HW121452   1.601   3.535   4.697
 6851SOL    HW221453   1.614   3.444   4.562
 6852SOL     OW21454   1.199   4.634   0.978
 6852SOL    HW121455   1.220   4.618   0.882
 6852SOL    HW221456   1.200   4.548   1.028
 6853SOL     OW21457   6.871   3.576   6.852
 6853SOL    HW121458   6.884   3.660   6.800
 6853SOL    HW221459   6.825   3.508   6.795
 6854SOL     OW21460   5.492   1.097   5.854
 6854SOL    HW121461   5.506   1.141   5.943
 6854SOL    HW221462   5.478   1.168   5.785
 6855SOL     OW21463   3.546   6.038   2.303
 6855SOL    HW121464   3.609   6.106   2.265
 6855SOL    HW221465   3.539   6.051   2.402
 6856SOL     OW21466   4.729   4.367   5.457
 6856SOL    HW121467   4.752   4.349   5.553
 6856SOL    HW221468   4.660   4.302   5.427
 6857SOL     OW21469   3.674   1.592   7.016
 6857SOL    HW121470   3.590   1.631   0.032
 6857SOL    HW221471   3.737   1.665   6.992
 6858SOL     OW21472   4.130   3.692   4.680
 6858SOL    HW121473   4.102   3.689   4.584
 6858SOL    HW221474   4.116   3.603   4.722
 6859SOL     OW21475   1.657   6.512   1.313
 6859SOL    HW121476   1.733   6.457   1.348
 6859SOL    HW221477   1.693   6.597   1.274
 6860SOL     OW21478   5.488   5.452   1.811
 6860SOL    HW121479   5.467   5.514   1.887
 6860SOL    HW221480   5.571   5.401   1.832
 6861SOL     OW21481   5.569   4.303   1.524
 6861SOL    HW121482   5.510   4.313   1.444
 6861SOL    HW221483   5.613   4.391   1.544
 6862SOL     OW21484   2.489   4.494   4.522
 6862SOL    HW121485   2.481   4.455   4.430
 6862SOL    HW221486   2.583   4.526   4.536
 6863SOL     OW21487   5.566   1.446   4.313
 6863SOL    HW121488   5.557   1.432   4.412
 6863SOL    HW221489   5.567   1.357   4.267
 6864SOL     OW21490   3.684   6.046   3.545
 6864SOL    HW121491   3.684   5.993   3.630
 6864SOL    HW221492   3.621   6.123   3.554
 6865SOL     OW21493   6.262   5.851   2.833
 6865SOL    HW121494   6.225   5.769   2.877
 6865SOL    HW221495   6.188   5.914   2.811
 6866SOL     OW21496   6.807   4.476   2.319
 6866SOL    HW121497   6.781   4.427   2.236
 6866SOL    HW221498   6.749   4.446   2.395
 6867SOL     OW21499   1.639   4.666   1.365
 6867SOL    HW121500   1.669   4.740   1.306
 6867SOL    HW221501   1.641   4.696   1.461
 6868SOL     OW21502   1.777   5.199   5.036
 6868SOL    HW121503   1.749   5.106   5.059
 6868SOL    HW221504   1.850   5.229   5.098
 6869SOL     OW21505   5.960   2.264   5.364
 6869SOL    HW121506   6.011   2.178   5.364
 6869SOL    HW221507   5.888   2.260   5.294
 6870SOL     OW21508   6.832   3.898   2.347
 6870SOL    HW121509   6.923   3.870   2.316
 6870SOL    HW221510   6.839   3.982   2.401
 6871SOL     OW21511   6.271   5.111   2.332
 6871SOL    HW121512   6.218   5.053   2.270
 6871SOL    HW221513   6.285   5.063   2.418
 6872SOL     OW21514   1.442   3.513   0.696
 6872SOL    HW121515   1.534   3.534   0.728
 6872SOL    HW221516   1.422   3.568   0.614
 6873SOL     OW21517   5.611   3.710   5.053
 6873SOL    HW121518   5.648   3.679   5.141
 6873SOL    HW221519   5.615   3.810   5.049
 6874SOL     OW21520   0.753   4.767   3.165
 6874SOL    HW121521   0.747   4.677   3.209
 6874SOL    HW221522   0.758   4.755   3.066
 6875SOL     OW21523   1.482   2.743   3.408
 6875SOL    HW121524   1.523   2.744   3.499
 6875SOL    HW221525   1.549   2.711   3.342
 6876SOL     OW21526   4.018   5.382   5.414
 6876SOL    HW121527   3.930   5.426   5.433
 6876SOL    HW221528   4.078   5.391   5.493
 6877SOL     OW21529   2.509   4.178   6.065
 6877SOL    HW121530   2.477   4.173   5.971
 6877SOL    HW221531   2.531   4.273   6.088
 6878SOL     OW21532   2.429   2.404   5.184
 6878SOL    HW121533   2.469   2.336   5.246
 6878SOL    HW221534   2.352   2.449   5.230
 6879SOL     OW21535   1.264   1.903   6.946
 6879SOL    HW121536   1.257   2.002   6.937
 6879SOL    HW221537   1.172   1.863   6.947
 6880SOL     OW21538   2.133   3.371   5.126
 6880SOL    HW121539   2.195   3.420   5.188
 6880SOL    HW221540   2.143   3.272   5.141
 6881SOL     OW21541   0.293   3.813   2.322
 6881SOL    HW121542   0.202   3.819   2.281
 6881SOL    HW221543   0.324   3.905   2.348
 6882SOL     OW21544   3.098   0.271   5.778
 6882SOL    HW121545   3.035   0.268   5.701
 6882SOL    HW221546   3.131   0.365   5.790
 6883SOL     OW21547   3.667   1.390   1.076
 6883SOL    HW121548   3.765   1.410   1.083
 6883SOL    HW221549   3.628   1.442   1.000
 6884SOL     OW21550   1.666   3.651   4.260
 6884SOL    HW121551   1.618   3.662   4.173
 6884SOL    HW221552   1.600   3.646   4.334
 6885SOL     OW21553   3.702   5.620   4.960
 6885SOL    HW121554   3.726   5.673   5.041
 6885SOL    HW221555   3.761   5.647   4.884
 6886SOL     OW21556   0.029   0.690   3.055
 6886SOL    HW121557   7.016   0.637   2.978
 6886SOL    HW221558   0.036   0.631   3.136
 6887SOL     OW21559   5.031   0.130   5.666
 6887SOL    HW121560   5.083   0.059   5.619
 6887SOL    HW221561   4.934   0.116   5.650
 6888SOL     OW21562   5.519   6.867   6.611
 6888SOL    HW121563   5.590   6.936   6.594
 6888SOL    HW221564   5.520   6.800   6.537
 6889SOL     OW21565   1.206   2.214   6.022
 6889SOL    HW121566   1.228   2.125   6.061
 6889SOL    HW221567   1.278   2.243   5.960
 6890SOL     OW21568   3.480   6.284   1.588
 6890SOL    HW121569   3.473   6.188   1.616
 6890SOL    HW221570   3.417   6.300   1.512
 6891SOL     OW21571   2.038   3.863   4.468
 6891SOL    HW121572   2.057   3.808   4.387
 6891SOL    HW221573   2.045   3.805   4.550
 6892SOL     OW21574   3.305   0.794   3.435
 6892SOL    HW121575   3.375   0.795   3.364
 6892SOL    HW221576   3.226   0.848   3.406
 6893SOL     OW21577   5.184   5.988   1.289
 6893SOL    HW121578   5.260   5.965   1.349
 6893SOL    HW221579   5.220   6.027   1.203
 6894SOL     OW21580   6.334   5.547   6.995
 6894SOL    HW121581   6.242   5.572   0.006
 6894SOL    HW221582   6.365   5.614   6.927
 6895SOL     OW21583   2.850   5.197   6.844
 6895SOL    HW121584   2.899   5.197   6.931
 6895SOL    HW221585   2.758   5.161   6.858
 6896SOL     OW21586   2.583   6.621   4.040
 6896SOL    HW121587   2.528   6.700   4.065
 6896SOL    HW221588   2.653   6.648   3.973
 6897SOL     OW21589   2.018   3.540   0.223
 6897SOL    HW121590   2.117   3.527   0.216
 6897SOL    HW221591   1.985   3.586   0.140
 6898SOL     OW21592   3.653   1.631   1.944
 6898SOL    HW121593   3.641   1.657   2.040
 6898SOL    HW221594   3.675   1.713   1.890
 6899SOL     OW21595   4.860   0.121   0.962
 6899SOL    HW121596   4.761   0.110   0.971
 6899SOL    HW221597   4.880   0.202   0.907
 6900SOL     OW21598   6.179   0.921   5.881
 6900SOL    HW121599   6.169   1.020   5.877
 6900SOL    HW221600   6.101   0.877   5.837
 6901SOL     OW21601   1.038   0.297   6.075
 6901SOL    HW121602   1.019   0.358   5.998
 6901SOL    HW221603   1.110   0.336   6.132
 6902SOL     OW21604   6.812   6.368   0.788
 6902SOL    HW121605   6.900   6.344   0.828
 6902SOL    HW221606   6.825   6.389   0.690
 6903SOL     OW21607   4.268   4.981   5.634
 6903SOL    HW121608   4.362   4.952   5.616
 6903SOL    HW221609   4.254   4.987   5.733
 6904SOL     OW21610   6.061   1.689   4.248
 6904SOL    HW121611   6.121   1.629   4.195
 6904SOL    HW221612   6.050   1.776   4.201
 6905SOL     OW21613   6.091   6.605   0.338
 6905SOL    HW121614   6.129   6.626   0.248
 6905SOL    HW221615   6.023   6.674   0.362
 6906SOL     OW21616   4.008   0.611   3.732
 6906SOL    HW121617   4.033   0.572   3.821
 6906SOL    HW221618   4.003   0.711   3.740
 6907SOL     OW21619   5.078   1.308   0.981
 6907SOL    HW121620   5.160   1.349   1.021
 6907SOL    HW221621   5.053   1.226   1.032
 6908SOL     OW21622   1.014   6.494   5.399
 6908SOL    HW121623   0.918   6.520   5.390
 6908SOL    HW221624   1.071   6.563   5.356
 6909SOL     OW21625   5.369   4.800   1.742
 6909SOL    HW121626   5.327   4.824   1.829
 6909SOL    HW221627   5.438   4.868   1.718
 6910SOL     OW21628   6.835   2.483   3.330
 6910SOL    HW121629   6.779   2.457   3.251
 6910SOL    HW221630   6.845   2.404   3.391
 6911SOL     OW21631   3.965   6.657   3.245
 6911SOL    HW121632   4.017   6.692   3.168
 6911SOL    HW221633   4.007   6.689   3.331
 6912SOL     OW21634   4.930   4.924   1.222
 6912SOL    HW121635   4.833   4.945   1.230
 6912SOL    HW221636   4.942   4.828   1.197
 6913SOL     OW21637   5.188   5.413   5.991
 6913SOL    HW121638   5.154   5.423   5.897
 6913SOL    HW221639   5.199   5.503   6.032
 6914SOL     OW21640   6.097   4.798   0.062
 6914SOL    HW121641   6.136   4.782   6.992
 6914SOL    HW221642   6.110   4.717   0.119
 6915SOL     OW21643   6.515   4.662   1.852
 6915SOL    HW121644   6.432   4.705   1.888
 6915SOL    HW221645   6.490   4.577   1.805
 6916SOL     OW21646   5.929   4.047   0.388
 6916SOL    HW121647   5.952   4.106   0.310
 6916SOL    HW221648   6.012   4.029   0.441
 6917SOL     OW21649   3.286   5.544   0.614
 6917SOL    HW121650   3.197   5.540   0.660
 6917SOL    HW221651   3.274   5.533   0.516
 6918SOL     OW21652   1.382   3.232   4.725
 6918SOL    HW121653   1.458   3.281   4.683
 6918SOL    HW221654   1.410   3.137   4.743
 6919SOL     OW21655   0.568   5.747   3.326
 6919SOL    HW121656   0.626   5.691   3.267
 6919SOL    HW221657   0.598   5.738   3.421
 6920SOL     OW21658   4.479   6.180   5.852
 6920SOL    HW121659   4.432   6.238   5.919
 6920SOL    HW221660   4.415   6.156   5.779
 6921SOL     OW21661   4.695   5.465   3.303
 6921SOL    HW121662   4.752   5.418   3.235
 6921SOL    HW221663   4.745   5.473   3.389
 6922SOL     OW21664   1.775   5.594   6.766
 6922SOL    HW121665   1.737   5.547   6.686
 6922SOL    HW221666   1.818   5.679   6.736
 6923SOL     OW21667   5.403   6.275   3.633
 6923SOL    HW121668   5.438   6.366   3.653
 6923SOL    HW221669   5.471   6.224   3.581
 6924SOL     OW21670   0.805   4.305   6.698
 6924SOL    HW121671   0.864   4.327   6.621
 6924SOL    HW221672   0.837   4.221   6.742
 6925SOL     OW21673   3.906   6.384   4.487
 6925SOL    HW121674   3.935   6.296   4.525
 6925SOL    HW221675   3.813   6.404   4.518
 6926SOL     OW21676   2.953   3.214   2.619
 6926SOL    HW121677   2.994   3.126   2.642
 6926SOL    HW221678   2.908   3.208   2.530
 6927SOL     OW21679   5.213   4.065   5.978
 6927SOL    HW121680   5.201   4.137   5.910
 6927SOL    HW221681   5.293   4.085   6.034
 6928SOL     OW21682   6.571   6.534   0.887
 6928SOL    HW121683   6.653   6.495   0.844
 6928SOL    HW221684   6.574   6.518   0.986
 6929SOL     OW21685   4.895   5.655   1.380
 6929SOL    HW121686   4.813   5.619   1.425
 6929SOL    HW221687   4.969   5.663   1.448
 6930SOL     OW21688   0.054   0.037   1.713
 6930SOL    HW121689   0.097   6.998   1.646
 6930SOL    HW221690   0.120   0.057   1.786
 6931SOL     OW21691   1.532   0.671   2.290
 6931SOL    HW121692   1.581   0.641   2.372
 6931SOL    HW221693   1.593   0.663   2.210
 6932SOL     OW21694   3.960   0.493   0.789
 6932SOL    HW121695   3.995   0.465   0.700
 6932SOL    HW221696   3.969   0.417   0.854
 6933SOL     OW21697   3.769   6.028   4.818
 6933SOL    HW121698   3.839   6.085   4.861
 6933SOL    HW221699   3.682   6.040   4.866
 6934SOL     OW21700   4.704   4.545   5.802
 6934SOL    HW121701   4.730   4.449   5.795
 6934SOL    HW221702   4.751   4.597   5.730
 6935SOL     OW21703   4.589   6.099   3.764
 6935SOL    HW121704   4.563   6.195   3.760
 6935SOL    HW221705   4.545   6.055   3.842
 6936SOL     OW21706   6.747   2.995   2.490
 6936SOL    HW121707   6.818   3.058   2.456
 6936SOL    HW221708   6.780   2.951   2.574
 6937SOL     OW21709   6.402   6.177   0.082
 6937SOL    HW121710   6.501   6.185   0.095
 6937SOL    HW221711   6.381   6.093   0.031
 6938SOL     OW21712   4.794   3.889   5.199
 6938SOL    HW121713   4.792   3.912   5.102
 6938SOL    HW221714   4.796   3.790   5.210
 6939SOL     OW21715   0.051   4.247   0.913
 6939SOL    HW121716   0.037   4.272   1.008
 6939SOL    HW221717   0.031   4.325   0.854
 6940SOL     OW21718   5.187   1.288   0.078
 6940SOL    HW121719   5.120   1.296   0.005
 6940SOL    HW221720   5.160   1.214   0.140
 6941SOL     OW21721   3.791   3.315   2.909
 6941SOL    HW121722   3.856   3.239   2.902
 6941SOL    HW221723   3.817   3.386   2.842
 6942SOL     OW21724   6.771   2.508   0.495
 6942SOL    HW121725   6.836   2.482   0.423
 6942SOL    HW221726   6.726   2.426   0.531
 6943SOL     OW21727   4.900   6.466   0.113
 6943SOL    HW121728   4.860   6.557   0.122
 6943SOL    HW221729   4.954   6.461   0.029
 6944SOL     OW21730   1.543   4.661   6.066
 6944SOL    HW121731   1.482   4.740   6.053
 6944SOL    HW221732   1.618   4.687   6.126
 6945SOL     OW21733   5.941   2.954   6.329
 6945SOL    HW121734   5.875   2.889   6.291
 6945SOL    HW221735   5.947   2.942   6.428
 6946SOL     OW21736   6.452   6.520   2.095
 6946SOL    HW121737   6.539   6.472   2.109
 6946SOL    HW221738   6.408   6.486   2.012
 6947SOL     OW21739   3.131   6.709   5.681
 6947SOL    HW121740   3.197   6.684   5.752
 6947SOL    HW221741   3.040   6.720   5.721
 6948SOL     OW21742   6.737   0.775   6.920
 6948SOL    HW121743   6.757   0.766   6.822
 6948SOL    HW221744   6.644   0.742   6.938
 6949SOL     OW21745   5.380   0.324   3.854
 6949SOL    HW121746   5.320   0.331   3.774
 6949SOL    HW221747   5.471   0.294   3.824
 6950SOL     OW21748   2.089   0.220   3.586
 6950SOL    HW121749   2.121   0.308   3.621
 6950SOL    HW221750   2.085   0.224   3.486
 6951SOL     OW21751   6.300   6.294   6.125
 6951SOL    HW121752   6.395   6.307   6.097
 6951SOL    HW221753   6.284   6.197   6.145
 6952SOL     OW21754   0.307   5.775   3.515
 6952SOL    HW121755   0.295   5.841   3.590
 6952SOL    HW221756   0.237   5.704   3.523
 6953SOL     OW21757   4.679   0.499   6.722
 6953SOL    HW121758   4.679   0.422   6.659
 6953SOL    HW221759   4.636   0.578   6.678
 6954SOL     OW21760   1.087   3.816   4.634
 6954SOL    HW121761   1.005   3.830   4.580
 6954SOL    HW221762   1.166   3.851   4.584
 6955SOL     OW21763   6.640   0.609   2.732
 6955SOL    HW121764   6.729   0.643   2.703
 6955SOL    HW221765   6.569   0.644   2.670
 6956SOL     OW21766   4.935   6.409   2.420
 6956SOL    HW121767   4.937   6.376   2.326
 6956SOL    HW221768   4.904   6.336   2.480
 6957SOL     OW21769   5.759   4.918   1.867
 6957SOL    HW121770   5.714   4.917   1.956
 6957SOL    HW221771   5.691   4.907   1.794
 6958SOL     OW21772   3.066   4.055   5.027
 6958SOL    HW121773   3.104   4.034   5.117
 6958SOL    HW221774   2.996   3.988   5.004
 6959SOL     OW21775   2.825   1.149   4.767
 6959SOL    HW121776   2.808   1.199   4.682
 6959SOL    HW221777   2.764   1.185   4.839
 6960SOL     OW21778   1.231   5.683   1.477
 6960SOL    HW121779   1.250   5.723   1.567
 6960SOL    HW221780   1.309   5.629   1.446
 6961SOL     OW21781   6.573   2.911   4.060
 6961SOL    HW121782   6.533   2.963   3.985
 6961SOL    HW221783   6.649   2.855   4.025
 6962SOL     OW21784   5.248   5.579   2.239
 6962SOL    HW121785   5.283   5.616   2.325
 6962SOL    HW221786   5.297   5.619   2.162
 6963SOL     OW21787   0.119   5.211   1.039
 6963SOL    HW121788   0.073   5.123   1.049
 6963SOL    HW221789   0.168   5.233   1.123
 6964SOL     OW21790   4.000   5.361   4.528
 6964SOL    HW121791   3.947   5.444   4.509
 6964SOL    HW221792   4.078   5.358   4.465
 6965SOL     OW21793   0.743   3.683   6.448
 6965SOL    HW121794   0.754   3.605   6.386
 6965SOL    HW221795   0.804   3.757   6.418
 6966SOL     OW21796   6.633   2.346   3.173
 6966SOL    HW121797   6.664   2.253   3.194
 6966SOL    HW221798   6.535   2.352   3.192
 6967SOL     OW21799   1.730   0.356   5.745
 6967SOL    HW121800   1.643   0.310   5.760
 6967SOL    HW221801   1.738   0.434   5.806
 6968SOL     OW21802   3.831   6.821   2.177
 6968SOL    HW121803   3.845   6.779   2.088
 6968SOL    HW221804   3.887   6.775   2.245
 6969SOL     OW21805   2.982   2.300   1.100
 6969SOL    HW121806   3.019   2.246   1.176
 6969SOL    HW221807   2.936   2.382   1.136
 6970SOL     OW21808   4.375   3.661   0.321
 6970SOL    HW121809   4.375   3.731   0.393
 6970SOL    HW221810   4.326   3.695   0.241
 6971SOL     OW21811   6.663   4.380   1.316
 6971SOL    HW121812   6.701   4.472   1.326
 6971SOL    HW221813   6.658   4.356   1.219
 6972SOL     OW21814   5.125   5.019   4.211
 6972SOL    HW121815   5.221   5.043   4.201
 6972SOL    HW221816   5.116   4.944   4.277
 6973SOL     OW21817   1.068   3.650   5.261
 6973SOL    HW121818   1.152   3.662   5.208
 6973SOL    HW221819   1.060   3.555   5.291
 6974SOL     OW21820   4.002   3.043   2.972
 6974SOL    HW121821   4.026   3.121   2.913
 6974SOL    HW221822   3.975   2.966   2.914
 6975SOL     OW21823   2.328   6.238   5.961
 6975SOL    HW121824   2.370   6.184   5.887
 6975SOL    HW221825   2.345   6.335   5.944
 6976SOL     OW21826   4.442   5.416   5.706
 6976SOL    HW121827   4.431   5.418   5.805
 6976SOL    HW221828   4.468   5.324   5.677
 6977SOL     OW21829   4.293   2.343   1.942
 6977SOL    HW121830   4.390   2.365   1.950
 6977SOL    HW221831   4.250   2.404   1.876
 6978SOL     OW21832   5.718   2.243   1.538
 6978SOL    HW121833   5.653   2.169   1.557
 6978SOL    HW221834   5.810   2.215   1.566
 6979SOL     OW21835   1.436   4.879   0.678
 6979SOL    HW121836   1.511   4.934   0.641
 6979SOL    HW221837   1.389   4.931   0.750
 6980SOL     OW21838   1.601   0.871   3.596
 6980SOL    HW121839   1.680   0.914   3.639
 6980SOL    HW221840   1.548   0.940   3.547
 6981SOL     OW21841   2.658   3.124   6.272
 6981SOL    HW121842   2.646   3.059   6.348
 6981SOL    HW221843   2.698   3.077   6.194
 6982SOL     OW21844   1.228   0.854   4.063
 6982SOL    HW121845   1.210   0.862   4.161
 6982SOL    HW221846   1.257   0.761   4.041
 6983SOL     OW21847   5.124   2.045   3.360
 6983SOL    HW121848   5.088   2.079   3.273
 6983SOL    HW221849   5.224   2.039   3.355
 6984SOL     OW21850   2.461   2.158   4.161
 6984SOL    HW121851   2.482   2.090   4.232
 6984SOL    HW221852   2.498   2.247   4.189
 6985SOL     OW21853   3.805   5.752   1.106
 6985SOL    HW121854   3.778   5.848   1.112
 6985SOL    HW221855   3.904   5.745   1.122
 6986SOL     OW21856   2.070   6.363   6.614
 6986SOL    HW121857   2.055   6.312   6.529
 6986SOL    HW221858   1.996   6.428   6.627
 6987SOL     OW21859   0.078   2.013   5.981
 6987SOL    HW121860   0.078   2.107   5.947
 6987SOL    HW221861   0.025   2.008   6.066
 6988SOL     OW21862   6.953   1.081   5.957
 6988SOL    HW121863   6.926   1.177   5.968
 6988SOL    HW221864   6.946   1.056   5.860
 6989SOL     OW21865   0.617   3.350   3.805
 6989SOL    HW121866   0.647   3.282   3.738
 6989SOL    HW221867   0.528   3.325   3.841
 6990SOL     OW21868   5.189   2.165   1.403
 6990SOL    HW121869   5.153   2.099   1.470
 6990SOL    HW221870   5.211   2.117   1.318
 6991SOL     OW21871   3.109   4.827   3.756
 6991SOL    HW121872   3.174   4.855   3.685
 6991SOL    HW221873   3.025   4.794   3.714
 6992SOL     OW21874   5.067   6.612   5.035
 6992SOL    HW121875   5.049   6.706   5.006
 6992SOL    HW221876   5.012   6.549   4.980
 6993SOL     OW21877   0.013   0.956   2.925
 6993SOL    HW121878   6.935   0.954   2.941
 6993SOL    HW221879   0.057   0.880   2.972
 6994SOL     OW21880   0.523   3.338   4.748
 6994SOL    HW121881   0.504   3.393   4.829
 6994SOL    HW221882   0.596   3.273   4.768
 6995SOL     OW21883   6.681   5.096   6.082
 6995SOL    HW121884   6.684   5.047   6.169
 6995SOL    HW221885   6.593   5.082   6.038
 6996SOL     OW21886   2.614   0.012   6.412
 6996SOL    HW121887   2.515   0.016   6.402
 6996SOL    HW221888   2.651   0.104   6.411
 6997SOL     OW21889   6.151   6.529   5.441
 6997SOL    HW121890   6.158   6.593   5.517
 6997SOL    HW221891   6.109   6.444   5.473
 6998SOL     OW21892   2.237   2.678   1.456
 6998SOL    HW121893   2.319   2.725   1.423
 6998SOL    HW221894   2.170   2.745   1.486
 6999SOL     OW21895   2.561   2.726   6.387
 6999SOL    HW121896   2.606   2.750   6.301
 6999SOL    HW221897   2.545   2.809   6.441
 7000SOL     OW21898   6.118   5.964   1.711
 7000SOL    HW121899   6.097   5.992   1.617
 7000SOL    HW221900   6.185   6.027   1.750
 7001SOL     OW21901   2.783   3.223   5.546
 7001SOL    HW121902   2.825   3.148   5.497
 7001SOL    HW221903   2.800   3.213   5.644
 7002SOL     OW21904   1.740   4.955   2.825
 7002SOL    HW121905   1.666   4.936   2.888
 7002SOL    HW221906   1.714   5.030   2.763
 7003SOL     OW21907   4.118   5.456   0.298
 7003SOL    HW121908   4.143   5.383   0.234
 7003SOL    HW221909   4.192   5.523   0.302
 7004SOL     OW21910   2.094   4.673   1.551
 7004SOL    HW121911   2.187   4.680   1.588
 7004SOL    HW221912   2.035   4.741   1.595
 7005SOL     OW21913   1.817   6.503   6.796
 7005SOL    HW121914   1.897   6.541   6.842
 7005SOL    HW221915   1.798   6.412   6.833
 7006SOL     OW21916   4.942   4.635   4.722
 7006SOL    HW121917   4.976   4.624   4.628
 7006SOL    HW221918   4.879   4.713   4.725
 7007SOL     OW21919   4.713   6.741   3.635
 7007SOL    HW121920   4.679   6.653   3.602
 7007SOL    HW221921   4.664   6.767   3.718
 7008SOL     OW21922   1.745   4.658   5.339
 7008SOL    HW121923   1.646   4.646   5.351
 7008SOL    HW221924   1.793   4.590   5.393
 7009SOL     OW21925   6.228   5.675   2.573
 7009SOL    HW121926   6.272   5.735   2.640
 7009SOL    HW221927   6.138   5.648   2.608
 7010SOL     OW21928   4.250   4.328   6.049
 7010SOL    HW121929   4.174   4.365   5.996
 7010SOL    HW221930   4.309   4.273   5.989
 7011SOL     OW21931   3.042   0.191   6.085
 7011SOL    HW121932   3.055   0.288   6.061
 7011SOL    HW221933   2.944   0.170   6.084
 7012SOL     OW21934   1.811   1.138   2.561
 7012SOL    HW121935   1.797   1.199   2.483
 7012SOL    HW221936   1.724   1.095   2.585
 7013SOL     OW21937   0.545   0.166   0.444
 7013SOL    HW121938   0.607   0.114   0.384
 7013SOL    HW221939   0.587   0.175   0.534
 7014SOL     OW21940   4.994   2.986   1.494
 7014SOL    HW121941   5.010   2.960   1.589
 7014SOL    HW221942   4.904   2.952   1.465
 7015SOL     OW21943   6.160   4.719   2.596
 7015SOL    HW121944   6.211   4.804   2.607
 7015SOL    HW221945   6.198   4.667   2.519
 7016SOL     OW21946   3.685   4.748   1.630
 7016SOL    HW121947   3.683   4.682   1.555
 7016SOL    HW221948   3.620   4.720   1.701
 7017SOL     OW21949   2.010   6.816   2.720
 7017SOL    HW121950   2.109   6.807   2.727
 7017SOL    HW221951   1.987   6.879   2.646
 7018SOL     OW21952   5.712   4.297   4.894
 7018SOL    HW121953   5.684   4.241   4.817
 7018SOL    HW221954   5.785   4.359   4.865
 7019SOL     OW21955   2.507   3.652   6.418
 7019SOL    HW121956   2.601   3.621   6.406
 7019SOL    HW221957   2.465   3.664   6.328
 7020SOL     OW21958   6.103   6.993   6.378
 7020SOL    HW121959   6.099   7.012   6.476
 7020SOL    HW221960   6.032   0.026   6.332
 7021SOL     OW21961   1.952   1.330   5.836
 7021SOL    HW121962   1.935   1.297   5.743
 7021SOL    HW221963   1.918   1.424   5.845
 7022SOL     OW21964   4.537   5.883   0.447
 7022SOL    HW121965   4.477   5.809   0.477
 7022SOL    HW221966   4.620   5.882   0.502
 7023SOL     OW21967   0.310   1.722   3.754
 7023SOL    HW121968   0.290   1.718   3.656
 7023SOL    HW221969   0.283   1.637   3.798
 7024SOL     OW21970   1.735   4.557   5.780
 7024SOL    HW121971   1.660   4.553   5.846
 7024SOL    HW221972   1.810   4.500   5.813
 7025SOL     OW21973   2.405   1.480   6.832
 7025SOL    HW121974   2.422   1.402   6.892
 7025SOL    HW221975   2.492   1.511   6.792
 7026SOL     OW21976   2.667   1.635   2.053
 7026SOL    HW121977   2.655   1.720   2.002
 7026SOL    HW221978   2.740   1.647   2.120
 7027SOL     OW21979   2.797   4.724   3.635
 7027SOL    HW121980   2.777   4.717   3.537
 7027SOL    HW221981   2.726   4.676   3.687
 7028SOL     OW21982   4.865   6.510   4.358
 7028SOL    HW121983   4.786   6.548   4.309
 7028SOL    HW221984   4.872   6.412   4.341
 7029SOL     OW21985   4.258   5.751   6.223
 7029SOL    HW121986   4.341   5.700   6.248
 7029SOL    HW221987   4.245   5.827   6.285
 7030SOL     OW21988   6.841   2.422   4.923
 7030SOL    HW121989   6.906   2.497   4.919
 7030SOL    HW221990   6.761   2.444   4.867
 7031SOL     OW21991   2.327   6.248   4.851
 7031SOL    HW121992   2.301   6.246   4.947
 7031SOL    HW221993   2.272   6.316   4.803
 7032SOL     OW21994   3.516   0.090   3.490
 7032SOL    HW121995   3.572   0.124   3.414
 7032SOL    HW221996   3.507   0.162   3.559
 7033SOL     OW21997   0.868   2.101   3.681
 7033SOL    HW121998   0.930   2.065   3.612
 7033SOL    HW221999   0.865   2.201   3.675
 7034SOL     OW22000   6.059   0.051   3.057
 7034SOL    HW122001   6.103   7.002   3.114
 7034SOL    HW222002   6.128   0.096   3.000
 7035SOL     OW22003   1.441   6.013   1.448
 7035SOL    HW122004   1.427   5.995   1.545
 7035SOL    HW222005   1.395   6.099   1.423
 7036SOL     OW22006   0.119   1.028   2.159
 7036SOL    HW122007   0.212   1.012   2.126
 7036SOL    HW222008   0.120   1.048   2.257
 7037SOL     OW22009   1.632   0.397   6.573
 7037SOL    HW122010   1.682   0.387   6.659
 7037SOL    HW222011   1.551   0.453   6.588
 7038SOL     OW22012   1.810   3.083   4.194
 7038SOL    HW122013   1.829   3.180   4.203
 7038SOL    HW222014   1.715   3.065   4.220
 7039SOL     OW22015   2.871   5.204   1.772
 7039SOL    HW122016   2.846   5.158   1.857
 7039SOL    HW222017   2.867   5.139   1.696
 7040SOL     OW22018   5.658   1.964   4.307
 7040SOL    HW122019   5.720   1.986   4.232
 7040SOL    HW222020   5.642   1.865   4.309
 7041SOL     OW22021   0.794   2.235   1.542
 7041SOL    HW122022   0.831   2.327   1.531
 7041SOL    HW222023   0.699   2.241   1.573
 7042SOL     OW22024   5.255   5.729   6.422
 7042SOL    HW122025   5.242   5.664   6.347
 7042SOL    HW222026   5.349   5.722   6.456
 7043SOL     OW22027   2.171   2.764   3.204
 7043SOL    HW122028   2.244   2.703   3.231
 7043SOL    HW222029   2.122   2.796   3.285
 7044SOL     OW22030   4.998   5.163   2.834
 7044SOL    HW122031   4.944   5.134   2.755
 7044SOL    HW222032   5.030   5.257   2.820
 7045SOL     OW22033   4.791   5.673   2.494
 7045SOL    HW122034   4.870   5.620   2.528
 7045SOL    HW222035   4.783   5.758   2.546
 7046SOL     OW22036   3.549   1.446   2.942
 7046SOL    HW122037   3.578   1.496   2.860
 7046SOL    HW222038   3.529   1.511   3.016
 7047SOL     OW22039   0.889   2.828   2.454
 7047SOL    HW122040   0.835   2.753   2.491
 7047SOL    HW222041   0.986   2.812   2.475
 7048SOL     OW22042   6.998   5.991   2.405
 7048SOL    HW122043   0.029   6.016   2.322
 7048SOL    HW222044   6.953   6.073   2.442
 7049SOL     OW22045   2.628   1.706   1.040
 7049SOL    HW122046   2.669   1.616   1.022
 7049SOL    HW222047   2.556   1.724   0.972
 7050SOL     OW22048   3.826   3.495   2.398
 7050SOL    HW122049   3.925   3.481   2.393
 7050SOL    HW222050   3.807   3.584   2.440
 7051SOL     OW22051   0.389   0.425   0.959
 7051SOL    HW122052   0.421   0.334   0.987
 7051SOL    HW222053   0.299   0.442   0.999
 7052SOL     OW22054   6.171   2.726   3.413
 7052SOL    HW122055   6.135   2.715   3.320
 7052SOL    HW222056   6.271   2.726   3.409
 7053SOL     OW22057   1.275   3.809   4.853
 7053SOL    HW122058   1.350   3.872   4.831
 7053SOL    HW222059   1.192   3.837   4.804
 7054SOL     OW22060   0.644   6.529   0.743
 7054SOL    HW122061   0.590   6.601   0.787
 7054SOL    HW222062   0.729   6.567   0.708
 7055SOL     OW22063   4.021   5.977   5.348
 7055SOL    HW122064   4.109   6.011   5.317
 7055SOL    HW222065   3.986   5.909   5.284
 7056SOL     OW22066   5.559   5.945   2.531
 7056SOL    HW122067   5.581   5.997   2.449
 7056SOL    HW222068   5.466   5.965   2.561
 7057SOL     OW22069   1.179   5.814   3.567
 7057SOL    HW122070   1.221   5.732   3.527
 7057SOL    HW222071   1.131   5.865   3.496
 7058SOL     OW22072   6.955   6.144   6.122
 7058SOL    HW122073   6.938   6.237   6.092
 7058SOL    HW222074   6.951   6.082   6.044
 7059SOL     OW22075   6.725   0.780   3.640
 7059SOL    HW122076   6.681   0.727   3.568
 7059SOL    HW222077   6.731   0.724   3.723
 7060SOL     OW22078   4.173   0.554   1.912
 7060SOL    HW122079   4.208   0.486   1.847
 7060SOL    HW222080   4.250   0.600   1.956
 7061SOL     OW22081   0.087   3.175   4.041
 7061SOL    HW122082   0.173   3.123   4.042
 7061SOL    HW222083   0.103   3.266   4.080
 7062SOL     OW22084   4.851   1.495   4.782
 7062SOL    HW122085   4.890   1.536   4.700
 7062SOL    HW222086   4.854   1.395   4.774
 7063SOL     OW22087   0.789   0.525   1.343
 7063SOL    HW122088   0.827   0.570   1.261
 7063SOL    HW222089   0.772   0.594   1.413
 7064SOL     OW22090   4.117   2.113   2.296
 7064SOL    HW122091   4.019   2.121   2.315
 7064SOL    HW222092   4.131   2.109   2.197
 7065SOL     OW22093   4.147   3.305   6.456
 7065SOL    HW122094   4.081   3.253   6.510
 7065SOL    HW222095   4.099   3.358   6.387
 7066SOL     OW22096   4.309   6.931   0.410
 7066SOL    HW122097   4.369   6.942   0.489
 7066SOL    HW222098   4.333   7.000   0.341
 7067SOL     OW22099   1.503   1.522   5.212
 7067SOL    HW122100   1.405   1.540   5.206
 7067SOL    HW222101   1.547   1.544   5.125
 7068SOL     OW22102   0.583   4.444   4.294
 7068SOL    HW122103   0.522   4.505   4.242
 7068SOL    HW222104   0.613   4.491   4.377
 7069SOL     OW22105   6.046   1.929   3.566
 7069SOL    HW122106   6.111   1.891   3.632
 7069SOL    HW222107   5.987   1.996   3.612
 7070SOL     OW22108   6.408   6.123   4.708
 7070SOL    HW122109   6.486   6.084   4.660
 7070SOL    HW222110   6.422   6.116   4.807
 7071SOL     OW22111   1.407   6.188   6.200
 7071SOL    HW122112   1.437   6.111   6.144
 7071SOL    HW222113   1.331   6.159   6.258
 7072SOL     OW22114   0.854   6.279   6.183
 7072SOL    HW122115   0.766   6.276   6.135
 7072SOL    HW222116   0.843   6.236   6.273
 7073SOL     OW22117   4.976   6.908   4.534
 7073SOL    HW122118   4.901   6.941   4.476
 7073SOL    HW222119   4.960   6.812   4.558
 7074SOL     OW22120   4.331   2.142   1.656
 7074SOL    HW122121   4.278   2.063   1.626
 7074SOL    HW222122   4.270   2.210   1.695
 7075SOL     OW22123   1.716   5.414   5.275
 7075SOL    HW122124   1.670   5.345   5.330
 7075SOL    HW222125   1.792   5.373   5.225
 7076SOL     OW22126   5.569   2.471   6.375
 7076SOL    HW122127   5.485   2.431   6.337
 7076SOL    HW222128   5.549   2.559   6.418
 7077SOL     OW22129   2.414   4.431   4.269
 7077SOL    HW122130   2.392   4.359   4.203
 7077SOL    HW222131   2.342   4.501   4.268
 7078SOL     OW22132   6.922   0.685   1.224
 7078SOL    HW122133   6.988   0.627   1.272
 7078SOL    HW222134   6.934   0.780   1.253
 7079SOL     OW22135   6.554   6.153   4.977
 7079SOL    HW122136   6.503   6.210   5.042
 7079SOL    HW222137   6.639   6.198   4.952
 7080SOL     OW22138   2.963   2.277   4.127
 7080SOL    HW122139   3.057   2.243   4.126
 7080SOL    HW222140   2.931   2.284   4.222
 7081SOL     OW22141   2.773   1.710   6.830
 7081SOL    HW122142   2.759   1.776   6.756
 7081SOL    HW222143   2.715   1.630   6.815
 7082SOL     OW22144   6.326   4.520   0.012
 7082SOL    HW122145   6.312   4.579   6.953
 7082SOL    HW222146   6.251   4.533   0.076
 7083SOL     OW22147   2.913   0.550   0.514
 7083SOL    HW122148   2.848   0.498   0.569
 7083SOL    HW222149   2.966   0.488   0.456
 7084SOL     OW22150   0.507   6.621   5.388
 7084SOL    HW122151   0.440   6.665   5.448
 7084SOL    HW222152   0.476   6.628   5.293
 7085SOL     OW22153   1.291   1.862   2.022
 7085SOL    HW122154   1.263   1.931   1.955
 7085SOL    HW222155   1.378   1.822   1.994
 7086SOL     OW22156   5.401   1.305   4.939
 7086SOL    HW122157   5.411   1.372   4.866
 7086SOL    HW222158   5.334   1.337   5.005
 7087SOL     OW22159   6.068   4.338   3.643
 7087SOL    HW122160   6.134   4.268   3.672
 7087SOL    HW222161   6.094   4.426   3.682
 7088SOL     OW22162   5.698   2.887   3.616
 7088SOL    HW122163   5.621   2.917   3.673
 7088SOL    HW222164   5.779   2.877   3.673
 7089SOL     OW22165   3.225   2.097   4.764
 7089SOL    HW122166   3.187   2.188   4.781
 7089SOL    HW222167   3.197   2.066   4.673
 7090SOL     OW22168   2.237   0.785   6.582
 7090SOL    HW122169   2.192   0.802   6.494
 7090SOL    HW222170   2.214   0.858   6.646
 7091SOL     OW22171   0.230   1.685   6.381
 7091SOL    HW122172   0.231   1.720   6.288
 7091SOL    HW222173   0.165   1.609   6.388
 7092SOL     OW22174   4.341   2.487   6.441
 7092SOL    HW122175   4.303   2.449   6.357
 7092SOL    HW222176   4.309   2.432   6.519
 7093SOL     OW22177   2.989   3.728   3.570
 7093SOL    HW122178   3.031   3.662   3.633
 7093SOL    HW222179   3.054   3.802   3.551
 7094SOL     OW22180   0.916   5.625   6.050
 7094SOL    HW122181   0.828   5.607   6.005
 7094SOL    HW222182   0.984   5.559   6.017
 7095SOL     OW22183   2.878   3.846   5.800
 7095SOL    HW122184   2.785   3.881   5.801
 7095SOL    HW222185   2.884   3.767   5.738
 7096SOL     OW22186   6.536   1.060   3.445
 7096SOL    HW122187   6.609   1.060   3.513
 7096SOL    HW222188   6.575   1.077   3.354
 7097SOL     OW22189   5.796   1.533   1.357
 7097SOL    HW122190   5.744   1.473   1.296
 7097SOL    HW222191   5.787   1.500   1.451
 7098SOL     OW22192   0.987   0.602   4.875
 7098SOL    HW122193   0.913   0.642   4.820
 7098SOL    HW222194   1.053   0.558   4.815
 7099SOL     OW22195   2.437   0.991   5.018
 7099SOL    HW122196   2.406   1.073   5.067
 7099SOL    HW222197   2.537   0.986   5.024
 7100SOL     OW22198   5.518   2.792   0.737
 7100SOL    HW122199   5.439   2.771   0.679
 7100SOL    HW222200   5.591   2.832   0.681
 7101SOL     OW22201   2.436   0.863   4.770
 7101SOL    HW122202   2.451   0.908   4.858
 7101SOL    HW222203   2.518   0.871   4.713
 7102SOL     OW22204   4.343   0.494   0.858
 7102SOL    HW122205   4.271   0.502   0.927
 7102SOL    HW222206   4.310   0.438   0.782
 7103SOL     OW22207   4.637   5.241   1.698
 7103SOL    HW122208   4.572   5.182   1.745
 7103SOL    HW222209   4.611   5.250   1.602
 7104SOL     OW22210   0.821   3.144   4.525
 7104SOL    HW122211   0.797   3.241   4.519
 7104SOL    HW222212   0.856   3.124   4.617
 7105SOL     OW22213   2.968   2.623   5.325
 7105SOL    HW122214   2.983   2.659   5.417
 7105SOL    HW222215   2.960   2.523   5.329
 7106SOL     OW22216   2.924   3.322   3.348
 7106SOL    HW122217   2.935   3.277   3.436
 7106SOL    HW222218   2.901   3.418   3.362
 7107SOL     OW22219   2.549   2.017   0.254
 7107SOL    HW122220   2.489   1.939   0.271
 7107SOL    HW222221   2.509   2.099   0.296
 7108SOL     OW22222   3.764   6.384   2.860
 7108SOL    HW122223   3.851   6.405   2.904
 7108SOL    HW222224   3.759   6.285   2.843
 7109SOL     OW22225   2.811   0.364   6.239
 7109SOL    HW122226   2.863   0.367   6.154
 7109SOL    HW222227   2.829   0.446   6.293
 7110SOL     OW22228   3.424   5.739   4.360
 7110SOL    HW122229   3.510   5.726   4.409
 7110SOL    HW222230   3.436   5.810   4.291
 7111SOL     OW22231   1.501   1.744   4.178
 7111SOL    HW122232   1.599   1.732   4.197
 7111SOL    HW222233   1.490   1.776   4.084
 7112SOL     OW22234   1.335   5.580   4.261
 7112SOL    HW122235   1.330   5.567   4.360
 7112SOL    HW222236   1.428   5.607   4.236
 7113SOL     OW22237   3.585   3.953   4.881
 7113SOL    HW122238   3.645   3.931   4.958
 7113SOL    HW222239   3.625   3.916   4.797
 7114SOL     OW22240   3.984   6.871   1.871
 7114SOL    HW122241   4.009   6.913   1.783
 7114SOL    HW222242   3.887   6.848   1.871
 7115SOL     OW22243   5.588   3.685   1.956
 7115SOL    HW122244   5.523   3.715   2.026
 7115SOL    HW222245   5.538   3.652   1.876
 7116SOL     OW22246   5.835   4.221   3.361
 7116SOL    HW122247   5.910   4.287   3.369
 7116SOL    HW222248   5.771   4.234   3.437
 7117SOL     OW22249   6.562   5.888   4.854
 7117SOL    HW122250   6.518   5.953   4.916
 7117SOL    HW222251   6.608   5.936   4.780
 7118SOL     OW22252   2.667   3.559   0.921
 7118SOL    HW122253   2.583   3.597   0.882
 7118SOL    HW222254   2.643   3.496   0.995
 7119SOL     OW22255   5.038   1.800   2.523
 7119SOL    HW122256   4.987   1.778   2.606
 7119SOL    HW222257   5.014   1.735   2.451
 7120SOL     OW22258   3.658   2.113   2.744
 7120SOL    HW122259   3.653   2.086   2.648
 7120SOL    HW222260   3.595   2.188   2.760
 7121SOL     OW22261   1.824   6.727   2.897
 7121SOL    HW122262   1.907   6.735   2.842
 7121SOL    HW222263   1.770   6.811   2.889
 7122SOL     OW22264   1.348   0.037   5.879
 7122SOL    HW122265   1.394   7.003   5.809
 7122SOL    HW222266   1.295   6.998   5.939
 7123SOL     OW22267   2.164   4.840   3.029
 7123SOL    HW122268   2.149   4.780   3.108
 7123SOL    HW222269   2.177   4.785   2.947
 7124SOL     OW22270   0.099   2.146   0.392
 7124SOL    HW122271   0.054   2.057   0.391
 7124SOL    HW222272   0.076   2.194   0.477
 7125SOL     OW22273   6.138   6.837   0.773
 7125SOL    HW122274   6.108   6.896   0.698
 7125SOL    HW222275   6.081   6.754   0.776
 7126SOL     OW22276   3.384   4.614   6.676
 7126SOL    HW122277   3.343   4.542   6.620
 7126SOL    HW222278   3.372   4.592   6.773
 7127SOL     OW22279   1.705   5.639   5.114
 7127SOL    HW122280   1.739   5.611   5.024
 7127SOL    HW222281   1.703   5.559   5.175
 7128SOL     OW22282   3.231   4.617   6.944
 7128SOL    HW122283   3.234   4.706   6.990
 7128SOL    HW222284   3.183   4.551   7.001
 7129SOL     OW22285   1.885   1.452   0.150
 7129SOL    HW122286   1.955   1.381   0.162
 7129SOL    HW222287   1.830   1.458   0.234
 7130SOL     OW22288   4.154   5.418   5.638
 7130SOL    HW122289   4.137   5.514   5.663
 7130SOL    HW222290   4.253   5.401   5.639
 7131SOL     OW22291   2.394   0.881   0.625
 7131SOL    HW122292   2.353   0.884   0.534
 7131SOL    HW222293   2.461   0.807   0.630
 7132SOL     OW22294   3.867   3.571   6.693
 7132SOL    HW122295   3.908   3.574   6.784
 7132SOL    HW222296   3.898   3.650   6.640
 7133SOL     OW22297   5.263   5.538   5.428
 7133SOL    HW122298   5.259   5.584   5.339
 7133SOL    HW222299   5.266   5.439   5.414
 7134SOL     OW22300   5.921   6.938   1.991
 7134SOL    HW122301   5.882   6.895   2.072
 7134SOL    HW222302   5.853   6.998   1.949
 7135SOL     OW22303   0.800   3.299   3.135
 7135SOL    HW122304   0.880   3.302   3.076
 7135SOL    HW222305   0.759   3.207   3.132
 7136SOL     OW22306   1.874   2.701   1.256
 7136SOL    HW122307   1.936   2.772   1.289
 7136SOL    HW222308   1.833   2.729   1.170
 7137SOL     OW22309   3.759   0.071   6.602
 7137SOL    HW122310   3.831   0.100   6.539
 7137SOL    HW222311   3.736   0.146   6.663
 7138SOL     OW22312   1.634   3.108   6.981
 7138SOL    HW122313   1.608   3.202   7.004
 7138SOL    HW222314   1.625   3.051   0.041
 7139SOL     OW22315   5.685   4.188   2.008
 7139SOL    HW122316   5.608   4.191   1.944
 7139SOL    HW222317   5.661   4.128   2.085
 7140SOL     OW22318   5.758   4.621   4.224
 7140SOL    HW122319   5.750   4.597   4.320
 7140SOL    HW222320   5.705   4.557   4.168
 7141SOL     OW22321   3.750   6.232   1.549
 7141SOL    HW122322   3.774   6.225   1.452
 7141SOL    HW222323   3.651   6.244   1.559
 7142SOL     OW22324   4.584   0.082   3.750
 7142SOL    HW122325   4.638   0.036   3.820
 7142SOL    HW222326   4.493   0.042   3.746
 7143SOL     OW22327   1.157   2.811   6.111
 7143SOL    HW122328   1.205   2.797   6.198
 7143SOL    HW222329   1.098   2.892   6.118
 7144SOL     OW22330   1.987   1.695   2.519
 7144SOL    HW122331   1.998   1.747   2.435
 7144SOL    HW222332   2.075   1.655   2.546
 7145SOL     OW22333   4.201   6.811   0.163
 7145SOL    HW122334   4.122   6.857   0.202
 7145SOL    HW222335   4.267   6.791   0.235
 7146SOL     OW22336   2.266   0.142   0.729
 7146SOL    HW122337   2.259   0.075   0.803
 7146SOL    HW222338   2.247   0.234   0.765
 7147SOL     OW22339   0.331   6.534   3.294
 7147SOL    HW122340   0.399   6.508   3.362
 7147SOL    HW222341   0.275   6.454   3.271
 7148SOL     OW22342   0.813   6.381   0.183
 7148SOL    HW122343   0.838   6.345   0.094
 7148SOL    HW222344   0.878   6.350   0.252
 7149SOL     OW22345   5.943   6.728   2.997
 7149SOL    HW122346   5.971   6.694   2.907
 7149SOL    HW222347   5.952   6.654   3.064
 7150SOL     OW22348   3.389   1.539   2.187
 7150SOL    HW122349   3.420   1.624   2.144
 7150SOL    HW222350   3.445   1.520   2.267
 7151SOL     OW22351   2.078   6.225   0.559
 7151SOL    HW122352   2.088   6.138   0.510
 7151SOL    HW222353   2.168   6.269   0.566
 7152SOL     OW22354   1.150   1.089   4.804
 7152SOL    HW122355   1.067   1.132   4.770
 7152SOL    HW222356   1.189   1.144   4.878
 7153SOL     OW22357   3.457   5.756   1.795
 7153SOL    HW122358   3.373   5.703   1.801
 7153SOL    HW222359   3.448   5.839   1.850
 7154SOL     OW22360   3.469   0.663   3.935
 7154SOL    HW122361   3.425   0.607   4.005
 7154SOL    HW222362   3.563   0.683   3.963
 7155SOL     OW22363   1.959   3.380   1.925
 7155SOL    HW122364   1.975   3.322   1.845
 7155SOL    HW222365   2.046   3.413   1.961
 7156SOL     OW22366   0.336   4.071   4.668
 7156SOL    HW122367   0.410   4.101   4.728
 7156SOL    HW222368   0.314   3.976   4.688
 7157SOL     OW22369   6.119   3.994   1.968
 7157SOL    HW122370   6.157   4.069   2.023
 7157SOL    HW222371   6.168   3.910   1.988
 7158SOL     OW22372   1.522   6.850   2.731
 7158SOL    HW122373   1.523   6.751   2.723
 7158SOL    HW222374   1.428   6.881   2.749
 7159SOL     OW22375   0.584   4.647   2.449
 7159SOL    HW122376   0.576   4.694   2.536
 7159SOL    HW222377   0.672   4.599   2.444
 7160SOL     OW22378   5.252   0.288   2.998
 7160SOL    HW122379   5.188   0.234   3.054
 7160SOL    HW222380   5.344   0.280   3.036
 7161SOL     OW22381   3.045   3.485   4.671
 7161SOL    HW122382   3.090   3.403   4.707
 7161SOL    HW222383   3.003   3.535   4.746
 7162SOL     OW22384   1.708   5.569   5.795
 7162SOL    HW122385   1.764   5.491   5.767
 7162SOL    HW222386   1.699   5.568   5.894
 7163SOL     OW22387   2.837   6.532   2.959
 7163SOL    HW122388   2.774   6.555   2.884
 7163SOL    HW222389   2.908   6.470   2.925
 7164SOL     OW22390   1.784   0.930   4.041
 7164SOL    HW122391   1.840   1.011   4.056
 7164SOL    HW222392   1.687   0.954   4.050
 7165SOL     OW22393   7.007   1.542   1.811
 7165SOL    HW122394   6.921   1.569   1.767
 7165SOL    HW222395   0.057   1.610   1.792
 7166SOL     OW22396   5.891   3.213   0.480
 7166SOL    HW122397   5.979   3.206   0.433
 7166SOL    HW222398   5.905   3.247   0.573
 7167SOL     OW22399   5.166   3.438   3.914
 7167SOL    HW122400   5.226   3.377   3.862
 7167SOL    HW222401   5.072   3.404   3.909
 7168SOL     OW22402   2.013   2.136   3.425
 7168SOL    HW122403   2.030   2.219   3.479
 7168SOL    HW222404   1.944   2.080   3.471
 7169SOL     OW22405   6.215   3.077   5.143
 7169SOL    HW122406   6.236   3.159   5.196
 7169SOL    HW222407   6.118   3.076   5.119
 7170SOL     OW22408   5.205   5.908   3.376
 7170SOL    HW122409   5.257   5.945   3.298
 7170SOL    HW222410   5.137   5.844   3.342
 7171SOL     OW22411   5.310   3.940   0.144
 7171SOL    HW122412   5.405   3.948   0.173
 7171SOL    HW222413   5.301   3.866   0.078
 7172SOL     OW22414   1.558   0.756   5.284
 7172SOL    HW122415   1.513   0.812   5.214
 7172SOL    HW222416   1.530   0.661   5.273
 7173SOL     OW22417   0.114   4.496   5.881
 7173SOL    HW122418   0.131   4.397   5.875
 7173SOL    HW222419   0.140   4.539   5.794
 7174SOL     OW22420   0.668   4.514   0.483
 7174SOL    HW122421   0.760   4.476   0.480
 7174SOL    HW222422   0.655   4.563   0.569
 7175SOL     OW22423   4.971   2.466   6.461
 7175SOL    HW122424   4.960   2.444   6.558
 7175SOL    HW222425   4.935   2.392   6.406
 7176SOL     OW22426   1.031   6.321   2.749
 7176SOL    HW122427   1.010   6.226   2.773
 7176SOL    HW222428   1.020   6.379   2.830
 7177SOL     OW22429   2.083   5.849   4.411
 7177SOL    HW122430   2.146   5.923   4.387
 7177SOL    HW222431   1.989   5.881   4.399
 7178SOL     OW22432   1.657   2.478   5.650
 7178SOL    HW122433   1.755   2.469   5.629
 7178SOL    HW222434   1.615   2.539   5.583
 7179SOL     OW22435   1.924   3.647   4.286
 7179SOL    HW122436   1.826   3.626   4.279
 7179SOL    HW222437   1.952   3.700   4.206
 7180SOL     OW22438   2.391   5.085   0.062
 7180SOL    HW122439   2.402   4.991   0.032
 7180SOL    HW222440   2.429   5.096   0.154
 7181SOL     OW22441   2.364   6.046   0.438
 7181SOL    HW122442   2.448   6.080   0.481
 7181SOL    HW222443   2.314   5.989   0.504
 7182SOL     OW22444   1.503   2.516   5.209
 7182SOL    HW122445   1.587   2.571   5.208
 7182SOL    HW222446   1.440   2.550   5.140
 7183SOL     OW22447   2.650   5.858   0.531
 7183SOL    HW122448   2.554   5.840   0.509
 7183SOL    HW222449   2.669   5.955   0.521
 7184SOL     OW22450   0.011   1.335   3.318
 7184SOL    HW122451   0.103   1.365   3.345
 7184SOL    HW222452   0.016   1.245   3.276
 7185SOL     OW22453   5.424   0.493   5.118
 7185SOL    HW122454   5.347   0.546   5.153
 7185SOL    HW222455   5.402   0.395   5.124
 7186SOL     OW22456   6.424   0.521   0.172
 7186SOL    HW122457   6.376   0.564   0.249
 7186SOL    HW222458   6.522   0.526   0.188
 7187SOL     OW22459   3.732   4.085   6.843
 7187SOL    HW122460   3.659   4.034   6.888
 7187SOL    HW222461   3.698   4.124   6.758
 7188SOL     OW22462   6.718   0.449   0.558
 7188SOL    HW122463   6.798   0.502   0.530
 7188SOL    HW222464   6.726   0.426   0.655
 7189SOL     OW22465   0.684   0.945   5.976
 7189SOL    HW122466   0.625   0.990   5.909
 7189SOL    HW222467   0.662   0.847   5.980
 7190SOL     OW22468   6.926   3.573   3.027
 7190SOL    HW122469   6.870   3.565   2.945
 7190SOL    HW222470   6.884   3.640   3.089
 7191SOL     OW22471   0.495   4.383   2.812
 7191SOL    HW122472   0.458   4.467   2.850
 7191SOL    HW222473   0.534   4.327   2.886
 7192SOL     OW22474   3.429   4.557   5.387
 7192SOL    HW122475   3.394   4.501   5.312
 7192SOL    HW222476   3.367   4.551   5.465
 7193SOL     OW22477   1.899   2.761   2.301
 7193SOL    HW122478   1.845   2.700   2.243
 7193SOL    HW222479   1.872   2.749   2.397
 7194SOL     OW22480   2.616   2.340   0.978
 7194SOL    HW122481   2.669   2.258   0.958
 7194SOL    HW222482   2.531   2.338   0.925
 7195SOL     OW22483   6.874   4.159   6.951
 7195SOL    HW122484   6.776   4.148   6.965
 7195SOL    HW222485   6.891   4.235   6.888
 7196SOL     OW22486   3.440   4.111   1.081
 7196SOL    HW122487   3.387   4.169   1.020
 7196SOL    HW222488   3.394   4.023   1.092
 7197SOL     OW22489   0.254   2.658   5.782
 7197SOL    HW122490   0.256   2.608   5.869
 7197SOL    HW222491   0.298   2.603   5.711
 7198SOL     OW22492   0.627   0.669   6.685
 7198SOL    HW122493   0.555   0.727   6.722
 7198SOL    HW222494   0.661   0.708   6.599
 7199SOL     OW22495   2.296   1.174   2.717
 7199SOL    HW122496   2.265   1.081   2.738
 7199SOL    HW222497   2.396   1.176   2.713
 7200SOL     OW22498   2.631   1.955   0.662
 7200SOL    HW122499   2.710   1.945   0.723
 7200SOL    HW222500   2.634   1.885   0.591
 7201SOL     OW22501   0.878   5.624   4.050
 7201SOL    HW122502   0.813   5.644   4.123
 7201SOL    HW222503   0.926   5.539   4.070
 7202SOL     OW22504   4.324   0.553   5.985
 7202SOL    HW122505   4.363   0.599   6.065
 7202SOL    HW222506   4.307   0.619   5.913
 7203SOL     OW22507   6.861   1.787   0.983
 7203SOL    HW122508   6.882   1.859   0.917
 7203SOL    HW222509   6.771   1.806   1.024
 7204SOL     OW22510   0.410   6.877   5.547
 7204SOL    HW122511   0.331   6.817   5.563
 7204SOL    HW222512   0.475   6.867   5.623
 7205SOL     OW22513   0.998   5.392   3.516
 7205SOL    HW122514   1.010   5.292   3.510
 7205SOL    HW222515   1.016   5.422   3.610
 7206SOL     OW22516   1.891   0.295   1.184
 7206SOL    HW122517   1.811   0.355   1.179
 7206SOL    HW222518   1.973   0.347   1.164
 7207SOL     OW22519   3.781   0.398   2.436
 7207SOL    HW122520   3.877   0.419   2.419
 7207SOL    HW222521   3.736   0.376   2.349
 7208SOL     OW22522   4.285   6.107   3.657
 7208SOL    HW122523   4.217   6.045   3.697
 7208SOL    HW222524   4.304   6.182   3.721
 7209SOL     OW22525   2.859   3.535   2.500
 7209SOL    HW122526   2.866   3.453   2.443
 7209SOL    HW222527   2.867   3.509   2.596
 7210SOL     OW22528   4.430   0.884   3.872
 7210SOL    HW122529   4.447   0.803   3.816
 7210SOL    HW222530   4.387   0.857   3.958
 7211SOL     OW22531   2.817   5.528   3.922
 7211SOL    HW122532   2.735   5.586   3.922
 7211SOL    HW222533   2.856   5.527   3.830
 7212SOL     OW22534   0.362   6.443   4.506
 7212SOL    HW122535   0.350   6.387   4.588
 7212SOL    HW222536   0.388   6.384   4.429
 7213SOL     OW22537   5.147   0.527   0.005
 7213SOL    HW122538   5.058   0.555   6.991
 7213SOL    HW222539   5.181   0.450   6.972
 7214SOL     OW22540   0.395   5.114   5.475
 7214SOL    HW122541   0.359   5.175   5.405
 7214SOL    HW222542   0.430   5.169   5.551
 7215SOL     OW22543   0.119   3.305   5.422
 7215SOL    HW122544   0.148   3.317   5.517
 7215SOL    HW222545   0.044   3.368   5.402
 7216SOL     OW22546   3.236   6.238   6.703
 7216SOL    HW122547   3.277   6.160   6.655
 7216SOL    HW222548   3.299   6.316   6.699
 7217SOL     OW22549   2.270   4.239   2.563
 7217SOL    HW122550   2.198   4.308   2.551
 7217SOL    HW222551   2.286   4.193   2.476
 7218SOL     OW22552   4.845   2.349   5.627
 7218SOL    HW122553   4.808   2.420   5.687
 7218SOL    HW222554   4.939   2.373   5.602
 7219SOL     OW22555   4.373   6.640   4.874
 7219SOL    HW122556   4.356   6.556   4.925
 7219SOL    HW222557   4.469   6.645   4.849
 7220SOL     OW22558   0.461   5.793   4.843
 7220SOL    HW122559   0.486   5.824   4.751
 7220SOL    HW222560   0.531   5.732   4.878
 7221SOL     OW22561   4.344   5.455   4.623
 7221SOL    HW122562   4.402   5.527   4.585
 7221SOL    HW222563   4.327   5.473   4.720
 7222SOL     OW22564   6.035   0.383   3.032
 7222SOL    HW122565   5.980   0.302   3.052
 7222SOL    HW222566   5.981   0.466   3.048
 7223SOL     OW22567   2.702   2.329   1.358
 7223SOL    HW122568   2.623   2.279   1.323
 7223SOL    HW222569   2.772   2.265   1.388
 7224SOL     OW22570   5.770   2.291   4.085
 7224SOL    HW122571   5.702   2.344   4.035
 7224SOL    HW222572   5.751   2.295   4.183
 7225SOL     OW22573   0.889   6.078   6.827
 7225SOL    HW122574   0.905   6.148   6.897
 7225SOL    HW222575   0.932   5.992   6.856
 7226SOL     OW22576   6.844   1.167   0.905
 7226SOL    HW122577   6.755   1.192   0.867
 7226SOL    HW222578   6.910   1.155   0.830
 7227SOL     OW22579   0.425   2.200   0.825
 7227SOL    HW122580   0.437   2.237   0.733
 7227SOL    HW222581   0.499   2.233   0.884
 7228SOL     OW22582   0.989   1.306   2.136
 7228SOL    HW122583   0.938   1.245   2.075
 7228SOL    HW222584   0.924   1.352   2.197
 7229SOL     OW22585   1.687   6.746   5.052
 7229SOL    HW122586   1.717   6.654   5.077
 7229SOL    HW222587   1.587   6.748   5.049
 7230SOL     OW22588   4.565   5.050   4.593
 7230SOL    HW122589   4.619   5.120   4.546
 7230SOL    HW222590   4.482   5.092   4.631
 7231SOL     OW22591   5.079   0.221   0.339
 7231SOL    HW122592   5.120   0.312   0.327
 7231SOL    HW222593   5.093   0.166   0.257
 7232SOL     OW22594   4.980   5.747   3.281
 7232SOL    HW122595   4.921   5.704   3.349
 7232SOL    HW222596   5.029   5.677   3.229
 7233SOL     OW22597   0.442   2.682   4.385
 7233SOL    HW122598   0.536   2.717   4.380
 7233SOL    HW222599   0.442   2.593   4.431
 7234SOL     OW22600   5.180   3.486   3.425
 7234SOL    HW122601   5.206   3.542   3.347
 7234SOL    HW222602   5.262   3.462   3.477
 7235SOL     OW22603   6.905   4.089   2.071
 7235SOL    HW122604   7.001   4.108   2.051
 7235SOL    HW222605   6.871   4.019   2.010
 7236SOL     OW22606   2.516   1.417   2.367
 7236SOL    HW122607   2.438   1.443   2.311
 7236SOL    HW222608   2.512   1.319   2.388
 7237SOL     OW22609   5.761   6.945   5.173
 7237SOL    HW122610   5.825   6.945   5.250
 7237SOL    HW222611   5.751   6.852   5.137
 7238SOL     OW22612   2.941   1.977   1.182
 7238SOL    HW122613   3.020   2.025   1.221
 7238SOL    HW222614   2.974   1.902   1.123
 7239SOL     OW22615   2.380   1.772   2.536
 7239SOL    HW122616   2.406   1.849   2.594
 7239SOL    HW222617   2.419   1.785   2.444
 7240SOL     OW22618   2.118   5.058   5.931
 7240SOL    HW122619   2.173   5.018   5.858
 7240SOL    HW222620   2.030   5.011   5.936
 7241SOL     OW22621   2.912   0.684   0.785
 7241SOL    HW122622   2.965   0.599   0.789
 7241SOL    HW222623   2.903   0.713   0.689
 7242SOL     OW22624   6.250   5.840   0.466
 7242SOL    HW122625   6.340   5.819   0.503
 7242SOL    HW222626   6.208   5.913   0.520
 7243SOL     OW22627   6.735   4.667   6.214
 7243SOL    HW122628   6.734   4.761   6.248
 7243SOL    HW222629   6.690   4.607   6.279
 7244SOL     OW22630   5.786   0.344   1.224
 7244SOL    HW122631   5.720   0.311   1.291
 7244SOL    HW222632   5.821   0.433   1.253
 7245SOL     OW22633   0.414   2.272   5.101
 7245SOL    HW122634   0.322   2.270   5.064
 7245SOL    HW222635   0.476   2.222   5.040
 7246SOL     OW22636   6.373   0.350   4.213
 7246SOL    HW122637   6.300   0.281   4.207
 7246SOL    HW222638   6.390   0.373   4.309
 7247SOL     OW22639   3.070   6.696   3.957
 7247SOL    HW122640   2.986   6.690   3.903
 7247SOL    HW222641   3.105   6.604   3.975
 7248SOL     OW22642   3.500   0.906   3.239
 7248SOL    HW122643   3.412   0.895   3.193
 7248SOL    HW222644   3.574   0.893   3.174
 7249SOL     OW22645   5.710   4.559   2.271
 7249SOL    HW122646   5.702   4.526   2.365
 7249SOL    HW222647   5.695   4.658   2.269
 7250SOL     OW22648   3.926   5.851   6.254
 7250SOL    HW122649   3.959   5.772   6.203
 7250SOL    HW222650   3.876   5.912   6.192
 7251SOL     OW22651   0.443   6.715   5.150
 7251SOL    HW122652   0.443   6.696   5.052
 7251SOL    HW222653   0.472   6.809   5.166
 7252SOL     OW22654   3.936   3.087   3.702
 7252SOL    HW122655   3.893   3.175   3.725
 7252SOL    HW222656   3.923   3.024   3.778
 7253SOL     OW22657   2.195   6.208   6.806
 7253SOL    HW122658   2.145   6.276   6.751
 7253SOL    HW222659   2.293   6.225   6.798
 7254SOL     OW22660   4.579   5.684   5.149
 7254SOL    HW122661   4.533   5.600   5.118
 7254SOL    HW222662   4.677   5.669   5.152
 7255SOL     OW22663   3.511   3.429   1.159
 7255SOL    HW122664   3.430   3.393   1.204
 7255SOL    HW222665   3.580   3.452   1.227
 7256SOL     OW22666   4.510   4.520   4.307
 7256SOL    HW122667   4.457   4.591   4.353
 7256SOL    HW222668   4.513   4.438   4.364
 7257SOL     OW22669   4.896   3.387   3.969
 7257SOL    HW122670   4.884   3.458   4.038
 7257SOL    HW222671   4.850   3.304   3.998
 7258SOL     OW22672   3.778   0.944   3.114
 7258SOL    HW122673   3.848   0.992   3.167
 7258SOL    HW222674   3.744   1.004   3.042
 7259SOL     OW22675   3.114   3.097   1.489
 7259SOL    HW122676   3.145   3.127   1.398
 7259SOL    HW222677   3.062   3.170   1.532
 7260SOL     OW22678   2.755   2.277   2.977
 7260SOL    HW122679   2.699   2.351   2.938
 7260SOL    HW222680   2.802   2.310   3.059
 7261SOL     OW22681   2.107   3.263   1.371
 7261SOL    HW122682   2.133   3.220   1.458
 7261SOL    HW222683   2.023   3.221   1.337
 7262SOL     OW22684   5.446   1.821   4.550
 7262SOL    HW122685   5.432   1.919   4.538
 7262SOL    HW222686   5.514   1.788   4.484
 7263SOL     OW22687   0.290   6.307   2.289
 7263SOL    HW122688   0.372   6.260   2.256
 7263SOL    HW222689   0.226   6.319   2.213
 7264SOL     OW22690   6.197   1.494   6.541
 7264SOL    HW122691   6.190   1.551   6.623
 7264SOL    HW222692   6.235   1.405   6.566
 7265SOL     OW22693   5.547   5.986   5.946
 7265SOL    HW122694   5.521   5.997   6.042
 7265SOL    HW222695   5.532   6.072   5.897
 7266SOL     OW22696   4.170   0.200   1.188
 7266SOL    HW122697   4.267   0.205   1.209
 7266SOL    HW222698   4.138   0.106   1.200
 7267SOL     OW22699   6.495   5.659   5.549
 7267SOL    HW122700   6.546   5.718   5.487
 7267SOL    HW222701   6.476   5.708   5.634
 7268SOL     OW22702   4.422   4.684   2.767
 7268SOL    HW122703   4.430   4.598   2.818
 7268SOL    HW222704   4.369   4.669   2.684
 7269SOL     OW22705   6.942   6.051   1.018
 7269SOL    HW122706   7.013   6.045   1.088
 7269SOL    HW222707   6.983   6.083   0.932
 7270SOL     OW22708   1.388   2.974   4.779
 7270SOL    HW122709   1.289   2.962   4.780
 7270SOL    HW222710   1.426   2.948   4.868
 7271SOL     OW22711   0.523   4.935   4.179
 7271SOL    HW122712   0.437   4.917   4.227
 7271SOL    HW222713   0.599   4.898   4.232
 7272SOL     OW22714   5.624   4.869   2.092
 7272SOL    HW122715   5.628   4.853   2.191
 7272SOL    HW222716   5.530   4.886   2.064
 7273SOL     OW22717   5.680   5.029   2.742
 7273SOL    HW122718   5.681   5.043   2.841
 7273SOL    HW222719   5.755   5.081   2.700
 7274SOL     OW22720   1.147   6.254   6.616
 7274SOL    HW122721   1.182   6.227   6.706
 7274SOL    HW222722   1.135   6.172   6.559
 7275SOL     OW22723   6.889   1.199   2.412
 7275SOL    HW122724   6.973   1.197   2.467
 7275SOL    HW222725   6.811   1.174   2.469
 7276SOL     OW22726   3.464   1.481   3.692
 7276SOL    HW122727   3.460   1.464   3.593
 7276SOL    HW222728   3.417   1.567   3.713
 7277SOL     OW22729   5.423   1.324   4.101
 7277SOL    HW122730   5.363   1.341   4.178
 7277SOL    HW222731   5.443   1.226   4.095
 7278SOL     OW22732   3.306   1.812   2.024
 7278SOL    HW122733   3.222   1.838   2.073
 7278SOL    HW222734   3.369   1.890   2.023
 7279SOL     OW22735   4.033   3.014   6.842
 7279SOL    HW122736   3.947   3.021   6.893
 7279SOL    HW222737   4.014   3.019   6.744
 7280SOL     OW22738   6.746   2.410   4.491
 7280SOL    HW122739   6.713   2.328   4.538
 7280SOL    HW222740   6.733   2.490   4.551
 7281SOL     OW22741   2.264   0.239   0.487
 7281SOL    HW122742   2.268   0.337   0.511
 7281SOL    HW222743   2.267   0.185   0.571
 7282SOL     OW22744   6.602   6.564   0.552
 7282SOL    HW122745   6.604   6.661   0.577
 7282SOL    HW222746   6.510   6.528   0.567
 7283SOL     OW22747   2.723   6.853   1.944
 7283SOL    HW122748   2.822   6.854   1.953
 7283SOL    HW222749   2.681   6.862   2.035
 7284SOL     OW22750   6.955   3.299   4.792
 7284SOL    HW122751   6.993   3.321   4.702
 7284SOL    HW222752   6.923   3.204   4.792
 7285SOL     OW22753   5.768   3.821   1.792
 7285SOL    HW122754   5.697   3.776   1.846
 7285SOL    HW222755   5.727   3.861   1.710
 7286SOL     OW22756   0.703   0.234   0.715
 7286SOL    HW122757   0.739   0.141   0.728
 7286SOL    HW222758   0.772   0.301   0.740
 7287SOL     OW22759   6.578   3.192   4.791
 7287SOL    HW122760   6.483   3.162   4.799
 7287SOL    HW222761   6.582   3.284   4.754
 7288SOL     OW22762   1.094   2.840   2.094
 7288SOL    HW122763   1.076   2.751   2.136
 7288SOL    HW222764   1.030   2.907   2.129
 7289SOL     OW22765   6.992   2.170   2.703
 7289SOL    HW122766   6.928   2.224   2.758
 7289SOL    HW222767   6.982   2.195   2.607
 7290SOL     OW22768   3.128   0.905   5.464
 7290SOL    HW122769   3.075   0.911   5.549
 7290SOL    HW222770   3.121   0.992   5.415
 7291SOL     OW22771   3.221   6.940   0.727
 7291SOL    HW122772   3.171   0.005   0.740
 7291SOL    HW222773   3.304   6.958   0.674
 7292SOL     OW22774   2.787   0.019   3.290
 7292SOL    HW122775   2.810   0.075   3.369
 7292SOL    HW222776   2.756   0.079   3.215
 7293SOL     OW22777   1.762   1.321   6.064
 7293SOL    HW122778   1.836   1.359   6.007
 7293SOL    HW222779   1.800   1.285   6.149
 7294SOL     OW22780   2.938   4.058   0.352
 7294SOL    HW122781   2.897   4.123   0.417
 7294SOL    HW222782   2.867   3.994   0.320
 7295SOL     OW22783   0.014   4.302   1.226
 7295SOL    HW122784   6.950   4.345   1.194
 7295SOL    HW222785   7.012   4.232   1.294
 7296SOL     OW22786   4.616   4.781   2.585
 7296SOL    HW122787   4.562   4.735   2.655
 7296SOL    HW222788   4.562   4.855   2.545
 7297SOL     OW22789   2.706   6.636   2.719
 7297SOL    HW122790   2.652   6.720   2.716
 7297SOL    HW222791   2.653   6.560   2.681
 7298SOL     OW22792   5.177   5.590   0.359
 7298SOL    HW122793   5.202   5.685   0.378
 7298SOL    HW222794   5.249   5.546   0.306
 7299SOL     OW22795   0.842   1.673   0.677
 7299SOL    HW122796   0.866   1.765   0.706
 7299SOL    HW222797   0.760   1.676   0.620
 7300SOL     OW22798   0.658   5.351   2.298
 7300SOL    HW122799   0.621   5.349   2.205
 7300SOL    HW222800   0.586   5.374   2.362
 7301SOL     OW22801   6.490   1.809   6.276
 7301SOL    HW122802   6.464   1.891   6.227
 7301SOL    HW222803   6.414   1.780   6.335
 7302SOL     OW22804   0.196   2.005   5.264
 7302SOL    HW122805   0.232   1.916   5.288
 7302SOL    HW222806   0.162   2.003   5.170
 7303SOL     OW22807   3.356   0.755   6.910
 7303SOL    HW122808   3.298   0.765   6.829
 7303SOL    HW222809   3.416   0.676   6.898
 7304SOL     OW22810   2.074   5.584   1.686
 7304SOL    HW122811   2.168   5.614   1.699
 7304SOL    HW222812   2.014   5.634   1.749
 7305SOL     OW22813   5.862   2.168   1.240
 7305SOL    HW122814   5.800   2.234   1.198
 7305SOL    HW222815   5.956   2.188   1.213
 7306SOL     OW22816   3.809   1.761   1.423
 7306SOL    HW122817   3.710   1.755   1.437
 7306SOL    HW222818   3.835   1.855   1.405
 7307SOL     OW22819   4.466   0.215   2.342
 7307SOL    HW122820   4.414   0.153   2.284
 7307SOL    HW222821   4.541   0.255   2.289
 7308SOL     OW22822   6.809   1.513   3.304
 7308SOL    HW122823   6.836   1.573   3.229
 7308SOL    HW222824   6.861   1.428   3.299
 7309SOL     OW22825   2.581   6.427   1.832
 7309SOL    HW122826   2.681   6.428   1.837
 7309SOL    HW222827   2.543   6.434   1.924
 7310SOL     OW22828   1.516   3.310   6.323
 7310SOL    HW122829   1.602   3.291   6.275
 7310SOL    HW222830   1.526   3.393   6.377
 7311SOL     OW22831   0.939   6.940   0.482
 7311SOL    HW122832   0.931   6.887   0.398
 7311SOL    HW222833   0.958   0.015   0.460
 7312SOL     OW22834   0.818   1.825   5.085
 7312SOL    HW122835   0.797   1.791   5.176
 7312SOL    HW222836   0.836   1.923   5.089
 7313SOL     OW22837   2.674   1.752   0.485
 7313SOL    HW122838   2.664   1.688   0.561
 7313SOL    HW222839   2.749   1.723   0.426
 7314SOL     OW22840   0.104   4.009   6.013
 7314SOL    HW122841   0.045   4.054   6.081
 7314SOL    HW222842   0.117   3.914   6.039
 7315SOL     OW22843   5.689   5.701   2.402
 7315SOL    HW122844   5.773   5.708   2.456
 7315SOL    HW222845   5.611   5.735   2.456
 7316SOL     OW22846   3.500   2.127   6.170
 7316SOL    HW122847   3.426   2.073   6.129
 7316SOL    HW222848   3.465   2.179   6.247
 7317SOL     OW22849   3.706   1.136   1.934
 7317SOL    HW122850   3.745   1.064   1.878
 7317SOL    HW222851   3.768   1.214   1.937
 7318SOL     OW22852   3.413   6.417   2.610
 7318SOL    HW122853   3.436   6.340   2.551
 7318SOL    HW222854   3.497   6.466   2.634
 7319SOL     OW22855   6.087   3.762   6.388
 7319SOL    HW122856   6.031   3.774   6.469
 7319SOL    HW222857   6.139   3.845   6.370
 7320SOL     OW22858   0.827   3.605   7.009
 7320SOL    HW122859   0.783   3.556   0.064
 7320SOL    HW222860   0.791   3.570   6.923
 7321SOL     OW22861   2.088   6.380   6.281
 7321SOL    HW122862   2.028   6.442   6.230
 7321SOL    HW222863   2.036   6.298   6.306
 7322SOL     OW22864   6.918   3.033   2.734
 7322SOL    HW122865   6.934   3.052   2.637
 7322SOL    HW222866   6.992   2.976   2.770
 7323SOL     OW22867   2.471   2.222   1.256
 7323SOL    HW122868   2.450   2.225   1.159
 7323SOL    HW222869   2.386   2.214   1.309
 7324SOL     OW22870   6.040   4.598   2.815
 7324SOL    HW122871   6.126   4.560   2.850
 7324SOL    HW222872   6.055   4.636   2.724
 7325SOL     OW22873   3.004   0.049   5.312
 7325SOL    HW122874   2.973   7.004   5.380
 7325SOL    HW222875   2.925   0.090   5.266
 7326SOL     OW22876   3.755   0.610   6.388
 7326SOL    HW122877   3.836   0.570   6.343
 7326SOL    HW222878   3.747   0.706   6.361
 7327SOL     OW22879   5.833   3.224   3.920
 7327SOL    HW122880   5.806   3.283   3.996
 7327SOL    HW222881   5.770   3.238   3.844
 7328SOL     OW22882   4.592   6.712   6.083
 7328SOL    HW122883   4.669   6.650   6.067
 7328SOL    HW222884   4.602   6.793   6.026
 7329SOL     OW22885   1.178   2.853   0.481
 7329SOL    HW122886   1.202   2.766   0.438
 7329SOL    HW222887   1.141   2.836   0.572
 7330SOL     OW22888   2.311   2.912   1.050
 7330SOL    HW122889   2.339   3.005   1.073
 7330SOL    HW222890   2.345   2.889   0.959
 7331SOL     OW22891   5.216   5.986   2.102
 7331SOL    HW122892   5.171   6.070   2.072
 7331SOL    HW222893   5.158   5.940   2.169
 7332SOL     OW22894   3.990   4.067   6.840
 7332SOL    HW122895   3.890   4.068   6.838
 7332SOL    HW222896   4.026   4.140   6.782
 7333SOL     OW22897   5.923   3.421   3.063
 7333SOL    HW122898   5.969   3.433   3.151
 7333SOL    HW222899   5.962   3.342   3.015
 7334SOL     OW22900   3.045   5.530   5.627
 7334SOL    HW122901   3.123   5.501   5.683
 7334SOL    HW222902   3.073   5.538   5.532
 7335SOL     OW22903   0.092   2.371   3.108
 7335SOL    HW122904   0.048   2.284   3.128
 7335SOL    HW222905   0.192   2.360   3.114
 7336SOL     OW22906   2.196   6.116   1.376
 7336SOL    HW122907   2.289   6.114   1.411
 7336SOL    HW222908   2.188   6.186   1.305
 7337SOL     OW22909   2.553   3.070   1.361
 7337SOL    HW122910   2.595   3.149   1.405
 7337SOL    HW222911   2.580   2.986   1.408
 7338SOL     OW22912   6.006   1.999   1.416
 7338SOL    HW122913   5.959   2.040   1.338
 7338SOL    HW222914   6.035   2.071   1.479
 7339SOL     OW22915   6.709   6.858   5.611
 7339SOL    HW122916   6.653   6.891   5.687
 7339SOL    HW222917   6.802   6.894   5.621
 7340SOL     OW22918   3.888   1.733   6.987
 7340SOL    HW122919   3.957   1.760   6.920
 7340SOL    HW222920   3.924   1.746   0.059
 7341SOL     OW22921   1.388   5.193   5.191
 7341SOL    HW122922   1.303   5.179   5.242
 7341SOL    HW222923   1.460   5.225   5.253
 7342SOL     OW22924   6.009   6.906   0.296
 7342SOL    HW122925   6.082   6.922   0.229
 7342SOL    HW222926   5.921   6.900   0.249
 7343SOL     OW22927   5.517   3.105   1.833
 7343SOL    HW122928   5.455   3.065   1.901
 7343SOL    HW222929   5.607   3.062   1.842
 7344SOL     OW22930   1.978   6.972   6.383
 7344SOL    HW122931   2.031   0.032   6.412
 7344SOL    HW222932   1.961   6.913   6.462
 7345SOL     OW22933   5.020   5.935   5.492
 7345SOL    HW122934   5.103   5.928   5.549
 7345SOL    HW222935   4.972   6.020   5.513
 7346SOL     OW22936   3.882   4.155   1.230
 7346SOL    HW122937   3.875   4.137   1.132
 7346SOL    HW222938   3.795   4.191   1.264
 7347SOL     OW22939   6.432   2.419   1.366
 7347SOL    HW122940   6.447   2.509   1.406
 7347SOL    HW222941   6.336   2.408   1.342
 7348SOL     OW22942   1.545   3.186   3.629
 7348SOL    HW122943   1.621   3.136   3.589
 7348SOL    HW222944   1.513   3.256   3.565
 7349SOL     OW22945   3.450   1.991   1.314
 7349SOL    HW122946   3.383   1.967   1.244
 7349SOL    HW222947   3.504   2.069   1.282
 7350SOL     OW22948   1.232   3.222   3.986
 7350SOL    HW122949   1.153   3.164   4.005
 7350SOL    HW222950   1.252   3.219   3.888
 7351SOL     OW22951   4.325   4.955   6.433
 7351SOL    HW122952   4.267   4.878   6.460
 7351SOL    HW222953   4.295   5.037   6.480
 7352SOL     OW22954   1.963   2.580   3.284
 7352SOL    HW122955   1.933   2.670   3.317
 7352SOL    HW222956   2.007   2.590   3.195
 7353SOL     OW22957   0.770   0.496   5.836
 7353SOL    HW122958   0.862   0.458   5.827
 7353SOL    HW222959   0.709   0.426   5.872
 7354SOL     OW22960   0.436   1.268   6.129
 7354SOL    HW122961   0.500   1.287   6.205
 7354SOL    HW222962   0.347   1.244   6.167
 7355SOL     OW22963   1.391   6.623   7.012
 7355SOL    HW122964   1.422   6.544   6.959
 7355SOL    HW222965   1.470   6.671   0.030
 7356SOL     OW22966   5.265   3.021   6.172
 7356SOL    HW122967   5.167   3.023   6.155
 7356SOL    HW222968   5.283   2.998   6.268
 7357SOL     OW22969   4.618   1.202   1.078
 7357SOL    HW122970   4.653   1.158   1.161
 7357SOL    HW222971   4.671   1.284   1.059
 7358SOL     OW22972   1.774   2.543   2.183
 7358SOL    HW122973   1.679   2.531   2.153
 7358SOL    HW222974   1.833   2.560   2.104
 7359SOL     OW22975   3.228   2.660   0.872
 7359SOL    HW122976   3.179   2.622   0.793
 7359SOL    HW222977   3.172   2.652   0.954
 7360SOL     OW22978   3.129   2.178   6.067
 7360SOL    HW122979   3.042   2.208   6.107
 7360SOL    HW222980   3.157   2.092   6.108
 7361SOL     OW22981   4.071   0.175   2.167
 7361SOL    HW122982   4.030   0.147   2.254
 7361SOL    HW222983   4.056   0.272   2.153
 7362SOL     OW22984   0.802   6.979   5.034
 7362SOL    HW122985   0.765   6.891   5.064
 7362SOL    HW222986   0.789   6.989   4.936
 7363SOL     OW22987   4.012   1.581   1.322
 7363SOL    HW122988   4.089   1.627   1.367
 7363SOL    HW222989   3.927   1.629   1.345
 7364SOL     OW22990   4.325   6.964   1.632
 7364SOL    HW122991   4.346   6.938   1.726
 7364SOL    HW222992   4.237   7.011   1.628
 7365SOL     OW22993   1.607   5.743   2.137
 7365SOL    HW122994   1.553   5.819   2.100
 7365SOL    HW222995   1.666   5.777   2.211
 7366SOL     OW22996   1.630   5.689   0.597
 7366SOL    HW122997   1.540   5.651   0.616
 7366SOL    HW222998   1.622   5.762   0.529
 7367SOL     OW22999   4.642   4.109   1.219
 7367SOL    HW123000   4.615   4.140   1.310
 7367SOL    HW223001   4.706   4.032   1.228
 7368SOL     OW23002   3.749   2.946   4.163
 7368SOL    HW123003   3.786   2.981   4.249
 7368SOL    HW223004   3.650   2.951   4.165
 7369SOL     OW23005   5.070   3.135   0.857
 7369SOL    HW123006   5.081   3.180   0.945
 7369SOL    HW223007   5.129   3.054   0.853
 7370SOL     OW23008   2.296   0.316   5.443
 7370SOL    HW123009   2.285   0.375   5.522
 7370SOL    HW223010   2.388   0.277   5.443
 7371SOL     OW23011   2.574   5.599   3.464
 7371SOL    HW123012   2.609   5.539   3.535
 7371SOL    HW223013   2.491   5.559   3.425
 7372SOL     OW23014   2.977   0.887   5.705
 7372SOL    HW123015   2.909   0.841   5.762
 7372SOL    HW223016   3.069   0.860   5.734
 7373SOL     OW23017   5.486   1.836   3.476
 7373SOL    HW123018   5.426   1.846   3.555
 7373SOL    HW223019   5.431   1.814   3.395
 7374SOL     OW23020   2.970   2.319   5.314
 7374SOL    HW123021   3.050   2.322   5.254
 7374SOL    HW223022   2.893   2.278   5.265
 7375SOL     OW23023   2.096   2.199   3.155
 7375SOL    HW123024   2.043   2.147   3.088
 7375SOL    HW223025   2.050   2.193   3.244
 7376SOL     OW23026   4.218   1.363   0.568
 7376SOL    HW123027   4.129   1.406   0.554
 7376SOL    HW223028   4.290   1.421   0.530
 7377SOL     OW23029   4.922   5.902   1.964
 7377SOL    HW123030   4.834   5.856   1.972
 7377SOL    HW223031   4.963   5.880   1.875
 7378SOL     OW23032   6.949   2.175   4.919
 7378SOL    HW123033   6.864   2.123   4.908
 7378SOL    HW223034   6.929   2.273   4.915
 7379SOL     OW23035   3.916   2.174   2.878
 7379SOL    HW123036   3.833   2.142   2.831
 7379SOL    HW223037   3.980   2.211   2.810
 7380SOL     OW23038   6.587   3.414   5.027
 7380SOL    HW123039   6.575   3.315   5.026
 7380SOL    HW223040   6.658   3.441   4.962
 7381SOL     OW23041   4.911   4.265   2.576
 7381SOL    HW123042   4.922   4.165   2.574
 7381SOL    HW223043   4.999   4.309   2.559
 7382SOL     OW23044   0.149   5.756   5.997
 7382SOL    HW123045   0.235   5.803   5.975
 7382SOL    HW223046   0.153   5.662   5.965
 7383SOL     OW23047   0.518   6.761   1.720
 7383SOL    HW123048   0.612   6.753   1.687
 7383SOL    HW223049   0.515   6.741   1.818
 7384SOL     OW23050   5.276   0.899   2.409
 7384SOL    HW123051   5.333   0.848   2.474
 7384SOL    HW223052   5.255   0.841   2.331
 7385SOL     OW23053   4.545   6.918   2.149
 7385SOL    HW123054   4.467   6.967   2.188
 7385SOL    HW223055   4.557   6.832   2.199
 7386SOL     OW23056   0.021   2.294   5.368
 7386SOL    HW123057   0.012   2.370   5.432
 7386SOL    HW223058   6.954   2.248   5.356
 7387SOL     OW23059   4.232   6.873   4.580
 7387SOL    HW123060   4.254   6.927   4.661
 7387SOL    HW223061   4.216   6.934   4.502
 7388SOL     OW23062   6.637   5.297   3.518
 7388SOL    HW123063   6.650   5.390   3.485
 7388SOL    HW223064   6.721   5.245   3.504
 7389SOL     OW23065   1.087   5.048   0.128
 7389SOL    HW123066   1.095   5.050   0.228
 7389SOL    HW223067   1.104   5.140   0.092
 7390SOL     OW23068   1.595   1.121   6.917
 7390SOL    HW123069   1.648   1.174   6.984
 7390SOL    HW223070   1.566   1.035   6.958
 7391SOL     OW23071   4.884   3.926   4.623
 7391SOL    HW123072   4.824   3.972   4.558
 7391SOL    HW223073   4.939   3.858   4.574
 7392SOL     OW23074   3.003   5.698   6.692
 7392SOL    HW123075   2.959   5.706   6.603
 7392SOL    HW223076   3.087   5.645   6.683
 7393SOL     OW23077   6.159   5.407   1.560
 7393SOL    HW123078   6.227   5.439   1.494
 7393SOL    HW223079   6.077   5.376   1.512
 7394SOL     OW23080   3.102   2.516   6.500
 7394SOL    HW123081   3.126   2.537   6.595
 7394SOL    HW223082   3.100   2.600   6.447
 7395SOL     OW23083   2.164   1.130   0.025
 7395SOL    HW123084   2.153   1.223   0.059
 7395SOL    HW223085   2.106   1.116   6.966
 7396SOL     OW23086   1.244   6.942   0.371
 7396SOL    HW123087   1.274   0.010   0.336
 7396SOL    HW223088   1.200   6.954   0.460
 7397SOL     OW23089   5.225   5.248   4.892
 7397SOL    HW123090   5.201   5.151   4.890
 7397SOL    HW223091   5.320   5.260   4.863
 7398SOL     OW23092   3.460   5.366   4.236
 7398SOL    HW123093   3.387   5.319   4.286
 7398SOL    HW223094   3.426   5.454   4.202
 7399SOL     OW23095   0.421   3.510   5.389
 7399SOL    HW123096   0.392   3.572   5.316
 7399SOL    HW223097   0.515   3.531   5.416
 7400SOL     OW23098   2.591   3.933   6.411
 7400SOL    HW123099   2.580   3.935   6.510
 7400SOL    HW223100   2.622   3.843   6.382
 7401SOL     OW23101   0.962   0.963   4.057
 7401SOL    HW123102   0.930   0.954   3.962
 7401SOL    HW223103   1.059   0.939   4.062
 7402SOL     OW23104   1.989   5.364   5.164
 7402SOL    HW123105   1.998   5.449   5.217
 7402SOL    HW223106   2.079   5.337   5.129
 7403SOL     OW23107   1.519   3.353   3.435
 7403SOL    HW123108   1.547   3.376   3.342
 7403SOL    HW223109   1.517   3.435   3.491
 7404SOL     OW23110   2.820   5.808   1.737
 7404SOL    HW123111   2.848   5.775   1.647
 7404SOL    HW223112   2.736   5.762   1.765
 7405SOL     OW23113   2.523   5.051   4.068
 7405SOL    HW123114   2.612   5.007   4.069
 7405SOL    HW223115   2.521   5.125   4.135
 7406SOL     OW23116   1.249   3.469   3.535
 7406SOL    HW123117   1.246   3.525   3.452
 7406SOL    HW223118   1.157   3.463   3.575
 7407SOL     OW23119   6.793   6.194   5.214
 7407SOL    HW123120   6.833   6.152   5.133
 7407SOL    HW223121   6.728   6.265   5.186
 7408SOL     OW23122   1.004   3.630   5.676
 7408SOL    HW123123   0.976   3.538   5.704
 7408SOL    HW223124   0.970   3.648   5.584
 7409SOL     OW23125   0.409   1.130   4.893
 7409SOL    HW123126   0.372   1.104   4.804
 7409SOL    HW223127   0.483   1.068   4.918
 7410SOL     OW23128   7.013   4.529   0.823
 7410SOL    HW123129   7.011   4.493   0.730
 7410SOL    HW223130   0.082   4.571   0.840
 7411SOL     OW23131   2.954   6.353   4.270
 7411SOL    HW123132   2.884   6.406   4.319
 7411SOL    HW223133   3.029   6.414   4.245
 7412SOL     OW23134   4.100   0.833   2.179
 7412SOL    HW123135   4.029   0.898   2.208
 7412SOL    HW223136   4.064   0.740   2.185
 7413SOL     OW23137   5.989   5.308   4.924
 7413SOL    HW123138   6.044   5.225   4.928
 7413SOL    HW223139   6.040   5.383   4.966
 7414SOL     OW23140   6.800   6.649   3.774
 7414SOL    HW123141   6.778   6.675   3.680
 7414SOL    HW223142   6.773   6.722   3.836
 7415SOL     OW23143   1.021   4.137   3.112
 7415SOL    HW123144   1.043   4.176   3.201
 7415SOL    HW223145   1.007   4.038   3.121
 7416SOL     OW23146   2.901   0.652   4.034
 7416SOL    HW123147   2.876   0.586   4.105
 7416SOL    HW223148   2.820   0.704   4.007
 7417SOL     OW23149   2.394   0.012   6.129
 7417SOL    HW123150   2.444   6.987   6.056
 7417SOL    HW223151   2.354   6.965   6.190
 7418SOL     OW23152   4.022   5.223   0.671
 7418SOL    HW123153   4.109   5.179   0.649
 7418SOL    HW223154   4.033   5.279   0.753
 7419SOL     OW23155   6.286   2.689   4.710
 7419SOL    HW123156   6.246   2.646   4.629
 7419SOL    HW223157   6.354   2.756   4.682
 7420SOL     OW23158   6.634   6.621   2.407
 7420SOL    HW123159   6.644   6.631   2.308
 7420SOL    HW223160   6.574   6.694   2.441
 7421SOL     OW23161   3.179   3.589   1.716
 7421SOL    HW123162   3.272   3.621   1.731
 7421SOL    HW223163   3.167   3.500   1.761
 7422SOL     OW23164   0.086   3.493   2.408
 7422SOL    HW123165   0.113   3.511   2.503
 7422SOL    HW223166   7.009   3.477   2.404
 7423SOL     OW23167   6.592   4.326   6.041
 7423SOL    HW123168   6.591   4.328   5.941
 7423SOL    HW223169   6.685   4.345   6.074
 7424SOL     OW23170   6.470   0.642   4.558
 7424SOL    HW123171   6.490   0.546   4.578
 7424SOL    HW223172   6.515   0.668   4.472
 7425SOL     OW23173   4.627   5.861   6.634
 7425SOL    HW123174   4.675   5.789   6.685
 7425SOL    HW223175   4.686   5.893   6.559
 7426SOL     OW23176   0.907   1.927   6.131
 7426SOL    HW123177   0.835   1.859   6.140
 7426SOL    HW223178   0.878   2.013   6.173
 7427SOL     OW23179   3.225   5.987   4.132
 7427SOL    HW123180   3.154   6.002   4.063
 7427SOL    HW223181   3.265   5.896   4.120
 7428SOL     OW23182   3.564   1.640   5.412
 7428SOL    HW123183   3.573   1.553   5.461
 7428SOL    HW223184   3.572   1.624   5.313
 7429SOL     OW23185   5.202   0.261   3.411
 7429SOL    HW123186   5.107   0.254   3.381
 7429SOL    HW223187   5.263   0.233   3.338
 7430SOL     OW23188   0.343   3.934   6.415
 7430SOL    HW123189   0.247   3.958   6.398
 7430SOL    HW223190   0.400   4.015   6.403
 7431SOL     OW23191   0.094   3.507   2.680
 7431SOL    HW123192   0.144   3.578   2.729
 7431SOL    HW223193   0.083   3.427   2.740
 7432SOL     OW23194   0.227   7.019   3.505
 7432SOL    HW123195   0.216   6.920   3.502
 7432SOL    HW223196   0.256   0.032   3.416
 7433SOL     OW23197   5.797   5.098   1.070
 7433SOL    HW123198   5.896   5.109   1.067
 7433SOL    HW223199   5.772   5.005   1.045
 7434SOL     OW23200   4.534   1.047   6.444
 7434SOL    HW123201   4.552   1.080   6.351
 7434SOL    HW223202   4.589   0.965   6.461
 7435SOL     OW23203   3.894   5.381   6.987
 7435SOL    HW123204   3.964   5.411   6.922
 7435SOL    HW223205   3.854   5.295   6.956
 7436SOL     OW23206   5.611   3.486   6.169
 7436SOL    HW123207   5.534   3.436   6.208
 7436SOL    HW223208   5.676   3.421   6.129
 7437SOL     OW23209   0.195   6.011   0.284
 7437SOL    HW123210   0.204   6.106   0.256
 7437SOL    HW223211   0.166   5.955   0.206
 7438SOL     OW23212   0.695   5.430   1.082
 7438SOL    HW123213   0.786   5.393   1.062
 7438SOL    HW223214   0.704   5.520   1.125
 7439SOL     OW23215   1.574   6.194   4.927
 7439SOL    HW123216   1.634   6.240   4.862
 7439SOL    HW223217   1.489   6.168   4.881
 7440SOL     OW23218   1.061   3.063   4.213
 7440SOL    HW123219   1.098   3.154   4.228
 7440SOL    HW223220   1.042   3.021   4.302
 7441SOL     OW23221   4.565   6.132   4.798
 7441SOL    HW123222   4.603   6.053   4.847
 7441SOL    HW223223   4.638   6.180   4.750
 7442SOL     OW23224   1.054   1.303   6.502
 7442SOL    HW123225   1.120   1.338   6.435
 7442SOL    HW223226   1.054   1.203   6.499
 7443SOL     OW23227   0.364   0.628   1.384
 7443SOL    HW123228   0.382   0.692   1.458
 7443SOL    HW223229   0.398   0.666   1.298
 7444SOL     OW23230   6.582   3.506   4.716
 7444SOL    HW123231   6.606   3.600   4.736
 7444SOL    HW223232   6.624   3.478   4.630
 7445SOL     OW23233   3.716   0.490   1.251
 7445SOL    HW123234   3.770   0.413   1.219
 7445SOL    HW223235   3.656   0.521   1.177
 7446SOL     OW23236   5.597   4.296   0.840
 7446SOL    HW123237   5.673   4.231   0.848
 7446SOL    HW223238   5.513   4.254   0.874
 7447SOL     OW23239   1.449   2.821   5.692
 7447SOL    HW123240   1.482   2.751   5.630
 7447SOL    HW223241   1.511   2.829   5.771
 7448SOL     OW23242   5.316   6.886   5.098
 7448SOL    HW123243   5.254   6.839   5.036
 7448SOL    HW223244   5.391   6.927   5.046
 7449SOL     OW23245   6.405   2.403   1.757
 7449SOL    HW123246   6.332   2.383   1.692
 7449SOL    HW223247   6.383   2.359   1.845
 7450SOL     OW23248   4.940   2.388   4.473
 7450SOL    HW123249   4.972   2.387   4.567
 7450SOL    HW223250   4.900   2.477   4.452
 7451SOL     OW23251   1.218   0.043   2.189
 7451SOL    HW123252   1.121   0.026   2.177
 7451SOL    HW223253   1.262   0.050   2.099
 7452SOL     OW23254   0.561   6.494   4.698
 7452SOL    HW123255   0.499   6.517   4.623
 7452SOL    HW223256   0.609   6.409   4.677
 7453SOL     OW23257   4.951   5.964   6.143
 7453SOL    HW123258   5.019   5.999   6.207
 7453SOL    HW223259   4.884   6.036   6.124
 7454SOL     OW23260   1.114   2.819   1.821
 7454SOL    HW123261   1.209   2.817   1.788
 7454SOL    HW223262   1.114   2.816   1.921
 7455SOL     OW23263   0.353   1.934   1.879
 7455SOL    HW123264   0.283   1.884   1.829
 7455SOL    HW223265   0.439   1.883   1.877
 7456SOL     OW23266   0.520   2.483   4.123
 7456SOL    HW123267   0.537   2.468   4.221
 7456SOL    HW223268   0.576   2.420   4.069
 7457SOL     OW23269   3.669   0.866   5.291
 7457SOL    HW123270   3.707   0.953   5.322
 7457SOL    HW223271   3.729   0.791   5.321
 7458SOL     OW23272   2.737   6.792   6.297
 7458SOL    HW123273   2.694   6.877   6.328
 7458SOL    HW223274   2.824   6.779   6.345
 7459SOL     OW23275   4.620   0.503   0.837
 7459SOL    HW123276   4.523   0.484   0.852
 7459SOL    HW223277   4.631   0.559   0.756
 7460SOL     OW23278   1.718   4.152   1.347
 7460SOL    HW123279   1.620   4.144   1.366
 7460SOL    HW223280   1.749   4.244   1.370
 7461SOL     OW23281   5.962   1.635   6.213
 7461SOL    HW123282   6.038   1.634   6.148
 7461SOL    HW223283   5.932   1.730   6.227
 7462SOL     OW23284   2.124   3.693   2.916
 7462SOL    HW123285   2.120   3.594   2.929
 7462SOL    HW223286   2.148   3.714   2.821
 7463SOL     OW23287   3.388   4.777   1.532
 7463SOL    HW123288   3.475   4.775   1.484
 7463SOL    HW223289   3.370   4.687   1.572
 7464SOL     OW23290   3.617   6.882   6.404
 7464SOL    HW123291   3.569   6.955   6.356
 7464SOL    HW223292   3.691   6.922   6.459
 7465SOL     OW23293   1.265   6.919   0.012
 7465SOL    HW123294   1.306   6.841   6.987
 7465SOL    HW223295   1.332   6.962   0.072
 7466SOL     OW23296   0.396   6.830   6.246
 7466SOL    HW123297   0.446   6.753   6.286
 7466SOL    HW223298   0.372   6.810   6.152
 7467SOL     OW23299   6.669   0.991   0.589
 7467SOL    HW123300   6.611   0.995   0.507
 7467SOL    HW223301   6.703   0.898   0.601
 7468SOL     OW23302   6.092   3.240   2.181
 7468SOL    HW123303   5.995   3.218   2.173
 7468SOL    HW223304   6.102   3.328   2.228
 7469SOL     OW23305   6.395   0.052   0.120
 7469SOL    HW123306   6.479   0.060   0.173
 7469SOL    HW223307   6.378   0.138   0.071
 7470SOL     OW23308   0.335   3.085   4.115
 7470SOL    HW123309   0.390   3.110   4.195
 7470SOL    HW223310   0.356   2.991   4.089
 7471SOL     OW23311   5.763   5.984   5.590
 7471SOL    HW123312   5.846   6.031   5.562
 7471SOL    HW223313   5.780   5.934   5.676
 7472SOL     OW23314   6.040   6.649   4.531
 7472SOL    HW123315   6.049   6.709   4.610
 7472SOL    HW223316   6.041   6.554   4.561
 7473SOL     OW23317   0.386   4.625   2.863
 7473SOL    HW123318   0.398   4.659   2.957
 7473SOL    HW223319   0.288   4.615   2.845
 7474SOL     OW23320   2.471   1.468   5.358
 7474SOL    HW123321   2.431   1.486   5.268
 7474SOL    HW223322   2.497   1.555   5.401
 7475SOL     OW23323   3.786   1.368   2.178
 7475SOL    HW123324   3.874   1.383   2.134
 7475SOL    HW223325   3.713   1.406   2.121
 7476SOL     OW23326   3.907   5.548   4.318
 7476SOL    HW123327   3.850   5.590   4.389
 7476SOL    HW223328   3.864   5.464   4.286
 7477SOL     OW23329   6.495   1.893   4.538
 7477SOL    HW123330   6.500   1.984   4.498
 7477SOL    HW223331   6.475   1.826   4.466
 7478SOL     OW23332   4.371   4.792   0.002
 7478SOL    HW123333   4.370   4.711   6.964
 7478SOL    HW223334   4.334   4.870   6.973
 7479SOL     OW23335   4.181   2.419   1.167
 7479SOL    HW123336   4.111   2.490   1.171
 7479SOL    HW223337   4.138   2.329   1.175
 7480SOL     OW23338   6.399   4.070   1.619
 7480SOL    HW123339   6.304   4.070   1.648
 7480SOL    HW223340   6.413   4.140   1.548
 7481SOL     OW23341   6.250   5.287   2.581
 7481SOL    HW123342   6.321   5.356   2.567
 7481SOL    HW223343   6.182   5.294   2.508
 7482SOL     OW23344   5.235   2.191   3.132
 7482SOL    HW123345   5.305   2.206   3.202
 7482SOL    HW223346   5.265   2.121   3.069
 7483SOL     OW23347   4.584   2.273   5.107
 7483SOL    HW123348   4.654   2.344   5.112
 7483SOL    HW223349   4.617   2.190   5.152
 7484SOL     OW23350   0.767   0.269   3.343
 7484SOL    HW123351   0.848   0.220   3.371
 7484SOL    HW223352   0.763   0.275   3.243
 7485SOL     OW23353   3.136   6.822   4.432
 7485SOL    HW123354   3.157   6.835   4.335
 7485SOL    HW223355   3.166   6.731   4.460
 7486SOL     OW23356   2.864   0.729   5.975
 7486SOL    HW123357   2.872   0.629   5.971
 7486SOL    HW223358   2.769   0.755   5.962
 7487SOL     OW23359   2.612   6.487   2.429
 7487SOL    HW123360   2.595   6.581   2.401
 7487SOL    HW223361   2.661   6.438   2.357
 7488SOL     OW23362   2.052   6.907   4.565
 7488SOL    HW123363   2.045   7.006   4.576
 7488SOL    HW223364   1.978   6.875   4.506
 7489SOL     OW23365   5.142   2.118   4.726
 7489SOL    HW123366   5.146   2.049   4.798
 7489SOL    HW223367   5.126   2.208   4.766
 7490SOL     OW23368   0.852   1.644   0.985
 7490SOL    HW123369   0.894   1.556   0.961
 7490SOL    HW223370   0.787   1.670   0.913
 7491SOL     OW23371   6.742   3.380   6.683
 7491SOL    HW123372   6.685   3.435   6.622
 7491SOL    HW223373   6.797   3.317   6.629
 7492SOL     OW23374   2.691   0.838   4.329
 7492SOL    HW123375   2.776   0.879   4.295
 7492SOL    HW223376   2.698   0.739   4.322
 7493SOL     OW23377   6.834   4.123   6.507
 7493SOL    HW123378   6.900   4.079   6.446
 7493SOL    HW223379   6.773   4.181   6.453
 7494SOL     OW23380   5.961   0.766   2.729
 7494SOL    HW123381   5.960   0.834   2.654
 7494SOL    HW223382   6.004   0.807   2.809
 7495SOL     OW23383   2.473   1.077   0.286
 7495SOL    HW123384   2.393   1.018   0.295
 7495SOL    HW223385   2.556   1.020   0.286
 7496SOL     OW23386   0.313   3.518   6.665
 7496SOL    HW123387   0.370   3.535   6.585
 7496SOL    HW223388   0.259   3.599   6.687
 7497SOL     OW23389   2.830   4.306   0.200
 7497SOL    HW123390   2.919   4.322   0.243
 7497SOL    HW223391   2.839   4.237   0.128
 7498SOL     OW23392   2.272   1.335   5.504
 7498SOL    HW123393   2.179   1.357   5.476
 7498SOL    HW223394   2.337   1.372   5.438
 7499SOL     OW23395   4.666   1.115   3.575
 7499SOL    HW123396   4.567   1.118   3.563
 7499SOL    HW223397   4.691   1.030   3.622
 7500SOL     OW23398   3.718   5.736   4.172
 7500SOL    HW123399   3.745   5.830   4.193
 7500SOL    HW223400   3.783   5.673   4.215
 7501SOL     OW23401   6.362   4.679   4.317
 7501SOL    HW123402   6.440   4.709   4.262
 7501SOL    HW223403   6.311   4.758   4.349
 7502SOL     OW23404   1.463   0.457   4.421
 7502SOL    HW123405   1.466   0.357   4.417
 7502SOL    HW223406   1.546   0.491   4.465
 7503SOL     OW23407   2.450   1.813   0.848
 7503SOL    HW123408   2.503   1.885   0.803
 7503SOL    HW223409   2.363   1.851   0.879
 7504SOL     OW23410   2.126   0.466   3.168
 7504SOL    HW123411   2.067   0.545   3.152
 7504SOL    HW223412   2.216   0.497   3.197
 7505SOL     OW23413   2.390   1.871   5.695
 7505SOL    HW123414   2.304   1.920   5.679
 7505SOL    HW223415   2.467   1.933   5.679
 7506SOL     OW23416   4.853   6.782   2.729
 7506SOL    HW123417   4.802   6.823   2.805
 7506SOL    HW223418   4.793   6.774   2.650
 7507SOL     OW23419   0.619   0.870   1.623
 7507SOL    HW123420   0.581   0.778   1.634
 7507SOL    HW223421   0.573   0.933   1.685
 7508SOL     OW23422   6.718   6.674   2.127
 7508SOL    HW123423   6.793   6.722   2.173
 7508SOL    HW223424   6.749   6.641   2.038
 7509SOL     OW23425   5.995   4.788   1.139
 7509SOL    HW123426   6.020   4.882   1.163
 7509SOL    HW223427   5.953   4.787   1.048
 7510SOL     OW23428   2.740   4.386   5.377
 7510SOL    HW123429   2.807   4.437   5.323
 7510SOL    HW223430   2.668   4.352   5.316
 7511SOL     OW23431   1.706   6.701   3.513
 7511SOL    HW123432   1.727   6.756   3.433
 7511SOL    HW223433   1.768   6.622   3.515
 7512SOL     OW23434   3.127   4.953   6.711
 7512SOL    HW123435   3.189   4.892   6.663
 7512SOL    HW223436   3.146   5.048   6.684
 7513SOL     OW23437   1.762   1.237   1.499
 7513SOL    HW123438   1.733   1.199   1.587
 7513SOL    HW223439   1.795   1.331   1.513
 7514SOL     OW23440   2.420   5.564   1.679
 7514SOL    HW123441   2.381   5.656   1.671
 7514SOL    HW223442   2.464   5.555   1.768
 7515SOL     OW23443   0.126   5.338   2.626
 7515SOL    HW123444   0.185   5.315   2.548
 7515SOL    HW223445   0.174   5.316   2.711
 7516SOL     OW23446   6.182   5.748   4.314
 7516SOL    HW123447   6.169   5.798   4.400
 7516SOL    HW223448   6.131   5.794   4.241
 7517SOL     OW23449   6.916   3.408   1.465
 7517SOL    HW123450   6.914   3.397   1.366
 7517SOL    HW223451   6.823   3.421   1.499
 7518SOL     OW23452   4.249   5.006   3.335
 7518SOL    HW123453   4.312   5.078   3.364
 7518SOL    HW223454   4.249   5.001   3.235
 7519SOL     OW23455   0.250   6.999   4.387
 7519SOL    HW123456   0.200   0.042   4.327
 7519SOL    HW223457   0.302   0.030   4.455
 7520SOL     OW23458   3.111   6.677   1.949
 7520SOL    HW123459   3.145   6.615   1.878
 7520SOL    HW223460   3.049   6.744   1.908
 7521SOL     OW23461   4.602   4.460   6.131
 7521SOL    HW123462   4.594   4.362   6.150
 7521SOL    HW223463   4.686   4.477   6.079
 7522SOL     OW23464   2.854   6.437   6.162
 7522SOL    HW123465   2.924   6.505   6.139
 7522SOL    HW223466   2.766   6.483   6.175
 7523SOL     OW23467   5.715   0.961   6.251
 7523SOL    HW123468   5.782   0.950   6.178
 7523SOL    HW223469   5.629   0.918   6.223
 7524SOL     OW23470   1.756   2.165   6.736
 7524SOL    HW123471   1.673   2.219   6.749
 7524SOL    HW223472   1.789   2.175   6.642
 7525SOL     OW23473   2.792   0.448   6.629
 7525SOL    HW123474   2.767   0.535   6.671
 7525SOL    HW223475   2.875   0.412   6.672
 7526SOL     OW23476   3.157   3.304   1.784
 7526SOL    HW123477   3.144   3.261   1.873
 7526SOL    HW223478   3.249   3.286   1.750
 7527SOL     OW23479   4.289   6.008   3.093
 7527SOL    HW123480   4.373   6.060   3.109
 7527SOL    HW223481   4.210   6.070   3.099
 7528SOL     OW23482   4.494   1.793   6.711
 7528SOL    HW123483   4.591   1.785   6.737
 7528SOL    HW223484   4.488   1.829   6.617
 7529SOL     OW23485   5.956   0.340   4.208
 7529SOL    HW123486   5.989   0.364   4.299
 7529SOL    HW223487   5.905   0.416   4.169
 7530SOL     OW23488   0.149   4.089   2.074
 7530SOL    HW123489   0.203   4.014   2.038
 7530SOL    HW223490   0.208   4.168   2.090
 7531SOL     OW23491   4.612   1.930   3.923
 7531SOL    HW123492   4.598   1.904   4.019
 7531SOL    HW223493   4.558   2.011   3.902
 7532SOL     OW23494   5.546   4.992   1.706
 7532SOL    HW123495   5.561   5.001   1.608
 7532SOL    HW223496   5.483   5.064   1.737
 7533SOL     OW23497   2.800   1.477   2.389
 7533SOL    HW123498   2.853   1.397   2.418
 7533SOL    HW223499   2.702   1.454   2.386
 7534SOL     OW23500   4.334   6.692   6.072
 7534SOL    HW123501   4.433   6.694   6.082
 7534SOL    HW223502   4.310   6.687   5.975
 7535SOL     OW23503   2.849   0.454   5.776
 7535SOL    HW123504   2.763   0.407   5.756
 7535SOL    HW223505   2.887   0.492   5.691
 7536SOL     OW23506   5.359   5.015   5.370
 7536SOL    HW123507   5.455   4.990   5.381
 7536SOL    HW223508   5.306   4.933   5.350
 7537SOL     OW23509   2.626   5.301   3.129
 7537SOL    HW123510   2.609   5.399   3.144
 7537SOL    HW223511   2.616   5.252   3.215
 7538SOL     OW23512   3.420   3.208   1.779
 7538SOL    HW123513   3.442   3.119   1.741
 7538SOL    HW223514   3.411   3.200   1.879
 7539SOL     OW23515   1.394   2.536   4.089
 7539SOL    HW123516   1.331   2.591   4.034
 7539SOL    HW223517   1.345   2.495   4.166
 7540SOL     OW23518   3.314   6.335   5.817
 7540SOL    HW123519   3.302   6.237   5.835
 7540SOL    HW223520   3.403   6.364   5.853
 7541SOL     OW23521   6.841   4.562   4.381
 7541SOL    HW123522   6.749   4.584   4.414
 7541SOL    HW223523   6.834   4.513   4.294
 7542SOL     OW23524   0.718   5.663   6.935
 7542SOL    HW123525   0.773   5.678   6.853
 7542SOL    HW223526   0.623   5.687   6.916
 7543SOL     OW23527   3.739   2.119   1.091
 7543SOL    HW123528   3.675   2.194   1.110
 7543SOL    HW223529   3.773   2.081   1.177
 7544SOL     OW23530   0.448   2.636   2.975
 7544SOL    HW123531   0.529   2.658   3.029
 7544SOL    HW223532   0.426   2.538   2.985
 7545SOL     OW23533   5.760   6.418   2.542
 7545SOL    HW123534   5.678   6.366   2.517
 7545SOL    HW223535   5.820   6.426   2.463
 7546SOL     OW23536   3.234   0.916   2.102
 7546SOL    HW123537   3.201   0.823   2.116
 7546SOL    HW223538   3.162   0.981   2.124
 7547SOL     OW23539   4.698   0.147   0.332
 7547SOL    HW123540   4.751   0.139   0.416
 7547SOL    HW223541   4.720   0.234   0.287
 7548SOL     OW23542   3.704   2.323   0.422
 7548SOL    HW123543   3.671   2.409   0.463
 7548SOL    HW223544   3.743   2.342   0.332
 7549SOL     OW23545   5.537   2.059   0.840
 7549SOL    HW123546   5.487   1.978   0.872
 7549SOL    HW223547   5.505   2.139   0.890
 7550SOL     OW23548   2.355   4.403   2.029
 7550SOL    HW123549   2.400   4.331   2.083
 7550SOL    HW223550   2.281   4.443   2.083
 7551SOL     OW23551   4.778   3.726   6.654
 7551SOL    HW123552   4.840   3.662   6.610
 7551SOL    HW223553   4.755   3.694   6.745
 7552SOL     OW23554   1.828   5.786   3.378
 7552SOL    HW123555   1.808   5.882   3.396
 7552SOL    HW223556   1.882   5.749   3.454
 7553SOL     OW23557   4.824   5.141   5.728
 7553SOL    HW123558   4.832   5.212   5.797
 7553SOL    HW223559   4.895   5.072   5.743
 7554SOL     OW23560   4.318   1.244   1.590
 7554SOL    HW123561   4.258   1.178   1.545
 7554SOL    HW223562   4.313   1.332   1.543
 7555SOL     OW23563   1.899   4.898   5.402
 7555SOL    HW123564   1.851   4.829   5.348
 7555SOL    HW223565   1.992   4.866   5.421
 7556SOL     OW23566   0.806   3.132   5.490
 7556SOL    HW123567   0.889   3.076   5.493
 7556SOL    HW223568   0.731   3.083   5.535
 7557SOL     OW23569   5.208   2.524   5.752
 7557SOL    HW123570   5.133   2.587   5.732
 7557SOL    HW223571   5.190   2.476   5.838
 7558SOL     OW23572   1.901   2.650   4.249
 7558SOL    HW123573   1.806   2.670   4.273
 7558SOL    HW223574   1.914   2.551   4.246
 7559SOL     OW23575   6.347   4.951   0.026
 7559SOL    HW123576   6.254   4.978   0.000
 7559SOL    HW223577   6.407   4.957   6.968
 7560SOL     OW23578   5.318   6.608   1.075
 7560SOL    HW123579   5.225   6.644   1.085
 7560SOL    HW223580   5.374   6.637   1.153
 7561SOL     OW23581   0.739   3.563   6.696
 7561SOL    HW123582   0.771   3.620   6.620
 7561SOL    HW223583   0.660   3.607   6.739
 7562SOL     OW23584   5.914   5.837   5.078
 7562SOL    HW123585   5.891   5.879   5.166
 7562SOL    HW223586   5.900   5.738   5.084
 7563SOL     OW23587   2.811   6.004   0.885
 7563SOL    HW123588   2.795   5.922   0.940
 7563SOL    HW223589   2.731   6.065   0.892
 7564SOL     OW23590   4.955   1.558   2.991
 7564SOL    HW123591   5.040   1.517   2.957
 7564SOL    HW223592   4.880   1.533   2.930
 7565SOL     OW23593   5.527   3.986   0.275
 7565SOL    HW123594   5.550   3.996   0.371
 7565SOL    HW223595   5.509   4.076   0.236
 7566SOL     OW23596   6.998   4.578   3.868
 7566SOL    HW123597   6.926   4.628   3.820
 7566SOL    HW223598   6.957   4.512   3.930
 7567SOL     OW23599   2.019   1.820   5.061
 7567SOL    HW123600   2.013   1.836   5.160
 7567SOL    HW223601   2.052   1.904   5.016
 7568SOL     OW23602   5.387   6.068   3.124
 7568SOL    HW123603   5.383   5.988   3.063
 7568SOL    HW223604   5.473   6.116   3.110
 7569SOL     OW23605   4.070   4.875   6.343
 7569SOL    HW123606   4.032   4.919   6.424
 7569SOL    HW223607   3.996   4.848   6.281
 7570SOL     OW23608   5.430   4.531   5.563
 7570SOL    HW123609   5.431   4.562   5.468
 7570SOL    HW223610   5.518   4.549   5.606
 7571SOL     OW23611   4.902   5.561   3.478
 7571SOL    HW123612   4.946   5.637   3.526
 7571SOL    HW223613   4.828   5.525   3.534
 7572SOL     OW23614   4.320   1.120   2.736
 7572SOL    HW123615   4.382   1.055   2.692
 7572SOL    HW223616   4.225   1.091   2.722
 7573SOL     OW23617   6.685   6.588   4.833
 7573SOL    HW123618   6.709   6.672   4.881
 7573SOL    HW223619   6.661   6.610   4.738
 7574SOL     OW23620   6.416   1.043   4.454
 7574SOL    HW123621   6.327   1.000   4.444
 7574SOL    HW223622   6.464   1.043   4.366
 7575SOL     OW23623   4.064   0.818   5.872
 7575SOL    HW123624   4.037   0.723   5.858
 7575SOL    HW223625   4.159   0.830   5.845
 7576SOL     OW23626   5.700   4.809   0.154
 7576SOL    HW123627   5.778   4.786   0.094
 7576SOL    HW223628   5.726   4.882   0.216
 7577SOL     OW23629   6.963   6.454   5.667
 7577SOL    HW123630   6.957   6.433   5.570
 7577SOL    HW223631   0.036   6.439   5.699
 7578SOL     OW23632   2.811   5.953   2.427
 7578SOL    HW123633   2.857   5.868   2.399
 7578SOL    HW223634   2.879   6.023   2.444
 7579SOL     OW23635   5.867   2.512   1.848
 7579SOL    HW123636   5.819   2.505   1.935
 7579SOL    HW223637   5.801   2.534   1.776
 7580SOL     OW23638   1.484   3.925   3.931
 7580SOL    HW123639   1.399   3.876   3.949
 7580SOL    HW223640   1.554   3.894   3.995
 7581SOL     OW23641   6.952   0.308   1.469
 7581SOL    HW123642   6.867   0.256   1.467
 7581SOL    HW223643   7.007   0.284   1.389
 7582SOL     OW23644   2.560   0.632   0.245
 7582SOL    HW123645   2.522   0.560   0.187
 7582SOL    HW223646   2.660   0.628   0.241
 7583SOL     OW23647   6.343   3.007   0.589
 7583SOL    HW123648   6.287   2.990   0.671
 7583SOL    HW223649   6.406   3.082   0.607
 7584SOL     OW23650   2.562   6.653   1.280
 7584SOL    HW123651   2.599   6.651   1.187
 7584SOL    HW223652   2.524   6.743   1.299
 7585SOL     OW23653   2.321   2.689   5.714
 7585SOL    HW123654   2.360   2.642   5.635
 7585SOL    HW223655   2.393   2.707   5.781
 7586SOL     OW23656   3.745   0.748   3.684
 7586SOL    HW123657   3.649   0.747   3.709
 7586SOL    HW223658   3.794   0.678   3.737
 7587SOL     OW23659   2.792   2.064   6.440
 7587SOL    HW123660   2.802   2.134   6.510
 7587SOL    HW223661   2.835   1.979   6.471
 7588SOL     OW23662   1.231   3.261   2.876
 7588SOL    HW123663   1.280   3.309   2.803
 7588SOL    HW223664   1.288   3.257   2.958
 7589SOL     OW23665   0.083   6.856   2.017
 7589SOL    HW123666   0.093   6.880   1.920
 7589SOL    HW223667   7.019   6.895   2.052
 7590SOL     OW23668   4.419   1.918   6.476
 7590SOL    HW123669   4.414   1.944   6.380
 7590SOL    HW223670   4.386   1.993   6.534
 7591SOL     OW23671   0.066   4.644   0.212
 7591SOL    HW123672   7.012   4.666   0.150
 7591SOL    HW223673   0.120   4.569   0.174
 7592SOL     OW23674   6.560   4.389   6.713
 7592SOL    HW123675   6.553   4.371   6.811
 7592SOL    HW223676   6.499   4.328   6.663
 7593SOL     OW23677   5.336   2.321   1.195
 7593SOL    HW123678   5.265   2.367   1.142
 7593SOL    HW223679   5.296   2.287   1.280
 7594SOL     OW23680   0.354   5.085   2.242
 7594SOL    HW123681   0.404   5.016   2.294
 7594SOL    HW223682   0.293   5.039   2.176
 7595SOL     OW23683   0.062   2.818   5.959
 7595SOL    HW123684   0.053   2.901   5.903
 7595SOL    HW223685   0.100   2.745   5.903
 7596SOL     OW23686   4.828   6.018   3.635
 7596SOL    HW123687   4.915   6.045   3.678
 7596SOL    HW223688   4.752   6.055   3.689
 7597SOL     OW23689   3.482   6.100   2.832
 7597SOL    HW123690   3.410   6.037   2.863
 7597SOL    HW223691   3.459   6.193   2.861
 7598SOL     OW23692   0.133   1.372   3.692
 7598SOL    HW123693   0.205   1.303   3.689
 7598SOL    HW223694   0.142   1.427   3.775
 7599SOL     OW23695   5.624   2.076   2.500
 7599SOL    HW123696   5.531   2.087   2.536
 7599SOL    HW223697   5.669   2.000   2.547
 7600SOL     OW23698   1.816   1.185   2.848
 7600SOL    HW123699   1.902   1.201   2.896
 7600SOL    HW223700   1.835   1.163   2.752
 7601SOL     OW23701   2.026   5.159   2.506
 7601SOL    HW123702   1.947   5.161   2.567
 7601SOL    HW223703   2.062   5.251   2.494
 7602SOL     OW23704   0.550   4.705   6.956
 7602SOL    HW123705   0.635   4.662   6.927
 7602SOL    HW223706   0.563   4.749   0.024
 7603SOL     OW23707   2.024   5.286   6.034
 7603SOL    HW123708   2.094   5.342   6.079
 7603SOL    HW223709   2.067   5.210   5.986
 7604SOL     OW23710   1.486   4.782   4.347
 7604SOL    HW123711   1.484   4.807   4.444
 7604SOL    HW223712   1.493   4.683   4.339
 7605SOL     OW23713   0.512   6.855   0.833
 7605SOL    HW123714   0.533   6.946   0.869
 7605SOL    HW223715   0.453   6.865   0.753
 7606SOL     OW23716   6.598   3.388   3.684
 7606SOL    HW123717   6.657   3.384   3.604
 7606SOL    HW223718   6.646   3.434   3.758
 7607SOL     OW23719   4.366   5.139   0.327
 7607SOL    HW123720   4.384   5.218   0.385
 7607SOL    HW223721   4.452   5.096   0.300
 7608SOL     OW23722   3.488   3.832   3.291
 7608SOL    HW123723   3.533   3.773   3.225
 7608SOL    HW223724   3.443   3.776   3.361
 7609SOL     OW23725   0.716   3.714   3.909
 7609SOL    HW123726   0.679   3.668   3.991
 7609SOL    HW223727   0.662   3.687   3.829
 7610SOL     OW23728   5.851   6.105   0.392
 7610SOL    HW123729   5.875   6.036   0.459
 7610SOL    HW223730   5.908   6.187   0.406
 7611SOL     OW23731   0.320   1.855   6.968
 7611SOL    HW123732   0.335   1.951   6.944
 7611SOL    HW223733   0.401   1.820   7.015
 7612SOL     OW23734   5.386   3.328   5.197
 7612SOL    HW123735   5.359   3.349   5.103
 7612SOL    HW223736   5.349   3.397   5.258
 7613SOL     OW23737   6.336   3.344   1.067
 7613SOL    HW123738   6.282   3.424   1.042
 7613SOL    HW223739   6.429   3.354   1.034
 7614SOL     OW23740   5.291   3.706   0.895
 7614SOL    HW123741   5.232   3.777   0.857
 7614SOL    HW223742   5.307   3.725   0.992
 7615SOL     OW23743   4.034   3.696   6.366
 7615SOL    HW123744   4.121   3.718   6.323
 7615SOL    HW223745   3.967   3.671   6.295
 7616SOL     OW23746   6.411   5.270   5.424
 7616SOL    HW123747   6.379   5.364   5.415
 7616SOL    HW223748   6.505   5.270   5.459
 7617SOL     OW23749   4.106   5.732   2.765
 7617SOL    HW123750   4.118   5.829   2.786
 7617SOL    HW223751   4.146   5.677   2.838
 7618SOL     OW23752   0.409   1.434   5.904
 7618SOL    HW123753   0.457   1.376   5.970
 7618SOL    HW223754   0.311   1.417   5.909
 7619SOL     OW23755   5.914   3.037   5.574
 7619SOL    HW123756   5.893   3.095   5.652
 7619SOL    HW223757   5.831   3.022   5.520
 7620SOL     OW23758   4.038   5.639   0.603
 7620SOL    HW123759   3.958   5.680   0.560
 7620SOL    HW223760   4.078   5.571   0.542
 7621SOL     OW23761   0.342   1.944   0.311
 7621SOL    HW123762   0.263   1.883   0.309
 7621SOL    HW223763   0.312   2.038   0.291
 7622SOL     OW23764   5.363   5.506   1.572
 7622SOL    HW123765   5.287   5.442   1.587
 7622SOL    HW223766   5.412   5.521   1.658
 7623SOL     OW23767   4.436   3.549   6.649
 7623SOL    HW123768   4.529   3.518   6.668
 7623SOL    HW223769   4.374   3.517   6.721
 7624SOL     OW23770   6.910   3.045   5.016
 7624SOL    HW123771   6.958   2.961   4.992
 7624SOL    HW223772   6.975   3.121   5.019
 7625SOL     OW23773   5.085   1.116   1.171
 7625SOL    HW123774   5.046   1.117   1.263
 7625SOL    HW223775   5.185   1.110   1.176
 7626SOL     OW23776   5.814   6.850   4.467
 7626SOL    HW123777   5.869   6.803   4.535
 7626SOL    HW223778   5.748   6.786   4.427
 7627SOL     OW23779   5.361   2.600   6.892
 7627SOL    HW123780   5.419   2.673   6.928
 7627SOL    HW223781   5.358   2.524   6.957
 7628SOL     OW23782   4.044   0.389   2.824
 7628SOL    HW123783   4.058   0.427   2.733
 7628SOL    HW223784   4.126   0.405   2.880
 7629SOL     OW23785   6.723   6.899   2.764
 7629SOL    HW123786   6.741   6.809   2.803
 7629SOL    HW223787   6.673   6.955   2.831
 7630SOL     OW23788   6.423   0.341   1.756
 7630SOL    HW123789   6.347   0.310   1.698
 7630SOL    HW223790   6.510   0.316   1.713
 7631SOL     OW23791   0.978   0.619   6.320
 7631SOL    HW123792   0.882   0.598   6.302
 7631SOL    HW223793   0.994   0.716   6.305
 7632SOL     OW23794   3.602   2.631   1.819
 7632SOL    HW123795   3.512   2.587   1.820
 7632SOL    HW223796   3.672   2.565   1.845
 7633SOL     OW23797   5.281   1.428   1.167
 7633SOL    HW123798   5.255   1.513   1.214
 7633SOL    HW223799   5.333   1.370   1.229
 7634SOL     OW23800   0.746   2.004   2.823
 7634SOL    HW123801   0.830   1.952   2.840
 7634SOL    HW223802   0.738   2.076   2.892
 7635SOL     OW23803   3.490   5.791   4.748
 7635SOL    HW123804   3.446   5.862   4.694
 7635SOL    HW223805   3.590   5.801   4.741
 7636SOL     OW23806   1.145   2.375   4.292
 7636SOL    HW123807   1.113   2.328   4.211
 7636SOL    HW223808   1.086   2.454   4.311
 7637SOL     OW23809   2.486   4.957   1.908
 7637SOL    HW123810   2.438   4.874   1.936
 7637SOL    HW223811   2.580   4.934   1.882
 7638SOL     OW23812   4.022   6.146   0.610
 7638SOL    HW123813   4.075   6.102   0.684
 7638SOL    HW223814   4.020   6.086   0.531
 7639SOL     OW23815   1.227   2.143   0.131
 7639SOL    HW123816   1.190   2.071   0.190
 7639SOL    HW223817   1.179   2.143   0.043
 7640SOL     OW23818   3.223   1.949   6.944
 7640SOL    HW123819   3.233   2.022   6.877
 7640SOL    HW223820   3.126   1.925   6.954
 7641SOL     OW23821   1.458   4.273   1.866
 7641SOL    HW123822   1.459   4.347   1.934
 7641SOL    HW223823   1.365   4.259   1.833
 7642SOL     OW23824   4.113   0.726   3.298
 7642SOL    HW123825   4.193   0.667   3.286
 7642SOL    HW223826   4.133   0.817   3.261
 7643SOL     OW23827   4.881   3.142   4.367
 7643SOL    HW123828   4.834   3.062   4.329
 7643SOL    HW223829   4.963   3.161   4.313
 7644SOL     OW23830   5.864   2.779   2.485
 7644SOL    HW123831   5.928   2.808   2.556
 7644SOL    HW223832   5.888   2.823   2.399
 7645SOL     OW23833   3.946   4.069   5.568
 7645SOL    HW123834   3.945   4.082   5.667
 7645SOL    HW223835   3.869   4.119   5.527
 7646SOL     OW23836   1.602   3.253   2.606
 7646SOL    HW123837   1.678   3.261   2.541
 7646SOL    HW223838   1.572   3.158   2.610
 7647SOL     OW23839   6.577   3.861   2.240
 7647SOL    HW123840   6.672   3.870   2.269
 7647SOL    HW223841   6.541   3.952   2.218
 7648SOL     OW23842   3.087   1.437   3.541
 7648SOL    HW123843   3.125   1.400   3.457
 7648SOL    HW223844   2.989   1.451   3.529
 7649SOL     OW23845   0.442   0.643   3.007
 7649SOL    HW123846   0.506   0.605   3.074
 7649SOL    HW223847   0.394   0.720   3.047
 7650SOL     OW23848   4.536   2.779   1.486
 7650SOL    HW123849   4.521   2.801   1.582
 7650SOL    HW223850   4.629   2.804   1.460
 7651SOL     OW23851   2.664   0.891   4.612
 7651SOL    HW123852   2.682   0.989   4.608
 7651SOL    HW223853   2.673   0.851   4.520
 7652SOL     OW23854   6.498   3.759   4.328
 7652SOL    HW123855   6.450   3.680   4.366
 7652SOL    HW223856   6.477   3.767   4.230
 7653SOL     OW23857   2.494   2.070   7.016
 7653SOL    HW123858   2.526   2.059   0.090
 7653SOL    HW223859   2.570   2.054   6.953
 7654SOL     OW23860   4.809   3.036   3.442
 7654SOL    HW123861   4.859   2.995   3.518
 7654SOL    HW223862   4.826   3.134   3.439
 7655SOL     OW23863   4.461   0.297   3.595
 7655SOL    HW123864   4.532   0.360   3.626
 7655SOL    HW223865   4.477   0.207   3.635
 7656SOL     OW23866   1.935   5.619   6.192
 7656SOL    HW123867   1.989   5.646   6.112
 7656SOL    HW223868   1.861   5.559   6.163
 7657SOL     OW23869   2.007   2.941   3.876
 7657SOL    HW123870   2.053   3.019   3.919
 7657SOL    HW223871   2.072   2.866   3.865
 7658SOL     OW23872   3.679   0.176   5.785
 7658SOL    HW123873   3.613   0.249   5.770
 7658SOL    HW223874   3.641   0.089   5.754
 7659SOL     OW23875   6.032   5.186   0.512
 7659SOL    HW123876   6.037   5.096   0.470
 7659SOL    HW223877   5.943   5.197   0.557
 7660SOL     OW23878   0.764   6.305   3.653
 7660SOL    HW123879   0.746   6.230   3.717
 7660SOL    HW223880   0.680   6.356   3.636
 7661SOL     OW23881   6.345   2.647   4.143
 7661SOL    HW123882   6.343   2.747   4.145
 7661SOL    HW223883   6.438   2.616   4.121
 7662SOL     OW23884   1.052   3.098   2.790
 7662SOL    HW123885   1.124   3.158   2.824
 7662SOL    HW223886   0.995   3.148   2.725
 7663SOL     OW23887   1.327   6.071   5.749
 7663SOL    HW123888   1.355   5.989   5.699
 7663SOL    HW223889   1.228   6.073   5.759
 7664SOL     OW23890   3.635   0.181   1.716
 7664SOL    HW123891   3.648   0.087   1.686
 7664SOL    HW223892   3.566   0.183   1.789
 7665SOL     OW23893   4.603   0.205   5.114
 7665SOL    HW123894   4.600   0.137   5.041
 7665SOL    HW223895   4.556   0.288   5.084
 7666SOL     OW23896   0.574   6.524   1.497
 7666SOL    HW123897   0.538   6.607   1.539
 7666SOL    HW223898   0.639   6.548   1.424
 7667SOL     OW23899   4.914   5.191   2.139
 7667SOL    HW123900   4.894   5.258   2.068
 7667SOL    HW223901   4.838   5.126   2.147
 7668SOL     OW23902   3.065   4.754   0.862
 7668SOL    HW123903   3.091   4.704   0.779
 7668SOL    HW223904   2.983   4.713   0.901
 7669SOL     OW23905   5.875   1.830   5.538
 7669SOL    HW123906   5.812   1.850   5.463
 7669SOL    HW223907   5.840   1.868   5.623
 7670SOL     OW23908   0.517   5.093   6.962
 7670SOL    HW123909   0.591   5.104   6.896
 7670SOL    HW223910   0.545   5.030   0.013
 7671SOL     OW23911   3.984   1.181   3.310
 7671SOL    HW123912   3.926   1.179   3.392
 7671SOL    HW223913   4.034   1.267   3.308
 7672SOL     OW23914   6.786   6.688   2.922
 7672SOL    HW123915   6.764   6.746   3.001
 7672SOL    HW223916   6.879   6.709   2.890
 7673SOL     OW23917   1.727   5.526   0.296
 7673SOL    HW123918   1.823   5.550   0.282
 7673SOL    HW223919   1.722   5.437   0.343
 7674SOL     OW23920   5.568   1.472   3.638
 7674SOL    HW123921   5.494   1.530   3.606
 7674SOL    HW223922   5.536   1.414   3.713
 7675SOL     OW23923   6.070   6.843   2.555
 7675SOL    HW123924   6.047   6.763   2.611
 7675SOL    HW223925   6.116   6.813   2.471
 7676SOL     OW23926   2.017   2.417   0.491
 7676SOL    HW123927   2.083   2.360   0.442
 7676SOL    HW223928   1.924   2.390   0.466
 7677SOL     OW23929   0.596   4.890   1.875
 7677SOL    HW123930   0.689   4.926   1.868
 7677SOL    HW223931   0.531   4.964   1.855
 7678SOL     OW23932   2.300   1.904   4.417
 7678SOL    HW123933   2.209   1.945   4.414
 7678SOL    HW223934   2.316   1.864   4.507
 7679SOL     OW23935   2.755   5.571   6.238
 7679SOL    HW123936   2.774   5.634   6.314
 7679SOL    HW223937   2.827   5.502   6.234
 7680SOL     OW23938   2.016   2.014   0.467
 7680SOL    HW123939   1.988   1.956   0.390
 7680SOL    HW223940   1.996   1.967   0.553
 7681SOL     OW23941   2.375   6.942   0.636
 7681SOL    HW123942   2.343   0.015   0.644
 7681SOL    HW223943   2.389   6.919   0.540
 7682SOL     OW23944   3.008   6.895   2.440
 7682SOL    HW123945   2.974   6.845   2.519
 7682SOL    HW223946   3.108   6.898   2.444
 7683SOL     OW23947   6.220   1.613   3.384
 7683SOL    HW123948   6.173   1.586   3.468
 7683SOL    HW223949   6.154   1.646   3.318
 7684SOL     OW23950   3.658   1.964   2.484
 7684SOL    HW123951   3.642   1.866   2.495
 7684SOL    HW223952   3.725   1.978   2.411
 7685SOL     OW23953   3.503   2.226   6.873
 7685SOL    HW123954   3.483   2.322   6.852
 7685SOL    HW223955   3.425   2.170   6.849
 7686SOL     OW23956   6.411   6.993   2.974
 7686SOL    HW123957   6.451   6.915   3.022
 7686SOL    HW223958   6.362   6.960   2.893
 7687SOL     OW23959   5.794   4.888   4.210
 7687SOL    HW123960   5.773   4.790   4.219
 7687SOL    HW223961   5.877   4.909   4.262
 7688SOL     OW23962   0.686   6.086   5.663
 7688SOL    HW123963   0.759   6.124   5.719
 7688SOL    HW223964   0.722   6.063   5.572
 7689SOL     OW23965   5.330   6.441   2.994
 7689SOL    HW123966   5.271   6.480   3.065
 7689SOL    HW223967   5.274   6.401   2.922
 7690SOL     OW23968   6.063   5.162   0.834
 7690SOL    HW123969   6.112   5.159   0.921
 7690SOL    HW223970   6.104   5.231   0.775
 7691SOL     OW23971   5.412   2.401   4.966
 7691SOL    HW123972   5.435   2.351   5.050
 7691SOL    HW223973   5.478   2.474   4.951
 7692SOL     OW23974   0.418   6.133   1.768
 7692SOL    HW123975   0.430   6.145   1.867
 7692SOL    HW223976   0.416   6.035   1.747
 7693SOL     OW23977   3.888   0.275   1.151
 7693SOL    HW123978   3.830   0.263   1.071
 7693SOL    HW223979   3.974   0.226   1.136
 7694SOL     OW23980   0.261   4.815   5.248
 7694SOL    HW123981   0.185   4.750   5.251
 7694SOL    HW223982   0.226   4.908   5.260
 7695SOL     OW23983   4.188   6.359   0.548
 7695SOL    HW123984   4.266   6.351   0.611
 7695SOL    HW223985   4.126   6.282   0.561
 7696SOL     OW23986   7.003   1.465   4.866
 7696SOL    HW123987   6.907   1.437   4.857
 7696SOL    HW223988   0.038   1.386   4.892
 7697SOL     OW23989   3.191   6.279   2.345
 7697SOL    HW123990   3.284   6.286   2.310
 7697SOL    HW223991   3.146   6.368   2.338
 7698SOL     OW23992   6.680   2.077   3.187
 7698SOL    HW123993   6.756   2.026   3.145
 7698SOL    HW223994   6.613   2.012   3.224
 7699SOL     OW23995   3.862   5.749   6.866
 7699SOL    HW123996   3.905   5.659   6.859
 7699SOL    HW223997   3.774   5.748   6.819
 7700SOL     OW23998   4.755   6.024   4.423
 7700SOL    HW123999   4.656   6.013   4.417
 7700SOL    HW224000   4.799   5.934   4.423
 7701SOL     OW24001   6.849   1.348   0.144
 7701SOL    HW124002   6.795   1.341   0.060
 7701SOL    HW224003   6.882   1.258   0.170
 7702SOL     OW24004   3.573   6.012   5.928
 7702SOL    HW124005   3.482   6.030   5.889
 7702SOL    HW224006   3.636   5.987   5.855
 7703SOL     OW24007   5.984   0.687   5.489
 7703SOL    HW124008   6.064   0.631   5.467
 7703SOL    HW224009   5.984   0.708   5.587
 7704SOL     OW24010   5.387   5.223   5.542
 7704SOL    HW124011   5.333   5.198   5.623
 7704SOL    HW224012   5.392   5.145   5.480
 7705SOL     OW24013   3.737   5.118   6.313
 7705SOL    HW124014   3.686   5.178   6.375
 7705SOL    HW224015   3.713   5.141   6.218
 7706SOL     OW24016   4.309   3.235   5.386
 7706SOL    HW124017   4.385   3.182   5.422
 7706SOL    HW224018   4.253   3.269   5.461
 7707SOL     OW24019   0.468   5.902   6.254
 7707SOL    HW124020   0.411   5.880   6.334
 7707SOL    HW224021   0.553   5.849   6.258
 7708SOL     OW24022   6.252   0.421   6.082
 7708SOL    HW124023   6.306   0.438   6.165
 7708SOL    HW224024   6.311   0.387   6.010
 7709SOL     OW24025   5.405   4.536   1.731
 7709SOL    HW124026   5.406   4.636   1.736
 7709SOL    HW224027   5.491   4.503   1.692
 7710SOL     OW24028   2.862   0.314   0.731
 7710SOL    HW124029   2.776   0.287   0.689
 7710SOL    HW224030   2.847   0.334   0.828
 7711SOL     OW24031   6.356   5.955   5.171
 7711SOL    HW124032   6.418   5.878   5.155
 7711SOL    HW224033   6.406   6.041   5.160
 7712SOL     OW24034   5.296   6.040   2.602
 7712SOL    HW124035   5.272   6.092   2.520
 7712SOL    HW224036   5.248   5.952   2.601
 7713SOL     OW24037   1.468   4.467   0.789
 7713SOL    HW124038   1.391   4.489   0.729
 7713SOL    HW224039   1.511   4.551   0.821
 7714SOL     OW24040   6.554   4.341   5.782
 7714SOL    HW124041   6.462   4.313   5.755
 7714SOL    HW224042   6.606   4.368   5.701
 7715SOL     OW24043   3.961   2.042   6.708
 7715SOL    HW124044   3.977   2.131   6.751
 7715SOL    HW224045   4.013   1.972   6.757
 7716SOL     OW24046   6.392   4.410   3.806
 7716SOL    HW124047   6.473   4.356   3.784
 7716SOL    HW224048   6.325   4.354   3.853
 7717SOL     OW24049   1.559   0.862   4.947
 7717SOL    HW124050   1.651   0.823   4.954
 7717SOL    HW224051   1.565   0.962   4.952
 7718SOL     OW24052   1.466   2.096   2.928
 7718SOL    HW124053   1.489   2.140   2.841
 7718SOL    HW224054   1.450   2.165   2.998
 7719SOL     OW24055   6.462   4.134   4.682
 7719SOL    HW124056   6.490   4.204   4.747
 7719SOL    HW224057   6.392   4.171   4.620
 7720SOL     OW24058   0.289   0.971   6.981
 7720SOL    HW124059   0.283   1.055   6.927
 7720SOL    HW224060   0.334   0.990   0.047
 7721SOL     OW24061   0.344   5.225   2.487
 7721SOL    HW124062   0.329   5.173   2.403
 7721SOL    HW224063   0.378   5.165   2.559
 7722SOL     OW24064   0.715   5.981   3.208
 7722SOL    HW124065   0.620   5.981   3.240
 7722SOL    HW224066   0.757   5.892   3.228
 7723SOL     OW24067   5.147   3.157   6.913
 7723SOL    HW124068   5.176   3.066   6.941
 7723SOL    HW224069   5.104   3.151   6.823
 7724SOL     OW24070   2.952   4.054   1.211
 7724SOL    HW124071   2.976   4.139   1.258
 7724SOL    HW224072   2.853   4.044   1.208
 7725SOL     OW24073   6.027   2.522   3.113
 7725SOL    HW124074   5.937   2.564   3.123
 7725SOL    HW224075   6.017   2.423   3.113
 7726SOL     OW24076   1.896   6.226   5.106
 7726SOL    HW124077   1.924   6.152   5.045
 7726SOL    HW224078   1.859   6.187   5.190
 7727SOL     OW24079   0.467   0.666   2.383
 7727SOL    HW124080   0.376   0.704   2.402
 7727SOL    HW224081   0.531   0.695   2.455
 7728SOL     OW24082   0.963   4.736   3.492
 7728SOL    HW124083   0.988   4.805   3.424
 7728SOL    HW224084   0.972   4.645   3.451
 7729SOL     OW24085   6.014   2.801   0.874
 7729SOL    HW124086   5.944   2.869   0.855
 7729SOL    HW224087   5.973   2.709   0.871
 7730SOL     OW24088   6.120   6.029   1.439
 7730SOL    HW124089   6.125   6.127   1.423
 7730SOL    HW224090   6.024   6.000   1.435
 7731SOL     OW24091   6.715   0.558   0.206
 7731SOL    HW124092   6.741   0.634   0.265
 7731SOL    HW224093   6.769   0.561   0.122
 7732SOL     OW24094   4.516   6.205   0.593
 7732SOL    HW124095   4.454   6.173   0.521
 7732SOL    HW224096   4.462   6.246   0.667
 7733SOL     OW24097   4.506   6.606   2.598
 7733SOL    HW124098   4.587   6.659   2.574
 7733SOL    HW224099   4.429   6.667   2.617
 7734SOL     OW24100   2.697   4.909   2.802
 7734SOL    HW124101   2.648   4.822   2.797
 7734SOL    HW224102   2.717   4.941   2.709
 7735SOL     OW24103   5.022   6.200   6.822
 7735SOL    HW124104   5.105   6.205   6.768
 7735SOL    HW224105   4.954   6.144   6.775
 7736SOL     OW24106   3.408   3.679   0.129
 7736SOL    HW124107   3.332   3.661   0.066
 7736SOL    HW224108   3.482   3.724   0.079
 7737SOL     OW24109   3.096   0.568   2.734
 7737SOL    HW124110   3.149   0.581   2.650
 7737SOL    HW224111   3.084   0.470   2.752
 7738SOL     OW24112   3.124   6.066   0.297
 7738SOL    HW124113   3.224   6.056   0.294
 7738SOL    HW224114   3.086   6.040   0.209
 7739SOL     OW24115   0.734   1.930   1.003
 7739SOL    HW124116   0.788   1.857   1.045
 7739SOL    HW224117   0.648   1.894   0.970
 7740SOL     OW24118   1.852   0.756   3.406
 7740SOL    HW124119   1.800   0.679   3.441
 7740SOL    HW224120   1.950   0.737   3.414
 7741SOL     OW24121   0.778   4.721   5.857
 7741SOL    HW124122   0.740   4.805   5.819
 7741SOL    HW224123   0.847   4.685   5.794
 7742SOL     OW24124   5.658   1.732   3.277
 7742SOL    HW124125   5.635   1.755   3.371
 7742SOL    HW224126   5.679   1.635   3.270
 7743SOL     OW24127   5.922   1.341   0.114
 7743SOL    HW124128   5.863   1.394   0.054
 7743SOL    HW224129   6.016   1.347   0.082
 7744SOL     OW24130   1.020   5.920   3.393
 7744SOL    HW124131   0.983   5.858   3.323
 7744SOL    HW224132   0.946   5.977   3.429
 7745SOL     OW24133   3.503   0.885   5.762
 7745SOL    HW124134   3.517   0.983   5.745
 7745SOL    HW224135   3.553   0.832   5.693
 7746SOL     OW24136   2.813   6.536   7.003
 7746SOL    HW124137   2.748   6.463   0.001
 7746SOL    HW224138   2.858   6.563   0.067
 7747SOL     OW24139   4.614   5.757   1.700
 7747SOL    HW124140   4.661   5.827   1.647
 7747SOL    HW224141   4.521   5.745   1.665
 7748SOL     OW24142   2.930   3.624   4.919
 7748SOL    HW124143   3.012   3.594   4.967
 7748SOL    HW224144   2.860   3.553   4.924
 7749SOL     OW24145   2.689   2.606   5.360
 7749SOL    HW124146   2.784   2.610   5.329
 7749SOL    HW224147   2.629   2.639   5.287
 7750SOL     OW24148   0.179   6.485   1.475
 7750SOL    HW124149   0.124   6.502   1.394
 7750SOL    HW224150   0.212   6.571   1.513
 7751SOL     OW24151   1.524   2.203   2.312
 7751SOL    HW124152   1.515   2.291   2.267
 7751SOL    HW224153   1.620   2.186   2.333
 7752SOL     OW24154   5.195   0.446   5.869
 7752SOL    HW124155   5.230   0.461   5.776
 7752SOL    HW224156   5.265   0.475   5.935
 7753SOL     OW24157   2.679   1.354   4.345
 7753SOL    HW124158   2.739   1.351   4.425
 7753SOL    HW224159   2.732   1.335   4.262
 7754SOL     OW24160   3.343   5.939   1.138
 7754SOL    HW124161   3.423   5.904   1.089
 7754SOL    HW224162   3.351   5.918   1.235
 7755SOL     OW24163   2.010   2.523   5.946
 7755SOL    HW124164   2.056   2.555   6.029
 7755SOL    HW224165   2.023   2.424   5.936
 7756SOL     OW24166   2.627   6.997   2.978
 7756SOL    HW124167   2.656   0.064   3.015
 7756SOL    HW224168   2.685   6.925   3.017
 7757SOL     OW24169   6.031   5.052   1.215
 7757SOL    HW124170   6.016   5.137   1.265
 7757SOL    HW224171   6.116   5.009   1.246
 7758SOL     OW24172   2.118   0.189   6.438
 7758SOL    HW124173   2.177   0.260   6.400
 7758SOL    HW224174   2.029   0.228   6.460
 7759SOL     OW24175   1.780   1.481   5.202
 7759SOL    HW124176   1.692   1.486   5.250
 7759SOL    HW224177   1.810   1.386   5.197
 7760SOL     OW24178   5.801   3.532   2.687
 7760SOL    HW124179   5.889   3.491   2.711
 7760SOL    HW224180   5.804   3.630   2.705
 7761SOL     OW24181   6.633   6.667   4.582
 7761SOL    HW124182   6.708   6.619   4.537
 7761SOL    HW224183   6.634   6.763   4.554
 7762SOL     OW24184   2.176   0.528   4.121
 7762SOL    HW124185   2.223   0.456   4.070
 7762SOL    HW224186   2.082   0.500   4.140
 7763SOL     OW24187   2.360   0.082   6.524
 7763SOL    HW124188   2.285   0.109   6.464
 7763SOL    HW224189   2.400   0.164   6.566
 7764SOL     OW24190   3.230   3.882   5.473
 7764SOL    HW124191   3.144   3.898   5.522
 7764SOL    HW224192   3.224   3.923   5.382
 7765SOL     OW24193   5.976   2.866   4.560
 7765SOL    HW124194   6.056   2.901   4.510
 7765SOL    HW224195   5.895   2.872   4.500
 7766SOL     OW24196   6.850   3.756   0.757
 7766SOL    HW124197   6.824   3.669   0.714
 7766SOL    HW224198   6.768   3.801   0.792
 7767SOL     OW24199   4.534   6.259   2.276
 7767SOL    HW124200   4.488   6.277   2.188
 7767SOL    HW224201   4.520   6.164   2.302
 7768SOL     OW24202   4.963   4.471   3.021
 7768SOL    HW124203   4.934   4.462   3.117
 7768SOL    HW224204   5.032   4.402   3.000
 7769SOL     OW24205   4.735   1.843   4.327
 7769SOL    HW124206   4.678   1.774   4.282
 7769SOL    HW224207   4.800   1.880   4.261
 7770SOL     OW24208   0.836   3.377   5.148
 7770SOL    HW124209   0.858   3.370   5.245
 7770SOL    HW224210   0.742   3.345   5.133
 7771SOL     OW24211   3.105   1.595   5.368
 7771SOL    HW124212   3.005   1.593   5.371
 7771SOL    HW224213   3.137   1.529   5.299
 7772SOL     OW24214   5.302   6.587   1.835
 7772SOL    HW124215   5.305   6.494   1.872
 7772SOL    HW224216   5.324   6.585   1.738
 7773SOL     OW24217   1.366   5.081   5.608
 7773SOL    HW124218   1.466   5.091   5.613
 7773SOL    HW224219   1.330   5.063   5.700
 7774SOL     OW24220   4.953   2.663   4.236
 7774SOL    HW124221   5.004   2.715   4.168
 7774SOL    HW224222   4.997   2.673   4.325
 7775SOL     OW24223   4.425   6.889   0.030
 7775SOL    HW124224   4.346   6.832   0.054
 7775SOL    HW224225   4.400   6.985   0.041
 7776SOL     OW24226   0.832   5.658   6.686
 7776SOL    HW124227   0.930   5.641   6.701
 7776SOL    HW224228   0.822   5.730   6.616
 7777SOL     OW24229   6.083   5.530   3.947
 7777SOL    HW124230   6.098   5.617   3.995
 7777SOL    HW224231   6.034   5.467   4.007
 7778SOL     OW24232   5.714   3.998   2.274
 7778SOL    HW124233   5.758   3.958   2.193
 7778SOL    HW224234   5.666   3.926   2.325
 7779SOL     OW24235   2.460   1.219   1.990
 7779SOL    HW124236   2.551   1.259   1.976
 7779SOL    HW224237   2.395   1.262   1.927
 7780SOL     OW24238   1.052   4.948   5.670
 7780SOL    HW124239   0.980   5.006   5.632
 7780SOL    HW224240   1.057   4.961   5.769
 7781SOL     OW24241   2.008   4.243   1.518
 7781SOL    HW124242   1.960   4.175   1.573
 7781SOL    HW224243   1.974   4.334   1.542
 7782SOL     OW24244   4.892   5.163   4.267
 7782SOL    HW124245   4.976   5.114   4.244
 7782SOL    HW224246   4.853   5.202   4.184
 7783SOL     OW24247   0.996   0.290   5.779
 7783SOL    HW124248   0.966   0.196   5.762
 7783SOL    HW224249   1.039   0.327   5.696
 7784SOL     OW24250   3.489   2.423   1.499
 7784SOL    HW124251   3.416   2.355   1.508
 7784SOL    HW224252   3.459   2.496   1.438
 7785SOL     OW24253   2.280   5.791   3.964
 7785SOL    HW124254   2.269   5.846   4.047
 7785SOL    HW224255   2.337   5.711   3.984
 7786SOL     OW24256   3.574   0.175   0.269
 7786SOL    HW124257   3.638   0.165   0.193
 7786SOL    HW224258   3.485   0.204   0.235
 7787SOL     OW24259   2.028   2.790   0.013
 7787SOL    HW124260   1.994   2.880   0.040
 7787SOL    HW224261   1.962   2.720   0.039
 7788SOL     OW24262   1.603   4.854   1.581
 7788SOL    HW124263   1.599   4.861   1.681
 7788SOL    HW224264   1.676   4.912   1.546
 7789SOL     OW24265   3.265   0.169   6.227
 7789SOL    HW124266   3.252   0.213   6.316
 7789SOL    HW224267   3.177   0.165   6.179
 7790SOL     OW24268   5.137   5.688   2.730
 7790SOL    HW124269   5.236   5.679   2.740
 7790SOL    HW224270   5.116   5.744   2.650
 7791SOL     OW24271   1.976   5.113   2.233
 7791SOL    HW124272   2.001   5.129   2.329
 7791SOL    HW224273   1.881   5.141   2.219
 7792SOL     OW24274   1.272   6.202   4.054
 7792SOL    HW124275   1.283   6.273   3.985
 7792SOL    HW224276   1.184   6.156   4.041
 7793SOL     OW24277   3.927   0.616   0.183
 7793SOL    HW124278   3.841   0.656   0.151
 7793SOL    HW224279   3.907   0.532   0.234
 7794SOL     OW24280   0.230   4.378   1.710
 7794SOL    HW124281   0.173   4.298   1.731
 7794SOL    HW224282   0.312   4.376   1.768
 7795SOL     OW24283   2.468   5.084   4.909
 7795SOL    HW124284   2.508   5.004   4.954
 7795SOL    HW224285   2.481   5.165   4.966
 7796SOL     OW24286   3.612   2.687   5.363
 7796SOL    HW124287   3.653   2.764   5.413
 7796SOL    HW224288   3.675   2.609   5.364
 7797SOL     OW24289   0.726   6.533   1.252
 7797SOL    HW124290   0.797   6.593   1.217
 7797SOL    HW224291   0.743   6.439   1.222
 7798SOL     OW24292   0.858   2.431   2.897
 7798SOL    HW124293   0.952   2.430   2.933
 7798SOL    HW224294   0.819   2.522   2.911
 7799SOL     OW24295   1.827   5.461   2.146
 7799SOL    HW124296   1.787   5.518   2.073
 7799SOL    HW224297   1.764   5.458   2.224
 7800SOL     OW24298   0.858   5.532   3.307
 7800SOL    HW124299   0.892   5.491   3.391
 7800SOL    HW224300   0.770   5.492   3.283
 7801SOL     OW24301   1.877   1.458   2.614
 7801SOL    HW124302   1.897   1.538   2.557
 7801SOL    HW224303   1.956   1.396   2.613
 7802SOL     OW24304   6.619   2.913   0.189
 7802SOL    HW124305   6.645   2.831   0.240
 7802SOL    HW224306   6.520   2.915   0.177
 7803SOL     OW24307   4.318   2.019   0.320
 7803SOL    HW124308   4.386   2.039   0.390
 7803SOL    HW224309   4.247   2.089   0.321
 7804SOL     OW24310   4.792   2.064   4.907
 7804SOL    HW124311   4.854   2.103   4.975
 7804SOL    HW224312   4.739   1.990   4.948
 7805SOL     OW24313   5.150   3.467   2.374
 7805SOL    HW124314   5.198   3.484   2.460
 7805SOL    HW224315   5.209   3.491   2.297
 7806SOL     OW24316   5.716   1.525   6.037
 7806SOL    HW124317   5.791   1.565   6.090
 7806SOL    HW224318   5.700   1.431   6.067
 7807SOL     OW24319   0.616   4.571   5.084
 7807SOL    HW124320   0.525   4.536   5.109
 7807SOL    HW224321   0.639   4.649   5.142
 7808SOL     OW24322   5.919   3.255   3.579
 7808SOL    HW124323   5.912   3.181   3.511
 7808SOL    HW224324   6.007   3.301   3.569
 7809SOL     OW24325   5.210   5.290   5.288
 7809SOL    HW124326   5.239   5.211   5.341
 7809SOL    HW224327   5.267   5.298   5.206
 7810SOL     OW24328   2.931   6.913   5.550
 7810SOL    HW124329   2.955   6.944   5.642
 7810SOL    HW224330   2.855   6.849   5.556
 7811SOL     OW24331   1.252   5.448   1.691
 7811SOL    HW124332   1.208   5.362   1.666
 7811SOL    HW224333   1.315   5.475   1.619
 7812SOL     OW24334   2.173   2.624   4.218
 7812SOL    HW124335   2.176   2.547   4.154
 7812SOL    HW224336   2.079   2.656   4.228
 7813SOL     OW24337   4.267   2.055   1.290
 7813SOL    HW124338   4.278   1.990   1.215
 7813SOL    HW224339   4.348   2.114   1.296
 7814SOL     OW24340   6.955   3.275   3.197
 7814SOL    HW124341   6.897   3.235   3.126
 7814SOL    HW224342   6.943   3.374   3.197
 7815SOL     OW24343   5.823   2.040   4.053
 7815SOL    HW124344   5.805   2.136   4.077
 7815SOL    HW224345   5.776   2.019   3.967
 7816SOL     OW24346   0.813   2.330   6.966
 7816SOL    HW124347   0.836   2.394   6.893
 7816SOL    HW224348   0.844   2.366   0.033
 7817SOL     OW24349   4.925   4.361   4.762
 7817SOL    HW124350   4.839   4.357   4.814
 7817SOL    HW224351   4.959   4.455   4.760
 7818SOL     OW24352   4.731   1.153   2.706
 7818SOL    HW124353   4.648   1.099   2.690
 7818SOL    HW224354   4.811   1.092   2.707
 7819SOL     OW24355   0.317   3.652   3.709
 7819SOL    HW124356   0.328   3.690   3.617
 7819SOL    HW224357   0.221   3.650   3.733
 7820SOL     OW24358   1.815   0.869   5.682
 7820SOL    HW124359   1.789   0.781   5.722
 7820SOL    HW224360   1.915   0.875   5.678
 7821SOL     OW24361   5.604   6.093   1.130
 7821SOL    HW124362   5.700   6.069   1.144
 7821SOL    HW224363   5.593   6.192   1.133
 7822SOL     OW24364   1.332   1.335   6.995
 7822SOL    HW124365   1.281   1.259   0.014
 7822SOL    HW224366   1.314   1.339   6.897
 7823SOL     OW24367   2.346   3.929   6.138
 7823SOL    HW124368   2.438   3.899   6.165
 7823SOL    HW224369   2.344   4.028   6.132
 7824SOL     OW24370   5.760   0.674   4.438
 7824SOL    HW124371   5.855   0.643   4.437
 7824SOL    HW224372   5.704   0.614   4.380
 7825SOL     OW24373   1.211   3.564   0.851
 7825SOL    HW124374   1.294   3.512   0.829
 7825SOL    HW224375   1.131   3.508   0.832
 7826SOL     OW24376   5.746   1.726   6.628
 7826SOL    HW124377   5.664   1.783   6.633
 7826SOL    HW224378   5.725   1.643   6.576
 7827SOL     OW24379   3.074   4.575   0.658
 7827SOL    HW124380   2.991   4.526   0.632
 7827SOL    HW224381   3.146   4.510   0.681
 7828SOL     OW24382   0.556   5.206   1.110
 7828SOL    HW124383   0.614   5.287   1.119
 7828SOL    HW224384   0.534   5.171   1.201
 7829SOL     OW24385   2.027   2.849   0.330
 7829SOL    HW124386   2.115   2.848   0.379
 7829SOL    HW224387   1.953   2.857   0.397
 7830SOL     OW24388   4.232   3.822   6.230
 7830SOL    HW124389   4.314   3.779   6.192
 7830SOL    HW224390   4.253   3.916   6.257
 7831SOL     OW24391   1.490   5.708   1.243
 7831SOL    HW124392   1.485   5.612   1.217
 7831SOL    HW224393   1.555   5.719   1.318
 7832SOL     OW24394   3.271   1.224   4.223
 7832SOL    HW124395   3.335   1.190   4.292
 7832SOL    HW224396   3.322   1.257   4.144
 7833SOL     OW24397   0.237   0.572   6.794
 7833SOL    HW124398   0.167   0.555   6.863
 7833SOL    HW224399   0.273   0.485   6.761
 7834SOL     OW24400   0.456   1.409   3.504
 7834SOL    HW124401   0.445   1.311   3.516
 7834SOL    HW224402   0.533   1.441   3.559
 7835SOL     OW24403   2.138   2.665   4.805
 7835SOL    HW124404   2.173   2.687   4.896
 7835SOL    HW224405   2.147   2.744   4.745
 7836SOL     OW24406   3.818   2.455   5.659
 7836SOL    HW124407   3.770   2.390   5.719
 7836SOL    HW224408   3.850   2.407   5.577
 7837SOL     OW24409   6.488   6.363   1.827
 7837SOL    HW124410   6.490   6.445   1.770
 7837SOL    HW224411   6.570   6.309   1.811
 7838SOL     OW24412   4.348   6.132   0.383
 7838SOL    HW124413   4.420   6.090   0.328
 7838SOL    HW224414   4.266   6.145   0.327
 7839SOL     OW24415   6.105   4.966   5.437
 7839SOL    HW124416   6.113   4.961   5.337
 7839SOL    HW224417   6.048   5.044   5.462
 7840SOL     OW24418   4.945   3.405   4.736
 7840SOL    HW124419   4.868   3.463   4.764
 7840SOL    HW224420   4.972   3.346   4.812
 7841SOL     OW24421   5.480   1.474   6.809
 7841SOL    HW124422   5.444   1.382   6.826
 7841SOL    HW224423   5.553   1.494   6.875
 7842SOL     OW24424   2.288   1.541   2.918
 7842SOL    HW124425   2.257   1.600   2.992
 7842SOL    HW224426   2.320   1.455   2.955
 7843SOL     OW24427   5.251   4.465   2.229
 7843SOL    HW124428   5.181   4.533   2.250
 7843SOL    HW224429   5.282   4.476   2.135
 7844SOL     OW24430   4.133   0.883   3.867
 7844SOL    HW124431   4.100   0.902   3.960
 7844SOL    HW224432   4.215   0.937   3.849
 7845SOL     OW24433   6.299   1.534   3.813
 7845SOL    HW124434   6.398   1.523   3.808
 7845SOL    HW224435   6.255   1.464   3.757
 7846SOL     OW24436   1.818   0.451   1.439
 7846SOL    HW124437   1.746   0.476   1.504
 7846SOL    HW224438   1.790   0.476   1.347
 7847SOL     OW24439   6.450   2.003   1.551
 7847SOL    HW124440   6.380   1.990   1.481
 7847SOL    HW224441   6.479   2.099   1.552
 7848SOL     OW24442   3.071   3.527   1.477
 7848SOL    HW124443   3.101   3.581   1.556
 7848SOL    HW224444   3.022   3.446   1.510
 7849SOL     OW24445   5.703   3.772   3.841
 7849SOL    HW124446   5.720   3.786   3.744
 7849SOL    HW224447   5.783   3.800   3.894
 7850SOL     OW24448   0.031   1.804   3.728
 7850SOL    HW124449   6.989   1.783   3.803
 7850SOL    HW224450   0.125   1.795   3.760
 7851SOL     OW24451   6.725   6.776   0.829
 7851SOL    HW124452   6.684   6.697   0.875
 7851SOL    HW224453   6.657   6.818   0.769
 7852SOL     OW24454   2.804   0.373   5.416
 7852SOL    HW124455   2.826   0.389   5.320
 7852SOL    HW224456   2.828   0.455   5.470
 7853SOL     OW24457   3.972   1.749   1.658
 7853SOL    HW124458   3.923   1.819   1.710
 7853SOL    HW224459   3.919   1.724   1.577
 7854SOL     OW24460   3.392   3.471   0.637
 7854SOL    HW124461   3.393   3.524   0.553
 7854SOL    HW224462   3.315   3.500   0.694
 7855SOL     OW24463   2.934   6.086   5.637
 7855SOL    HW124464   2.992   6.036   5.701
 7855SOL    HW224465   2.949   6.051   5.544
 7856SOL     OW24466   5.619   5.053   4.023
 7856SOL    HW124467   5.691   5.002   4.071
 7856SOL    HW224468   5.537   5.057   4.080
 7857SOL     OW24469   5.945   2.810   5.275
 7857SOL    HW124470   5.999   2.734   5.239
 7857SOL    HW224471   5.958   2.890   5.217
 7858SOL     OW24472   4.458   5.541   3.710
 7858SOL    HW124473   4.452   5.498   3.801
 7858SOL    HW224474   4.471   5.639   3.721
 7859SOL     OW24475   6.275   4.368   5.666
 7859SOL    HW124476   6.262   4.271   5.644
 7859SOL    HW224477   6.303   4.418   5.584
 7860SOL     OW24478   4.583   0.405   3.060
 7860SOL    HW124479   4.603   0.356   2.975
 7860SOL    HW224480   4.504   0.364   3.104
 7861SOL     OW24481   3.787   5.252   1.698
 7861SOL    HW124482   3.703   5.285   1.741
 7861SOL    HW224483   3.764   5.194   1.620
 7862SOL     OW24484   3.113   4.635   1.680
 7862SOL    HW124485   3.051   4.577   1.732
 7862SOL    HW224486   3.205   4.596   1.682
 7863SOL     OW24487   6.647   6.353   3.654
 7863SOL    HW124488   6.553   6.355   3.689
 7863SOL    HW224489   6.704   6.302   3.718
 7864SOL     OW24490   0.130   6.456   5.416
 7864SOL    HW124491   0.052   6.393   5.418
 7864SOL    HW224492   0.210   6.408   5.382
 7865SOL     OW24493   4.512   6.929   4.449
 7865SOL    HW124494   4.468   6.962   4.532
 7865SOL    HW224495   4.501   6.830   4.441
 7866SOL     OW24496   2.585   1.854   6.668
 7866SOL    HW124497   2.506   1.907   6.636
 7866SOL    HW224498   2.598   1.775   6.608
 7867SOL     OW24499   4.932   6.524   2.797
 7867SOL    HW124500   4.868   6.448   2.794
 7867SOL    HW224501   4.885   6.610   2.777
 7868SOL     OW24502   5.485   6.774   2.205
 7868SOL    HW124503   5.389   6.791   2.226
 7868SOL    HW224504   5.513   6.833   2.129
 7869SOL     OW24505   5.886   3.764   0.548
 7869SOL    HW124506   5.910   3.829   0.477
 7869SOL    HW224507   5.795   3.784   0.584
 7870SOL     OW24508   4.738   5.214   4.484
 7870SOL    HW124509   4.766   5.288   4.546
 7870SOL    HW224510   4.797   5.215   4.403
 7871SOL     OW24511   5.484   3.808   2.873
 7871SOL    HW124512   5.512   3.721   2.915
 7871SOL    HW224513   5.465   3.875   2.945
 7872SOL     OW24514   2.033   4.436   2.547
 7872SOL    HW124515   1.956   4.422   2.485
 7872SOL    HW224516   2.009   4.403   2.639
 7873SOL     OW24517   5.252   0.668   5.249
 7873SOL    HW124518   5.329   0.703   5.302
 7873SOL    HW224519   5.217   0.740   5.189
 7874SOL     OW24520   4.760   1.583   0.497
 7874SOL    HW124521   4.721   1.676   0.500
 7874SOL    HW224522   4.716   1.532   0.422
 7875SOL     OW24523   4.619   2.605   6.749
 7875SOL    HW124524   4.580   2.526   6.797
 7875SOL    HW224525   4.643   2.578   6.655
 7876SOL     OW24526   6.877   0.180   4.828
 7876SOL    HW124527   6.894   0.172   4.926
 7876SOL    HW224528   6.955   0.144   4.777
 7877SOL     OW24529   6.951   3.178   2.499
 7877SOL    HW124530   0.023   3.213   2.507
 7877SOL    HW224531   6.893   3.246   2.454
 7878SOL     OW24532   4.566   4.843   4.186
 7878SOL    HW124533   4.497   4.876   4.251
 7878SOL    HW224534   4.522   4.789   4.115
 7879SOL     OW24535   4.992   5.584   3.779
 7879SOL    HW124536   4.997   5.681   3.755
 7879SOL    HW224537   5.080   5.541   3.761
 7880SOL     OW24538   0.952   5.397   1.008
 7880SOL    HW124539   1.019   5.469   0.994
 7880SOL    HW224540   0.984   5.312   0.965
 7881SOL     OW24541   5.646   3.560   4.525
 7881SOL    HW124542   5.577   3.628   4.501
 7881SOL    HW224543   5.607   3.468   4.520
 7882SOL     OW24544   1.646   2.792   3.132
 7882SOL    HW124545   1.729   2.793   3.077
 7882SOL    HW224546   1.567   2.768   3.075
 7883SOL     OW24547   1.523   6.949   1.139
 7883SOL    HW124548   1.598   7.013   1.124
 7883SOL    HW224549   1.441   7.000   1.168
 7884SOL     OW24550   1.815   3.822   3.673
 7884SOL    HW124551   1.913   3.805   3.662
 7884SOL    HW224552   1.794   3.837   3.770
 7885SOL     OW24553   6.331   6.753   2.067
 7885SOL    HW124554   6.380   6.667   2.084
 7885SOL    HW224555   6.285   6.747   1.979
 7886SOL     OW24556   4.188   4.236   1.008
 7886SOL    HW124557   4.144   4.325   0.999
 7886SOL    HW224558   4.166   4.197   1.098
 7887SOL     OW24559   3.471   2.432   5.519
 7887SOL    HW124560   3.567   2.448   5.493
 7887SOL    HW224561   3.412   2.455   5.442
 7888SOL     OW24562   0.112   0.566   5.308
 7888SOL    HW124563   0.203   0.587   5.271
 7888SOL    HW224564   0.114   0.478   5.354
 7889SOL     OW24565   0.599   4.896   0.164
 7889SOL    HW124566   0.692   4.871   0.136
 7889SOL    HW224567   0.598   4.914   0.262
 7890SOL     OW24568   0.636   3.604   4.134
 7890SOL    HW124569   0.705   3.532   4.145
 7890SOL    HW224570   0.550   3.574   4.175
 7891SOL     OW24571   1.463   3.997   4.708
 7891SOL    HW124572   1.391   4.065   4.694
 7891SOL    HW224573   1.523   4.027   4.782
 7892SOL     OW24574   1.765   1.905   4.082
 7892SOL    HW124575   1.684   1.961   4.101
 7892SOL    HW224576   1.750   1.852   3.999
 7893SOL     OW24577   6.088   0.152   2.087
 7893SOL    HW124578   6.117   0.106   2.171
 7893SOL    HW224579   6.046   0.086   2.025
 7894SOL     OW24580   2.976   0.729   1.455
 7894SOL    HW124581   3.074   0.709   1.446
 7894SOL    HW224582   2.951   0.728   1.552
 7895SOL     OW24583   4.850   6.804   5.037
 7895SOL    HW124584   4.788   6.817   4.960
 7895SOL    HW224585   4.811   6.738   5.101
 7896SOL     OW24586   5.517   3.158   0.964
 7896SOL    HW124587   5.506   3.212   0.881
 7896SOL    HW224588   5.462   3.075   0.957
 7897SOL     OW24589   3.644   2.500   1.205
 7897SOL    HW124590   3.584   2.566   1.251
 7897SOL    HW224591   3.603   2.409   1.211
 7898SOL     OW24592   3.930   0.280   3.478
 7898SOL    HW124593   3.956   0.376   3.484
 7898SOL    HW224594   3.860   0.260   3.546
 7899SOL     OW24595   5.809   6.917   1.606
 7899SOL    HW124596   5.762   6.836   1.642
 7899SOL    HW224597   5.767   7.000   1.645
 7900SOL     OW24598   0.817   5.087   1.576
 7900SOL    HW124599   0.848   5.124   1.664
 7900SOL    HW224600   0.872   5.008   1.551
 7901SOL     OW24601   5.141   1.025   6.517
 7901SOL    HW124602   5.206   1.027   6.441
 7901SOL    HW224603   5.152   1.107   6.573
 7902SOL     OW24604   6.115   6.081   3.223
 7902SOL    HW124605   6.037   6.055   3.167
 7902SOL    HW224606   6.144   6.003   3.279
 7903SOL     OW24607   4.502   1.956   2.593
 7903SOL    HW124608   4.600   1.938   2.589
 7903SOL    HW224609   4.464   1.920   2.678
 7904SOL     OW24610   5.499   7.014   3.053
 7904SOL    HW124611   5.534   0.012   2.961
 7904SOL    HW224612   5.461   6.922   3.056
 7905SOL     OW24613   5.385   2.370   0.027
 7905SOL    HW124614   5.389   2.301   6.976
 7905SOL    HW224615   5.344   2.331   0.109
 7906SOL     OW24616   0.806   5.915   0.830
 7906SOL    HW124617   0.748   5.942   0.908
 7906SOL    HW224618   0.782   5.970   0.750
 7907SOL     OW24619   6.553   1.490   3.783
 7907SOL    HW124620   6.594   1.527   3.700
 7907SOL    HW224621   6.622   1.437   3.833
 7908SOL     OW24622   0.774   1.293   6.073
 7908SOL    HW124623   0.823   1.376   6.048
 7908SOL    HW224624   0.678   1.301   6.044
 7909SOL     OW24625   4.638   4.271   3.786
 7909SOL    HW124626   4.673   4.197   3.843
 7909SOL    HW224627   4.669   4.259   3.692
 7910SOL     OW24628   2.042   3.081   0.186
 7910SOL    HW124629   2.034   2.995   0.236
 7910SOL    HW224630   2.091   3.149   0.242
 7911SOL     OW24631   1.073   5.023   0.952
 7911SOL    HW124632   0.976   5.043   0.935
 7911SOL    HW224633   1.081   4.942   1.009
 7912SOL     OW24634   6.091   4.586   1.283
 7912SOL    HW124635   6.028   4.647   1.233
 7912SOL    HW224636   6.167   4.640   1.319
 7913SOL     OW24637   1.678   3.759   2.174
 7913SOL    HW124638   1.593   3.766   2.122
 7913SOL    HW224639   1.740   3.696   2.128
 7914SOL     OW24640   6.847   4.685   0.994
 7914SOL    HW124641   6.904   4.631   0.932
 7914SOL    HW224642   6.806   4.761   0.943
 7915SOL     OW24643   4.922   2.203   2.469
 7915SOL    HW124644   4.895   2.256   2.549
 7915SOL    HW224645   4.958   2.114   2.498
 7916SOL     OW24646   0.193   6.366   5.743
 7916SOL    HW124647   0.246   6.333   5.822
 7916SOL    HW224648   0.249   6.429   5.689
 7917SOL     OW24649   3.962   3.164   5.731
 7917SOL    HW124650   4.045   3.204   5.692
 7917SOL    HW224651   3.886   3.228   5.720
 7918SOL     OW24652   6.607   1.370   4.405
 7918SOL    HW124653   6.537   1.344   4.339
 7918SOL    HW224654   6.565   1.419   4.481
 7919SOL     OW24655   1.345   4.848   2.944
 7919SOL    HW124656   1.350   4.752   2.972
 7919SOL    HW224657   1.436   4.888   2.949
 7920SOL     OW24658   6.256   6.605   1.297
 7920SOL    HW124659   6.293   6.649   1.216
 7920SOL    HW224660   6.157   6.597   1.289
 7921SOL     OW24661   5.462   5.961   2.247
 7921SOL    HW124662   5.378   5.990   2.202
 7921SOL    HW224663   5.497   5.879   2.202
 7922SOL     OW24664   0.571   6.214   6.941
 7922SOL    HW124665   0.604   6.146   7.006
 7922SOL    HW224666   0.471   6.219   6.945
 7923SOL     OW24667   4.070   1.130   6.473
 7923SOL    HW124668   3.980   1.173   6.460
 7923SOL    HW224669   4.071   1.041   6.427
 7924SOL     OW24670   4.823   0.138   1.474
 7924SOL    HW124671   4.753   0.208   1.490
 7924SOL    HW224672   4.783   0.047   1.488
 7925SOL     OW24673   0.737   0.061   0.246
 7925SOL    HW124674   0.827   0.097   0.270
 7925SOL    HW224675   0.721   0.074   0.148
 7926SOL     OW24676   5.113   1.566   6.014
 7926SOL    HW124677   5.211   1.567   5.995
 7926SOL    HW224678   5.067   1.634   5.957
 7927SOL     OW24679   4.703   6.804   2.515
 7927SOL    HW124680   4.618   6.856   2.516
 7927SOL    HW224681   4.761   6.836   2.440
 7928SOL     OW24682   1.004   1.973   3.876
 7928SOL    HW124683   0.953   2.020   3.804
 7928SOL    HW224684   0.994   2.024   3.962
 7929SOL     OW24685   3.730   3.365   6.017
 7929SOL    HW124686   3.785   3.376   5.934
 7929SOL    HW224687   3.686   3.451   6.040
 7930SOL     OW24688   4.582   4.930   5.984
 7930SOL    HW124689   4.652   5.001   5.989
 7930SOL    HW224690   4.588   4.870   6.064
 7931SOL     OW24691   3.329   3.318   0.287
 7931SOL    HW124692   3.285   3.232   0.311
 7931SOL    HW224693   3.427   3.303   0.274
 7932SOL     OW24694   1.034   5.649   6.360
 7932SOL    HW124695   1.012   5.667   6.264
 7932SOL    HW224696   1.026   5.551   6.377
 7933SOL     OW24697   6.537   0.806   6.091
 7933SOL    HW124698   6.558   0.709   6.103
 7933SOL    HW224699   6.568   0.857   6.171
 7934SOL     OW24700   1.448   5.312   6.580
 7934SOL    HW124701   1.447   5.240   6.649
 7934SOL    HW224702   1.389   5.285   6.503
 7935SOL     OW24703   5.803   6.329   1.307
 7935SOL    HW124704   5.819   6.255   1.373
 7935SOL    HW224705   5.830   6.299   1.216
 7936SOL     OW24706   3.239   5.982   2.920
 7936SOL    HW124707   3.272   5.888   2.925
 7936SOL    HW224708   3.189   6.005   3.003
 7937SOL     OW24709   0.130   5.659   4.333
 7937SOL    HW124710   0.053   5.605   4.366
 7937SOL    HW224711   0.163   5.620   4.247
 7938SOL     OW24712   6.497   6.411   4.524
 7938SOL    HW124713   6.526   6.507   4.519
 7938SOL    HW224714   6.492   6.383   4.620
 7939SOL     OW24715   1.815   1.995   5.927
 7939SOL    HW124716   1.849   1.931   5.858
 7939SOL    HW224717   1.821   1.952   6.017
 7940SOL     OW24718   2.406   2.533   2.481
 7940SOL    HW124719   2.351   2.467   2.430
 7940SOL    HW224720   2.471   2.485   2.539
 7941SOL     OW24721   5.633   6.150   2.359
 7941SOL    HW124722   5.569   6.210   2.407
 7941SOL    HW224723   5.585   6.107   2.282
 7942SOL     OW24724   0.276   4.079   2.848
 7942SOL    HW124725   0.206   4.068   2.777
 7942SOL    HW224726   0.366   4.083   2.806
 7943SOL     OW24727   0.577   4.755   6.107
 7943SOL    HW124728   0.663   4.778   6.062
 7943SOL    HW224729   0.580   4.787   6.202
 7944SOL     OW24730   0.797   2.692   0.491
 7944SOL    HW124731   0.816   2.784   0.458
 7944SOL    HW224732   0.879   2.635   0.480
 7945SOL     OW24733   6.524   5.628   1.745
 7945SOL    HW124734   6.508   5.718   1.786
 7945SOL    HW224735   6.506   5.633   1.646
 7946SOL     OW24736   3.398   0.514   5.315
 7946SOL    HW124737   3.412   0.612   5.323
 7946SOL    HW224738   3.320   0.487   5.371
 7947SOL     OW24739   2.848   1.506   5.589
 7947SOL    HW124740   2.853   1.566   5.509
 7947SOL    HW224741   2.887   1.553   5.668
 7948SOL     OW24742   0.920   6.334   0.845
 7948SOL    HW124743   0.977   6.313   0.766
 7948SOL    HW224744   0.831   6.289   0.835
 7949SOL     OW24745   4.524   4.000   6.000
 7949SOL    HW124746   4.598   3.949   5.955
 7949SOL    HW224747   4.449   3.937   6.020
 7950SOL     OW24748   4.780   5.486   4.543
 7950SOL    HW124749   4.750   5.517   4.633
 7950SOL    HW224750   4.880   5.486   4.538
 7951SOL     OW24751   1.884   4.595   2.137
 7951SOL    HW124752   1.833   4.521   2.182
 7951SOL    HW224753   1.852   4.683   2.171
 7952SOL     OW24754   0.337   3.074   6.866
 7952SOL    HW124755   0.391   3.105   6.788
 7952SOL    HW224756   0.371   3.117   6.950
 7953SOL     OW24757   4.254   2.342   2.437
 7953SOL    HW124758   4.243   2.244   2.421
 7953SOL    HW224759   4.176   2.391   2.397
 7954SOL     OW24760   2.866   4.237   5.972
 7954SOL    HW124761   2.826   4.158   6.019
 7954SOL    HW224762   2.835   4.237   5.876
 7955SOL     OW24763   2.427   1.055   6.381
 7955SOL    HW124764   2.486   1.046   6.461
 7955SOL    HW224765   2.337   1.087   6.409
 7956SOL     OW24766   5.262   0.454   1.876
 7956SOL    HW124767   5.241   0.507   1.794
 7956SOL    HW224768   5.201   0.483   1.950
 7957SOL     OW24769   1.338   0.645   0.489
 7957SOL    HW124770   1.437   0.647   0.476
 7957SOL    HW224771   1.301   0.557   0.460
 7958SOL     OW24772   4.568   4.995   6.564
 7958SOL    HW124773   4.632   4.992   6.488
 7958SOL    HW224774   4.477   4.965   6.532
 7959SOL     OW24775   5.206   6.585   1.387
 7959SOL    HW124776   5.131   6.650   1.401
 7959SOL    HW224777   5.175   6.493   1.410
 7960SOL     OW24778   2.142   0.739   5.893
 7960SOL    HW124779   2.218   0.727   5.829
 7960SOL    HW224780   2.176   0.737   5.987
 7961SOL     OW24781   0.070   1.072   0.767
 7961SOL    HW124782   0.161   1.111   0.755
 7961SOL    HW224783   0.059   0.995   0.705
 7962SOL     OW24784   1.176   0.945   5.404
 7962SOL    HW124785   1.076   0.945   5.407
 7962SOL    HW224786   1.212   0.903   5.487
 7963SOL     OW24787   5.584   6.019   4.599
 7963SOL    HW124788   5.601   6.114   4.622
 7963SOL    HW224789   5.511   5.983   4.657
 7964SOL     OW24790   6.968   3.907   2.825
 7964SOL    HW124791   0.001   3.915   2.910
 7964SOL    HW224792   6.878   3.869   2.847
 7965SOL     OW24793   3.956   2.215   5.962
 7965SOL    HW124794   4.015   2.282   5.917
 7965SOL    HW224795   3.889   2.180   5.895
 7966SOL     OW24796   3.057   2.711   5.569
 7966SOL    HW124797   3.008   2.755   5.644
 7966SOL    HW224798   3.154   2.701   5.593
 7967SOL     OW24799   3.343   6.239   2.029
 7967SOL    HW124800   3.391   6.325   2.013
 7967SOL    HW224801   3.407   6.163   2.015
 7968SOL     OW24802   6.737   2.310   3.992
 7968SOL    HW124803   6.772   2.224   3.955
 7968SOL    HW224804   6.812   2.361   4.035
 7969SOL     OW24805   5.502   5.722   0.931
 7969SOL    HW124806   5.539   5.647   0.876
 7969SOL    HW224807   5.412   5.697   0.966
 7970SOL     OW24808   6.559   2.770   1.979
 7970SOL    HW124809   6.556   2.819   1.891
 7970SOL    HW224810   6.466   2.751   2.010
 7971SOL     OW24811   3.248   1.926   1.119
 7971SOL    HW124812   3.170   1.870   1.091
 7971SOL    HW224813   3.317   1.927   1.046
 7972SOL     OW24814   2.558   2.806   0.609
 7972SOL    HW124815   2.624   2.873   0.645
 7972SOL    HW224816   2.512   2.760   0.684
 7973SOL     OW24817   4.322   4.700   4.377
 7973SOL    HW124818   4.348   4.796   4.379
 7973SOL    HW224819   4.222   4.692   4.375
 7974SOL     OW24820   5.983   1.170   5.486
 7974SOL    HW124821   6.038   1.091   5.459
 7974SOL    HW224822   5.888   1.142   5.497
 7975SOL     OW24823   6.501   1.000   1.560
 7975SOL    HW124824   6.598   0.976   1.565
 7975SOL    HW224825   6.449   0.940   1.621
 7976SOL     OW24826   1.239   0.428   5.868
 7976SOL    HW124827   1.196   0.511   5.901
 7976SOL    HW224828   1.176   0.351   5.878
 7977SOL     OW24829   4.426   5.800   2.992
 7977SOL    HW124830   4.470   5.739   3.059
 7977SOL    HW224831   4.359   5.857   3.039
 7978SOL     OW24832   6.483   2.100   6.087
 7978SOL    HW124833   6.389   2.084   6.116
 7978SOL    HW224834   6.539   2.122   6.167
 7979SOL     OW24835   3.636   5.157   5.362
 7979SOL    HW124836   3.642   5.077   5.423
 7979SOL    HW224837   3.638   5.241   5.416
 7980SOL     OW24838   3.455   5.511   6.270
 7980SOL    HW124839   3.401   5.430   6.248
 7980SOL    HW224840   3.416   5.592   6.226
 7981SOL     OW24841   0.809   4.975   1.195
 7981SOL    HW124842   0.897   4.940   1.228
 7981SOL    HW224843   0.825   5.032   1.115
 7982SOL     OW24844   1.393   0.980   0.123
 7982SOL    HW124845   1.450   0.934   0.054
 7982SOL    HW224846   1.451   1.007   0.200
 7983SOL     OW24847   5.861   2.537   0.178
 7983SOL    HW124848   5.850   2.604   0.251
 7983SOL    HW224849   5.790   2.467   0.186
 7984SOL     OW24850   1.121   1.123   0.627
 7984SOL    HW124851   1.179   1.045   0.604
 7984SOL    HW224852   1.172   1.189   0.682
 7985SOL     OW24853   2.867   1.477   4.533
 7985SOL    HW124854   2.889   1.532   4.453
 7985SOL    HW224855   2.861   1.535   4.614
 7986SOL     OW24856   2.599   1.095   6.164
 7986SOL    HW124857   2.651   1.173   6.197
 7986SOL    HW224858   2.517   1.084   6.219
 7987SOL     OW24859   1.744   2.399   0.081
 7987SOL    HW124860   1.789   2.315   0.053
 7987SOL    HW224861   1.701   2.386   0.170
 7988SOL     OW24862   0.947   1.807   2.951
 7988SOL    HW124863   0.970   1.759   2.866
 7988SOL    HW224864   0.892   1.748   3.009
 7989SOL     OW24865   2.597   3.314   0.012
 7989SOL    HW124866   2.561   3.405   0.030
 7989SOL    HW224867   2.620   3.305   6.936
 7990SOL     OW24868   1.687   4.968   5.081
 7990SOL    HW124869   1.705   4.872   5.103
 7990SOL    HW224870   1.592   4.978   5.050
 7991SOL     OW24871   6.327   0.853   3.511
 7991SOL    HW124872   6.240   0.880   3.551
 7991SOL    HW224873   6.388   0.932   3.506
 7992SOL     OW24874   1.040   0.557   0.291
 7992SOL    HW124875   1.122   0.592   0.246
 7992SOL    HW224876   1.005   0.478   0.240
 7993SOL     OW24877   6.785   0.042   1.103
 7993SOL    HW124878   6.826   6.975   1.129
 7993SOL    HW224879   6.856   0.112   1.101
 7994SOL     OW24880   3.718   6.898   3.537
 7994SOL    HW124881   3.795   6.943   3.581
 7994SOL    HW224882   3.638   6.958   3.541
 7995SOL     OW24883   6.166   5.433   3.493
 7995SOL    HW124884   6.188   5.440   3.590
 7995SOL    HW224885   6.247   5.457   3.439
 7996SOL     OW24886   3.446   6.544   4.238
 7996SOL    HW124887   3.509   6.467   4.239
 7996SOL    HW224888   3.490   6.623   4.195
 7997SOL     OW24889   0.332   1.336   1.011
 7997SOL    HW124890   0.356   1.368   1.102
 7997SOL    HW224891   0.364   1.242   0.999
 7998SOL     OW24892   2.660   0.427   0.527
 7998SOL    HW124893   2.620   0.422   0.619
 7998SOL    HW224894   2.611   0.364   0.467
 7999SOL     OW24895   1.026   0.912   6.219
 7999SOL    HW124896   1.016   0.892   6.121
 7999SOL    HW224897   0.997   1.006   6.236
 8000SOL     OW24898   5.065   0.227   6.687
 8000SOL    HW124899   5.003   0.298   6.719
 8000SOL    HW224900   5.148   0.227   6.743
 8001SOL     OW24901   4.284   6.455   1.602
 8001SOL    HW124902   4.219   6.421   1.534
 8001SOL    HW224903   4.330   6.537   1.567
 8002SOL     OW24904   1.834   0.716   6.621
 8002SOL    HW124905   1.826   0.806   6.662
 8002SOL    HW224906   1.754   0.697   6.564
 8003SOL     OW24907   2.816   5.511   2.069
 8003SOL    HW124908   2.890   5.444   2.066
 8003SOL    HW224909   2.762   5.498   2.152
 8004SOL     OW24910   2.273   2.975   3.011
 8004SOL    HW124911   2.370   2.985   3.032
 8004SOL    HW224912   2.231   2.912   3.077
 8005SOL     OW24913   3.067   1.038   3.606
 8005SOL    HW124914   3.074   0.991   3.694
 8005SOL    HW224915   3.158   1.065   3.576
 8006SOL     OW24916   2.076   6.309   5.517
 8006SOL    HW124917   2.126   6.361   5.447
 8006SOL    HW224918   2.004   6.366   5.555
 8007SOL     OW24919   6.111   1.439   5.831
 8007SOL    HW124920   6.104   1.464   5.734
 8007SOL    HW224921   6.208   1.429   5.855
 8008SOL     OW24922   3.951   5.913   6.543
 8008SOL    HW124923   3.928   6.010   6.557
 8008SOL    HW224924   3.891   5.875   6.473
 8009SOL     OW24925   5.706   0.809   1.302
 8009SOL    HW124926   5.642   0.748   1.348
 8009SOL    HW224927   5.711   0.896   1.352
 8010SOL     OW24928   2.073   1.471   5.267
 8010SOL    HW124929   2.083   1.372   5.256
 8010SOL    HW224930   1.980   1.498   5.241
 8011SOL     OW24931   3.055   2.585   1.074
 8011SOL    HW124932   2.986   2.567   1.003
 8011SOL    HW224933   3.013   2.633   1.151
 8012SOL     OW24934   2.251   3.545   0.057
 8012SOL    HW124935   2.172   3.547   7.017
 8012SOL    HW224936   2.333   3.576   0.008
 8013SOL     OW24937   1.464   5.507   3.077
 8013SOL    HW124938   1.410   5.580   3.035
 8013SOL    HW224939   1.524   5.548   3.147
 8014SOL     OW24940   1.158   6.442   4.496
 8014SOL    HW124941   1.172   6.348   4.463
 8014SOL    HW224942   1.216   6.504   4.443
 8015SOL     OW24943   2.552   0.243   6.145
 8015SOL    HW124944   2.540   0.300   6.226
 8015SOL    HW224945   2.476   0.178   6.139
 8016SOL     OW24946   3.957   0.558   5.815
 8016SOL    HW124947   3.971   0.470   5.859
 8016SOL    HW224948   3.873   0.555   5.761
 8017SOL     OW24949   5.596   0.087   0.481
 8017SOL    HW124950   5.591   0.002   0.428
 8017SOL    HW224951   5.513   0.140   0.467
 8018SOL     OW24952   3.324   2.153   0.136
 8018SOL    HW124953   3.409   2.146   0.082
 8018SOL    HW224954   3.316   2.074   0.196
 8019SOL     OW24955   2.533   4.855   0.932
 8019SOL    HW124956   2.622   4.816   0.908
 8019SOL    HW224957   2.504   4.917   0.859
 8020SOL     OW24958   6.051   0.262   6.925
 8020SOL    HW124959   5.987   0.320   6.874
 8020SOL    HW224960   6.005   0.226   7.007
 8021SOL     OW24961   1.192   2.932   0.864
 8021SOL    HW124962   1.221   2.868   0.794
 8021SOL    HW224963   1.105   2.902   0.904
 8022SOL     OW24964   5.763   0.843   2.181
 8022SOL    HW124965   5.732   0.784   2.106
 8022SOL    HW224966   5.817   0.789   2.246
 8023SOL     OW24967   6.447   4.637   2.871
 8023SOL    HW124968   6.430   4.716   2.930
 8023SOL    HW224969   6.517   4.661   2.803
 8024SOL     OW24970   1.198   5.074   5.399
 8024SOL    HW124971   1.189   4.989   5.348
 8024SOL    HW224972   1.272   5.065   5.466
 8025SOL     OW24973   2.437   5.746   0.976
 8025SOL    HW124974   2.347   5.777   0.946
 8025SOL    HW224975   2.479   5.815   1.035
 8026SOL     OW24976   6.928   4.183   0.349
 8026SOL    HW124977   6.972   4.094   0.342
 8026SOL    HW224978   6.954   4.240   0.272
 8027SOL     OW24979   3.861   0.151   5.377
 8027SOL    HW124980   3.919   0.146   5.458
 8027SOL    HW224981   3.913   0.118   5.298
 8028SOL     OW24982   4.200   5.703   5.705
 8028SOL    HW124983   4.126   5.764   5.678
 8028SOL    HW224984   4.287   5.740   5.674
 8029SOL     OW24985   5.572   3.183   1.497
 8029SOL    HW124986   5.627   3.123   1.556
 8029SOL    HW224987   5.626   3.263   1.473
 8030SOL     OW24988   5.302   5.072   0.359
 8030SOL    HW124989   5.271   5.070   0.263
 8030SOL    HW224990   5.240   5.017   0.415
 8031SOL     OW24991   6.261   6.805   2.354
 8031SOL    HW124992   6.285   6.794   2.257
 8031SOL    HW224993   6.342   6.835   2.405
 8032SOL     OW24994   6.308   4.589   1.527
 8032SOL    HW124995   6.340   4.519   1.591
 8032SOL    HW224996   6.386   4.647   1.500
 8033SOL     OW24997   4.592   2.384   6.906
 8033SOL    HW124998   4.504   2.347   6.936
 8033SOL    HW224999   4.661   2.311   6.908
 8034SOL     OW25000   4.323   0.723   5.193
 8034SOL    HW125001   4.398   0.671   5.234
 8034SOL    HW225002   4.336   0.728   5.094
 8035SOL     OW25003   5.300   1.376   2.482
 8035SOL    HW125004   5.351   1.430   2.549
 8035SOL    HW225005   5.307   1.419   2.392
 8036SOL     OW25006   6.663   4.163   4.108
 8036SOL    HW125007   6.695   4.135   4.017
 8036SOL    HW225008   6.574   4.208   4.099
 8037SOL     OW25009   2.217   3.306   6.776
 8037SOL    HW125010   2.177   3.382   6.828
 8037SOL    HW225011   2.229   3.227   6.836
 8038SOL     OW25012   4.696   0.536   2.302
 8038SOL    HW125013   4.650   0.509   2.387
 8038SOL    HW225014   4.765   0.605   2.323
 8039SOL     OW25015   0.287   1.430   5.326
 8039SOL    HW125016   0.348   1.399   5.253
 8039SOL    HW225017   0.192   1.414   5.300
 8040SOL     OW25018   1.439   5.582   0.369
 8040SOL    HW125019   1.536   5.586   0.343
 8040SOL    HW225020   1.430   5.543   0.460
 8041SOL     OW25021   3.233   0.783   3.111
 8041SOL    HW125022   3.232   0.872   3.066
 8041SOL    HW225023   3.279   0.716   3.053
 8042SOL     OW25024   3.914   2.921   5.171
 8042SOL    HW125025   3.917   2.828   5.134
 8042SOL    HW225026   3.836   2.970   5.130
 8043SOL     OW25027   3.665   6.143   0.826
 8043SOL    HW125028   3.693   6.239   0.816
 8043SOL    HW225029   3.573   6.131   0.789
 8044SOL     OW25030   4.900   3.010   0.692
 8044SOL    HW125031   4.825   3.060   0.647
 8044SOL    HW225032   4.946   3.070   0.757
 8045SOL     OW25033   6.426   2.146   2.196
 8045SOL    HW125034   6.509   2.100   2.229
 8045SOL    HW225035   6.413   2.232   2.246
 8046SOL     OW25036   0.939   4.311   1.731
 8046SOL    HW125037   0.905   4.222   1.700
 8046SOL    HW225038   0.926   4.319   1.830
 8047SOL     OW25039   3.981   5.588   6.141
 8047SOL    HW125040   4.073   5.612   6.108
 8047SOL    HW225041   3.949   5.507   6.091
 8048SOL     OW25042   3.794   1.401   0.135
 8048SOL    HW125043   3.759   1.404   0.229
 8048SOL    HW225044   3.754   1.475   0.082
 8049SOL     OW25045   0.834   0.140   6.748
 8049SOL    HW125046   0.821   0.108   6.842
 8049SOL    HW225047   0.747   0.135   6.698
 8050SOL     OW25048   2.091   3.696   3.369
 8050SOL    HW125049   2.092   3.599   3.347
 8050SOL    HW225050   2.124   3.749   3.291
 8051SOL     OW25051   4.409   6.304   4.151
 8051SOL    HW125052   4.370   6.381   4.200
 8051SOL    HW225053   4.505   6.292   4.178
 8052SOL     OW25054   3.038   1.755   1.017
 8052SOL    HW125055   3.035   1.730   0.920
 8052SOL    HW225056   3.049   1.672   1.072
 8053SOL     OW25057   3.797   2.945   4.720
 8053SOL    HW125058   3.736   2.880   4.764
 8053SOL    HW225059   3.816   3.021   4.783
 8054SOL     OW25060   6.540   4.335   4.869
 8054SOL    HW125061   6.538   4.417   4.927
 8054SOL    HW225062   6.564   4.255   4.925
 8055SOL     OW25063   0.356   0.431   5.716
 8055SOL    HW125064   0.392   0.493   5.786
 8055SOL    HW225065   0.429   0.409   5.651
 8056SOL     OW25066   2.815   0.630   4.864
 8056SOL    HW125067   2.877   0.680   4.804
 8056SOL    HW225068   2.855   0.623   4.956
 8057SOL     OW25069   2.664   1.937   3.194
 8057SOL    HW125070   2.596   1.865   3.184
 8057SOL    HW225071   2.635   2.019   3.144
 8058SOL     OW25072   3.110   0.109   3.377
 8058SOL    HW125073   3.191   0.073   3.332
 8058SOL    HW225074   3.034   0.044   3.367
 8059SOL     OW25075   2.564   2.031   4.388
 8059SOL    HW125076   2.588   2.090   4.466
 8059SOL    HW225077   2.487   1.972   4.413
 8060SOL     OW25078   6.659   2.204   6.308
 8060SOL    HW125079   6.601   2.265   6.360
 8060SOL    HW225080   6.707   2.256   6.236
 8061SOL     OW25081   6.891   0.094   2.695
 8061SOL    HW125082   6.866   0.123   2.602
 8061SOL    HW225083   6.859   0.001   2.711
 8062SOL     OW25084   3.441   5.055   4.358
 8062SOL    HW125085   3.375   5.130   4.351
 8062SOL    HW225086   3.428   5.007   4.445
 8063SOL     OW25087   2.461   1.941   2.762
 8063SOL    HW125088   2.501   1.856   2.797
 8063SOL    HW225089   2.373   1.958   2.806
 8064SOL     OW25090   6.900   2.765   0.636
 8064SOL    HW125091   6.853   2.852   0.624
 8064SOL    HW225092   6.841   2.690   0.604
 8065SOL     OW25093   2.598   5.437   3.669
 8065SOL    HW125094   2.524   5.399   3.724
 8065SOL    HW225095   2.634   5.519   3.714
 8066SOL     OW25096   0.428   1.103   5.526
 8066SOL    HW125097   0.433   1.146   5.436
 8066SOL    HW225098   0.360   1.030   5.525
 8067SOL     OW25099   5.140   2.887   3.045
 8067SOL    HW125100   5.172   2.944   3.120
 8067SOL    HW225101   5.131   2.941   2.961
 8068SOL     OW25102   0.046   4.762   1.304
 8068SOL    HW125103   0.056   4.685   1.368
 8068SOL    HW225104   0.123   4.762   1.240
 8069SOL     OW25105   2.353   5.253   1.061
 8069SOL    HW125106   2.420   5.182   1.079
 8069SOL    HW225107   2.392   5.342   1.084
 8070SOL     OW25108   4.349   3.180   0.795
 8070SOL    HW125109   4.396   3.256   0.749
 8070SOL    HW225110   4.338   3.104   0.731
 8071SOL     OW25111   3.456   6.502   5.145
 8071SOL    HW125112   3.412   6.592   5.152
 8071SOL    HW225113   3.474   6.481   5.049
 8072SOL     OW25114   3.799   1.210   0.613
 8072SOL    HW125115   3.848   1.264   0.544
 8072SOL    HW225116   3.864   1.163   0.672
 8073SOL     OW25117   2.994   5.515   4.815
 8073SOL    HW125118   2.995   5.546   4.720
 8073SOL    HW225119   3.082   5.471   4.836
 8074SOL     OW25120   3.022   2.920   0.614
 8074SOL    HW125121   3.087   2.843   0.619
 8074SOL    HW225122   3.044   2.986   0.686
 8075SOL     OW25123   6.532   6.865   0.606
 8075SOL    HW125124   6.519   6.964   0.603
 8075SOL    HW225125   6.452   6.820   0.564
 8076SOL     OW25126   6.099   0.928   5.410
 8076SOL    HW125127   6.062   0.841   5.442
 8076SOL    HW225128   6.194   0.915   5.380
 8077SOL     OW25129   3.648   6.291   2.484
 8077SOL    HW125130   3.684   6.372   2.530
 8077SOL    HW225131   3.723   6.229   2.463
 8078SOL     OW25132   6.935   1.901   0.379
 8078SOL    HW125133   6.969   1.818   0.422
 8078SOL    HW225134   6.893   1.878   0.291
 8079SOL     OW25135   6.449   1.201   3.732
 8079SOL    HW125136   6.472   1.203   3.634
 8079SOL    HW225137   6.410   1.289   3.759
 8080SOL     OW25138   0.634   2.947   2.460
 8080SOL    HW125139   0.732   2.943   2.443
 8080SOL    HW225140   0.589   2.872   2.412
 8081SOL     OW25141   6.394   5.651   6.115
 8081SOL    HW125142   6.444   5.671   6.198
 8081SOL    HW225143   6.345   5.733   6.084
 8082SOL     OW25144   4.059   0.930   1.911
 8082SOL    HW125145   4.139   0.909   1.855
 8082SOL    HW225146   4.080   0.912   2.007
 8083SOL     OW25147   4.917   3.110   3.156
 8083SOL    HW125148   4.903   3.188   3.096
 8083SOL    HW225149   4.897   3.025   3.107
 8084SOL     OW25150   3.760   6.611   0.010
 8084SOL    HW125151   3.766   6.554   0.092
 8084SOL    HW225152   3.755   6.553   6.950
 8085SOL     OW25153   5.901   6.707   2.378
 8085SOL    HW125154   5.863   6.733   2.289
 8085SOL    HW225155   5.872   6.774   2.447
 8086SOL     OW25156   6.778   0.573   2.450
 8086SOL    HW125157   6.846   0.514   2.407
 8086SOL    HW225158   6.711   0.601   2.382
 8087SOL     OW25159   2.128   0.103   7.016
 8087SOL    HW125160   2.150   0.155   6.933
 8087SOL    HW225161   2.164   0.010   7.008
 8088SOL     OW25162   6.274   1.303   1.711
 8088SOL    HW125163   6.259   1.213   1.752
 8088SOL    HW225164   6.339   1.296   1.636
 8089SOL     OW25165   6.042   2.756   0.583
 8089SOL    HW125166   6.013   2.765   0.678
 8089SOL    HW225167   6.139   2.731   0.580
 8090SOL     OW25168   3.824   1.230   6.914
 8090SOL    HW125169   3.823   1.266   6.821
 8090SOL    HW225170   3.816   1.306   6.979
 8091SOL     OW25171   1.874   3.903   5.056
 8091SOL    HW125172   1.837   3.905   5.149
 8091SOL    HW225173   1.961   3.852   5.056
 8092SOL     OW25174   6.062   2.000   5.435
 8092SOL    HW125175   6.088   2.075   5.496
 8092SOL    HW225176   6.012   1.931   5.488
 8093SOL     OW25177   3.459   4.942   2.961
 8093SOL    HW125178   3.392   4.949   3.035
 8093SOL    HW225179   3.551   4.936   2.999
 8094SOL     OW25180   0.585   3.834   4.606
 8094SOL    HW125181   0.529   3.848   4.524
 8094SOL    HW225182   0.575   3.740   4.638
 8095SOL     OW25183   0.355   4.626   4.511
 8095SOL    HW125184   0.407   4.605   4.594
 8095SOL    HW225185   0.286   4.555   4.496
 8096SOL     OW25186   2.084   6.822   3.014
 8096SOL    HW125187   2.034   6.870   2.941
 8096SOL    HW225188   2.182   6.830   2.998
 8097SOL     OW25189   3.977   6.774   4.618
 8097SOL    HW125190   4.070   6.775   4.583
 8097SOL    HW225191   3.938   6.866   4.611
 8098SOL     OW25192   1.823   6.495   3.335
 8098SOL    HW125193   1.869   6.563   3.277
 8098SOL    HW225194   1.733   6.474   3.296
 8099SOL     OW25195   4.130   5.776   4.918
 8099SOL    HW125196   4.140   5.779   5.017
 8099SOL    HW225197   4.186   5.848   4.876
 8100SOL     OW25198   0.309   0.123   6.799
 8100SOL    HW125199   0.342   0.117   6.705
 8100SOL    HW225200   0.227   0.180   6.801
 8101SOL     OW25201   1.891   6.014   2.173
 8101SOL    HW125202   1.991   6.012   2.165
 8101SOL    HW225203   1.863   5.957   2.250
 8102SOL     OW25204   0.608   3.762   3.490
 8102SOL    HW125205   0.602   3.693   3.562
 8102SOL    HW225206   0.562   3.846   3.520
 8103SOL     OW25207   3.161   0.059   1.667
 8103SOL    HW125208   3.233   7.019   1.634
 8103SOL    HW225209   3.122   0.109   1.590
 8104SOL     OW25210   2.075   0.043   5.915
 8104SOL    HW125211   2.110   6.993   5.853
 8104SOL    HW225212   2.114   0.029   6.007
 8105SOL     OW25213   0.651   3.073   3.082
 8105SOL    HW125214   0.570   3.015   3.074
 8105SOL    HW225215   0.723   3.024   3.132
 8106SOL     OW25216   3.061   6.066   3.133
 8106SOL    HW125217   3.052   6.011   3.215
 8106SOL    HW225218   3.137   6.131   3.144
 8107SOL     OW25219   1.139   4.936   4.390
 8107SOL    HW125220   1.175   4.877   4.462
 8107SOL    HW225221   1.167   4.900   4.301
 8108SOL     OW25222   6.122   2.763   5.879
 8108SOL    HW125223   6.207   2.762   5.931
 8108SOL    HW225224   6.047   2.735   5.938
 8109SOL     OW25225   0.411   4.225   5.683
 8109SOL    HW125226   0.469   4.143   5.690
 8109SOL    HW225227   0.342   4.223   5.755
 8110SOL     OW25228   4.230   6.163   2.335
 8110SOL    HW125229   4.196   6.238   2.278
 8110SOL    HW225230   4.162   6.090   2.336
 8111SOL     OW25231   5.177   1.406   4.302
 8111SOL    HW125232   5.094   1.431   4.253
 8111SOL    HW225233   5.206   1.483   4.359
 8112SOL     OW25234   2.596   2.244   4.567
 8112SOL    HW125235   2.656   2.275   4.641
 8112SOL    HW225236   2.518   2.306   4.559
 8113SOL     OW25237   1.753   3.490   0.267
 8113SOL    HW125238   1.841   3.451   0.241
 8113SOL    HW225239   1.760   3.590   0.267
 8114SOL     OW25240   1.456   4.330   3.001
 8114SOL    HW125241   1.525   4.260   2.983
 8114SOL    HW225242   1.368   4.301   2.964
 8115SOL     OW25243   3.724   0.285   6.772
 8115SOL    HW125244   3.806   0.324   6.731
 8115SOL    HW225245   3.649   0.350   6.767
 8116SOL     OW25246   4.416   4.553   6.889
 8116SOL    HW125247   4.470   4.514   6.963
 8116SOL    HW225248   4.325   4.512   6.889
 8117SOL     OW25249   2.083   6.859   3.708
 8117SOL    HW125250   2.007   6.912   3.669
 8117SOL    HW225251   2.164   6.871   3.651
 8118SOL     OW25252   5.127   4.369   0.126
 8118SOL    HW125253   5.185   4.449   0.143
 8118SOL    HW225254   5.056   4.364   0.195
 8119SOL     OW25255   5.348   5.592   6.658
 8119SOL    HW125256   5.269   5.647   6.685
 8119SOL    HW225257   5.336   5.562   6.563
 8120SOL     OW25258   2.863   5.019   1.028
 8120SOL    HW125259   2.870   4.921   1.006
 8120SOL    HW225260   2.859   5.030   1.127
 8121SOL     OW25261   7.014   4.905   2.349
 8121SOL    HW125262   0.072   4.851   2.318
 8121SOL    HW225263   6.930   4.852   2.334
 8122SOL     OW25264   0.374   5.105   3.614
 8122SOL    HW125265   0.450   5.041   3.612
 8122SOL    HW225266   0.382   5.169   3.538
 8123SOL     OW25267   6.967   1.979   6.827
 8123SOL    HW125268   6.868   1.973   6.810
 8123SOL    HW225269   6.983   2.011   6.920
 8124SOL     OW25270   5.435   6.175   1.767
 8124SOL    HW125271   5.443   6.076   1.769
 8124SOL    HW225272   5.468   6.210   1.679
 8125SOL     OW25273   1.408   1.585   2.969
 8125SOL    HW125274   1.335   1.614   2.908
 8125SOL    HW225275   1.418   1.485   2.965
 8126SOL     OW25276   4.790   4.103   2.887
 8126SOL    HW125277   4.877   4.144   2.857
 8126SOL    HW225278   4.717   4.134   2.827
 8127SOL     OW25279   2.644   4.524   6.564
 8127SOL    HW125280   2.643   4.621   6.541
 8127SOL    HW225281   2.687   4.472   6.490
 8128SOL     OW25282   2.963   2.126   2.270
 8128SOL    HW125283   2.956   2.193   2.196
 8128SOL    HW225284   2.921   2.164   2.352
 8129SOL     OW25285   4.032   0.866   6.383
 8129SOL    HW125286   4.094   0.793   6.354
 8129SOL    HW225287   3.953   0.868   6.322
 8130SOL     OW25288   0.474   3.952   6.704
 8130SOL    HW125289   0.513   4.038   6.671
 8130SOL    HW225290   0.408   3.917   6.638
 8131SOL     OW25291   2.520   1.856   1.406
 8131SOL    HW125292   2.447   1.876   1.340
 8131SOL    HW225293   2.608   1.883   1.366
 8132SOL     OW25294   5.999   6.974   6.003
 8132SOL    HW125295   6.008   0.015   6.082
 8132SOL    HW225296   6.019   0.004   5.919
 8133SOL     OW25297   3.442   5.876   1.398
 8133SOL    HW125298   3.359   5.902   1.448
 8133SOL    HW225299   3.499   5.818   1.456
 8134SOL     OW25300   6.804   2.687   5.705
 8134SOL    HW125301   6.866   2.754   5.664
 8134SOL    HW225302   6.788   2.612   5.641
 8135SOL     OW25303   3.008   6.480   1.528
 8135SOL    HW125304   2.954   6.558   1.560
 8135SOL    HW225305   2.953   6.424   1.467
 8136SOL     OW25306   4.600   5.690   3.177
 8136SOL    HW125307   4.539   5.729   3.246
 8136SOL    HW225308   4.641   5.606   3.212
 8137SOL     OW25309   3.455   2.003   5.047
 8137SOL    HW125310   3.418   2.042   4.962
 8137SOL    HW225311   3.454   2.073   5.118
 8138SOL     OW25312   4.913   0.778   0.776
 8138SOL    HW125313   4.914   0.823   0.865
 8138SOL    HW225314   4.958   0.690   0.782
 8139SOL     OW25315   0.223   1.359   2.288
 8139SOL    HW125316   0.172   1.292   2.341
 8139SOL    HW225317   0.321   1.347   2.304
 8140SOL     OW25318   5.415   0.580   0.013
 8140SOL    HW125319   5.438   0.543   0.103
 8140SOL    HW225320   5.316   0.588   0.004
 8141SOL     OW25321   4.266   6.344   4.475
 8141SOL    HW125322   4.348   6.288   4.485
 8141SOL    HW225323   4.278   6.429   4.526
 8142SOL     OW25324   0.401   5.275   0.347
 8142SOL    HW125325   0.379   5.326   0.430
 8142SOL    HW225326   0.328   5.209   0.329
 8143SOL     OW25327   5.585   4.531   1.190
 8143SOL    HW125328   5.633   4.616   1.211
 8143SOL    HW225329   5.652   4.460   1.166
 8144SOL     OW25330   6.181   5.834   6.541
 8144SOL    HW125331   6.162   5.851   6.638
 8144SOL    HW225332   6.279   5.837   6.525
 8145SOL     OW25333   5.693   5.755   1.808
 8145SOL    HW125334   5.714   5.684   1.741
 8145SOL    HW225335   5.766   5.824   1.809
 8146SOL     OW25336   3.848   0.656   4.600
 8146SOL    HW125337   3.849   0.731   4.666
 8146SOL    HW225338   3.942   0.632   4.575
 8147SOL     OW25339   5.696   1.945   1.836
 8147SOL    HW125340   5.703   1.900   1.925
 8147SOL    HW225341   5.786   1.946   1.792
 8148SOL     OW25342   5.133   4.478   0.905
 8148SOL    HW125343   5.180   4.545   0.847
 8148SOL    HW225344   5.061   4.524   0.957
 8149SOL     OW25345   2.889   6.160   2.115
 8149SOL    HW125346   2.881   6.162   2.015
 8149SOL    HW225347   2.985   6.150   2.141
 8150SOL     OW25348   1.837   4.235   0.584
 8150SOL    HW125349   1.937   4.233   0.580
 8150SOL    HW225350   1.804   4.157   0.637
 8151SOL     OW25351   6.210   2.292   1.294
 8151SOL    HW125352   6.135   2.356   1.274
 8151SOL    HW225353   6.206   2.215   1.230
 8152SOL     OW25354   0.146   1.612   2.838
 8152SOL    HW125355   0.196   1.672   2.900
 8152SOL    HW225356   0.142   1.654   2.747
 8153SOL     OW25357   2.173   0.069   3.813
 8153SOL    HW125358   2.152   0.131   3.738
 8153SOL    HW225359   2.120   7.005   3.802
 8154SOL     OW25360   3.156   5.059   2.372
 8154SOL    HW125361   3.116   5.021   2.456
 8154SOL    HW225362   3.098   5.132   2.337
 8155SOL     OW25363   1.835   3.583   2.041
 8155SOL    HW125364   1.885   3.541   1.965
 8155SOL    HW225365   1.863   3.540   2.127
 8156SOL     OW25366   5.050   6.925   0.521
 8156SOL    HW125367   5.100   6.910   0.606
 8156SOL    HW225368   5.059   0.000   0.493
 8157SOL     OW25369   0.055   5.302   6.641
 8157SOL    HW125370   0.154   5.290   6.628
 8157SOL    HW225371   0.035   5.400   6.648
 8158SOL     OW25372   5.234   5.060   0.879
 8158SOL    HW125373   5.175   5.082   0.801
 8158SOL    HW225374   5.205   4.973   0.919
 8159SOL     OW25375   2.988   6.145   2.470
 8159SOL    HW125376   3.016   6.101   2.556
 8159SOL    HW225377   3.062   6.203   2.437
 8160SOL     OW25378   5.264   1.261   3.121
 8160SOL    HW125379   5.303   1.172   3.097
 8160SOL    HW225380   5.178   1.248   3.170
 8161SOL     OW25381   5.035   1.821   6.223
 8161SOL    HW125382   5.128   1.802   6.192
 8161SOL    HW225383   5.018   1.774   6.309
 8162SOL     OW25384   6.061   6.406   5.925
 8162SOL    HW125385   6.145   6.353   5.935
 8162SOL    HW225386   6.064   6.483   5.989
 8163SOL     OW25387   2.519   4.265   5.269
 8163SOL    HW125388   2.484   4.174   5.245
 8163SOL    HW225389   2.443   4.329   5.274
 8164SOL     OW25390   5.819   3.533   0.811
 8164SOL    HW125391   5.734   3.574   0.842
 8164SOL    HW225392   5.805   3.491   0.722
 8165SOL     OW25393   1.011   4.667   6.747
 8165SOL    HW125394   1.033   4.760   6.719
 8165SOL    HW225395   1.087   4.630   6.800
 8166SOL     OW25396   1.641   0.486   2.072
 8166SOL    HW125397   1.547   0.452   2.085
 8166SOL    HW225398   1.706   0.421   2.109
 8167SOL     OW25399   6.109   6.996   4.982
 8167SOL    HW125400   6.028   0.030   5.006
 8167SOL    HW225401   6.120   6.922   5.048
 8168SOL     OW25402   2.548   1.482   3.851
 8168SOL    HW125403   2.524   1.574   3.883
 8168SOL    HW225404   2.470   1.421   3.864
 8169SOL     OW25405   4.576   2.554   1.793
 8169SOL    HW125406   4.638   2.484   1.829
 8169SOL    HW225407   4.520   2.515   1.720
 8170SOL     OW25408   1.605   5.413   2.353
 8170SOL    HW125409   1.612   5.314   2.360
 8170SOL    HW225410   1.509   5.439   2.343
 8171SOL     OW25411   1.526   1.044   0.330
 8171SOL    HW125412   1.528   1.082   0.423
 8171SOL    HW225413   1.577   1.103   0.268
 8172SOL     OW25414   1.171   1.470   1.733
 8172SOL    HW125415   1.133   1.384   1.699
 8172SOL    HW225416   1.130   1.546   1.683
 8173SOL     OW25417   4.028   0.913   1.439
 8173SOL    HW125418   3.985   1.003   1.441
 8173SOL    HW225419   3.959   0.843   1.459
 8174SOL     OW25420   6.137   2.292   0.597
 8174SOL    HW125421   6.117   2.384   0.631
 8174SOL    HW225422   6.175   2.237   0.671
 8175SOL     OW25423   0.166   3.364   6.459
 8175SOL    HW125424   0.214   3.278   6.441
 8175SOL    HW225425   0.201   3.404   6.544
 8176SOL     OW25426   3.094   5.336   2.366
 8176SOL    HW125427   3.020   5.293   2.417
 8176SOL    HW225428   3.065   5.352   2.271
 8177SOL     OW25429   2.521   6.140   3.736
 8177SOL    HW125430   2.603   6.084   3.727
 8177SOL    HW225431   2.508   6.195   3.653
 8178SOL     OW25432   3.056   5.950   6.317
 8178SOL    HW125433   3.033   6.047   6.322
 8178SOL    HW225434   3.088   5.918   6.406
 8179SOL     OW25435   4.080   2.450   5.845
 8179SOL    HW125436   4.008   2.519   5.838
 8179SOL    HW225437   4.167   2.494   5.866
 8180SOL     OW25438   6.341   0.112   4.849
 8180SOL    HW125439   6.271   0.047   4.880
 8180SOL    HW225440   6.414   0.062   4.803
 8181SOL     OW25441   2.016   1.764   1.973
 8181SOL    HW125442   1.918   1.781   1.961
 8181SOL    HW225443   2.062   1.768   1.885
 8182SOL     OW25444   3.491   2.556   6.557
 8182SOL    HW125445   3.591   2.561   6.555
 8182SOL    HW225446   3.457   2.541   6.464
 8183SOL     OW25447   0.172   2.659   4.317
 8183SOL    HW125448   0.206   2.638   4.225
 8183SOL    HW225449   0.249   2.685   4.375
 8184SOL     OW25450   5.406   2.096   5.721
 8184SOL    HW125451   5.492   2.148   5.721
 8184SOL    HW225452   5.397   2.047   5.808
 8185SOL     OW25453   2.702   6.290   0.247
 8185SOL    HW125454   2.680   6.277   0.151
 8185SOL    HW225455   2.632   6.347   0.290
 8186SOL     OW25456   3.296   5.358   6.586
 8186SOL    HW125457   3.291   5.308   6.500
 8186SOL    HW225458   3.211   5.346   6.637
 8187SOL     OW25459   1.451   1.763   5.393
 8187SOL    HW125460   1.489   1.722   5.311
 8187SOL    HW225461   1.388   1.699   5.438
 8188SOL     OW25462   5.249   2.563   2.179
 8188SOL    HW125463   5.319   2.522   2.119
 8188SOL    HW225464   5.172   2.594   2.123
 8189SOL     OW25465   4.828   4.962   2.628
 8189SOL    HW125466   4.873   4.996   2.545
 8189SOL    HW225467   4.751   4.903   2.602
 8190SOL     OW25468   4.347   5.201   4.695
 8190SOL    HW125469   4.318   5.180   4.788
 8190SOL    HW225470   4.332   5.299   4.677
 8191SOL     OW25471   3.170   5.490   3.246
 8191SOL    HW125472   3.177   5.519   3.342
 8191SOL    HW225473   3.083   5.444   3.232
 8192SOL     OW25474   3.526   5.212   0.252
 8192SOL    HW125475   3.550   5.290   0.310
 8192SOL    HW225476   3.436   5.227   0.212
 8193SOL     OW25477   6.693   0.073   4.162
 8193SOL    HW125478   6.767   0.058   4.227
 8193SOL    HW225479   6.618   0.121   4.207
 8194SOL     OW25480   6.414   2.378   0.404
 8194SOL    HW125481   6.327   2.420   0.378
 8194SOL    HW225482   6.486   2.408   0.342
 8195SOL     OW25483   0.499   0.094   0.830
 8195SOL    HW125484   0.418   0.119   0.776
 8195SOL    HW225485   0.575   0.154   0.805
 8196SOL     OW25486   3.419   0.212   5.594
 8196SOL    HW125487   3.382   0.304   5.605
 8196SOL    HW225488   3.516   0.218   5.569
 8197SOL     OW25489   4.096   1.042   6.043
 8197SOL    HW125490   4.094   0.957   5.991
 8197SOL    HW225491   4.021   1.101   6.013
 8198SOL     OW25492   2.880   6.078   2.934
 8198SOL    HW125493   2.945   6.065   2.859
 8198SOL    HW225494   2.924   6.059   3.021
 8199SOL     OW25495   0.114   3.040   6.409
 8199SOL    HW125496   0.139   3.003   6.498
 8199SOL    HW225497   0.103   2.964   6.344
 8200SOL     OW25498   4.450   3.517   1.409
 8200SOL    HW125499   4.437   3.426   1.369
 8200SOL    HW225500   4.363   3.550   1.445
 8201SOL     OW25501   5.437   0.861   4.389
 8201SOL    HW125502   5.474   0.784   4.441
 8201SOL    HW225503   5.466   0.947   4.431
 8202SOL     OW25504   0.539   5.522   4.207
 8202SOL    HW125505   0.478   5.443   4.202
 8202SOL    HW225506   0.542   5.568   4.118
 8203SOL     OW25507   4.861   2.313   0.412
 8203SOL    HW125508   4.816   2.298   0.324
 8203SOL    HW225509   4.792   2.335   0.481
 8204SOL     OW25510   3.014   5.601   0.720
 8204SOL    HW125511   3.062   5.631   0.803
 8204SOL    HW225512   2.975   5.511   0.736
 8205SOL     OW25513   6.763   4.683   1.258
 8205SOL    HW125514   6.841   4.687   1.321
 8205SOL    HW225515   6.796   4.666   1.165
 8206SOL     OW25516   3.742   2.767   5.986
 8206SOL    HW125517   3.723   2.745   5.890
 8206SOL    HW225518   3.732   2.866   6.000
 8207SOL     OW25519   3.789   4.376   5.294
 8207SOL    HW125520   3.716   4.339   5.237
 8207SOL    HW225521   3.797   4.323   5.378
 8208SOL     OW25522   2.376   6.092   1.720
 8208SOL    HW125523   2.317   6.167   1.691
 8208SOL    HW225524   2.427   6.119   1.802
 8209SOL     OW25525   0.607   2.084   5.219
 8209SOL    HW125526   0.577   2.013   5.283
 8209SOL    HW225527   0.542   2.160   5.220
 8210SOL     OW25528   2.616   0.873   1.770
 8210SOL    HW125529   2.621   0.804   1.697
 8210SOL    HW225530   2.615   0.964   1.729
 8211SOL     OW25531   3.632   3.828   3.638
 8211SOL    HW125532   3.615   3.927   3.633
 8211SOL    HW225533   3.673   3.806   3.727
 8212SOL     OW25534   3.259   1.203   1.330
 8212SOL    HW125535   3.257   1.115   1.283
 8212SOL    HW225536   3.178   1.212   1.388
 8213SOL     OW25537   5.365   4.547   2.845
 8213SOL    HW125538   5.327   4.626   2.797
 8213SOL    HW225539   5.463   4.542   2.827
 8214SOL     OW25540   1.644   5.546   3.767
 8214SOL    HW125541   1.708   5.494   3.710
 8214SOL    HW225542   1.652   5.516   3.862
 8215SOL     OW25543   4.259   4.976   6.816
 8215SOL    HW125544   4.259   5.036   6.736
 8215SOL    HW225545   4.166   4.958   6.845
 8216SOL     OW25546   4.699   0.189   3.304
 8216SOL    HW125547   4.610   0.145   3.294
 8216SOL    HW225548   4.765   0.123   3.339
 8217SOL     OW25549   2.082   3.895   2.180
 8217SOL    HW125550   2.089   3.886   2.081
 8217SOL    HW225551   2.153   3.958   2.213
 8218SOL     OW25552   1.770   0.015   3.971
 8218SOL    HW125553   1.735   0.078   3.902
 8218SOL    HW225554   1.744   6.942   3.947
 8219SOL     OW25555   3.877   3.940   1.458
 8219SOL    HW125556   3.823   3.886   1.393
 8219SOL    HW225557   3.912   4.022   1.412
 8220SOL     OW25558   3.361   4.254   5.377
 8220SOL    HW125559   3.386   4.248   5.474
 8220SOL    HW225560   3.268   4.289   5.369
 8221SOL     OW25561   6.556   4.379   3.007
 8221SOL    HW125562   6.590   4.355   3.098
 8221SOL    HW225563   6.506   4.466   3.011
 8222SOL     OW25564   5.157   2.450   1.020
 8222SOL    HW125565   5.169   2.541   1.058
 8222SOL    HW225566   5.215   2.438   0.940
 8223SOL     OW25567   0.045   4.737   6.000
 8223SOL    HW125568   0.106   4.657   5.995
 8223SOL    HW225569   6.971   4.706   6.000
 8224SOL     OW25570   4.781   2.085   1.513
 8224SOL    HW125571   4.721   2.094   1.593
 8224SOL    HW225572   4.849   2.158   1.514
 8225SOL     OW25573   3.508   0.993   0.809
 8225SOL    HW125574   3.409   1.006   0.805
 8225SOL    HW225575   3.546   1.005   0.717
 8226SOL     OW25576   3.166   0.526   1.004
 8226SOL    HW125577   3.176   0.526   0.904
 8226SOL    HW225578   3.078   0.486   1.028
 8227SOL     OW25579   0.293   1.650   2.355
 8227SOL    HW125580   0.306   1.558   2.320
 8227SOL    HW225581   0.382   1.692   2.373
 8228SOL     OW25582   0.437   1.704   6.011
 8228SOL    HW125583   0.385   1.628   5.974
 8228SOL    HW225584   0.462   1.767   5.938
 8229SOL     OW25585   4.311   4.011   0.861
 8229SOL    HW125586   4.390   4.054   0.817
 8229SOL    HW225587   4.261   4.078   0.915
 8230SOL     OW25588   3.689   6.588   5.613
 8230SOL    HW125589   3.756   6.615   5.683
 8230SOL    HW225590   3.620   6.660   5.602
 8231SOL     OW25591   3.512   1.990   2.004
 8231SOL    HW125592   3.566   1.940   1.937
 8231SOL    HW225593   3.552   2.081   2.019
 8232SOL     OW25594   5.383   2.104   2.641
 8232SOL    HW125595   5.422   2.108   2.733
 8232SOL    HW225596   5.359   2.010   2.619
 8233SOL     OW25597   1.386   0.015   6.293
 8233SOL    HW125598   1.391   0.060   6.383
 8233SOL    HW225599   1.478   7.008   6.265
 8234SOL     OW25600   2.844   3.601   6.961
 8234SOL    HW125601   2.794   3.616   6.876
 8234SOL    HW225602   2.787   3.549   0.004
 8235SOL     OW25603   0.757   3.779   0.208
 8235SOL    HW125604   0.824   3.759   0.136
 8235SOL    HW225605   0.766   3.875   0.235
 8236SOL     OW25606   0.590   5.562   6.200
 8236SOL    HW125607   0.510   5.587   6.146
 8236SOL    HW225608   0.651   5.641   6.208
 8237SOL     OW25609   4.736   6.151   6.068
 8237SOL    HW125610   4.723   6.191   5.978
 8237SOL    HW225611   4.664   6.184   6.130
 8238SOL     OW25612   0.377   5.894   7.011
 8238SOL    HW125613   0.288   5.937   0.003
 8238SOL    HW225614   0.448   5.954   0.026
 8239SOL     OW25615   0.610   0.679   4.989
 8239SOL    HW125616   0.665   0.660   5.070
 8239SOL    HW225617   0.513   0.672   5.013
 8240SOL     OW25618   2.947   3.596   3.339
 8240SOL    HW125619   2.992   3.635   3.259
 8240SOL    HW225620   2.961   3.656   3.418
 8241SOL     OW25621   2.179   5.011   6.201
 8241SOL    HW125622   2.254   5.051   6.253
 8241SOL    HW225623   2.173   5.056   6.111
 8242SOL     OW25624   0.967   3.645   4.821
 8242SOL    HW125625   0.940   3.728   4.870
 8242SOL    HW225626   1.048   3.663   4.766
 8243SOL     OW25627   0.273   4.399   0.093
 8243SOL    HW125628   0.281   4.303   0.120
 8243SOL    HW225629   0.334   4.455   0.149
 8244SOL     OW25630   0.263   0.218   3.930
 8244SOL    HW125631   0.356   0.240   3.961
 8244SOL    HW225632   0.227   0.294   3.876
 8245SOL     OW25633   3.438   1.370   3.432
 8245SOL    HW125634   3.517   1.325   3.393
 8245SOL    HW225635   3.393   1.426   3.363
 8246SOL     OW25636   0.397   4.641   6.495
 8246SOL    HW125637   0.308   4.686   6.495
 8246SOL    HW225638   0.467   4.707   6.467
 8247SOL     OW25639   2.577   6.200   3.995
 8247SOL    HW125640   2.561   6.177   3.899
 8247SOL    HW225641   2.577   6.117   4.050
 8248SOL     OW25642   0.789   5.278   5.125
 8248SOL    HW125643   0.718   5.259   5.057
 8248SOL    HW225644   0.748   5.284   5.216
 8249SOL     OW25645   2.606   1.015   5.434
 8249SOL    HW125646   2.512   1.002   5.401
 8249SOL    HW225647   2.623   1.112   5.450
 8250SOL     OW25648   3.147   2.091   1.330
 8250SOL    HW125649   3.215   2.115   1.399
 8250SOL    HW225650   3.186   2.026   1.265
 8251SOL     OW25651   6.285   1.062   4.107
 8251SOL    HW125652   6.293   0.968   4.138
 8251SOL    HW225653   6.205   1.071   4.048
 8252SOL     OW25654   3.624   1.377   0.700
 8252SOL    HW125655   3.527   1.358   0.694
 8252SOL    HW225656   3.676   1.296   0.674
 8253SOL     OW25657   3.834   5.863   0.136
 8253SOL    HW125658   3.811   5.958   0.115
 8253SOL    HW225659   3.805   5.804   0.060
 8254SOL     OW25660   5.668   4.336   6.259
 8254SOL    HW125661   5.663   4.310   6.163
 8254SOL    HW225662   5.744   4.399   6.273
 8255SOL     OW25663   1.205   6.920   6.070
 8255SOL    HW125664   1.264   6.980   6.123
 8255SOL    HW225665   1.110   6.953   6.075
 8256SOL     OW25666   6.454   0.221   3.086
 8256SOL    HW125667   6.479   0.305   3.039
 8256SOL    HW225668   6.414   0.157   3.021
 8257SOL     OW25669   5.940   4.424   4.008
 8257SOL    HW125670   5.845   4.455   4.006
 8257SOL    HW225671   5.949   4.346   4.070
 8258SOL     OW25672   5.261   3.071   1.652
 8258SOL    HW125673   5.352   3.064   1.692
 8258SOL    HW225674   5.256   3.017   1.568
 8259SOL     OW25675   3.789   1.890   5.089
 8259SOL    HW125676   3.747   1.853   5.006
 8259SOL    HW225677   3.724   1.883   5.165
 8260SOL     OW25678   2.017   5.963   1.499
 8260SOL    HW125679   1.941   6.027   1.481
 8260SOL    HW225680   2.103   6.007   1.476
 8261SOL     OW25681   5.183   6.909   3.451
 8261SOL    HW125682   5.269   6.913   3.503
 8261SOL    HW225683   5.109   6.879   3.510
 8262SOL     OW25684   0.710   4.413   0.797
 8262SOL    HW125685   0.792   4.412   0.854
 8262SOL    HW225686   0.720   4.347   0.723
 8263SOL     OW25687   6.871   2.995   6.761
 8263SOL    HW125688   6.909   3.048   6.686
 8263SOL    HW225689   6.945   2.956   6.816
 8264SOL     OW25690   1.423   0.358   1.449
 8264SOL    HW125691   1.400   0.427   1.517
 8264SOL    HW225692   1.429   0.269   1.493
 8265SOL     OW25693   4.903   0.435   1.690
 8265SOL    HW125694   4.887   0.433   1.789
 8265SOL    HW225695   4.825   0.479   1.645
 8266SOL     OW25696   3.287   0.143   5.235
 8266SOL    HW125697   3.365   0.106   5.286
 8266SOL    HW225698   3.234   0.068   5.197
 8267SOL     OW25699   1.772   5.008   1.381
 8267SOL    HW125700   1.785   4.961   1.293
 8267SOL    HW225701   1.858   5.009   1.431
 8268SOL     OW25702   2.895   4.920   5.535
 8268SOL    HW125703   2.807   4.898   5.491
 8268SOL    HW225704   2.962   4.850   5.512
 8269SOL     OW25705   4.650   2.275   3.107
 8269SOL    HW125706   4.562   2.232   3.086
 8269SOL    HW225707   4.641   2.374   3.101
 8270SOL     OW25708   3.305   5.498   5.687
 8270SOL    HW125709   3.309   5.413   5.635
 8270SOL    HW225710   3.361   5.567   5.642
 8271SOL     OW25711   6.835   6.494   4.006
 8271SOL    HW125712   6.837   6.554   4.085
 8271SOL    HW225713   6.869   6.543   3.925
 8272SOL     OW25714   0.669   1.029   2.261
 8272SOL    HW125715   0.728   0.948   2.258
 8272SOL    HW225716   0.656   1.064   2.168
 8273SOL     OW25717   2.828   1.345   0.157
 8273SOL    HW125718   2.854   1.278   0.088
 8273SOL    HW225719   2.807   1.432   0.113
 8274SOL     OW25720   4.274   4.443   6.289
 8274SOL    HW125721   4.270   4.392   6.203
 8274SOL    HW225722   4.364   4.430   6.331
 8275SOL     OW25723   5.576   0.328   4.669
 8275SOL    HW125724   5.635   0.380   4.730
 8275SOL    HW225725   5.608   0.336   4.575
 8276SOL     OW25726   6.509   1.960   5.648
 8276SOL    HW125727   6.579   1.922   5.588
 8276SOL    HW225728   6.488   2.054   5.621
 8277SOL     OW25729   2.334   6.201   5.323
 8277SOL    HW125730   2.299   6.207   5.417
 8277SOL    HW225731   2.412   6.139   5.321
 8278SOL     OW25732   2.841   1.320   6.189
 8278SOL    HW125733   2.875   1.318   6.095
 8278SOL    HW225734   2.776   1.395   6.199
 8279SOL     OW25735   5.957   5.545   6.147
 8279SOL    HW125736   5.963   5.579   6.241
 8279SOL    HW225737   6.016   5.464   6.137
 8280SOL     OW25738   4.657   2.328   0.608
 8280SOL    HW125739   4.581   2.277   0.647
 8280SOL    HW225740   4.644   2.426   0.625
 8281SOL     OW25741   2.340   4.660   1.295
 8281SOL    HW125742   2.428   4.690   1.333
 8281SOL    HW225743   2.302   4.588   1.353
 8282SOL     OW25744   2.610   3.379   0.371
 8282SOL    HW125745   2.550   3.307   0.404
 8282SOL    HW225746   2.683   3.339   0.315
 8283SOL     OW25747   0.960   4.388   3.788
 8283SOL    HW125748   0.931   4.308   3.841
 8283SOL    HW225749   0.911   4.389   3.701
 8284SOL     OW25750   1.368   3.745   2.600
 8284SOL    HW125751   1.378   3.805   2.520
 8284SOL    HW225752   1.271   3.722   2.611
 8285SOL     OW25753   3.285   3.113   5.305
 8285SOL    HW125754   3.354   3.067   5.361
 8285SOL    HW225755   3.230   3.045   5.256
 8286SOL     OW25756   5.529   1.853   5.119
 8286SOL    HW125757   5.533   1.887   5.026
 8286SOL    HW225758   5.444   1.802   5.133
 8287SOL     OW25759   1.372   6.493   3.601
 8287SOL    HW125760   1.381   6.548   3.518
 8287SOL    HW225761   1.288   6.519   3.649
 8288SOL     OW25762   1.378   2.292   2.551
 8288SOL    HW125763   1.422   2.250   2.472
 8288SOL    HW225764   1.323   2.224   2.599
 8289SOL     OW25765   6.072   0.639   6.242
 8289SOL    HW125766   6.115   0.563   6.290
 8289SOL    HW225767   6.129   0.667   6.165
 8290SOL     OW25768   4.230   2.446   1.692
 8290SOL    HW125769   4.151   2.434   1.632
 8290SOL    HW225770   4.310   2.469   1.636
 8291SOL     OW25771   5.739   6.127   6.771
 8291SOL    HW125772   5.761   6.147   6.866
 8291SOL    HW225773   5.667   6.057   6.768
 8292SOL     OW25774   2.079   5.565   5.704
 8292SOL    HW125775   2.023   5.484   5.723
 8292SOL    HW225776   2.130   5.551   5.619
 8293SOL     OW25777   1.457   3.904   2.046
 8293SOL    HW125778   1.552   3.926   2.025
 8293SOL    HW225779   1.406   3.989   2.062
 8294SOL     OW25780   5.930   3.413   4.943
 8294SOL    HW125781   5.851   3.467   4.915
 8294SOL    HW225782   5.939   3.416   5.043
 8295SOL     OW25783   5.313   3.464   2.626
 8295SOL    HW125784   5.302   3.558   2.659
 8295SOL    HW225785   5.401   3.428   2.656
 8296SOL     OW25786   3.740   4.872   6.896
 8296SOL    HW125787   3.672   4.833   6.834
 8296SOL    HW225788   3.694   4.907   6.978
 8297SOL     OW25789   6.649   3.463   2.215
 8297SOL    HW125790   6.574   3.486   2.277
 8297SOL    HW225791   6.623   3.385   2.159
 8298SOL     OW25792   0.076   0.241   6.918
 8298SOL    HW125793   0.020   0.235   6.835
 8298SOL    HW225794   0.053   0.325   6.967
 8299SOL     OW25795   0.950   2.886   0.985
 8299SOL    HW125796   0.956   2.933   1.073
 8299SOL    HW225797   0.875   2.925   0.931
 8300SOL     OW25798   6.031   0.103   4.717
 8300SOL    HW125799   6.049   0.110   4.815
 8300SOL    HW225800   5.998   0.192   4.683
 8301SOL     OW25801   4.587   0.271   6.570
 8301SOL    HW125802   4.584   0.172   6.579
 8301SOL    HW225803   4.496   0.309   6.590
 8302SOL     OW25804   4.147   6.881   5.333
 8302SOL    HW125805   4.093   6.930   5.265
 8302SOL    HW225806   4.230   6.933   5.355
 8303SOL     OW25807   0.016   0.245   3.320
 8303SOL    HW125808   7.006   0.221   3.228
 8303SOL    HW225809   6.961   0.288   3.370
 8304SOL     OW25810   5.713   5.190   2.195
 8304SOL    HW125811   5.615   5.172   2.187
 8304SOL    HW225812   5.744   5.166   2.287
 8305SOL     OW25813   3.960   5.231   4.026
 8305SOL    HW125814   3.899   5.222   4.105
 8305SOL    HW225815   4.045   5.275   4.054
 8306SOL     OW25816   6.430   1.310   2.487
 8306SOL    HW125817   6.396   1.364   2.565
 8306SOL    HW225818   6.418   1.363   2.403
 8307SOL     OW25819   3.169   4.924   1.553
 8307SOL    HW125820   3.250   4.868   1.540
 8307SOL    HW225821   3.149   4.974   1.469
 8308SOL     OW25822   2.091   4.563   0.219
 8308SOL    HW125823   2.085   4.546   0.318
 8308SOL    HW225824   2.115   4.658   0.203
 8309SOL     OW25825   6.405   4.921   3.626
 8309SOL    HW125826   6.337   4.848   3.625
 8309SOL    HW225827   6.451   4.926   3.537
 8310SOL     OW25828   1.114   5.528   0.513
 8310SOL    HW125829   1.036   5.569   0.562
 8310SOL    HW225830   1.110   5.555   0.416
 8311SOL     OW25831   5.158   0.685   4.733
 8311SOL    HW125832   5.132   0.646   4.822
 8311SOL    HW225833   5.238   0.636   4.698
 8312SOL     OW25834   5.366   1.018   0.790
 8312SOL    HW125835   5.327   0.927   0.805
 8312SOL    HW225836   5.315   1.064   0.717
 8313SOL     OW25837   4.291   6.886   5.704
 8313SOL    HW125838   4.218   6.946   5.735
 8313SOL    HW225839   4.327   6.920   5.617
 8314SOL     OW25840   5.869   6.841   6.601
 8314SOL    HW125841   5.871   6.834   6.701
 8314SOL    HW225842   5.817   6.923   6.575
 8315SOL     OW25843   3.749   4.088   2.707
 8315SOL    HW125844   3.795   4.085   2.618
 8315SOL    HW225845   3.802   4.035   2.773
 8316SOL     OW25846   1.901   3.244   7.016
 8316SOL    HW125847   1.944   3.189   0.068
 8316SOL    HW225848   1.805   3.220   7.009
 8317SOL     OW25849   2.881   1.876   3.830
 8317SOL    HW125850   2.816   1.930   3.883
 8317SOL    HW225851   2.928   1.936   3.764
 8318SOL     OW25852   4.765   0.891   5.577
 8318SOL    HW125853   4.751   0.916   5.481
 8318SOL    HW225854   4.767   0.974   5.632
 8319SOL     OW25855   1.981   6.793   6.879
 8319SOL    HW125856   1.904   6.854   6.900
 8319SOL    HW225857   2.065   6.833   6.916
 8320SOL     OW25858   3.728   3.675   3.437
 8320SOL    HW125859   3.706   3.701   3.343
 8320SOL    HW225860   3.689   3.743   3.500
 8321SOL     OW25861   0.433   0.095   6.303
 8321SOL    HW125862   0.422   7.018   6.290
 8321SOL    HW225863   0.346   0.141   6.284
 8322SOL     OW25864   0.379   1.303   0.306
 8322SOL    HW125865   0.280   1.289   0.307
 8322SOL    HW225866   0.407   1.333   0.215
 8323SOL     OW25867   3.663   4.626   1.383
 8323SOL    HW125868   3.722   4.643   1.304
 8323SOL    HW225869   3.573   4.596   1.351
 8324SOL     OW25870   5.825   0.615   0.413
 8324SOL    HW125871   5.805   0.618   0.511
 8324SOL    HW225872   5.869   0.701   0.385
 8325SOL     OW25873   1.185   4.254   5.178
 8325SOL    HW125874   1.177   4.234   5.276
 8325SOL    HW225875   1.160   4.173   5.125
 8326SOL     OW25876   4.300   3.538   6.877
 8326SOL    HW125877   4.330   3.568   6.968
 8326SOL    HW225878   4.232   3.465   6.887
 8327SOL     OW25879   0.701   0.119   5.613
 8327SOL    HW125880   0.623   0.169   5.652
 8327SOL    HW225881   0.739   0.171   5.537
 8328SOL     OW25882   1.845   6.341   6.081
 8328SOL    HW125883   1.791   6.278   6.138
 8328SOL    HW225884   1.857   6.301   5.990
 8329SOL     OW25885   0.082   2.527   4.921
 8329SOL    HW125886   0.085   2.500   4.824
 8329SOL    HW225887   0.114   2.450   4.977
 8330SOL     OW25888   3.467   1.306   6.690
 8330SOL    HW125889   3.397   1.348   6.747
 8330SOL    HW225890   3.475   1.209   6.714
 8331SOL     OW25891   2.650   0.932   1.041
 8331SOL    HW125892   2.725   0.989   1.007
 8331SOL    HW225893   2.604   0.979   1.116
 8332SOL     OW25894   5.507   5.514   2.099
 8332SOL    HW125895   5.504   5.458   2.182
 8332SOL    HW225896   5.576   5.586   2.110
 8333SOL     OW25897   2.179   4.858   0.162
 8333SOL    HW125898   2.250   4.893   0.101
 8333SOL    HW225899   2.152   4.928   0.227
 8334SOL     OW25900   2.647   2.717   6.104
 8334SOL    HW125901   2.589   2.658   6.048
 8334SOL    HW225902   2.733   2.670   6.125
 8335SOL     OW25903   4.129   2.794   7.005
 8335SOL    HW125904   4.120   2.879   6.953
 8335SOL    HW225905   4.057   2.790   0.054
 8336SOL     OW25906   1.349   3.696   3.390
 8336SOL    HW125907   1.428   3.734   3.341
 8336SOL    HW225908   1.328   3.753   3.469
 8337SOL     OW25909   0.717   6.971   4.317
 8337SOL    HW125910   0.674   6.916   4.245
 8337SOL    HW225911   0.810   6.938   4.333
 8338SOL     OW25912   3.843   5.791   1.868
 8338SOL    HW125913   3.834   5.866   1.802
 8338SOL    HW225914   3.940   5.770   1.882
 8339SOL     OW25915   0.177   1.003   1.766
 8339SOL    HW125916   0.132   0.931   1.819
 8339SOL    HW225917   0.138   1.092   1.791
 8340SOL     OW25918   5.140   4.012   0.340
 8340SOL    HW125919   5.051   3.992   0.298
 8340SOL    HW225920   5.213   3.984   0.277
 8341SOL     OW25921   3.443   0.269   6.890
 8341SOL    HW125922   3.508   0.202   6.925
 8341SOL    HW225923   3.462   0.358   6.932
 8342SOL     OW25924   3.954   6.935   0.219
 8342SOL    HW125925   3.916   6.955   0.310
 8342SOL    HW225926   3.880   6.909   0.157
 8343SOL     OW25927   6.249   5.767   3.819
 8343SOL    HW125928   6.296   5.694   3.869
 8343SOL    HW225929   6.151   5.750   3.820
 8344SOL     OW25930   6.754   4.798   4.668
 8344SOL    HW125931   6.854   4.804   4.670
 8344SOL    HW225932   6.727   4.724   4.606
 8345SOL     OW25933   4.855   1.913   3.774
 8345SOL    HW125934   4.819   1.972   3.702
 8345SOL    HW225935   4.784   1.895   3.842
 8346SOL     OW25936   3.457   3.117   6.112
 8346SOL    HW125937   3.517   3.063   6.054
 8346SOL    HW225938   3.507   3.196   6.149
 8347SOL     OW25939   3.442   6.457   6.727
 8347SOL    HW125940   3.473   6.547   6.757
 8347SOL    HW225941   3.427   6.458   6.628
 8348SOL     OW25942   2.378   6.770   1.525
 8348SOL    HW125943   2.311   6.831   1.568
 8348SOL    HW225944   2.459   6.763   1.583
 8349SOL     OW25945   1.126   6.367   1.636
 8349SOL    HW125946   1.211   6.407   1.600
 8349SOL    HW225947   1.125   6.268   1.619
 8350SOL     OW25948   2.774   6.096   5.966
 8350SOL    HW125949   2.836   6.017   5.970
 8350SOL    HW225950   2.813   6.171   6.020
 8351SOL     OW25951   5.783   5.497   3.674
 8351SOL    HW125952   5.707   5.528   3.617
 8351SOL    HW225953   5.813   5.407   3.644
 8352SOL     OW25954   1.847   0.045   3.116
 8352SOL    HW125955   1.888   0.136   3.107
 8352SOL    HW225956   1.807   0.018   3.028
 8353SOL     OW25957   1.103   4.187   1.422
 8353SOL    HW125958   1.201   4.201   1.413
 8353SOL    HW225959   1.057   4.208   1.336
 8354SOL     OW25960   3.492   6.542   3.887
 8354SOL    HW125961   3.458   6.622   3.936
 8354SOL    HW225962   3.533   6.571   3.801
 8355SOL     OW25963   2.348   0.928   5.335
 8355SOL    HW125964   2.265   0.873   5.341
 8355SOL    HW225965   2.412   0.885   5.271
 8356SOL     OW25966   0.526   5.505   1.372
 8356SOL    HW125967   0.573   5.575   1.318
 8356SOL    HW225968   0.592   5.438   1.405
 8357SOL     OW25969   3.730   5.900   5.697
 8357SOL    HW125970   3.653   5.915   5.634
 8357SOL    HW225971   3.723   5.810   5.738
 8358SOL     OW25972   0.730   3.091   4.840
 8358SOL    HW125973   0.698   3.012   4.892
 8358SOL    HW225974   0.819   3.121   4.876
 8359SOL     OW25975   2.214   1.587   4.539
 8359SOL    HW125976   2.176   1.561   4.450
 8359SOL    HW225977   2.142   1.628   4.595
 8360SOL     OW25978   4.626   6.843   1.369
 8360SOL    HW125979   4.604   6.929   1.416
 8360SOL    HW225980   4.570   6.834   1.287
 8361SOL     OW25981   2.926   0.424   6.881
 8361SOL    HW125982   2.953   0.479   6.961
 8361SOL    HW225983   2.863   0.352   6.911
 8362SOL     OW25984   5.584   2.227   1.115
 8362SOL    HW125985   5.589   2.133   1.147
 8362SOL    HW225986   5.496   2.266   1.141
 8363SOL     OW25987   4.976   1.302   0.747
 8363SOL    HW125988   5.012   1.309   0.841
 8363SOL    HW225989   4.888   1.256   0.749
 8364SOL     OW25990   0.397   3.337   4.307
 8364SOL    HW125991   0.379   3.428   4.344
 8364SOL    HW225992   0.480   3.300   4.348
 8365SOL     OW25993   1.698   2.419   2.967
 8365SOL    HW125994   1.753   2.354   2.913
 8365SOL    HW225995   1.603   2.417   2.935
 8366SOL     OW25996   3.963   4.994   0.824
 8366SOL    HW125997   3.881   4.978   0.879
 8366SOL    HW225998   3.958   5.084   0.781
 8367SOL     OW25999   3.318   5.276   5.162
 8367SOL    HW126000   3.377   5.196   5.178
 8367SOL    HW226001   3.249   5.282   5.234
 8368SOL     OW26002   1.097   5.941   0.346
 8368SOL    HW126003   1.190   5.918   0.376
 8368SOL    HW226004   1.054   5.861   0.304
 8369SOL     OW26005   0.567   1.106   6.630
 8369SOL    HW126006   0.593   1.202   6.643
 8369SOL    HW226007   0.470   1.095   6.651
 8370SOL     OW26008   2.198   0.666   6.157
 8370SOL    HW126009   2.164   0.612   6.234
 8370SOL    HW226010   2.260   0.736   6.191
 8371SOL     OW26011   1.962   3.479   6.301
 8371SOL    HW126012   2.051   3.517   6.275
 8371SOL    HW226013   1.956   3.384   6.270
 8372SOL     OW26014   1.466   5.512   1.503
 8372SOL    HW126015   1.516   5.598   1.492
 8372SOL    HW226016   1.530   5.437   1.513
 8373SOL     OW26017   1.748   1.091   4.691
 8373SOL    HW126018   1.690   1.010   4.701
 8373SOL    HW226019   1.700   1.171   4.726
 8374SOL     OW26020   0.228   0.679   4.935
 8374SOL    HW126021   0.253   0.710   4.844
 8374SOL    HW226022   0.145   0.726   4.965
 8375SOL     OW26023   3.972   0.035   6.156
 8375SOL    HW126024   3.885   0.070   6.123
 8375SOL    HW226025   3.981   6.960   6.129
 8376SOL     OW26026   1.398   1.573   3.681
 8376SOL    HW126027   1.449   1.657   3.662
 8376SOL    HW226028   1.437   1.497   3.630
 8377SOL     OW26029   5.922   5.958   0.617
 8377SOL    HW126030   5.841   5.956   0.676
 8377SOL    HW226031   5.989   6.022   0.655
 8378SOL     OW26032   3.818   4.911   3.952
 8378SOL    HW126033   3.843   5.007   3.941
 8378SOL    HW226034   3.878   4.855   3.896
 8379SOL     OW26035   4.782   2.618   2.369
 8379SOL    HW126036   4.800   2.648   2.276
 8379SOL    HW226037   4.868   2.616   2.420
 8380SOL     OW26038   0.058   6.739   6.703
 8380SOL    HW126039   0.071   6.798   6.782
 8380SOL    HW226040   7.008   6.778   6.644
 8381SOL     OW26041   6.894   2.490   3.004
 8381SOL    HW126042   6.907   2.589   3.004
 8381SOL    HW226043   6.980   2.445   3.030
 8382SOL     OW26044   2.429   6.683   0.749
 8382SOL    HW126045   2.357   6.640   0.803
 8382SOL    HW226046   2.396   6.769   0.711
 8383SOL     OW26047   2.693   0.137   5.779
 8383SOL    HW126048   2.642   0.219   5.805
 8383SOL    HW226049   2.779   0.164   5.737
 8384SOL     OW26050   0.181   1.561   0.242
 8384SOL    HW126051   0.162   1.464   0.226
 8384SOL    HW226052   0.280   1.576   0.246
 8385SOL     OW26053   4.341   1.885   0.788
 8385SOL    HW126054   4.262   1.942   0.764
 8385SOL    HW226055   4.372   1.835   0.707
 8386SOL     OW26056   2.224   5.417   1.331
 8386SOL    HW126057   2.179   5.336   1.292
 8386SOL    HW226058   2.294   5.449   1.267
 8387SOL     OW26059   1.616   2.062   1.394
 8387SOL    HW126060   1.709   2.074   1.357
 8387SOL    HW226061   1.600   1.965   1.412
 8388SOL     OW26062   1.448   0.010   0.689
 8388SOL    HW126063   1.349   0.009   0.699
 8388SOL    HW226064   1.480   6.938   0.671
 8389SOL     OW26065   0.392   3.584   4.427
 8389SOL    HW126066   0.367   3.579   4.523
 8389SOL    HW226067   0.417   3.678   4.404
 8390SOL     OW26068   3.994   6.892   6.820
 8390SOL    HW126069   4.025   6.810   6.867
 8390SOL    HW226070   3.989   6.874   6.721
 8391SOL     OW26071   4.697   5.012   1.554
 8391SOL    HW126072   4.645   4.930   1.579
 8391SOL    HW226073   4.672   5.087   1.615
 8392SOL     OW26074   6.849   5.628   5.589
 8392SOL    HW126075   6.760   5.629   5.543
 8392SOL    HW226076   6.863   5.715   5.636
 8393SOL     OW26077   0.052   6.691   4.149
 8393SOL    HW126078   6.978   6.690   4.179
 8393SOL    HW226079   0.060   6.741   4.063
 8394SOL     OW26080   6.824   2.812   1.611
 8394SOL    HW126081   6.760   2.871   1.661
 8394SOL    HW226082   6.860   2.743   1.672
 8395SOL     OW26083   1.716   6.269   4.255
 8395SOL    HW126084   1.706   6.194   4.189
 8395SOL    HW226085   1.804   6.260   4.303
 8396SOL     OW26086   4.436   4.516   2.274
 8396SOL    HW126087   4.496   4.473   2.341
 8396SOL    HW226088   4.439   4.464   2.189
 8397SOL     OW26089   2.593   0.567   3.464
 8397SOL    HW126090   2.622   0.626   3.539
 8397SOL    HW226091   2.670   0.553   3.401
 8398SOL     OW26092   4.351   1.673   6.209
 8398SOL    HW126093   4.398   1.599   6.258
 8398SOL    HW226094   4.369   1.760   6.256
 8399SOL     OW26095   6.315   0.331   6.989
 8399SOL    HW126096   6.311   0.386   0.051
 8399SOL    HW226097   6.222   0.312   6.957
 8400SOL     OW26098   0.947   0.066   3.730
 8400SOL    HW126099   0.869   0.046   3.791
 8400SOL    HW226100   1.031   0.065   3.783
 8401SOL     OW26101   3.382   2.222   6.388
 8401SOL    HW126102   3.390   2.319   6.412
 8401SOL    HW226103   3.288   2.192   6.400
 8402SOL     OW26104   4.052   1.781   5.894
 8402SOL    HW126105   3.999   1.817   5.971
 8402SOL    HW226106   4.005   1.702   5.856
 8403SOL     OW26107   0.780   1.852   3.235
 8403SOL    HW126108   0.741   1.796   3.162
 8403SOL    HW226109   0.872   1.820   3.256
 8404SOL     OW26110   5.388   5.475   6.914
 8404SOL    HW126111   5.330   5.418   6.973
 8404SOL    HW226112   5.337   5.501   6.833
 8405SOL     OW26113   1.924   1.150   6.844
 8405SOL    HW126114   1.904   1.096   6.926
 8405SOL    HW226115   1.903   1.096   6.763
 8406SOL     OW26116   4.221   0.198   0.915
 8406SOL    HW126117   4.262   0.284   0.943
 8406SOL    HW226118   4.225   0.133   0.991
 8407SOL     OW26119   4.974   6.772   3.628
 8407SOL    HW126120   5.026   6.721   3.697
 8407SOL    HW226121   4.877   6.751   3.637
 8408SOL     OW26122   4.975   2.553   2.835
 8408SOL    HW126123   4.892   2.581   2.786
 8408SOL    HW226124   4.949   2.505   2.919
 8409SOL     OW26125   6.048   3.188   3.017
 8409SOL    HW126126   6.087   3.144   2.935
 8409SOL    HW226127   5.970   3.135   3.049
 8410SOL     OW26128   4.457   0.645   1.270
 8410SOL    HW126129   4.385   0.709   1.296
 8410SOL    HW226130   4.419   0.553   1.263
 8411SOL     OW26131   1.019   5.854   5.008
 8411SOL    HW126132   0.997   5.800   5.089
 8411SOL    HW226133   1.111   5.891   5.016
 8412SOL     OW26134   4.434   1.914   1.810
 8412SOL    HW126135   4.351   1.962   1.779
 8412SOL    HW226136   4.493   1.978   1.859
 8413SOL     OW26137   4.937   4.823   0.915
 8413SOL    HW126138   4.866   4.753   0.910
 8413SOL    HW226139   5.025   4.779   0.936
 8414SOL     OW26140   4.625   6.329   2.529
 8414SOL    HW126141   4.646   6.301   2.435
 8414SOL    HW226142   4.640   6.428   2.538
 8415SOL     OW26143   6.697   5.666   4.001
 8415SOL    HW126144   6.693   5.746   4.061
 8415SOL    HW226145   6.793   5.644   3.982
 8416SOL     OW26146   5.547   4.364   3.315
 8416SOL    HW126147   5.522   4.372   3.218
 8416SOL    HW226148   5.602   4.281   3.328
 8417SOL     OW26149   1.130   5.273   5.636
 8417SOL    HW126150   1.141   5.215   5.556
 8417SOL    HW226151   1.162   5.223   5.717
 8418SOL     OW26152   6.368   5.455   1.890
 8418SOL    HW126153   6.432   5.444   1.966
 8418SOL    HW226154   6.379   5.545   1.850
 8419SOL     OW26155   5.072   1.298   2.628
 8419SOL    HW126156   4.982   1.288   2.585
 8419SOL    HW226157   5.137   1.337   2.562
 8420SOL     OW26158   4.045   0.121   0.707
 8420SOL    HW126159   4.088   0.031   0.697
 8420SOL    HW226160   4.081   0.167   0.788
 8421SOL     OW26161   2.740   6.219   1.174
 8421SOL    HW126162   2.771   6.261   1.089
 8421SOL    HW226163   2.819   6.181   1.223
 8422SOL     OW26164   4.633   0.315   1.476
 8422SOL    HW126165   4.701   0.366   1.424
 8422SOL    HW226166   4.603   0.369   1.554
 8423SOL     OW26167   4.025   3.872   6.083
 8423SOL    HW126168   4.019   3.970   6.101
 8423SOL    HW226169   4.109   3.836   6.123
 8424SOL     OW26170   2.402   2.687   2.970
 8424SOL    HW126171   2.457   2.627   2.912
 8424SOL    HW226172   2.305   2.674   2.949
 8425SOL     OW26173   5.547   5.811   1.473
 8425SOL    HW126174   5.554   5.712   1.464
 8425SOL    HW226175   5.513   5.833   1.565
 8426SOL     OW26176   3.509   2.912   4.283
 8426SOL    HW126177   3.436   2.963   4.329
 8426SOL    HW226178   3.555   2.854   4.350
 8427SOL     OW26179   2.751   3.693   5.570
 8427SOL    HW126180   2.823   3.645   5.521
 8427SOL    HW226181   2.678   3.720   5.507
 8428SOL     OW26182   6.839   4.219   1.459
 8428SOL    HW126183   6.798   4.183   1.543
 8428SOL    HW226184   6.770   4.269   1.407
 8429SOL     OW26185   2.240   4.218   3.836
 8429SOL    HW126186   2.311   4.242   3.903
 8429SOL    HW226187   2.224   4.295   3.775
 8430SOL     OW26188   4.221   5.536   3.569
 8430SOL    HW126189   4.221   5.602   3.494
 8430SOL    HW226190   4.310   5.536   3.613
 8431SOL     OW26191   2.909   5.353   0.752
 8431SOL    HW126192   2.968   5.284   0.794
 8431SOL    HW226193   2.848   5.308   0.687
 8432SOL     OW26194   5.397   6.600   5.872
 8432SOL    HW126195   5.495   6.614   5.860
 8432SOL    HW226196   5.358   6.679   5.920
 8433SOL     OW26197   6.477   2.777   6.705
 8433SOL    HW126198   6.548   2.729   6.653
 8433SOL    HW226199   6.520   2.841   6.769
 8434SOL     OW26200   2.777   6.366   5.370
 8434SOL    HW126201   2.759   6.298   5.441
 8434SOL    HW226202   2.692   6.414   5.347
 8435SOL     OW26203   5.049   0.529   0.831
 8435SOL    HW126204   5.030   0.520   0.929
 8435SOL    HW226205   5.139   0.491   0.811
 8436SOL     OW26206   3.303   6.556   4.454
 8436SOL    HW126207   3.369   6.585   4.384
 8436SOL    HW226208   3.294   6.456   4.451
 8437SOL     OW26209   1.469   0.326   3.263
 8437SOL    HW126210   1.482   0.422   3.240
 8437SOL    HW226211   1.397   0.287   3.207
 8438SOL     OW26212   2.798   4.964   2.283
 8438SOL    HW126213   2.760   5.036   2.225
 8438SOL    HW226214   2.755   4.876   2.261
 8439SOL     OW26215   6.668   5.513   1.432
 8439SOL    HW126216   6.699   5.463   1.513
 8439SOL    HW226217   6.582   5.561   1.454
 8440SOL     OW26218   0.554   1.842   4.046
 8440SOL    HW126219   0.486   1.827   3.974
 8440SOL    HW226220   0.605   1.757   4.062
 8441SOL     OW26221   6.037   6.983   6.882
 8441SOL    HW126222   6.025   0.061   6.898
 8441SOL    HW226223   6.108   6.948   6.944
 8442SOL     OW26224   3.361   2.518   6.297
 8442SOL    HW126225   3.299   2.578   6.348
 8442SOL    HW226226   3.415   2.572   6.233
 8443SOL     OW26227   1.056   6.430   3.262
 8443SOL    HW126228   1.036   6.387   3.351
 8443SOL    HW226229   1.041   6.528   3.269
 8444SOL     OW26230   3.313   5.998   3.696
 8444SOL    HW126231   3.234   5.992   3.757
 8444SOL    HW226232   3.289   6.054   3.617
 8445SOL     OW26233   3.444   5.126   1.878
 8445SOL    HW126234   3.521   5.076   1.839
 8445SOL    HW226235   3.457   5.224   1.862
 8446SOL     OW26236   4.434   5.048   0.919
 8446SOL    HW126237   4.338   5.071   0.936
 8446SOL    HW226238   4.441   4.957   0.880
 8447SOL     OW26239   5.795   2.394   2.400
 8447SOL    HW126240   5.822   2.353   2.487
 8447SOL    HW226241   5.703   2.431   2.408
 8448SOL     OW26242   5.650   4.920   4.635
 8448SOL    HW126243   5.749   4.923   4.625
 8448SOL    HW226244   5.622   4.828   4.665
 8449SOL     OW26245   6.684   3.169   4.156
 8449SOL    HW126246   6.759   3.180   4.091
 8449SOL    HW226247   6.644   3.078   4.147
 8450SOL     OW26248   1.926   5.734   1.849
 8450SOL    HW126249   1.828   5.747   1.833
 8450SOL    HW226250   1.944   5.730   1.947
 8451SOL     OW26251   4.985   2.840   0.297
 8451SOL    HW126252   4.917   2.767   0.298
 8451SOL    HW226253   4.948   2.919   0.248
 8452SOL     OW26254   0.369   0.989   2.089
 8452SOL    HW126255   0.442   1.001   2.156
 8452SOL    HW226256   0.388   1.045   2.008
 8453SOL     OW26257   6.577   4.079   0.015
 8453SOL    HW126258   6.534   4.169   0.008
 8453SOL    HW226259   6.507   4.008   0.022
 8454SOL     OW26260   0.507   6.460   0.452
 8454SOL    HW126261   0.453   6.402   0.513
 8454SOL    HW226262   0.576   6.510   0.506
 8455SOL     OW26263   5.224   2.020   1.122
 8455SOL    HW126264   5.238   2.088   1.050
 8455SOL    HW226265   5.126   2.013   1.142
 8456SOL     OW26266   4.704   4.175   3.159
 8456SOL    HW126267   4.721   4.140   3.068
 8456SOL    HW226268   4.659   4.264   3.152
 8457SOL     OW26269   0.059   6.329   4.989
 8457SOL    HW126270   0.090   6.372   5.074
 8457SOL    HW226271   0.052   6.398   4.917
 8458SOL     OW26272   2.214   1.509   6.658
 8458SOL    HW126273   2.294   1.490   6.715
 8458SOL    HW226274   2.166   1.589   6.694
 8459SOL     OW26275   3.219   6.516   1.735
 8459SOL    HW126276   3.315   6.527   1.710
 8459SOL    HW226277   3.163   6.512   1.653
 8460SOL     OW26278   4.188   2.491   5.588
 8460SOL    HW126279   4.160   2.458   5.678
 8460SOL    HW226280   4.278   2.453   5.566
 8461SOL     OW26281   0.506   3.643   2.449
 8461SOL    HW126282   0.460   3.604   2.529
 8461SOL    HW226283   0.450   3.716   2.411
 8462SOL     OW26284   3.627   2.582   0.517
 8462SOL    HW126285   3.676   2.642   0.580
 8462SOL    HW226286   3.529   2.590   0.532
 8463SOL     OW26287   6.343   0.549   0.689
 8463SOL    HW126288   6.289   0.480   0.737
 8463SOL    HW226289   6.333   0.637   0.736
 8464SOL     OW26290   6.101   4.079   5.844
 8464SOL    HW126291   6.058   4.030   5.919
 8464SOL    HW226292   6.060   4.170   5.835
 8465SOL     OW26293   2.425   2.471   0.610
 8465SOL    HW126294   2.368   2.534   0.558
 8465SOL    HW226295   2.366   2.408   0.661
 8466SOL     OW26296   6.590   6.945   5.828
 8466SOL    HW126297   6.498   6.968   5.798
 8466SOL    HW226298   6.588   6.912   5.922
 8467SOL     OW26299   3.852   0.713   1.463
 8467SOL    HW126300   3.905   0.677   1.540
 8467SOL    HW226301   3.794   0.640   1.426
 8468SOL     OW26302   4.788   2.646   0.381
 8468SOL    HW126303   4.795   2.644   0.480
 8468SOL    HW226304   4.708   2.593   0.352
 8469SOL     OW26305   2.545   1.705   5.478
 8469SOL    HW126306   2.552   1.749   5.568
 8469SOL    HW226307   2.589   1.762   5.409
 8470SOL     OW26308   0.896   4.558   0.286
 8470SOL    HW126309   0.940   4.576   0.197
 8470SOL    HW226310   0.853   4.642   0.319
 8471SOL     OW26311   4.214   0.271   5.174
 8471SOL    HW126312   4.305   0.302   5.145
 8471SOL    HW226313   4.160   0.351   5.203
 8472SOL     OW26314   6.185   0.588   5.863
 8472SOL    HW126315   6.266   0.603   5.806
 8472SOL    HW226316   6.203   0.513   5.927
 8473SOL     OW26317   6.615   5.499   1.111
 8473SOL    HW126318   6.650   5.481   1.203
 8473SOL    HW226319   6.628   5.418   1.054
 8474SOL     OW26320   3.596   3.411   1.867
 8474SOL    HW126321   3.634   3.380   1.954
 8474SOL    HW226322   3.520   3.352   1.841
 8475SOL     OW26323   0.129   2.883   2.852
 8475SOL    HW126324   0.184   2.932   2.919
 8475SOL    HW226325   0.184   2.810   2.811
 8476SOL     OW26326   6.081   1.203   1.231
 8476SOL    HW126327   6.038   1.291   1.214
 8476SOL    HW226328   6.079   1.148   1.147
 8477SOL     OW26329   4.466   6.979   2.840
 8477SOL    HW126330   4.405   0.022   2.889
 8477SOL    HW226331   4.551   6.968   2.891
 8478SOL     OW26332   1.511   6.916   5.669
 8478SOL    HW126333   1.567   6.992   5.704
 8478SOL    HW226334   1.571   6.842   5.639
 8479SOL     OW26335   1.388   3.136   1.198
 8479SOL    HW126336   1.308   3.133   1.138
 8479SOL    HW226337   1.448   3.212   1.171
 8480SOL     OW26338   5.223   2.752   0.147
 8480SOL    HW126339   5.263   2.682   0.206
 8480SOL    HW226340   5.149   2.798   0.196
 8481SOL     OW26341   4.456   2.557   5.049
 8481SOL    HW126342   4.487   2.540   4.955
 8481SOL    HW226343   4.496   2.642   5.082
 8482SOL     OW26344   4.733   0.098   2.684
 8482SOL    HW126345   4.797   0.143   2.621
 8482SOL    HW226346   4.662   0.053   2.630
 8483SOL     OW26347   3.514   5.818   2.111
 8483SOL    HW126348   3.497   5.880   2.034
 8483SOL    HW226349   3.504   5.868   2.197
 8484SOL     OW26350   6.808   6.167   3.775
 8484SOL    HW126351   6.791   6.155   3.873
 8484SOL    HW226352   6.851   6.085   3.738
 8485SOL     OW26353   3.658   2.659   0.191
 8485SOL    HW126354   3.636   2.703   0.278
 8485SOL    HW226355   3.683   2.564   0.208
 8486SOL     OW26356   2.284   1.483   2.250
 8486SOL    HW126357   2.226   1.563   2.264
 8486SOL    HW226358   2.251   1.408   2.309
 8487SOL     OW26359   6.110   1.580   5.580
 8487SOL    HW126360   6.095   1.679   5.580
 8487SOL    HW226361   6.073   1.540   5.496
 8488SOL     OW26362   5.562   6.659   1.893
 8488SOL    HW126363   5.472   6.620   1.875
 8488SOL    HW226364   5.552   6.755   1.921
 8489SOL     OW26365   6.528   1.641   1.811
 8489SOL    HW126366   6.482   1.562   1.852
 8489SOL    HW226367   6.459   1.704   1.775
 8490SOL     OW26368   3.500   6.450   5.415
 8490SOL    HW126369   3.443   6.487   5.489
 8490SOL    HW226370   3.468   6.488   5.327
 8491SOL     OW26371   2.271   6.232   1.993
 8491SOL    HW126372   2.215   6.149   1.994
 8491SOL    HW226373   2.212   6.312   1.995
 8492SOL     OW26374   5.303   4.267   5.606
 8492SOL    HW126375   5.374   4.217   5.654
 8492SOL    HW226376   5.335   4.359   5.585
 8493SOL     OW26377   2.159   2.319   5.772
 8493SOL    HW126378   2.252   2.326   5.808
 8493SOL    HW226379   2.162   2.317   5.672
 8494SOL     OW26380   4.169   5.095   0.952
 8494SOL    HW126381   4.158   5.194   0.944
 8494SOL    HW226382   4.088   5.050   0.916
 8495SOL     OW26383   6.774   5.021   2.099
 8495SOL    HW126384   6.763   5.021   2.198
 8495SOL    HW226385   6.742   4.933   2.063
 8496SOL     OW26386   1.483   1.576   2.655
 8496SOL    HW126387   1.442   1.508   2.594
 8496SOL    HW226388   1.533   1.529   2.728
 8497SOL     OW26389   6.982   1.008   3.792
 8497SOL    HW126390   6.893   1.014   3.838
 8497SOL    HW226391   6.994   1.087   3.732
 8498SOL     OW26392   6.276   6.463   3.264
 8498SOL    HW126393   6.316   6.466   3.172
 8498SOL    HW226394   6.350   6.463   3.331
 8499SOL     OW26395   2.002   4.317   6.575
 8499SOL    HW126396   1.969   4.254   6.505
 8499SOL    HW226397   2.027   4.266   6.657
 8500SOL     OW26398   1.370   6.029   5.294
 8500SOL    HW126399   1.455   6.032   5.240
 8500SOL    HW226400   1.365   6.110   5.352
 8501SOL     OW26401   0.034   3.064   5.810
 8501SOL    HW126402   6.963   3.031   5.787
 8501SOL    HW226403   0.028   3.155   5.849
 8502SOL     OW26404   0.409   3.295   1.289
 8502SOL    HW126405   0.459   3.356   1.350
 8502SOL    HW226406   0.437   3.201   1.304
 8503SOL     OW26407   0.511   5.391   4.751
 8503SOL    HW126408   0.499   5.425   4.657
 8503SOL    HW226409   0.427   5.406   4.803
 8504SOL     OW26410   2.319   5.253   2.302
 8504SOL    HW126411   2.238   5.195   2.289
 8504SOL    HW226412   2.319   5.327   2.234
 8505SOL     OW26413   6.586   3.675   3.010
 8505SOL    HW126414   6.651   3.681   2.934
 8505SOL    HW226415   6.494   3.662   2.974
 8506SOL     OW26416   1.012   1.374   0.171
 8506SOL    HW126417   1.022   1.341   0.265
 8506SOL    HW226418   1.060   1.312   0.109
 8507SOL     OW26419   3.317   6.626   4.756
 8507SOL    HW126420   3.274   6.602   4.669
 8507SOL    HW226421   3.317   6.547   4.817
 8508SOL     OW26422   4.994   2.065   4.497
 8508SOL    HW126423   5.043   2.073   4.584
 8508SOL    HW226424   4.918   2.001   4.507
 8509SOL     OW26425   4.777   1.256   3.376
 8509SOL    HW126426   4.716   1.333   3.357
 8509SOL    HW226427   4.736   1.198   3.447
 8510SOL     OW26428   5.760   4.627   2.829
 8510SOL    HW126429   5.744   4.558   2.900
 8510SOL    HW226430   5.858   4.646   2.822
 8511SOL     OW26431   6.083   4.056   2.367
 8511SOL    HW126432   6.151   4.121   2.402
 8511SOL    HW226433   6.047   4.089   2.280
 8512SOL     OW26434   2.597   0.982   2.907
 8512SOL    HW126435   2.561   0.988   2.814
 8512SOL    HW226436   2.632   0.889   2.923
 8513SOL     OW26437   6.610   5.397   0.806
 8513SOL    HW126438   6.640   5.320   0.863
 8513SOL    HW226439   6.689   5.454   0.784
 8514SOL     OW26440   1.884   1.738   3.349
 8514SOL    HW126441   1.869   1.659   3.291
 8514SOL    HW226442   1.830   1.815   3.315
 8515SOL     OW26443   4.801   2.606   1.261
 8515SOL    HW126444   4.772   2.579   1.169
 8515SOL    HW226445   4.842   2.527   1.307
 8516SOL     OW26446   0.662   1.863   2.252
 8516SOL    HW126447   0.673   1.786   2.189
 8516SOL    HW226448   0.597   1.929   2.213
 8517SOL     OW26449   0.788   3.057   5.212
 8517SOL    HW126450   0.879   3.052   5.172
 8517SOL    HW226451   0.795   3.074   5.310
 8518SOL     OW26452   4.793   3.759   0.145
 8518SOL    HW126453   4.756   3.803   0.228
 8518SOL    HW226454   4.874   3.706   0.169
 8519SOL     OW26455   1.810   5.103   1.736
 8519SOL    HW126456   1.838   5.155   1.817
 8519SOL    HW226457   1.884   5.102   1.669
 8520SOL     OW26458   3.447   1.670   1.034
 8520SOL    HW126459   3.527   1.724   1.009
 8520SOL    HW226460   3.475   1.597   1.097
 8521SOL     OW26461   1.795   5.261   5.920
 8521SOL    HW126462   1.824   5.284   5.827
 8521SOL    HW226463   1.872   5.271   5.982
 8522SOL     OW26464   1.384   5.907   2.085
 8522SOL    HW126465   1.293   5.929   2.118
 8522SOL    HW226466   1.428   5.990   2.049
 8523SOL     OW26467   3.388   6.475   6.463
 8523SOL    HW126468   3.457   6.504   6.397
 8523SOL    HW226469   3.359   6.381   6.442
 8524SOL     OW26470   1.023   2.026   4.855
 8524SOL    HW126471   0.988   1.948   4.908
 8524SOL    HW226472   1.045   1.996   4.762
 8525SOL     OW26473   6.017   4.173   3.070
 8525SOL    HW126474   5.960   4.137   2.997
 8525SOL    HW226475   5.979   4.260   3.103
 8526SOL     OW26476   3.189   4.126   0.935
 8526SOL    HW126477   3.132   4.044   0.942
 8526SOL    HW226478   3.153   4.186   0.864
 8527SOL     OW26479   3.180   6.939   5.108
 8527SOL    HW126480   3.108   6.954   5.175
 8527SOL    HW226481   3.157   6.859   5.052
 8528SOL     OW26482   5.149   2.771   5.946
 8528SOL    HW126483   5.192   2.713   6.015
 8528SOL    HW226484   5.217   2.793   5.875
 8529SOL     OW26485   0.857   7.006   6.976
 8529SOL    HW126486   0.919   6.956   6.916
 8529SOL    HW226487   0.782   6.946   7.005
 8530SOL     OW26488   1.911   4.173   5.707
 8530SOL    HW126489   1.834   4.126   5.751
 8530SOL    HW226490   1.891   4.186   5.610
 8531SOL     OW26491   5.619   4.185   2.560
 8531SOL    HW126492   5.556   4.236   2.501
 8531SOL    HW226493   5.585   4.092   2.573
 8532SOL     OW26494   3.930   5.106   4.480
 8532SOL    HW126495   3.880   5.103   4.393
 8532SOL    HW226496   3.934   5.200   4.513
 8533SOL     OW26497   2.209   6.772   5.931
 8533SOL    HW126498   2.161   6.742   5.849
 8533SOL    HW226499   2.146   6.768   6.009
 8534SOL     OW26500   6.996   3.693   3.867
 8534SOL    HW126501   6.984   3.774   3.924
 8534SOL    HW226502   0.003   3.721   3.775
 8535SOL     OW26503   0.562   1.807   4.953
 8535SOL    HW126504   0.617   1.837   5.031
 8535SOL    HW226505   0.524   1.887   4.906
 8536SOL     OW26506   5.772   1.767   4.715
 8536SOL    HW126507   5.781   1.854   4.667
 8536SOL    HW226508   5.811   1.693   4.660
 8537SOL     OW26509   5.767   1.503   1.946
 8537SOL    HW126510   5.844   1.567   1.946
 8537SOL    HW226511   5.752   1.469   1.854
 8538SOL     OW26512   0.472   1.320   5.136
 8538SOL    HW126513   0.527   1.291   5.214
 8538SOL    HW226514   0.458   1.243   5.074
 8539SOL     OW26515   6.688   1.999   1.769
 8539SOL    HW126516   6.595   1.976   1.740
 8539SOL    HW226517   6.687   2.031   1.864
 8540SOL     OW26518   3.343   1.557   0.326
 8540SOL    HW126519   3.260   1.504   0.311
 8540SOL    HW226520   3.372   1.598   0.239
 8541SOL     OW26521   3.068   1.998   4.348
 8541SOL    HW126522   2.985   1.952   4.319
 8541SOL    HW226523   3.146   1.937   4.337
 8542SOL     OW26524   2.775   4.641   5.786
 8542SOL    HW126525   2.754   4.607   5.694
 8542SOL    HW226526   2.700   4.617   5.847
 8543SOL     OW26527   2.873   1.569   5.903
 8543SOL    HW126528   2.788   1.571   5.956
 8543SOL    HW226529   2.924   1.485   5.924
 8544SOL     OW26530   5.371   2.747   4.766
 8544SOL    HW126531   5.461   2.713   4.793
 8544SOL    HW226532   5.304   2.673   4.774
 8545SOL     OW26533   3.717   6.825   4.887
 8545SOL    HW126534   3.784   6.895   4.913
 8545SOL    HW226535   3.757   6.734   4.902
 8546SOL     OW26536   6.854   6.927   2.124
 8546SOL    HW126537   6.809   6.931   2.035
 8546SOL    HW226538   6.794   6.969   2.193
 8547SOL     OW26539   0.967   0.021   6.034
 8547SOL    HW126540   0.990   0.117   6.050
 8547SOL    HW226541   0.916   0.013   5.948
 8548SOL     OW26542   6.724   3.740   5.312
 8548SOL    HW126543   6.660   3.764   5.385
 8548SOL    HW226544   6.752   3.644   5.321
 8549SOL     OW26545   0.920   2.649   4.577
 8549SOL    HW126546   0.936   2.713   4.652
 8549SOL    HW226547   0.941   2.557   4.607
 8550SOL     OW26548   1.441   4.650   0.075
 8550SOL    HW126549   1.518   4.591   0.052
 8550SOL    HW226550   1.467   4.711   0.149
 8551SOL     OW26551   2.904   2.913   6.996
 8551SOL    HW126552   2.899   3.013   6.987
 8551SOL    HW226553   2.989   2.888   0.021
 8552SOL     OW26554   1.999   0.707   3.155
 8552SOL    HW126555   2.044   0.797   3.154
 8552SOL    HW226556   1.917   0.711   3.212
 8553SOL     OW26557   4.269   4.075   6.901
 8553SOL    HW126558   4.179   4.072   6.945
 8553SOL    HW226559   4.271   4.010   6.825
 8554SOL     OW26560   0.254   5.565   0.927
 8554SOL    HW126561   0.273   5.471   0.900
 8554SOL    HW226562   0.158   5.574   0.952
 8555SOL     OW26563   3.843   1.457   3.437
 8555SOL    HW126564   3.807   1.539   3.481
 8555SOL    HW226565   3.839   1.381   3.502
 8556SOL     OW26566   2.204   6.259   5.101
 8556SOL    HW126567   2.109   6.229   5.103
 8556SOL    HW226568   2.252   6.224   5.181
 8557SOL     OW26569   6.629   0.383   2.085
 8557SOL    HW126570   6.550   0.440   2.107
 8557SOL    HW226571   6.603   0.286   2.092
 8558SOL     OW26572   2.083   5.418   3.075
 8558SOL    HW126573   2.157   5.485   3.075
 8558SOL    HW226574   2.100   5.349   3.146
 8559SOL     OW26575   1.909   6.544   2.623
 8559SOL    HW126576   1.832   6.557   2.561
 8559SOL    HW226577   1.920   6.626   2.680
 8560SOL     OW26578   0.987   5.445   1.995
 8560SOL    HW126579   1.014   5.509   1.923
 8560SOL    HW226580   0.908   5.482   2.044
 8561SOL     OW26581   3.293   7.006   3.568
 8561SOL    HW126582   3.245   7.006   3.480
 8561SOL    HW226583   3.389   0.005   3.554
 8562SOL     OW26584   3.365   6.467   0.017
 8562SOL    HW126585   3.318   6.555   0.023
 8562SOL    HW226586   3.384   6.447   6.942
 8563SOL     OW26587   0.859   4.967   1.857
 8563SOL    HW126588   0.873   5.065   1.847
 8563SOL    HW226589   0.934   4.917   1.815
 8564SOL     OW26590   3.213   6.467   5.613
 8564SOL    HW126591   3.261   6.413   5.682
 8564SOL    HW226592   3.145   6.526   5.658
 8565SOL     OW26593   3.502   4.815   1.236
 8565SOL    HW126594   3.547   4.783   1.152
 8565SOL    HW226595   3.419   4.762   1.251
 8566SOL     OW26596   1.038   0.448   1.464
 8566SOL    HW126597   1.032   0.409   1.555
 8566SOL    HW226598   0.948   0.482   1.436
 8567SOL     OW26599   0.874   2.040   2.092
 8567SOL    HW126600   0.814   2.064   2.016
 8567SOL    HW226601   0.915   1.951   2.075
 8568SOL     OW26602   5.535   2.270   0.380
 8568SOL    HW126603   5.524   2.191   0.440
 8568SOL    HW226604   5.631   2.296   0.376
 8569SOL     OW26605   5.689   1.895   5.333
 8569SOL    HW126606   5.680   1.988   5.368
 8569SOL    HW226607   5.633   1.886   5.250
 8570SOL     OW26608   1.185   1.404   4.623
 8570SOL    HW126609   1.261   1.352   4.585
 8570SOL    HW226610   1.113   1.342   4.653
 8571SOL     OW26611   0.765   6.714   5.089
 8571SOL    HW126612   0.673   6.699   5.051
 8571SOL    HW226613   0.831   6.661   5.037
 8572SOL     OW26614   1.787   4.463   5.524
 8572SOL    HW126615   1.874   4.415   5.533
 8572SOL    HW226616   1.764   4.509   5.610
 8573SOL     OW26617   3.373   5.745   6.157
 8573SOL    HW126618   3.406   5.765   6.064
 8573SOL    HW226619   3.282   5.783   6.169
 8574SOL     OW26620   5.912   0.126   6.242
 8574SOL    HW126621   5.910   0.196   6.170
 8574SOL    HW226622   5.820   0.086   6.252
 8575SOL     OW26623   3.044   2.025   3.617
 8575SOL    HW126624   3.083   2.099   3.672
 8575SOL    HW226625   3.058   2.045   3.520
 8576SOL     OW26626   1.728   4.949   3.885
 8576SOL    HW126627   1.750   4.893   3.965
 8576SOL    HW226628   1.744   5.045   3.907
 8577SOL     OW26629   1.718   0.181   6.048
 8577SOL    HW126630   1.801   0.226   6.016
 8577SOL    HW226631   1.640   0.209   5.992
 8578SOL     OW26632   6.592   4.834   5.579
 8578SOL    HW126633   6.655   4.870   5.647
 8578SOL    HW226634   6.520   4.901   5.561
 8579SOL     OW26635   1.744   6.244   2.097
 8579SOL    HW126636   1.790   6.322   2.055
 8579SOL    HW226637   1.812   6.186   2.141
 8580SOL     OW26638   1.953   5.934   0.827
 8580SOL    HW126639   1.957   5.902   0.732
 8580SOL    HW226640   1.858   5.949   0.853
 8581SOL     OW26641   3.430   4.506   1.317
 8581SOL    HW126642   3.380   4.422   1.338
 8581SOL    HW226643   3.371   4.567   1.264
 8582SOL     OW26644   4.715   4.597   5.237
 8582SOL    HW126645   4.810   4.606   5.264
 8582SOL    HW226646   4.696   4.501   5.214
 8583SOL     OW26647   3.744   6.822   3.237
 8583SOL    HW126648   3.824   6.765   3.220
 8583SOL    HW226649   3.740   6.846   3.334
 8584SOL     OW26650   1.077   6.262   5.504
 8584SOL    HW126651   1.051   6.351   5.466
 8584SOL    HW226652   1.037   6.189   5.447
 8585SOL     OW26653   6.079   1.066   1.010
 8585SOL    HW126654   6.138   1.045   0.932
 8585SOL    HW226655   5.984   1.066   0.980
 8586SOL     OW26656   3.647   6.929   1.648
 8586SOL    HW126657   3.678   6.935   1.743
 8586SOL    HW226658   3.661   6.836   1.614
 8587SOL     OW26659   0.762   1.378   4.848
 8587SOL    HW126660   0.730   1.450   4.909
 8587SOL    HW226661   0.768   1.292   4.899
 8588SOL     OW26662   4.731   1.317   6.950
 8588SOL    HW126663   4.705   1.245   7.014
 8588SOL    HW226664   4.693   1.405   6.981
 8589SOL     OW26665   6.187   2.859   4.969
 8589SOL    HW126666   6.251   2.821   4.904
 8589SOL    HW226667   6.235   2.921   5.031
 8590SOL     OW26668   0.771   0.422   2.140
 8590SOL    HW126669   0.675   0.451   2.145
 8590SOL    HW226670   0.828   0.491   2.185
 8591SOL     OW26671   0.296   4.129   0.194
 8591SOL    HW126672   0.318   4.087   0.106
 8591SOL    HW226673   0.223   4.077   0.239
 8592SOL     OW26674   5.663   1.799   0.006
 8592SOL    HW126675   5.736   1.825   6.964
 8592SOL    HW226676   5.616   1.880   0.039
 8593SOL     OW26677   3.179   1.078   6.712
 8593SOL    HW126678   3.259   1.019   6.724
 8593SOL    HW226679   3.191   1.161   6.766
 8594SOL     OW26680   5.719   1.938   5.775
 8594SOL    HW126681   5.747   2.033   5.792
 8594SOL    HW226682   5.717   1.888   5.862
 8595SOL     OW26683   6.413   1.317   4.217
 8595SOL    HW126684   6.323   1.347   4.247
 8595SOL    HW226685   6.403   1.235   4.160
 8596SOL     OW26686   1.281   5.081   2.837
 8596SOL    HW126687   1.257   5.160   2.893
 8596SOL    HW226688   1.258   4.997   2.887
 8597SOL     OW26689   5.265   2.461   1.748
 8597SOL    HW126690   5.296   2.550   1.714
 8597SOL    HW226691   5.296   2.389   1.686
 8598SOL     OW26692   5.460   0.382   6.274
 8598SOL    HW126693   5.465   0.342   6.365
 8598SOL    HW226694   5.452   0.310   6.205
 8599SOL     OW26695   1.728   2.663   5.226
 8599SOL    HW126696   1.798   2.609   5.273
 8599SOL    HW226697   1.765   2.697   5.139
 8600SOL     OW26698   5.315   3.672   0.003
 8600SOL    HW126699   5.266   3.728   6.957
 8600SOL    HW226700   5.293   3.576   7.009
 8601SOL     OW26701   0.843   1.757   3.690
 8601SOL    HW126702   0.752   1.798   3.693
 8601SOL    HW226703   0.895   1.786   3.770
 8602SOL     OW26704   2.376   6.989   2.423
 8602SOL    HW126705   2.309   0.019   2.477
 8602SOL    HW226706   2.349   6.990   2.327
 8603SOL     OW26707   5.140   0.054   1.215
 8603SOL    HW126708   5.225   0.024   1.172
 8603SOL    HW226709   5.160   0.129   1.279
 8604SOL     OW26710   1.282   1.794   6.109
 8604SOL    HW126711   1.331   1.861   6.165
 8604SOL    HW226712   1.185   1.818   6.106
 8605SOL     OW26713   2.306   5.203   3.553
 8605SOL    HW126714   2.254   5.121   3.525
 8605SOL    HW226715   2.287   5.223   3.649
 8606SOL     OW26716   2.200   3.069   6.946
 8606SOL    HW126717   2.138   3.079   0.003
 8606SOL    HW226718   2.176   2.987   6.895
 8607SOL     OW26719   2.507   4.832   6.142
 8607SOL    HW126720   2.438   4.781   6.193
 8607SOL    HW226721   2.556   4.893   6.204
 8608SOL     OW26722   2.402   4.783   2.441
 8608SOL    HW126723   2.424   4.842   2.519
 8608SOL    HW226724   2.307   4.753   2.448
 8609SOL     OW26725   5.070   0.937   3.271
 8609SOL    HW126726   5.033   0.860   3.220
 8609SOL    HW226727   5.024   1.021   3.242
 8610SOL     OW26728   0.580   0.874   2.643
 8610SOL    HW126729   0.487   0.896   2.613
 8610SOL    HW226730   0.582   0.866   2.743
 8611SOL     OW26731   2.815   1.276   4.128
 8611SOL    HW126732   2.890   1.227   4.172
 8611SOL    HW226733   2.849   1.322   4.046
 8612SOL     OW26734   2.889   3.157   1.310
 8612SOL    HW126735   2.940   3.202   1.236
 8612SOL    HW226736   2.854   3.227   1.373
 8613SOL     OW26737   2.704   1.836   1.831
 8613SOL    HW126738   2.715   1.910   1.765
 8613SOL    HW226739   2.674   1.874   1.919
 8614SOL     OW26740   0.787   2.987   3.354
 8614SOL    HW126741   0.871   3.035   3.378
 8614SOL    HW226742   0.797   2.890   3.376
 8615SOL     OW26743   4.316   1.828   5.014
 8615SOL    HW126744   4.379   1.792   5.083
 8615SOL    HW226745   4.309   1.927   5.024
 8616SOL     OW26746   3.016   4.841   1.987
 8616SOL    HW126747   2.947   4.910   2.010
 8616SOL    HW226748   2.977   4.750   1.998
 8617SOL     OW26749   5.953   1.186   4.122
 8617SOL    HW126750   5.926   1.236   4.040
 8617SOL    HW226751   5.976   1.092   4.098
 8618SOL     OW26752   6.389   4.974   1.535
 8618SOL    HW126753   6.437   4.887   1.526
 8618SOL    HW226754   6.443   5.036   1.592
 8619SOL     OW26755   4.265   5.332   2.401
 8619SOL    HW126756   4.189   5.396   2.386
 8619SOL    HW226757   4.259   5.294   2.494
 8620SOL     OW26758   2.121   6.015   3.644
 8620SOL    HW126759   2.099   5.986   3.737
 8620SOL    HW226760   2.072   6.099   3.623
 8621SOL     OW26761   5.068   2.884   2.182
 8621SOL    HW126762   4.984   2.909   2.230
 8621SOL    HW226763   5.146   2.894   2.244
 8622SOL     OW26764   5.005   4.368   1.311
 8622SOL    HW126765   4.906   4.378   1.303
 8622SOL    HW226766   5.043   4.342   1.223
 8623SOL     OW26767   1.344   4.291   5.490
 8623SOL    HW126768   1.433   4.311   5.449
 8623SOL    HW226769   1.319   4.196   5.471
 8624SOL     OW26770   2.133   3.772   5.377
 8624SOL    HW126771   2.068   3.764   5.452
 8624SOL    HW226772   2.207   3.834   5.403
 8625SOL     OW26773   5.103   1.068   5.418
 8625SOL    HW126774   5.142   1.146   5.468
 8625SOL    HW226775   5.159   1.048   5.338
 8626SOL     OW26776   4.003   2.261   6.890
 8626SOL    HW126777   4.020   2.360   6.890
 8626SOL    HW226778   3.917   2.242   6.937
 8627SOL     OW26779   2.096   1.701   2.217
 8627SOL    HW126780   2.088   1.791   2.258
 8627SOL    HW226781   2.078   1.707   2.119
 8628SOL     OW26782   5.791   6.427   0.530
 8628SOL    HW126783   5.772   6.522   0.552
 8628SOL    HW226784   5.829   6.421   0.438
 8629SOL     OW26785   1.756   6.482   5.103
 8629SOL    HW126786   1.808   6.398   5.091
 8629SOL    HW226787   1.659   6.460   5.117
 8630SOL     OW26788   5.253   3.283   3.695
 8630SOL    HW126789   5.196   3.213   3.652
 8630SOL    HW226790   5.324   3.240   3.749
 8631SOL     OW26791   1.106   5.447   5.927
 8631SOL    HW126792   1.168   5.381   5.884
 8631SOL    HW226793   1.158   5.504   5.990
 8632SOL     OW26794   4.251   4.972   5.299
 8632SOL    HW126795   4.229   4.896   5.238
 8632SOL    HW226796   4.243   4.941   5.394
 8633SOL     OW26797   5.724   2.790   5.843
 8633SOL    HW126798   5.692   2.852   5.771
 8633SOL    HW226799   5.650   2.775   5.909
 8634SOL     OW26800   4.852   3.988   6.662
 8634SOL    HW126801   4.811   3.897   6.674
 8634SOL    HW226802   4.909   4.009   6.741
 8635SOL     OW26803   5.428   2.869   6.692
 8635SOL    HW126804   5.455   2.965   6.703
 8635SOL    HW226805   5.336   2.856   6.729
 8636SOL     OW26806   5.649   6.352   0.908
 8636SOL    HW126807   5.584   6.342   0.833
 8636SOL    HW226808   5.600   6.376   0.992
 8637SOL     OW26809   1.698   1.747   6.623
 8637SOL    HW126810   1.691   1.650   6.597
 8637SOL    HW226811   1.618   1.773   6.677
 8638SOL     OW26812   3.792   2.144   4.970
 8638SOL    HW126813   3.800   2.053   5.012
 8638SOL    HW226814   3.720   2.142   4.901
 8639SOL     OW26815   5.214   2.908   6.964
 8639SOL    HW126816   5.204   2.836   0.012
 8639SOL    HW226817   5.156   2.887   6.886
 8640SOL     OW26818   3.674   3.153   0.186
 8640SOL    HW126819   3.645   3.113   0.273
 8640SOL    HW226820   3.616   3.231   0.164
 8641SOL     OW26821   4.064   4.806   4.399
 8641SOL    HW126822   4.035   4.828   4.492
 8641SOL    HW226823   3.996   4.840   4.334
 8642SOL     OW26824   0.966   6.570   4.229
 8642SOL    HW126825   0.993   6.485   4.185
 8642SOL    HW226826   0.916   6.549   4.313
 8643SOL     OW26827   1.567   0.847   6.974
 8643SOL    HW126828   1.528   0.851   6.882
 8643SOL    HW226829   1.632   0.771   6.979
 8644SOL     OW26830   5.627   2.271   5.761
 8644SOL    HW126831   5.726   2.265   5.777
 8644SOL    HW226832   5.610   2.300   5.667
 8645SOL     OW26833   4.383   4.625   1.354
 8645SOL    HW126834   4.357   4.619   1.258
 8645SOL    HW226835   4.481   4.610   1.363
 8646SOL     OW26836   0.578   2.092   6.645
 8646SOL    HW126837   0.583   1.992   6.643
 8646SOL    HW226838   0.581   2.123   6.740
 8647SOL     OW26839   2.678   4.665   6.864
 8647SOL    HW126840   2.767   4.709   6.850
 8647SOL    HW226841   2.666   4.591   6.799
 8648SOL     OW26842   6.894   0.279   2.420
 8648SOL    HW126843   6.940   0.205   2.371
 8648SOL    HW226844   6.961   0.331   2.473
 8649SOL     OW26845   5.777   5.744   0.050
 8649SOL    HW126846   5.683   5.759   0.021
 8649SOL    HW226847   5.812   5.826   0.096
 8650SOL     OW26848   1.484   6.416   5.109
 8650SOL    HW126849   1.440   6.445   5.023
 8650SOL    HW226850   1.503   6.318   5.105
 8651SOL     OW26851   4.025   0.528   0.513
 8651SOL    HW126852   4.022   0.627   0.503
 8651SOL    HW226853   3.953   0.486   0.458
 8652SOL     OW26854   1.111   4.859   3.160
 8652SOL    HW126855   1.156   4.771   3.145
 8652SOL    HW226856   1.023   4.860   3.112
 8653SOL     OW26857   7.007   0.999   6.481
 8653SOL    HW126858   6.990   1.037   6.390
 8653SOL    HW226859   0.067   1.042   6.521
 8654SOL     OW26860   0.628   4.777   1.463
 8654SOL    HW126861   0.637   4.724   1.378
 8654SOL    HW226862   0.660   4.870   1.447
 8655SOL     OW26863   5.675   0.371   4.414
 8655SOL    HW126864   5.725   0.284   4.415
 8655SOL    HW226865   5.697   0.421   4.330
 8656SOL     OW26866   6.539   0.687   2.305
 8656SOL    HW126867   6.488   0.620   2.252
 8656SOL    HW226868   6.531   0.777   2.263
 8657SOL     OW26869   5.348   5.737   7.008
 8657SOL    HW126870   5.379   5.644   6.993
 8657SOL    HW226871   5.248   5.741   7.000
 8658SOL     OW26872   6.382   6.393   0.448
 8658SOL    HW126873   6.402   6.458   0.375
 8658SOL    HW226874   6.459   6.329   0.458
 8659SOL     OW26875   5.032   2.591   2.500
 8659SOL    HW126876   5.074   2.636   2.578
 8659SOL    HW226877   5.097   2.526   2.460
 8660SOL     OW26878   6.451   3.686   2.034
 8660SOL    HW126879   6.354   3.711   2.034
 8660SOL    HW226880   6.496   3.724   2.115
 8661SOL     OW26881   6.358   3.873   1.426
 8661SOL    HW126882   6.260   3.851   1.426
 8661SOL    HW226883   6.382   3.916   1.513
 8662SOL     OW26884   4.318   5.416   1.684
 8662SOL    HW126885   4.371   5.355   1.742
 8662SOL    HW226886   4.225   5.382   1.675
 8663SOL     OW26887   2.336   5.439   2.079
 8663SOL    HW126888   2.281   5.516   2.112
 8663SOL    HW226889   2.285   5.390   2.008
 8664SOL     OW26890   2.553   4.764   1.455
 8664SOL    HW126891   2.515   4.835   1.514
 8664SOL    HW226892   2.589   4.805   1.371
 8665SOL     OW26893   5.790   5.389   5.108
 8665SOL    HW126894   5.856   5.372   5.035
 8665SOL    HW226895   5.719   5.319   5.106
 8666SOL     OW26896   5.643   0.951   3.834
 8666SOL    HW126897   5.654   0.888   3.910
 8666SOL    HW226898   5.718   0.938   3.769
 8667SOL     OW26899   4.836   2.224   4.291
 8667SOL    HW126900   4.894   2.266   4.361
 8667SOL    HW226901   4.862   2.128   4.280
 8668SOL     OW26902   5.482   3.800   3.978
 8668SOL    HW126903   5.563   3.773   3.927
 8668SOL    HW226904   5.459   3.895   3.956
 8669SOL     OW26905   0.378   6.125   6.702
 8669SOL    HW126906   0.464   6.078   6.684
 8669SOL    HW226907   0.374   6.210   6.649
 8670SOL     OW26908   3.983   5.267   6.410
 8670SOL    HW126909   4.021   5.357   6.430
 8670SOL    HW226910   4.041   5.220   6.344
 8671SOL     OW26911   0.275   1.643   3.503
 8671SOL    HW126912   0.317   1.553   3.497
 8671SOL    HW226913   0.176   1.634   3.513
 8672SOL     OW26914   0.426   5.885   3.765
 8672SOL    HW126915   0.472   5.943   3.832
 8672SOL    HW226916   0.422   5.791   3.800
 8673SOL     OW26917   6.149   1.719   0.216
 8673SOL    HW126918   6.209   1.670   0.153
 8673SOL    HW226919   6.120   1.657   0.289
 8674SOL     OW26920   5.740   5.499   3.108
 8674SOL    HW126921   5.761   5.447   3.025
 8674SOL    HW226922   5.824   5.530   3.151
 8675SOL     OW26923   4.288   1.419   4.976
 8675SOL    HW126924   4.357   1.403   5.046
 8675SOL    HW226925   4.303   1.507   4.933
 8676SOL     OW26926   4.926   6.924   3.121
 8676SOL    HW126927   4.928   6.828   3.147
 8676SOL    HW226928   4.947   6.981   3.200
 8677SOL     OW26929   1.874   5.783   5.657
 8677SOL    HW126930   1.953   5.761   5.714
 8677SOL    HW226931   1.826   5.699   5.634
 8678SOL     OW26932   0.823   7.009   0.720
 8678SOL    HW126933   0.807   6.931   0.780
 8678SOL    HW226934   0.846   6.976   0.628
 8679SOL     OW26935   1.133   1.296   3.268
 8679SOL    HW126936   1.117   1.241   3.186
 8679SOL    HW226937   1.214   1.354   3.253
 8680SOL     OW26938   6.127   3.721   0.260
 8680SOL    HW126939   6.056   3.721   0.190
 8680SOL    HW226940   6.095   3.772   0.340
 8681SOL     OW26941   4.681   5.524   1.533
 8681SOL    HW126942   4.667   5.591   1.606
 8681SOL    HW226943   4.598   5.468   1.523
 8682SOL     OW26944   6.143   0.123   2.630
 8682SOL    HW126945   6.205   0.050   2.658
 8682SOL    HW226946   6.093   0.095   2.548
 8683SOL     OW26947   1.746   1.925   5.475
 8683SOL    HW126948   1.715   2.014   5.510
 8683SOL    HW226949   1.670   1.860   5.475
 8684SOL     OW26950   5.996   3.377   4.324
 8684SOL    HW126951   5.945   3.311   4.268
 8684SOL    HW226952   6.007   3.463   4.273
 8685SOL     OW26953   6.259   3.059   6.613
 8685SOL    HW126954   6.242   3.141   6.667
 8685SOL    HW226955   6.290   2.985   6.673
 8686SOL     OW26956   6.880   0.761   2.124
 8686SOL    HW126957   6.919   0.704   2.197
 8686SOL    HW226958   6.858   0.851   2.161
 8687SOL     OW26959   5.454   5.237   2.946
 8687SOL    HW126960   5.542   5.283   2.940
 8687SOL    HW226961   5.383   5.302   2.974
 8688SOL     OW26962   1.359   5.128   6.793
 8688SOL    HW126963   1.426   5.054   6.787
 8688SOL    HW226964   1.371   5.176   6.880
 8689SOL     OW26965   4.134   2.495   0.558
 8689SOL    HW126966   4.128   2.494   0.658
 8689SOL    HW226967   4.217   2.450   0.529
 8690SOL     OW26968   1.296   3.568   4.461
 8690SOL    HW126969   1.352   3.491   4.430
 8690SOL    HW226970   1.253   3.546   4.548
 8691SOL     OW26971   4.169   2.202   6.095
 8691SOL    HW126972   4.079   2.209   6.052
 8691SOL    HW226973   4.202   2.108   6.087
 8692SOL     OW26974   3.519   0.676   4.331
 8692SOL    HW126975   3.560   0.603   4.277
 8692SOL    HW226976   3.563   0.681   4.421
 8693SOL     OW26977   5.799   0.340   0.342
 8693SOL    HW126978   5.810   0.269   0.413
 8693SOL    HW226979   5.833   0.427   0.377
 8694SOL     OW26980   5.574   1.405   4.569
 8694SOL    HW126981   5.599   1.328   4.627
 8694SOL    HW226982   5.585   1.491   4.620
 8695SOL     OW26983   4.340   3.121   6.452
 8695SOL    HW126984   4.374   3.122   6.546
 8695SOL    HW226985   4.263   3.184   6.445
 8696SOL     OW26986   3.101   5.587   5.306
 8696SOL    HW126987   3.046   5.666   5.277
 8696SOL    HW226988   3.065   5.504   5.262
 8697SOL     OW26989   0.538   4.229   6.683
 8697SOL    HW126990   0.622   4.268   6.719
 8697SOL    HW226991   0.476   4.303   6.654
 8698SOL     OW26992   4.650   5.741   4.728
 8698SOL    HW126993   4.696   5.677   4.789
 8698SOL    HW226994   4.624   5.823   4.779
 8699SOL     OW26995   1.578   3.020   4.975
 8699SOL    HW126996   1.627   3.106   4.987
 8699SOL    HW226997   1.585   2.990   4.880
 8700SOL     OW26998   0.755   0.726   4.760
 8700SOL    HW126999   0.791   0.819   4.752
 8700SOL    HW227000   0.692   0.721   4.837
 8701SOL     OW27001   1.919   1.214   0.348
 8701SOL    HW127002   2.017   1.195   0.355
 8701SOL    HW227003   1.890   1.265   0.429
 8702SOL     OW27004   5.371   5.205   1.778
 8702SOL    HW127005   5.277   5.219   1.809
 8702SOL    HW227006   5.418   5.293   1.776
 8703SOL     OW27007   2.986   4.450   6.809
 8703SOL    HW127008   3.010   4.425   6.715
 8703SOL    HW227009   2.988   4.550   6.817
 8704SOL     OW27010   0.215   4.587   3.375
 8704SOL    HW127011   0.198   4.545   3.286
 8704SOL    HW227012   0.249   4.518   3.439
 8705SOL     OW27013   4.849   1.945   6.013
 8705SOL    HW127014   4.793   1.908   6.087
 8705SOL    HW227015   4.926   1.996   6.051
 8706SOL     OW27016   4.450   2.057   0.071
 8706SOL    HW127017   4.549   2.065   0.075
 8706SOL    HW227018   4.411   2.074   0.161
 8707SOL     OW27019   0.826   2.395   4.511
 8707SOL    HW127020   0.870   2.414   4.423
 8707SOL    HW227021   0.749   2.332   4.497
 8708SOL     OW27022   3.968   1.801   3.488
 8708SOL    HW127023   3.928   1.882   3.531
 8708SOL    HW227024   3.899   1.756   3.432
 8709SOL     OW27025   6.594   6.782   6.719
 8709SOL    HW127026   6.580   6.824   6.808
 8709SOL    HW227027   6.558   6.842   6.648
 8710SOL     OW27028   1.952   2.636   3.672
 8710SOL    HW127029   1.883   2.565   3.687
 8710SOL    HW227030   2.042   2.601   3.698
 8711SOL     OW27031   2.202   6.476   3.089
 8711SOL    HW127032   2.144   6.401   3.121
 8711SOL    HW227033   2.162   6.563   3.116
 8712SOL     OW27034   3.178   1.368   4.685
 8712SOL    HW127035   3.151   1.272   4.692
 8712SOL    HW227036   3.176   1.411   4.775
 8713SOL     OW27037   6.961   3.498   1.794
 8713SOL    HW127038   6.996   3.421   1.847
 8713SOL    HW227039   6.862   3.494   1.789
 8714SOL     OW27040   1.508   0.556   5.840
 8714SOL    HW127041   1.412   0.528   5.850
 8714SOL    HW227042   1.544   0.584   5.929
 8715SOL     OW27043   3.957   0.868   0.325
 8715SOL    HW127044   3.979   0.944   0.264
 8715SOL    HW227045   3.983   0.782   0.281
 8716SOL     OW27046   0.240   6.257   6.899
 8716SOL    HW127047   0.141   6.260   6.885
 8716SOL    HW227048   0.283   6.209   6.822
 8717SOL     OW27049   2.753   3.414   5.348
 8717SOL    HW127050   2.833   3.472   5.362
 8717SOL    HW227051   2.754   3.340   5.416
 8718SOL     OW27052   1.408   1.983   6.233
 8718SOL    HW127053   1.450   1.976   6.324
 8718SOL    HW227054   1.464   2.043   6.176
 8719SOL     OW27055   3.318   0.246   0.208
 8719SOL    HW127056   3.291   0.311   0.279
 8719SOL    HW227057   3.240   0.231   0.146
 8720SOL     OW27058   1.142   6.663   5.881
 8720SOL    HW127059   1.179   6.670   5.973
 8720SOL    HW227060   1.217   6.663   5.815
 8721SOL     OW27061   6.315   1.560   0.840
 8721SOL    HW127062   6.293   1.481   0.899
 8721SOL    HW227063   6.233   1.588   0.791
 8722SOL     OW27064   3.283   0.727   1.442
 8722SOL    HW127065   3.359   0.771   1.491
 8722SOL    HW227066   3.289   0.628   1.454
 8723SOL     OW27067   5.241   0.165   1.826
 8723SOL    HW127068   5.260   0.259   1.853
 8723SOL    HW227069   5.172   0.164   1.753
 8724SOL     OW27070   5.780   0.095   4.329
 8724SOL    HW127071   5.797   0.018   4.391
 8724SOL    HW227072   5.740   0.062   4.244
 8725SOL     OW27073   1.155   5.748   5.749
 8725SOL    HW127074   1.162   5.809   5.671
 8725SOL    HW227075   1.114   5.662   5.721
 8726SOL     OW27076   0.337   0.669   1.935
 8726SOL    HW127077   0.324   0.763   1.967
 8726SOL    HW227078   0.247   0.624   1.930
 8727SOL     OW27079   6.199   0.363   1.248
 8727SOL    HW127080   6.235   0.289   1.191
 8727SOL    HW227081   6.157   0.433   1.191
 8728SOL     OW27082   5.698   1.078   2.438
 8728SOL    HW127083   5.665   1.050   2.347
 8728SOL    HW227084   5.620   1.084   2.501
 8729SOL     OW27085   3.520   4.789   5.221
 8729SOL    HW127086   3.474   4.732   5.289
 8729SOL    HW227087   3.617   4.764   5.217
 8730SOL     OW27088   5.238   4.052   3.110
 8730SOL    HW127089   5.188   3.994   3.175
 8730SOL    HW227090   5.184   4.062   3.026
 8731SOL     OW27091   0.813   3.674   3.063
 8731SOL    HW127092   0.844   3.757   3.109
 8731SOL    HW227093   0.822   3.596   3.126
 8732SOL     OW27094   5.952   4.751   2.428
 8732SOL    HW127095   5.935   4.653   2.421
 8732SOL    HW227096   6.017   4.769   2.502
 8733SOL     OW27097   1.316   5.858   0.722
 8733SOL    HW127098   1.222   5.826   0.719
 8733SOL    HW227099   1.338   5.890   0.814
 8734SOL     OW27100   0.572   3.156   3.391
 8734SOL    HW127101   0.546   3.222   3.320
 8734SOL    HW227102   0.654   3.108   3.362
 8735SOL     OW27103   0.916   2.683   5.614
 8735SOL    HW127104   1.015   2.685   5.629
 8735SOL    HW227105   0.896   2.700   5.518
 8736SOL     OW27106   6.755   5.478   2.138
 8736SOL    HW127107   6.706   5.565   2.140
 8736SOL    HW227108   6.833   5.485   2.077
 8737SOL     OW27109   2.421   7.011   6.958
 8737SOL    HW127110   2.491   6.983   0.002
 8737SOL    HW227111   2.445   0.078   6.918
 8738SOL     OW27112   2.528   5.577   3.110
 8738SOL    HW127113   2.578   5.663   3.105
 8738SOL    HW227114   2.430   5.597   3.120
 8739SOL     OW27115   5.543   5.663   6.151
 8739SOL    HW127116   5.612   5.671   6.223
 8739SOL    HW227117   5.570   5.717   6.072
 8740SOL     OW27118   4.113   1.414   3.336
 8740SOL    HW127119   4.041   1.475   3.368
 8740SOL    HW227120   4.197   1.431   3.389
 8741SOL     OW27121   2.194   0.650   2.863
 8741SOL    HW127122   2.208   0.552   2.879
 8741SOL    HW227123   2.111   0.663   2.810
 8742SOL     OW27124   4.681   0.740   1.897
 8742SOL    HW127125   4.691   0.778   1.989
 8742SOL    HW227126   4.656   0.814   1.834
 8743SOL     OW27127   1.540   0.320   1.190
 8743SOL    HW127128   1.568   0.415   1.173
 8743SOL    HW227129   1.484   0.317   1.273
 8744SOL     OW27130   4.445   2.804   0.677
 8744SOL    HW127131   4.433   2.880   0.614
 8744SOL    HW227132   4.355   2.775   0.712
 8745SOL     OW27133   6.077   2.357   6.096
 8745SOL    HW127134   5.991   2.399   6.126
 8745SOL    HW227135   6.140   2.350   6.174
 8746SOL     OW27136   5.061   5.628   4.092
 8746SOL    HW127137   4.963   5.612   4.105
 8746SOL    HW227138   5.100   5.668   4.175
 8747SOL     OW27139   0.655   1.358   2.594
 8747SOL    HW127140   0.584   1.328   2.530
 8747SOL    HW227141   0.736   1.388   2.543
 8748SOL     OW27142   0.602   2.175   4.512
 8748SOL    HW127143   0.688   2.128   4.530
 8748SOL    HW227144   0.537   2.111   4.472
 8749SOL     OW27145   1.742   0.124   5.551
 8749SOL    HW127146   1.774   0.061   5.622
 8749SOL    HW227147   1.719   0.212   5.593
 8750SOL     OW27148   3.359   3.629   5.591
 8750SOL    HW127149   3.370   3.648   5.493
 8750SOL    HW227150   3.270   3.587   5.606
 8751SOL     OW27151   6.846   1.337   2.190
 8751SOL    HW127152   6.925   1.398   2.193
 8751SOL    HW227153   6.849   1.275   2.269
 8752SOL     OW27154   3.508   2.739   6.994
 8752SOL    HW127155   3.577   2.789   6.941
 8752SOL    HW227156   3.554   2.671   0.031
 8753SOL     OW27157   2.510   2.394   6.473
 8753SOL    HW127158   2.448   2.460   6.430
 8753SOL    HW227159   2.482   2.301   6.448
 8754SOL     OW27160   2.183   4.812   5.449
 8754SOL    HW127161   2.239   4.893   5.468
 8754SOL    HW227162   2.237   4.744   5.400
 8755SOL     OW27163   2.196   0.376   0.874
 8755SOL    HW127164   2.122   0.310   0.861
 8755SOL    HW227165   2.158   0.468   0.876
 8756SOL     OW27166   1.755   3.110   3.467
 8756SOL    HW127167   1.775   3.198   3.423
 8756SOL    HW227168   1.831   3.085   3.528
 8757SOL     OW27169   4.777   5.808   0.019
 8757SOL    HW127170   4.804   5.900   7.010
 8757SOL    HW227171   4.757   5.752   6.960
 8758SOL     OW27172   4.744   6.345   2.791
 8758SOL    HW127173   4.719   6.264   2.844
 8758SOL    HW227174   4.740   6.324   2.694
 8759SOL     OW27175   5.450   3.126   6.717
 8759SOL    HW127176   5.409   3.216   6.734
 8759SOL    HW227177   5.539   3.121   6.762
 8760SOL     OW27178   2.916   0.229   4.887
 8760SOL    HW127179   2.987   0.290   4.852
 8760SOL    HW227180   2.840   0.227   4.823
 8761SOL     OW27181   6.117   2.120   1.112
 8761SOL    HW127182   6.082   2.166   1.031
 8761SOL    HW227183   6.101   2.021   1.104
 8762SOL     OW27184   0.328   5.405   4.385
 8762SOL    HW127185   0.399   5.475   4.395
 8762SOL    HW227186   0.366   5.315   4.406
 8763SOL     OW27187   5.952   0.166   5.781
 8763SOL    HW127188   5.858   0.141   5.804
 8763SOL    HW227189   5.990   0.225   5.853
 8764SOL     OW27190   4.543   6.885   5.857
 8764SOL    HW127191   4.549   6.983   5.880
 8764SOL    HW227192   4.454   6.865   5.818
 8765SOL     OW27193   4.829   1.135   4.314
 8765SOL    HW127194   4.766   1.060   4.296
 8765SOL    HW227195   4.921   1.109   4.285
 8766SOL     OW27196   4.258   4.246   5.380
 8766SOL    HW127197   4.257   4.301   5.297
 8766SOL    HW227198   4.205   4.162   5.366
 8767SOL     OW27199   4.862   6.633   3.107
 8767SOL    HW127200   4.899   6.604   3.018
 8767SOL    HW227201   4.772   6.673   3.094
 8768SOL     OW27202   0.691   2.750   1.118
 8768SOL    HW127203   0.706   2.785   1.026
 8768SOL    HW227204   0.760   2.682   1.140
 8769SOL     OW27205   0.050   0.924   2.639
 8769SOL    HW127206   7.003   0.858   2.608
 8769SOL    HW227207   0.030   0.952   2.733
 8770SOL     OW27208   4.644   4.399   2.436
 8770SOL    HW127209   4.686   4.390   2.526
 8770SOL    HW227210   4.682   4.329   2.375
 8771SOL     OW27211   1.071   2.338   6.229
 8771SOL    HW127212   0.978   2.301   6.230
 8771SOL    HW227213   1.120   2.303   6.150
 8772SOL     OW27214   4.571   0.534   6.307
 8772SOL    HW127215   4.473   0.517   6.307
 8772SOL    HW227216   4.620   0.449   6.328
 8773SOL     OW27217   5.801   2.640   3.161
 8773SOL    HW127218   5.743   2.718   3.184
 8773SOL    HW227219   5.763   2.557   3.202
 8774SOL     OW27220   1.027   0.273   0.121
 8774SOL    HW127221   0.940   0.321   0.122
 8774SOL    HW227222   1.099   0.335   0.091
 8775SOL     OW27223   5.384   0.955   5.615
 8775SOL    HW127224   5.422   0.954   5.708
 8775SOL    HW227225   5.362   1.049   5.590
 8776SOL     OW27226   4.876   3.684   0.862
 8776SOL    HW127227   4.840   3.658   0.772
 8776SOL    HW227228   4.872   3.605   0.923
 8777SOL     OW27229   6.549   4.270   3.319
 8777SOL    HW127230   6.499   4.185   3.299
 8777SOL    HW227231   6.643   4.248   3.343
 8778SOL     OW27232   5.421   2.734   5.749
 8778SOL    HW127233   5.359   2.657   5.732
 8778SOL    HW227234   5.430   2.788   5.665
 8779SOL     OW27235   2.159   5.967   2.448
 8779SOL    HW127236   2.088   5.897   2.442
 8779SOL    HW227237   2.237   5.940   2.393
 8780SOL     OW27238   0.659   6.941   2.902
 8780SOL    HW127239   0.658   0.020   2.907
 8780SOL    HW227240   0.587   6.910   2.840
 8781SOL     OW27241   4.955   0.737   3.862
 8781SOL    HW127242   4.948   0.769   3.767
 8781SOL    HW227243   4.941   0.638   3.865
 8782SOL     OW27244   6.457   0.620   1.788
 8782SOL    HW127245   6.467   0.522   1.771
 8782SOL    HW227246   6.526   0.648   1.855
 8783SOL     OW27247   6.791   4.153   3.332
 8783SOL    HW127248   6.790   4.080   3.263
 8783SOL    HW227249   6.875   4.206   3.323
 8784SOL     OW27250   6.628   6.897   6.098
 8784SOL    HW127251   6.709   6.943   6.135
 8784SOL    HW227252   6.568   6.869   6.173
 8785SOL     OW27253   6.535   5.230   6.581
 8785SOL    HW127254   6.558   5.243   6.677
 8785SOL    HW227255   6.465   5.158   6.573
 8786SOL     OW27256   3.001   1.244   1.471
 8786SOL    HW127257   3.009   1.208   1.564
 8786SOL    HW227258   2.921   1.304   1.466
 8787SOL     OW27259   3.008   0.794   2.336
 8787SOL    HW127260   2.996   0.861   2.262
 8787SOL    HW227261   2.993   0.702   2.300
 8788SOL     OW27262   0.026   1.436   5.284
 8788SOL    HW127263   6.954   1.401   5.293
 8788SOL    HW227264   0.024   1.525   5.237
 8789SOL     OW27265   6.357   5.008   5.491
 8789SOL    HW127266   6.359   5.105   5.471
 8789SOL    HW227267   6.262   4.975   5.489
 8790SOL     OW27268   6.239   1.274   6.192
 8790SOL    HW127269   6.264   1.343   6.259
 8790SOL    HW227270   6.302   1.196   6.199
 8791SOL     OW27271   4.576   6.988   4.961
 8791SOL    HW127272   4.664   6.980   4.914
 8791SOL    HW227273   4.573   6.921   5.036
 8792SOL     OW27274   3.438   5.451   2.884
 8792SOL    HW127275   3.480   5.385   2.822
 8792SOL    HW227276   3.340   5.431   2.892
 8793SOL     OW27277   0.822   4.829   2.591
 8793SOL    HW127278   0.757   4.801   2.662
 8793SOL    HW227279   0.858   4.748   2.545
 8794SOL     OW27280   5.936   0.702   3.166
 8794SOL    HW127281   5.844   0.664   3.172
 8794SOL    HW227282   5.944   0.756   3.082
 8795SOL     OW27283   1.226   4.550   5.435
 8795SOL    HW127284   1.307   4.577   5.383
 8795SOL    HW227285   1.246   4.466   5.486
 8796SOL     OW27286   5.810   2.837   2.855
 8796SOL    HW127287   5.751   2.756   2.861
 8796SOL    HW227288   5.754   2.920   2.860
 8797SOL     OW27289   0.026   0.084   5.506
 8797SOL    HW127290   0.088   0.162   5.515
 8797SOL    HW227291   0.029   0.051   5.411
 8798SOL     OW27292   4.269   6.226   6.480
 8798SOL    HW127293   4.292   6.270   6.393
 8798SOL    HW227294   4.352   6.188   6.521
 8799SOL     OW27295   2.647   4.936   3.454
 8799SOL    HW127296   2.600   5.025   3.448
 8799SOL    HW227297   2.636   4.887   3.367
 8800SOL     OW27298   5.286   5.379   6.360
 8800SOL    HW127299   5.282   5.448   6.288
 8800SOL    HW227300   5.193   5.347   6.380
 8801SOL     OW27301   5.660   1.695   4.355
 8801SOL    HW127302   5.735   1.657   4.409
 8801SOL    HW227303   5.606   1.620   4.316
 8802SOL     OW27304   1.364   5.844   5.916
 8802SOL    HW127305   1.307   5.787   5.857
 8802SOL    HW227306   1.381   5.932   5.873
 8803SOL     OW27307   0.175   0.025   0.034
 8803SOL    HW127308   0.105   0.040   0.104
 8803SOL    HW227309   0.170   0.098   6.987
 8804SOL     OW27310   2.473   6.141   1.374
 8804SOL    HW127311   2.506   6.213   1.435
 8804SOL    HW227312   2.550   6.087   1.341
 8805SOL     OW27313   4.408   5.384   3.224
 8805SOL    HW127314   4.453   5.473   3.239
 8805SOL    HW227315   4.312   5.391   3.249
 8806SOL     OW27316   2.535   5.010   0.703
 8806SOL    HW127317   2.620   4.986   0.655
 8806SOL    HW227318   2.535   5.107   0.723
 8807SOL     OW27319   4.451   1.547   0.381
 8807SOL    HW127320   4.501   1.461   0.396
 8807SOL    HW227321   4.507   1.608   0.325
 8808SOL     OW27322   6.786   2.154   5.697
 8808SOL    HW127323   6.748   2.111   5.779
 8808SOL    HW227324   6.716   2.211   5.653
 8809SOL     OW27325   2.561   4.588   3.767
 8809SOL    HW127326   2.509   4.672   3.749
 8809SOL    HW227327   2.562   4.570   3.865
 8810SOL     OW27328   5.927   0.707   5.025
 8810SOL    HW127329   5.926   0.778   5.095
 8810SOL    HW227330   5.834   0.679   5.004
 8811SOL     OW27331   3.177   0.224   2.958
 8811SOL    HW127332   3.183   0.256   3.053
 8811SOL    HW227333   3.190   0.124   2.956
 8812SOL     OW27334   2.299   0.525   0.657
 8812SOL    HW127335   2.270   0.614   0.693
 8812SOL    HW227336   2.291   0.456   0.729
 8813SOL     OW27337   1.539   5.022   2.997
 8813SOL    HW127338   1.457   5.074   2.973
 8813SOL    HW227339   1.607   5.083   3.037
 8814SOL     OW27340   5.839   6.937   0.742
 8814SOL    HW127341   5.919   6.955   0.686
 8814SOL    HW227342   5.863   6.874   0.816
 8815SOL     OW27343   5.606   0.117   1.243
 8815SOL    HW127344   5.685   0.060   1.264
 8815SOL    HW227345   5.524   0.061   1.239
 8816SOL     OW27346   0.952   6.509   6.329
 8816SOL    HW127347   1.016   6.564   6.275
 8816SOL    HW227348   0.929   6.426   6.279
 8817SOL     OW27349   0.375   4.139   4.041
 8817SOL    HW127350   0.319   4.215   4.075
 8817SOL    HW227351   0.471   4.154   4.067
 8818SOL     OW27352   1.026   6.176   3.733
 8818SOL    HW127353   0.958   6.108   3.762
 8818SOL    HW227354   1.116   6.133   3.730
 8819SOL     OW27355   6.365   4.668   5.652
 8819SOL    HW127356   6.279   4.719   5.641
 8819SOL    HW227357   6.442   4.727   5.627
 8820SOL     OW27358   3.086   1.262   4.937
 8820SOL    HW127359   3.006   1.313   4.969
 8820SOL    HW227360   3.057   1.186   4.879
 8821SOL     OW27361   1.371   5.936   0.970
 8821SOL    HW127362   1.351   5.863   1.034
 8821SOL    HW227363   1.305   6.010   0.981
 8822SOL     OW27364   0.607   0.693   3.385
 8822SOL    HW127365   0.637   0.616   3.441
 8822SOL    HW227366   0.513   0.718   3.410
 8823SOL     OW27367   1.959   1.451   2.036
 8823SOL    HW127368   1.956   1.455   2.136
 8823SOL    HW227369   1.950   1.544   1.999
 8824SOL     OW27370   1.617   0.688   0.387
 8824SOL    HW127371   1.662   0.767   0.428
 8824SOL    HW227372   1.685   0.615   0.374
 8825SOL     OW27373   1.460   1.353   1.475
 8825SOL    HW127374   1.414   1.299   1.545
 8825SOL    HW227375   1.522   1.419   1.519
 8826SOL     OW27376   0.978   3.676   1.305
 8826SOL    HW127377   0.973   3.660   1.206
 8826SOL    HW227378   0.902   3.734   1.333
 8827SOL     OW27379   4.314   0.309   3.181
 8827SOL    HW127380   4.296   0.403   3.212
 8827SOL    HW227381   4.298   0.246   3.257
 8828SOL     OW27382   4.011   4.864   6.870
 8828SOL    HW127383   3.921   4.891   6.904
 8828SOL    HW227384   4.005   4.773   6.829
 8829SOL     OW27385   5.651   1.712   1.211
 8829SOL    HW127386   5.585   1.663   1.155
 8829SOL    HW227387   5.724   1.650   1.239
 8830SOL     OW27388   2.143   1.324   2.552
 8830SOL    HW127389   2.179   1.418   2.553
 8830SOL    HW227390   2.206   1.264   2.600
 8831SOL     OW27391   6.055   2.523   2.588
 8831SOL    HW127392   6.053   2.525   2.688
 8831SOL    HW227393   5.983   2.583   2.552
 8832SOL     OW27394   6.021   5.995   3.821
 8832SOL    HW127395   6.060   5.990   3.729
 8832SOL    HW227396   6.068   6.065   3.873
 8833SOL     OW27397   3.898   4.449   6.209
 8833SOL    HW127398   3.798   4.445   6.209
 8833SOL    HW227399   3.932   4.426   6.118
 8834SOL     OW27400   5.447   3.712   4.415
 8834SOL    HW127401   5.433   3.794   4.471
 8834SOL    HW227402   5.378   3.644   4.437
 8835SOL     OW27403   5.335   0.895   5.930
 8835SOL    HW127404   5.397   0.969   5.902
 8835SOL    HW227405   5.240   0.923   5.912
 8836SOL     OW27406   5.044   1.768   0.961
 8836SOL    HW127407   4.974   1.712   1.006
 8836SOL    HW227408   5.005   1.858   0.940
 8837SOL     OW27409   0.143   6.849   2.630
 8837SOL    HW127410   0.215   6.816   2.569
 8837SOL    HW227411   0.057   6.855   2.579
 8838SOL     OW27412   1.751   4.007   3.490
 8838SOL    HW127413   1.762   3.930   3.553
 8838SOL    HW227414   1.831   4.066   3.494
 8839SOL     OW27415   4.134   6.633   2.261
 8839SOL    HW127416   4.202   6.561   2.275
 8839SOL    HW227417   4.143   6.669   2.168
 8840SOL     OW27418   0.049   0.434   2.549
 8840SOL    HW127419   0.147   0.427   2.532
 8840SOL    HW227420   0.033   0.459   2.644
 8841SOL     OW27421   6.409   1.779   3.493
 8841SOL    HW127422   6.340   1.711   3.465
 8841SOL    HW227423   6.392   1.805   3.588
 8842SOL     OW27424   3.385   3.674   3.545
 8842SOL    HW127425   3.429   3.703   3.629
 8842SOL    HW227426   3.312   3.738   3.522
 8843SOL     OW27427   1.610   3.515   3.956
 8843SOL    HW127428   1.666   3.596   3.937
 8843SOL    HW227429   1.541   3.504   3.885
 8844SOL     OW27430   6.448   1.433   4.803
 8844SOL    HW127431   6.497   1.358   4.847
 8844SOL    HW227432   6.376   1.466   4.864
 8845SOL     OW27433   2.755   4.208   0.493
 8845SOL    HW127434   2.696   4.232   0.415
 8845SOL    HW227435   2.715   4.132   0.543
 8846SOL     OW27436   3.749   5.126   4.279
 8846SOL    HW127437   3.714   5.219   4.264
 8846SOL    HW227438   3.675   5.068   4.312
 8847SOL     OW27439   2.288   1.435   3.600
 8847SOL    HW127440   2.349   1.419   3.677
 8847SOL    HW227441   2.341   1.472   3.523
 8848SOL     OW27442   2.932   1.861   2.666
 8848SOL    HW127443   2.864   1.805   2.713
 8848SOL    HW227444   2.889   1.914   2.593
 8849SOL     OW27445   3.716   4.933   3.062
 8849SOL    HW127446   3.746   4.910   3.155
 8849SOL    HW227447   3.787   4.988   3.017
 8850SOL     OW27448   2.691   0.908   0.216
 8850SOL    HW127449   2.748   0.826   0.204
 8850SOL    HW227450   2.748   0.984   0.248
 8851SOL     OW27451   1.102   4.885   1.740
 8851SOL    HW127452   1.113   4.798   1.788
 8851SOL    HW227453   1.192   4.925   1.723
 8852SOL     OW27454   3.917   3.443   5.836
 8852SOL    HW127455   3.885   3.499   5.760
 8852SOL    HW227456   4.014   3.421   5.823
 8853SOL     OW27457   3.303   0.088   5.806
 8853SOL    HW127458   3.227   0.153   5.800
 8853SOL    HW227459   3.377   0.118   5.745
 8854SOL     OW27460   3.114   1.451   6.575
 8854SOL    HW127461   3.188   1.416   6.519
 8854SOL    HW227462   3.124   1.550   6.586
 8855SOL     OW27463   6.828   6.135   0.389
 8855SOL    HW127464   6.745   6.082   0.375
 8855SOL    HW227465   6.809   6.232   0.375
 8856SOL     OW27466   6.448   0.873   5.856
 8856SOL    HW127467   6.471   0.875   5.953
 8856SOL    HW227468   6.349   0.862   5.845
 8857SOL     OW27469   6.461   2.029   4.116
 8857SOL    HW127470   6.448   2.063   4.209
 8857SOL    HW227471   6.372   2.007   4.076
 8858SOL     OW27472   0.930   2.200   5.914
 8858SOL    HW127473   0.956   2.127   5.851
 8858SOL    HW227474   0.998   2.208   5.986
 8859SOL     OW27475   6.971   0.558   4.485
 8859SOL    HW127476   6.939   0.489   4.550
 8859SOL    HW227477   6.920   0.548   4.400
 8860SOL     OW27478   1.160   3.759   2.983
 8860SOL    HW127479   1.227   3.833   2.988
 8860SOL    HW227480   1.203   3.678   2.943
 8861SOL     OW27481   3.666   1.899   6.011
 8861SOL    HW127482   3.591   1.957   5.980
 8861SOL    HW227483   3.678   1.910   6.110
 8862SOL     OW27484   6.270   0.531   3.165
 8862SOL    HW127485   6.230   0.468   3.098
 8862SOL    HW227486   6.208   0.609   3.179
 8863SOL     OW27487   1.807   5.568   4.466
 8863SOL    HW127488   1.766   5.654   4.499
 8863SOL    HW227489   1.869   5.588   4.390
 8864SOL     OW27490   1.999   3.219   6.251
 8864SOL    HW127491   2.093   3.234   6.222
 8864SOL    HW227492   1.997   3.156   6.329
 8865SOL     OW27493   3.395   1.574   5.819
 8865SOL    HW127494   3.365   1.588   5.725
 8865SOL    HW227495   3.363   1.486   5.852
 8866SOL     OW27496   5.036   6.802   4.042
 8866SOL    HW127497   5.060   6.731   3.974
 8866SOL    HW227498   5.047   6.764   4.134
 8867SOL     OW27499   5.227   3.697   2.753
 8867SOL    HW127500   5.147   3.751   2.777
 8867SOL    HW227501   5.308   3.734   2.798
 8868SOL     OW27502   6.685   3.503   0.769
 8868SOL    HW127503   6.624   3.468   0.840
 8868SOL    HW227504   6.652   3.593   0.739
 8869SOL     OW27505   4.025   5.859   4.529
 8869SOL    HW127506   4.056   5.884   4.438
 8869SOL    HW227507   3.976   5.772   4.525
 8870SOL     OW27508   4.493   0.221   0.673
 8870SOL    HW127509   4.413   0.281   0.676
 8870SOL    HW227510   4.527   0.216   0.579
 8871SOL     OW27511   1.247   0.978   3.828
 8871SOL    HW127512   1.194   0.902   3.789
 8871SOL    HW227513   1.268   0.958   3.923
 8872SOL     OW27514   1.420   4.452   5.216
 8872SOL    HW127515   1.489   4.415   5.278
 8872SOL    HW227516   1.356   4.379   5.190
 8873SOL     OW27517   7.000   5.190   2.339
 8873SOL    HW127518   0.002   5.100   2.374
 8873SOL    HW227519   0.006   5.197   2.243
 8874SOL     OW27520   2.843   6.394   1.876
 8874SOL    HW127521   2.877   6.336   1.802
 8874SOL    HW227522   2.911   6.464   1.897
 8875SOL     OW27523   6.110   3.482   4.533
 8875SOL    HW127524   6.045   3.556   4.546
 8875SOL    HW227525   6.071   3.412   4.474
 8876SOL     OW27526   1.940   0.382   4.223
 8876SOL    HW127527   1.992   0.300   4.198
 8876SOL    HW227528   1.851   0.380   4.179
 8877SOL     OW27529   2.309   1.735   4.201
 8877SOL    HW127530   2.382   1.667   4.194
 8877SOL    HW227531   2.309   1.775   4.292
 8878SOL     OW27532   6.843   5.523   0.847
 8878SOL    HW127533   6.898   5.549   0.926
 8878SOL    HW227534   6.883   5.563   0.765
 8879SOL     OW27535   5.017   4.661   1.870
 8879SOL    HW127536   4.996   4.617   1.782
 8879SOL    HW227537   5.040   4.757   1.854
 8880SOL     OW27538   6.016   5.458   4.565
 8880SOL    HW127539   6.070   5.409   4.497
 8880SOL    HW227540   5.939   5.504   4.519
 8881SOL     OW27541   6.403   6.549   4.944
 8881SOL    HW127542   6.410   6.597   5.032
 8881SOL    HW227543   6.484   6.569   4.889
 8882SOL     OW27544   5.276   1.597   0.558
 8882SOL    HW127545   5.269   1.617   0.656
 8882SOL    HW227546   5.204   1.646   0.509
 8883SOL     OW27547   1.916   6.746   5.403
 8883SOL    HW127548   1.974   6.823   5.432
 8883SOL    HW227549   1.832   6.781   5.364
 8884SOL     OW27550   5.857   4.602   6.574
 8884SOL    HW127551   5.880   4.540   6.648
 8884SOL    HW227552   5.916   4.682   6.576
 8885SOL     OW27553   0.413   3.211   0.682
 8885SOL    HW127554   0.392   3.120   0.646
 8885SOL    HW227555   0.372   3.281   0.624
 8886SOL     OW27556   3.653   6.293   5.160
 8886SOL    HW127557   3.592   6.371   5.178
 8886SOL    HW227558   3.720   6.318   5.090
 8887SOL     OW27559   2.986   1.673   1.411
 8887SOL    HW127560   2.955   1.766   1.431
 8887SOL    HW227561   2.948   1.609   1.477
 8888SOL     OW27562   1.450   1.567   0.681
 8888SOL    HW127563   1.500   1.652   0.666
 8888SOL    HW227564   1.389   1.579   0.760
 8889SOL     OW27565   5.893   6.894   5.407
 8889SOL    HW127566   5.914   6.973   5.464
 8889SOL    HW227567   5.846   6.824   5.462
 8890SOL     OW27568   6.237   5.421   3.769
 8890SOL    HW127569   6.159   5.459   3.819
 8890SOL    HW227570   6.238   5.321   3.780
 8891SOL     OW27571   5.114   3.644   5.675
 8891SOL    HW127572   5.192   3.698   5.644
 8891SOL    HW227573   5.033   3.702   5.680
 8892SOL     OW27574   4.203   5.558   2.956
 8892SOL    HW127575   4.150   5.527   3.035
 8892SOL    HW227576   4.260   5.482   2.922
 8893SOL     OW27577   0.909   6.927   2.428
 8893SOL    HW127578   0.916   6.843   2.482
 8893SOL    HW227579   0.830   6.980   2.458
 8894SOL     OW27580   4.212   2.170   5.630
 8894SOL    HW127581   4.292   2.223   5.659
 8894SOL    HW227582   4.164   2.219   5.557
 8895SOL     OW27583   6.519   1.691   1.397
 8895SOL    HW127584   6.444   1.733   1.449
 8895SOL    HW227585   6.587   1.760   1.376
 8896SOL     OW27586   1.331   3.045   5.561
 8896SOL    HW127587   1.384   3.043   5.476
 8896SOL    HW227588   1.368   2.978   5.625
 8897SOL     OW27589   1.942   2.869   3.349
 8897SOL    HW127590   1.985   2.896   3.436
 8897SOL    HW227591   1.939   2.948   3.288
 8898SOL     OW27592   5.525   3.604   4.161
 8898SOL    HW127593   5.496   3.623   4.255
 8898SOL    HW227594   5.482   3.669   4.098
 8899SOL     OW27595   2.400   4.844   7.001
 8899SOL    HW127596   2.431   4.772   0.042
 8899SOL    HW227597   2.332   4.806   6.938
 8900SOL     OW27598   5.663   2.729   2.239
 8900SOL    HW127599   5.686   2.825   2.253
 8900SOL    HW227600   5.659   2.682   2.327
 8901SOL     OW27601   1.835   1.314   4.386
 8901SOL    HW127602   1.909   1.254   4.415
 8901SOL    HW227603   1.775   1.334   4.463
 8902SOL     OW27604   3.275   6.605   0.586
 8902SOL    HW127605   3.197   6.668   0.577
 8902SOL    HW227606   3.252   6.517   0.546
 8903SOL     OW27607   0.655   1.470   4.582
 8903SOL    HW127608   0.703   1.419   4.510
 8903SOL    HW227609   0.684   1.437   4.671
 8904SOL     OW27610   5.942   5.666   3.500
 8904SOL    HW127611   5.899   5.636   3.415
 8904SOL    HW227612   5.922   5.600   3.573
 8905SOL     OW27613   2.128   4.107   4.349
 8905SOL    HW127614   2.097   4.178   4.413
 8905SOL    HW227615   2.117   4.017   4.391
 8906SOL     OW27616   6.555   6.869   6.980
 8906SOL    HW127617   6.516   6.935   0.023
 8906SOL    HW227618   6.632   6.822   0.002
 8907SOL     OW27619   3.251   2.144   4.478
 8907SOL    HW127620   3.240   2.241   4.455
 8907SOL    HW227621   3.169   2.094   4.450
 8908SOL     OW27622   1.386   3.564   0.066
 8908SOL    HW127623   1.338   3.585   7.002
 8908SOL    HW227624   1.330   3.503   0.122
 8909SOL     OW27625   2.002   0.523   5.583
 8909SOL    HW127626   1.937   0.551   5.653
 8909SOL    HW227627   1.964   0.544   5.492
 8910SOL     OW27628   1.272   2.581   5.950
 8910SOL    HW127629   1.245   2.667   5.992
 8910SOL    HW227630   1.194   2.541   5.902
 8911SOL     OW27631   4.240   2.290   4.790
 8911SOL    HW127632   4.214   2.346   4.869
 8911SOL    HW227633   4.158   2.260   4.742
 8912SOL     OW27634   4.212   2.294   0.889
 8912SOL    HW127635   4.189   2.270   0.984
 8912SOL    HW227636   4.146   2.251   0.828
 8913SOL     OW27637   4.971   5.142   0.164
 8913SOL    HW127638   5.013   5.184   0.245
 8913SOL    HW227639   4.892   5.088   0.192
 8914SOL     OW27640   4.031   0.827   5.046
 8914SOL    HW127641   3.956   0.883   5.010
 8914SOL    HW227642   4.046   0.749   4.985
 8915SOL     OW27643   0.824   2.722   3.402
 8915SOL    HW127644   0.795   2.731   3.497
 8915SOL    HW227645   0.924   2.723   3.397
 8916SOL     OW27646   0.114   4.233   0.513
 8916SOL    HW127647   0.038   4.205   0.455
 8916SOL    HW227648   0.118   4.173   0.593
 8917SOL     OW27649   6.322   4.505   6.492
 8917SOL    HW127650   6.371   4.509   6.405
 8917SOL    HW227651   6.353   4.424   6.543
 8918SOL     OW27652   6.952   3.816   1.062
 8918SOL    HW127653   6.874   3.809   1.123
 8918SOL    HW227654   6.997   3.727   1.055
 8919SOL     OW27655   4.058   3.262   1.089
 8919SOL    HW127656   4.058   3.362   1.093
 8919SOL    HW227657   3.983   3.231   1.030
 8920SOL     OW27658   1.073   6.624   6.898
 8920SOL    HW127659   1.049   6.573   6.815
 8920SOL    HW227660   1.059   6.722   6.883
 8921SOL     OW27661   2.539   2.117   2.977
 8921SOL    HW127662   2.530   2.077   2.886
 8921SOL    HW227663   2.617   2.179   2.979
 8922SOL     OW27664   3.617   5.122   1.148
 8922SOL    HW127665   3.566   5.203   1.117
 8922SOL    HW227666   3.577   5.089   1.233
 8923SOL     OW27667   1.383   3.444   6.064
 8923SOL    HW127668   1.436   3.404   6.139
 8923SOL    HW227669   1.374   3.543   6.079
 8924SOL     OW27670   3.164   5.867   5.603
 8924SOL    HW127671   3.190   5.843   5.696
 8924SOL    HW227672   3.087   5.810   5.574
 8925SOL     OW27673   1.041   1.040   2.659
 8925SOL    HW127674   1.085   1.095   2.730
 8925SOL    HW227675   0.950   1.075   2.641
 8926SOL     OW27676   5.537   3.912   6.323
 8926SOL    HW127677   5.538   4.006   6.359
 8926SOL    HW227678   5.558   3.848   6.397
 8927SOL     OW27679   0.937   1.629   4.469
 8927SOL    HW127680   0.974   1.599   4.557
 8927SOL    HW227681   0.968   1.567   4.397
 8928SOL     OW27682   6.826   0.973   5.694
 8928SOL    HW127683   6.779   0.889   5.669
 8928SOL    HW227684   6.916   0.975   5.650
 8929SOL     OW27685   6.738   3.526   4.216
 8929SOL    HW127686   6.817   3.586   4.205
 8929SOL    HW227687   6.762   3.433   4.189
 8930SOL     OW27688   1.889   4.090   4.514
 8930SOL    HW127689   1.947   4.012   4.488
 8930SOL    HW227690   1.928   4.136   4.594
 8931SOL     OW27691   2.872   2.937   1.540
 8931SOL    HW127692   2.881   3.014   1.477
 8931SOL    HW227693   2.780   2.897   1.530
 8932SOL     OW27694   5.468   0.445   0.255
 8932SOL    HW127695   5.538   0.475   0.320
 8932SOL    HW227696   5.501   0.364   0.207
 8933SOL     OW27697   1.450   2.509   6.195
 8933SOL    HW127698   1.353   2.495   6.174
 8933SOL    HW227699   1.499   2.535   6.111
 8934SOL     OW27700   3.238   5.281   4.420
 8934SOL    HW127701   3.243   5.377   4.446
 8934SOL    HW227702   3.143   5.251   4.418
 8935SOL     OW27703   5.636   3.877   1.579
 8935SOL    HW127704   5.635   3.897   1.481
 8935SOL    HW227705   5.554   3.825   1.603
 8936SOL     OW27706   1.150   3.462   1.382
 8936SOL    HW127707   1.211   3.485   1.306
 8936SOL    HW227708   1.069   3.520   1.379
 8937SOL     OW27709   0.339   0.533   4.529
 8937SOL    HW127710   0.437   0.543   4.547
 8937SOL    HW227711   0.296   0.623   4.527
 8938SOL     OW27712   6.995   0.957   0.512
 8938SOL    HW127713   6.950   1.043   0.487
 8938SOL    HW227714   6.930   0.898   0.560
 8939SOL     OW27715   6.060   3.606   4.219
 8939SOL    HW127716   6.141   3.642   4.174
 8939SOL    HW227717   6.011   3.680   4.264
 8940SOL     OW27718   5.915   1.874   1.676
 8940SOL    HW127719   5.933   1.874   1.578
 8940SOL    HW227720   5.884   1.783   1.704
 8941SOL     OW27721   6.549   2.565   2.739
 8941SOL    HW127722   6.565   2.534   2.832
 8941SOL    HW227723   6.489   2.500   2.692
 8942SOL     OW27724   0.699   5.895   4.663
 8942SOL    HW127725   0.745   5.861   4.745
 8942SOL    HW227726   0.764   5.897   4.587
 8943SOL     OW27727   3.787   5.118   0.239
 8943SOL    HW127728   3.834   5.176   0.305
 8943SOL    HW227729   3.692   5.149   0.229
 8944SOL     OW27730   4.820   5.629   4.909
 8944SOL    HW127731   4.848   5.537   4.880
 8944SOL    HW227732   4.823   5.635   5.008
 8945SOL     OW27733   0.223   2.394   4.427
 8945SOL    HW127734   0.135   2.348   4.427
 8945SOL    HW227735   0.217   2.478   4.372
 8946SOL     OW27736   3.595   1.003   4.180
 8946SOL    HW127737   3.675   0.951   4.211
 8946SOL    HW227738   3.573   0.977   4.086
 8947SOL     OW27739   1.915   3.192   5.753
 8947SOL    HW127740   1.932   3.115   5.692
 8947SOL    HW227741   1.818   3.195   5.777
 8948SOL     OW27742   5.839   5.925   3.584
 8948SOL    HW127743   5.905   5.979   3.532
 8948SOL    HW227744   5.858   5.828   3.571
 8949SOL     OW27745   3.932   5.915   0.489
 8949SOL    HW127746   3.884   5.908   0.576
 8949SOL    HW227747   4.028   5.890   0.501
 8950SOL     OW27748   4.231   2.920   1.108
 8950SOL    HW127749   4.250   2.866   1.190
 8950SOL    HW227750   4.275   3.009   1.115
 8951SOL     OW27751   2.000   0.928   5.148
 8951SOL    HW127752   2.032   0.914   5.242
 8951SOL    HW227753   2.076   0.917   5.084
 8952SOL     OW27754   0.691   5.068   3.722
 8952SOL    HW127755   0.645   5.050   3.809
 8952SOL    HW227756   0.751   4.990   3.700
 8953SOL     OW27757   0.757   4.770   0.965
 8953SOL    HW127758   0.793   4.725   0.883
 8953SOL    HW227759   0.831   4.778   1.033
 8954SOL     OW27760   0.111   0.104   4.180
 8954SOL    HW127761   0.043   0.109   4.107
 8954SOL    HW227762   0.203   0.103   4.140
 8955SOL     OW27763   6.885   4.586   3.321
 8955SOL    HW127764   6.967   4.625   3.362
 8955SOL    HW227765   6.862   4.636   3.237
 8956SOL     OW27766   1.576   0.977   5.794
 8956SOL    HW127767   1.657   0.918   5.782
 8956SOL    HW227768   1.576   1.048   5.724
 8957SOL     OW27769   2.415   4.548   1.050
 8957SOL    HW127770   2.379   4.577   0.961
 8957SOL    HW227771   2.362   4.588   1.124
 8958SOL     OW27772   0.809   2.273   5.533
 8958SOL    HW127773   0.863   2.191   5.552
 8958SOL    HW227774   0.853   2.325   5.460
 8959SOL     OW27775   1.945   4.112   3.009
 8959SOL    HW127776   1.923   4.020   3.040
 8959SOL    HW227777   2.036   4.137   3.040
 8960SOL     OW27778   5.564   5.327   3.937
 8960SOL    HW127779   5.514   5.339   3.851
 8960SOL    HW227780   5.590   5.231   3.948
 8961SOL     OW27781   3.663   1.249   4.047
 8961SOL    HW127782   3.675   1.152   4.065
 8961SOL    HW227783   3.606   1.290   4.118
 8962SOL     OW27784   6.417   5.264   1.648
 8962SOL    HW127785   6.405   5.341   1.711
 8962SOL    HW227786   6.355   5.275   1.570
 8963SOL     OW27787   3.778   6.369   4.913
 8963SOL    HW127788   3.846   6.425   4.866
 8963SOL    HW227789   3.689   6.380   4.869
 8964SOL     OW27790   6.114   3.066   2.733
 8964SOL    HW127791   6.099   2.968   2.720
 8964SOL    HW227792   6.203   3.081   2.775
 8965SOL     OW27793   3.002   5.268   0.046
 8965SOL    HW127794   3.029   5.350   7.017
 8965SOL    HW227795   3.047   5.188   0.006
 8966SOL     OW27796   6.686   4.205   0.431
 8966SOL    HW127797   6.635   4.289   0.414
 8966SOL    HW227798   6.777   4.212   0.391
 8967SOL     OW27799   4.093   1.372   2.299
 8967SOL    HW127800   4.126   1.352   2.392
 8967SOL    HW227801   4.163   1.344   2.233
 8968SOL     OW27802   4.070   6.272   2.537
 8968SOL    HW127803   4.147   6.230   2.488
 8968SOL    HW227804   4.032   6.206   2.601
 8969SOL     OW27805   0.295   0.344   3.503
 8969SOL    HW127806   0.262   0.429   3.462
 8969SOL    HW227807   0.319   0.279   3.431
 8970SOL     OW27808   1.563   2.068   6.461
 8970SOL    HW127809   1.656   2.040   6.435
 8970SOL    HW227810   1.547   2.162   6.431
 8971SOL     OW27811   5.409   6.531   1.593
 8971SOL    HW127812   5.351   6.543   1.512
 8971SOL    HW227813   5.476   6.458   1.576
 8972SOL     OW27814   5.129   3.671   0.591
 8972SOL    HW127815   5.035   3.660   0.622
 8972SOL    HW227816   5.183   3.593   0.623
 8973SOL     OW27817   6.955   2.720   2.422
 8973SOL    HW127818   6.899   2.709   2.340
 8973SOL    HW227819   6.897   2.722   2.503
 8974SOL     OW27820   1.882   3.332   3.776
 8974SOL    HW127821   1.855   3.404   3.712
 8974SOL    HW227822   1.907   3.250   3.726
 8975SOL     OW27823   0.410   5.807   6.670
 8975SOL    HW127824   0.469   5.881   6.639
 8975SOL    HW227825   0.464   5.741   6.722
 8976SOL     OW27826   0.098   5.403   0.661
 8976SOL    HW127827   0.025   5.402   0.592
 8976SOL    HW227828   0.121   5.309   0.686
 8977SOL     OW27829   6.829   3.920   6.677
 8977SOL    HW127830   6.885   3.911   6.759
 8977SOL    HW227831   6.837   4.014   6.642
 8978SOL     OW27832   6.030   0.391   4.694
 8978SOL    HW127833   5.944   0.421   4.735
 8978SOL    HW227834   6.106   0.419   4.753
 8979SOL     OW27835   1.227   4.989   6.077
 8979SOL    HW127836   1.292   4.962   6.006
 8979SOL    HW227837   1.259   4.959   6.166
 8980SOL     OW27838   5.515   2.685   6.016
 8980SOL    HW127839   5.520   2.585   6.014
 8980SOL    HW227840   5.457   2.716   5.940
 8981SOL     OW27841   4.928   1.928   5.434
 8981SOL    HW127842   4.873   1.996   5.482
 8981SOL    HW227843   4.872   1.883   5.364
 8982SOL     OW27844   0.097   1.647   0.924
 8982SOL    HW127845   0.104   1.552   0.892
 8982SOL    HW227846   0.001   1.672   0.934
 8983SOL     OW27847   0.653   5.635   0.819
 8983SOL    HW127848   0.592   5.673   0.750
 8983SOL    HW227849   0.685   5.708   0.879
 8984SOL     OW27850   6.457   6.187   4.107
 8984SOL    HW127851   6.434   6.098   4.067
 8984SOL    HW227852   6.375   6.225   4.151
 8985SOL     OW27853   2.486   1.589   1.366
 8985SOL    HW127854   2.488   1.686   1.387
 8985SOL    HW227855   2.579   1.552   1.369
 8986SOL     OW27856   4.465   4.924   2.925
 8986SOL    HW127857   4.489   4.999   2.864
 8986SOL    HW227858   4.503   4.838   2.890
 8987SOL     OW27859   2.971   0.441   1.432
 8987SOL    HW127860   2.934   0.516   1.487
 8987SOL    HW227861   3.062   0.465   1.399
 8988SOL     OW27862   2.459   4.710   0.480
 8988SOL    HW127863   2.463   4.665   0.569
 8988SOL    HW227864   2.427   4.803   0.491
 8989SOL     OW27865   4.969   3.788   2.271
 8989SOL    HW127866   4.955   3.719   2.200
 8989SOL    HW227867   5.066   3.809   2.278
 8990SOL     OW27868   2.402   5.312   1.661
 8990SOL    HW127869   2.419   5.296   1.758
 8990SOL    HW227870   2.383   5.409   1.646
 8991SOL     OW27871   2.608   1.286   0.950
 8991SOL    HW127872   2.679   1.356   0.948
 8991SOL    HW227873   2.616   1.233   1.034
 8992SOL     OW27874   0.006   2.670   6.423
 8992SOL    HW127875   6.967   2.720   6.485
 8992SOL    HW227876   0.009   2.574   6.450
 8993SOL     OW27877   4.435   2.451   3.046
 8993SOL    HW127878   4.363   2.382   3.041
 8993SOL    HW227879   4.502   2.436   2.973
 8994SOL     OW27880   0.971   6.063   4.184
 8994SOL    HW127881   1.023   5.982   4.157
 8994SOL    HW227882   0.874   6.048   4.166
 8995SOL     OW27883   1.317   2.478   5.645
 8995SOL    HW127884   1.313   2.455   5.548
 8995SOL    HW227885   1.399   2.439   5.686
 8996SOL     OW27886   0.178   4.574   1.504
 8996SOL    HW127887   0.184   4.494   1.564
 8996SOL    HW227888   0.259   4.631   1.517
 8997SOL     OW27889   4.445   1.160   6.660
 8997SOL    HW127890   4.347   1.145   6.675
 8997SOL    HW227891   4.473   1.113   6.576
 8998SOL     OW27892   0.763   2.350   3.978
 8998SOL    HW127893   0.711   2.359   3.893
 8998SOL    HW227894   0.758   2.256   4.010
 8999SOL     OW27895   4.057   0.410   6.877
 8999SOL    HW127896   4.019   0.319   6.897
 8999SOL    HW227897   3.984   0.468   6.841
 9000SOL     OW27898   2.713   4.160   6.319
 9000SOL    HW127899   2.671   4.092   6.378
 9000SOL    HW227900   2.660   4.245   6.324
 9001SOL     OW27901   1.947   5.384   2.844
 9001SOL    HW127902   2.005   5.375   2.925
 9001SOL    HW227903   1.857   5.345   2.863
 9002SOL     OW27904   0.307   5.149   4.988
 9002SOL    HW127905   0.225   5.094   4.971
 9002SOL    HW227906   0.384   5.090   5.009
 9003SOL     OW27907   5.758   3.205   1.057
 9003SOL    HW127908   5.787   3.298   1.077
 9003SOL    HW227909   5.671   3.207   1.008
 9004SOL     OW27910   4.377   6.927   1.892
 9004SOL    HW127911   4.444   6.939   1.965
 9004SOL    HW227912   4.296   6.983   1.910
 9005SOL     OW27913   6.060   1.928   4.103
 9005SOL    HW127914   6.094   1.980   4.182
 9005SOL    HW227915   5.964   1.949   4.089
 9006SOL     OW27916   1.564   6.207   0.968
 9006SOL    HW127917   1.521   6.131   0.921
 9006SOL    HW227918   1.662   6.190   0.976
 9007SOL     OW27919   3.458   5.734   3.652
 9007SOL    HW127920   3.404   5.813   3.681
 9007SOL    HW227921   3.502   5.753   3.564
 9008SOL     OW27922   6.807   5.368   3.051
 9008SOL    HW127923   6.730   5.429   3.069
 9008SOL    HW227924   6.836   5.376   2.956
 9009SOL     OW27925   2.899   6.293   0.578
 9009SOL    HW127926   2.931   6.303   0.483
 9009SOL    HW227927   2.894   6.196   0.601
 9010SOL     OW27928   1.076   6.888   4.763
 9010SOL    HW127929   1.075   6.860   4.667
 9010SOL    HW227930   0.992   6.857   4.808
 9011SOL     OW27931   3.847   2.044   1.363
 9011SOL    HW127932   3.933   2.051   1.412
 9011SOL    HW227933   3.771   2.040   1.428
 9012SOL     OW27934   2.865   5.092   1.283
 9012SOL    HW127935   2.817   5.180   1.285
 9012SOL    HW227936   2.963   5.108   1.274
 9013SOL     OW27937   5.895   5.857   4.804
 9013SOL    HW127938   5.895   5.853   4.904
 9013SOL    HW227939   5.985   5.832   4.769
 9014SOL     OW27940   1.023   1.299   0.421
 9014SOL    HW127941   1.073   1.242   0.488
 9014SOL    HW227942   0.990   1.382   0.466
 9015SOL     OW27943   5.996   0.537   0.733
 9015SOL    HW127944   5.906   0.494   0.733
 9015SOL    HW227945   6.058   0.484   0.792
 9016SOL     OW27946   6.627   6.297   6.573
 9016SOL    HW127947   6.634   6.394   6.593
 9016SOL    HW227948   6.712   6.265   6.531
 9017SOL     OW27949   5.612   2.670   2.844
 9017SOL    HW127950   5.573   2.736   2.908
 9017SOL    HW227951   5.547   2.656   2.768
 9018SOL     OW27952   4.313   1.624   5.653
 9018SOL    HW127953   4.290   1.656   5.745
 9018SOL    HW227954   4.402   1.579   5.654
 9019SOL     OW27955   0.781   6.787   0.911
 9019SOL    HW127956   0.808   6.693   0.933
 9019SOL    HW227957   0.682   6.792   0.901
 9020SOL     OW27958   1.594   3.547   1.936
 9020SOL    HW127959   1.677   3.572   1.986
 9020SOL    HW227960   1.618   3.527   1.841
 9021SOL     OW27961   6.428   6.897   4.108
 9021SOL    HW127962   6.352   6.890   4.173
 9021SOL    HW227963   6.405   6.962   4.037
 9022SOL     OW27964   2.602   0.305   1.386
 9022SOL    HW127965   2.648   0.216   1.393
 9022SOL    HW227966   2.666   0.377   1.410
 9023SOL     OW27967   4.015   3.230   2.772
 9023SOL    HW127968   3.981   3.194   2.685
 9023SOL    HW227969   4.058   3.319   2.757
 9024SOL     OW27970   1.477   5.597   6.285
 9024SOL    HW127971   1.494   5.696   6.279
 9024SOL    HW227972   1.508   5.563   6.373
 9025SOL     OW27973   6.631   5.762   1.037
 9025SOL    HW127974   6.628   5.672   1.080
 9025SOL    HW227975   6.605   5.754   0.940
 9026SOL     OW27976   4.118   3.374   3.074
 9026SOL    HW127977   4.203   3.358   3.024
 9026SOL    HW227978   4.114   3.469   3.105
 9027SOL     OW27979   2.754   1.882   3.539
 9027SOL    HW127980   2.783   1.892   3.634
 9027SOL    HW227981   2.806   1.808   3.496
 9028SOL     OW27982   2.450   4.176   5.771
 9028SOL    HW127983   2.519   4.217   5.712
 9028SOL    HW227984   2.360   4.188   5.730
 9029SOL     OW27985   3.346   5.565   5.167
 9029SOL    HW127986   3.317   5.470   5.152
 9029SOL    HW227987   3.286   5.607   5.235
 9030SOL     OW27988   2.423   0.686   3.058
 9030SOL    HW127989   2.449   0.775   3.096
 9030SOL    HW227990   2.344   0.697   2.997
 9031SOL     OW27991   4.759   5.280   6.034
 9031SOL    HW127992   4.706   5.327   6.105
 9031SOL    HW227993   4.782   5.345   5.962
 9032SOL     OW27994   4.112   2.553   0.930
 9032SOL    HW127995   4.177   2.478   0.935
 9032SOL    HW227996   4.020   2.517   0.913
 9033SOL     OW27997   1.845   3.763   3.307
 9033SOL    HW127998   1.839   3.853   3.350
 9033SOL    HW227999   1.928   3.716   3.339
 9034SOL     OW28000   2.967   6.764   5.054
 9034SOL    HW128001   2.918   6.776   5.141
 9034SOL    HW228002   2.944   6.839   4.993
 9035SOL     OW28003   0.982   6.271   5.074
 9035SOL    HW128004   0.909   6.236   5.016
 9035SOL    HW228005   0.982   6.371   5.074
 9036SOL     OW28006   1.217   1.687   4.547
 9036SOL    HW128007   1.209   1.590   4.527
 9036SOL    HW228008   1.297   1.702   4.607
 9037SOL     OW28009   1.382   4.624   6.678
 9037SOL    HW128010   1.348   4.715   6.653
 9037SOL    HW228011   1.328   4.589   6.755
 9038SOL     OW28012   4.496   0.406   4.950
 9038SOL    HW128013   4.411   0.447   4.915
 9038SOL    HW228014   4.566   0.407   4.878
 9039SOL     OW28015   1.583   4.569   4.562
 9039SOL    HW128016   1.543   4.603   4.647
 9039SOL    HW228017   1.682   4.561   4.573
 9040SOL     OW28018   2.545   1.331   3.292
 9040SOL    HW128019   2.534   1.414   3.346
 9040SOL    HW228020   2.643   1.314   3.277
 9041SOL     OW28021   0.831   1.886   1.719
 9041SOL    HW128022   0.808   1.881   1.622
 9041SOL    HW228023   0.770   1.952   1.764
 9042SOL     OW28024   2.981   5.966   3.995
 9042SOL    HW128025   3.001   5.875   3.958
 9042SOL    HW228026   2.973   6.032   3.920
 9043SOL     OW28027   2.353   1.016   5.609
 9043SOL    HW128028   2.398   1.105   5.603
 9043SOL    HW228029   2.354   0.972   5.519
 9044SOL     OW28030   6.346   1.457   1.362
 9044SOL    HW128031   6.378   1.377   1.413
 9044SOL    HW228032   6.411   1.532   1.374
 9045SOL     OW28033   3.590   1.768   2.175
 9045SOL    HW128034   3.570   1.862   2.150
 9045SOL    HW228035   3.674   1.764   2.229
 9046SOL     OW28036   3.217   3.497   4.291
 9046SOL    HW128037   3.132   3.465   4.332
 9046SOL    HW228038   3.293   3.482   4.354
 9047SOL     OW28039   1.638   3.188   5.809
 9047SOL    HW128040   1.573   3.263   5.821
 9047SOL    HW228041   1.588   3.102   5.797
 9048SOL     OW28042   6.322   3.251   6.408
 9048SOL    HW128043   6.278   3.177   6.459
 9048SOL    HW228044   6.258   3.327   6.397
 9049SOL     OW28045   4.575   6.576   6.371
 9049SOL    HW128046   4.669   6.543   6.381
 9049SOL    HW228047   4.563   6.612   6.279
 9050SOL     OW28048   0.401   5.219   5.752
 9050SOL    HW128049   0.306   5.239   5.776
 9050SOL    HW228050   0.417   5.120   5.759
 9051SOL     OW28051   4.257   6.342   1.142
 9051SOL    HW128052   4.280   6.415   1.078
 9051SOL    HW228053   4.339   6.315   1.192
 9052SOL     OW28054   2.063   3.546   3.832
 9052SOL    HW128055   2.007   3.471   3.796
 9052SOL    HW228056   2.108   3.516   3.916
 9053SOL     OW28057   2.488   1.559   3.443
 9053SOL    HW128058   2.569   1.538   3.499
 9053SOL    HW228059   2.473   1.658   3.443
 9054SOL     OW28060   1.415   0.339   2.184
 9054SOL    HW128061   1.430   0.307   2.278
 9054SOL    HW228062   1.317   0.335   2.163
 9055SOL     OW28063   0.209   3.841   3.452
 9055SOL    HW128064   0.256   3.840   3.363
 9055SOL    HW228065   0.228   3.928   3.498
 9056SOL     OW28066   5.488   0.298   2.170
 9056SOL    HW128067   5.424   0.225   2.194
 9056SOL    HW228068   5.439   0.384   2.159
 9057SOL     OW28069   5.755   5.359   6.150
 9057SOL    HW128070   5.819   5.430   6.180
 9057SOL    HW228071   5.769   5.340   6.053
 9058SOL     OW28072   1.835   1.410   3.715
 9058SOL    HW128073   1.908   1.466   3.676
 9058SOL    HW228074   1.776   1.467   3.772
 9059SOL     OW28075   0.154   1.100   4.070
 9059SOL    HW128076   0.057   1.125   4.080
 9059SOL    HW228077   0.171   1.073   3.975
 9060SOL     OW28078   0.320   4.002   1.877
 9060SOL    HW128079   0.245   3.942   1.850
 9060SOL    HW228080   0.378   4.020   1.798
 9061SOL     OW28081   4.068   5.959   2.342
 9061SOL    HW128082   4.033   5.936   2.251
 9061SOL    HW228083   4.092   5.875   2.390
 9062SOL     OW28084   1.407   4.779   2.313
 9062SOL    HW128085   1.492   4.762   2.363
 9062SOL    HW228086   1.340   4.823   2.374
 9063SOL     OW28087   2.545   0.481   2.751
 9063SOL    HW128088   2.639   0.470   2.720
 9063SOL    HW228089   2.543   0.533   2.836
 9064SOL     OW28090   5.902   4.249   4.243
 9064SOL    HW128091   5.980   4.297   4.283
 9064SOL    HW228092   5.934   4.164   4.200
 9065SOL     OW28093   3.538   5.322   6.713
 9065SOL    HW128094   3.533   5.314   6.813
 9065SOL    HW228095   3.449   5.348   6.678
 9066SOL     OW28096   5.746   0.663   6.826
 9066SOL    HW128097   5.803   0.746   6.825
 9066SOL    HW228098   5.677   0.671   6.897
 9067SOL     OW28099   5.826   6.518   5.419
 9067SOL    HW128100   5.875   6.544   5.335
 9067SOL    HW228101   5.770   6.595   5.450
 9068SOL     OW28102   3.151   0.371   5.119
 9068SOL    HW128103   3.186   0.298   5.177
 9068SOL    HW228104   3.055   0.387   5.140
 9069SOL     OW28105   3.289   2.085   1.780
 9069SOL    HW128106   3.240   2.074   1.866
 9069SOL    HW228107   3.289   1.999   1.729
 9070SOL     OW28108   0.785   3.210   5.865
 9070SOL    HW128109   0.700   3.249   5.829
 9070SOL    HW228110   0.863   3.246   5.814
 9071SOL     OW28111   5.000   6.380   1.150
 9071SOL    HW128112   4.970   6.339   1.064
 9071SOL    HW228113   5.030   6.474   1.133
 9072SOL     OW28114   5.007   0.775   1.871
 9072SOL    HW128115   4.914   0.799   1.898
 9072SOL    HW228116   5.040   0.700   1.929
 9073SOL     OW28117   3.774   6.779   1.220
 9073SOL    HW128118   3.692   6.762   1.166
 9073SOL    HW228119   3.755   6.851   1.287
 9074SOL     OW28120   1.700   0.832   1.010
 9074SOL    HW128121   1.756   0.833   1.093
 9074SOL    HW228122   1.604   0.845   1.034
 9075SOL     OW28123   0.734   6.936   1.403
 9075SOL    HW128124   0.690   6.978   1.323
 9075SOL    HW228125   0.766   7.008   1.465
 9076SOL     OW28126   5.947   1.399   4.731
 9076SOL    HW128127   5.963   1.415   4.633
 9076SOL    HW228128   5.856   1.360   4.743
 9077SOL     OW28129   5.434   1.264   6.499
 9077SOL    HW128130   5.464   1.169   6.511
 9077SOL    HW228131   5.360   1.267   6.432
 9078SOL     OW28132   5.081   3.299   0.491
 9078SOL    HW128133   5.116   3.319   0.583
 9078SOL    HW228134   5.157   3.297   0.427
 9079SOL     OW28135   1.739   6.085   4.036
 9079SOL    HW128136   1.643   6.095   4.010
 9079SOL    HW228137   1.759   5.989   4.055
 9080SOL     OW28138   5.549   2.714   6.496
 9080SOL    HW128139   5.574   2.766   6.414
 9080SOL    HW228140   5.489   2.770   6.553
 9081SOL     OW28141   3.278   6.898   2.464
 9081SOL    HW128142   3.311   6.815   2.507
 9081SOL    HW228143   3.356   6.949   2.426
 9082SOL     OW28144   2.555   6.066   5.811
 9082SOL    HW128145   2.517   5.973   5.808
 9082SOL    HW228146   2.637   6.066   5.868
 9083SOL     OW28147   3.701   4.211   5.511
 9083SOL    HW128148   3.691   4.259   5.599
 9083SOL    HW228149   3.617   4.161   5.491
 9084SOL     OW28150   2.388   2.873   6.026
 9084SOL    HW128151   2.291   2.887   6.044
 9084SOL    HW228152   2.410   2.776   6.032
 9085SOL     OW28153   1.344   5.352   0.854
 9085SOL    HW128154   1.335   5.364   0.952
 9085SOL    HW228155   1.325   5.257   0.830
 9086SOL     OW28156   6.799   4.275   0.752
 9086SOL    HW128157   6.711   4.284   0.705
 9086SOL    HW228158   6.852   4.201   0.711
 9087SOL     OW28159   4.920   2.953   1.793
 9087SOL    HW128160   4.839   2.985   1.842
 9087SOL    HW228161   4.897   2.874   1.737
 9088SOL     OW28162   6.654   6.111   0.762
 9088SOL    HW128163   6.635   6.074   0.853
 9088SOL    HW228164   6.722   6.183   0.768
 9089SOL     OW28165   4.569   5.922   5.807
 9089SOL    HW128166   4.668   5.932   5.798
 9089SOL    HW228167   4.529   6.009   5.837
 9090SOL     OW28168   6.484   6.880   3.594
 9090SOL    HW128169   6.503   6.972   3.559
 9090SOL    HW228170   6.502   6.813   3.522
 9091SOL     OW28171   2.712   3.621   0.267
 9091SOL    HW128172   2.673   3.712   0.284
 9091SOL    HW228173   2.651   3.551   0.304
 9092SOL     OW28174   0.086   1.381   0.659
 9092SOL    HW128175   0.113   1.288   0.637
 9092SOL    HW228176   0.079   1.391   0.758
 9093SOL     OW28177   1.662   6.076   6.617
 9093SOL    HW128178   1.605   6.015   6.562
 9093SOL    HW228179   1.637   6.171   6.598
 9094SOL     OW28180   0.059   5.073   3.241
 9094SOL    HW128181   0.133   5.045   3.302
 9094SOL    HW228182   6.992   5.053   3.283
 9095SOL     OW28183   4.341   3.491   6.354
 9095SOL    HW128184   4.355   3.565   6.420
 9095SOL    HW228185   4.299   3.413   6.401
 9096SOL     OW28186   5.547   4.176   1.757
 9096SOL    HW128187   5.612   4.109   1.722
 9096SOL    HW228188   5.528   4.245   1.686
 9097SOL     OW28189   1.233   2.763   0.030
 9097SOL    HW128190   1.331   2.782   0.026
 9097SOL    HW228191   1.203   2.725   6.963
 9098SOL     OW28192   4.002   2.519   6.974
 9098SOL    HW128193   4.074   2.582   6.947
 9098SOL    HW228194   3.916   2.547   6.932
 9099SOL     OW28195   3.554   3.393   6.901
 9099SOL    HW128196   3.542   3.491   6.883
 9099SOL    HW228197   3.533   3.374   6.997
 9100SOL     OW28198   0.803   3.120   4.157
 9100SOL    HW128199   0.826   3.114   4.060
 9100SOL    HW228200   0.885   3.098   4.211
 9101SOL     OW28201   2.889   2.297   3.253
 9101SOL    HW128202   2.968   2.260   3.302
 9101SOL    HW228203   2.811   2.302   3.316
 9102SOL     OW28204   2.574   6.996   2.140
 9102SOL    HW128205   2.479   6.965   2.134
 9102SOL    HW228206   2.581   0.070   2.108
 9103SOL     OW28207   6.449   3.505   6.942
 9103SOL    HW128208   6.530   3.465   6.986
 9103SOL    HW228209   6.377   3.519   7.010
 9104SOL     OW28210   5.786   6.395   2.946
 9104SOL    HW128211   5.863   6.439   2.992
 9104SOL    HW228212   5.718   6.366   3.015
 9105SOL     OW28213   1.625   1.381   0.598
 9105SOL    HW128214   1.577   1.296   0.619
 9105SOL    HW228215   1.569   1.459   0.626
 9106SOL     OW28216   6.664   3.807   0.235
 9106SOL    HW128217   6.682   3.839   0.328
 9106SOL    HW228218   6.569   3.828   0.210
 9107SOL     OW28219   3.267   0.552   6.120
 9107SOL    HW128220   3.292   0.646   6.094
 9107SOL    HW228221   3.323   0.487   6.068
 9108SOL     OW28222   4.637   3.839   5.635
 9108SOL    HW128223   4.612   3.744   5.654
 9108SOL    HW228224   4.610   3.862   5.541
 9109SOL     OW28225   0.513   2.694   2.709
 9109SOL    HW128226   0.537   2.667   2.802
 9109SOL    HW228227   0.596   2.704   2.654
 9110SOL     OW28228   1.553   3.809   3.668
 9110SOL    HW128229   1.651   3.789   3.671
 9110SOL    HW228230   1.525   3.852   3.754
 9111SOL     OW28231   4.283   1.553   0.836
 9111SOL    HW128232   4.301   1.551   0.934
 9111SOL    HW228233   4.186   1.534   0.820
 9112SOL     OW28234   0.731   4.838   4.377
 9112SOL    HW128235   0.769   4.804   4.462
 9112SOL    HW228236   0.720   4.762   4.313
 9113SOL     OW28237   5.177   1.358   2.115
 9113SOL    HW128238   5.103   1.415   2.080
 9113SOL    HW228239   5.138   1.276   2.157
 9114SOL     OW28240   0.607   4.400   1.764
 9114SOL    HW128241   0.595   4.496   1.741
 9114SOL    HW228242   0.640   4.351   1.683
 9115SOL     OW28243   6.863   4.594   5.333
 9115SOL    HW128244   6.907   4.608   5.244
 9115SOL    HW228245   6.934   4.575   5.402
 9116SOL     OW28246   6.651   1.194   1.121
 9116SOL    HW128247   6.739   1.160   1.154
 9116SOL    HW228248   6.660   1.224   1.026
 9117SOL     OW28249   6.136   2.577   6.915
 9117SOL    HW128250   6.199   2.514   6.960
 9117SOL    HW228251   6.181   2.666   6.904
 9118SOL     OW28252   6.605   3.952   0.466
 9118SOL    HW128253   6.683   3.900   0.503
 9118SOL    HW228254   6.637   4.041   0.435
 9119SOL     OW28255   4.780   1.245   1.355
 9119SOL    HW128256   4.796   1.147   1.344
 9119SOL    HW228257   4.737   1.263   1.443
 9120SOL     OW28258   6.078   1.777   5.939
 9120SOL    HW128259   5.986   1.800   5.973
 9120SOL    HW228260   6.085   1.802   5.842
 9121SOL     OW28261   2.702   1.600   5.094
 9121SOL    HW128262   2.622   1.569   5.044
 9121SOL    HW228263   2.715   1.698   5.079
 9122SOL     OW28264   1.602   4.057   2.544
 9122SOL    HW128265   1.519   4.079   2.596
 9122SOL    HW228266   1.590   4.084   2.449
 9123SOL     OW28267   1.986   0.691   4.350
 9123SOL    HW128268   1.945   0.671   4.261
 9123SOL    HW228269   1.984   0.608   4.407
 9124SOL     OW28270   5.702   6.488   0.023
 9124SOL    HW128271   5.722   6.392   0.007
 9124SOL    HW228272   5.642   6.522   6.971
 9125SOL     OW28273   4.914   3.939   1.060
 9125SOL    HW128274   4.893   3.858   1.007
 9125SOL    HW228275   4.996   3.924   1.115
 9126SOL     OW28276   5.883   3.351   1.965
 9126SOL    HW128277   5.811   3.367   1.897
 9126SOL    HW228278   5.911   3.438   2.005
 9127SOL     OW28279   6.898   1.330   6.005
 9127SOL    HW128280   6.829   1.349   5.936
 9127SOL    HW228281   6.863   1.353   6.095
 9128SOL     OW28282   5.580   1.574   5.202
 9128SOL    HW128283   5.598   1.476   5.196
 9128SOL    HW228284   5.495   1.596   5.155
 9129SOL     OW28285   0.938   2.319   0.205
 9129SOL    HW128286   1.000   2.301   0.281
 9129SOL    HW228287   0.875   2.242   0.195
 9130SOL     OW28288   6.873   3.666   6.553
 9130SOL    HW128289   6.959   3.687   6.507
 9130SOL    HW228290   6.837   3.748   6.596
 9131SOL     OW28291   6.112   2.649   5.110
 9131SOL    HW128292   6.203   2.620   5.139
 9131SOL    HW228293   6.120   2.728   5.049
 9132SOL     OW28294   0.767   5.243   4.559
 9132SOL    HW128295   0.789   5.277   4.468
 9132SOL    HW228296   0.711   5.310   4.608
 9133SOL     OW28297   3.616   6.154   1.281
 9133SOL    HW128298   3.650   6.085   1.217
 9133SOL    HW228299   3.526   6.126   1.315
 9134SOL     OW28300   4.668   5.459   0.883
 9134SOL    HW128301   4.658   5.419   0.974
 9134SOL    HW228302   4.762   5.449   0.851
 9135SOL     OW28303   6.426   7.010   1.813
 9135SOL    HW128304   6.427   0.073   1.759
 9135SOL    HW228305   6.335   6.996   1.852
 9136SOL     OW28306   5.121   5.968   6.375
 9136SOL    HW128307   5.162   5.877   6.385
 9136SOL    HW228308   5.194   6.037   6.374
 9137SOL     OW28309   5.529   1.498   0.787
 9137SOL    HW128310   5.552   1.580   0.733
 9137SOL    HW228311   5.475   1.436   0.730
 9138SOL     OW28312   0.048   5.569   6.652
 9138SOL    HW128313   0.010   5.661   6.655
 9138SOL    HW228314   0.119   5.564   6.582
 9139SOL     OW28315   2.914   1.704   3.421
 9139SOL    HW128316   3.004   1.731   3.388
 9139SOL    HW228317   2.858   1.674   3.344
 9140SOL     OW28318   6.778   3.473   2.661
 9140SOL    HW128319   6.852   3.417   2.697
 9140SOL    HW228320   6.703   3.415   2.629
 9141SOL     OW28321   5.669   0.879   0.625
 9141SOL    HW128322   5.605   0.834   0.563
 9141SOL    HW228323   5.642   0.974   0.637
 9142SOL     OW28324   0.565   2.560   0.496
 9142SOL    HW128325   0.512   2.561   0.580
 9142SOL    HW228326   0.649   2.613   0.508
 9143SOL     OW28327   5.839   3.767   6.719
 9143SOL    HW128328   5.754   3.736   6.761
 9143SOL    HW228329   5.912   3.703   6.741
 9144SOL     OW28330   2.548   5.240   4.238
 9144SOL    HW128331   2.506   5.292   4.312
 9144SOL    HW228332   2.648   5.244   4.247
 9145SOL     OW28333   0.120   5.837   0.485
 9145SOL    HW128334   0.113   5.902   0.409
 9145SOL    HW228335   0.215   5.805   0.493
 9146SOL     OW28336   5.359   2.883   3.552
 9146SOL    HW128337   5.265   2.916   3.543
 9146SOL    HW228338   5.371   2.801   3.495
 9147SOL     OW28339   6.302   0.451   5.155
 9147SOL    HW128340   6.322   0.537   5.107
 9147SOL    HW228341   6.204   0.434   5.151
 9148SOL     OW28342   4.899   6.071   1.361
 9148SOL    HW128343   4.884   6.164   1.397
 9148SOL    HW228344   4.983   6.034   1.400
 9149SOL     OW28345   5.782   3.791   2.983
 9149SOL    HW128346   5.711   3.838   3.036
 9149SOL    HW228347   5.750   3.777   2.889
 9150SOL     OW28348   3.617   5.564   1.169
 9150SOL    HW128349   3.692   5.630   1.161
 9150SOL    HW228350   3.624   5.516   1.256
 9151SOL     OW28351   1.981   4.128   3.503
 9151SOL    HW128352   2.067   4.078   3.500
 9151SOL    HW228353   2.000   4.227   3.507
 9152SOL     OW28354   2.194   4.034   4.736
 9152SOL    HW128355   2.227   4.045   4.829
 9152SOL    HW228356   2.270   4.047   4.672
 9153SOL     OW28357   0.905   3.105   6.551
 9153SOL    HW128358   0.882   3.119   6.648
 9153SOL    HW228359   0.989   3.052   6.545
 9154SOL     OW28360   4.798   4.639   0.319
 9154SOL    HW128361   4.806   4.551   0.271
 9154SOL    HW228362   4.711   4.682   0.295
 9155SOL     OW28363   1.781   3.493   2.389
 9155SOL    HW128364   1.798   3.395   2.397
 9155SOL    HW228365   1.868   3.540   2.374
 9156SOL     OW28366   1.099   2.474   0.004
 9156SOL    HW128367   1.081   2.400   0.069
 9156SOL    HW228368   1.104   2.561   0.053
 9157SOL     OW28369   1.474   4.270   6.142
 9157SOL    HW128370   1.459   4.175   6.172
 9157SOL    HW228371   1.467   4.331   6.220
 9158SOL     OW28372   5.199   3.321   4.900
 9158SOL    HW128373   5.250   3.395   4.943
 9158SOL    HW228374   5.116   3.302   4.953
 9159SOL     OW28375   1.775   0.877   1.569
 9159SOL    HW128376   1.836   0.842   1.498
 9159SOL    HW228377   1.828   0.929   1.636
 9160SOL     OW28378   6.602   6.403   5.482
 9160SOL    HW128379   6.526   6.380   5.422
 9160SOL    HW228380   6.576   6.480   5.540
 9161SOL     OW28381   5.291   4.445   4.175
 9161SOL    HW128382   5.308   4.519   4.240
 9161SOL    HW228383   5.292   4.482   4.082
 9162SOL     OW28384   4.096   1.186   3.719
 9162SOL    HW128385   4.192   1.173   3.692
 9162SOL    HW228386   4.084   1.157   3.814
 9163SOL     OW28387   1.516   2.376   4.916
 9163SOL    HW128388   1.500   2.472   4.939
 9163SOL    HW228389   1.431   2.335   4.885
 9164SOL     OW28390   2.571   6.799   6.692
 9164SOL    HW128391   2.573   6.766   6.787
 9164SOL    HW228392   2.611   6.891   6.689
 9165SOL     OW28393   6.786   1.400   5.353
 9165SOL    HW128394   6.749   1.480   5.307
 9165SOL    HW228395   6.743   1.317   5.316
 9166SOL     OW28396   3.874   5.954   1.643
 9166SOL    HW128397   3.865   6.043   1.598
 9166SOL    HW228398   3.794   5.898   1.622
 9167SOL     OW28399   2.173   2.127   6.115
 9167SOL    HW128400   2.151   2.095   6.208
 9167SOL    HW228401   2.096   2.178   6.078
 9168SOL     OW28402   0.169   6.418   6.085
 9168SOL    HW128403   0.194   6.430   6.181
 9168SOL    HW228404   0.239   6.362   6.040
 9169SOL     OW28405   6.388   0.445   6.331
 9169SOL    HW128406   6.435   0.528   6.363
 9169SOL    HW228407   6.442   0.365   6.356
 9170SOL     OW28408   1.174   0.103   6.887
 9170SOL    HW128409   1.095   0.153   6.923
 9170SOL    HW228410   1.189   0.021   6.942
 9171SOL     OW28411   4.242   5.068   0.638
 9171SOL    HW128412   4.307   5.092   0.566
 9171SOL    HW228413   4.284   5.002   0.700
 9172SOL     OW28414   4.966   1.031   2.705
 9172SOL    HW128415   4.984   0.953   2.766
 9172SOL    HW228416   5.045   1.093   2.707
 9173SOL     OW28417   5.934   4.167   6.187
 9173SOL    HW128418   5.914   4.216   6.272
 9173SOL    HW228419   5.972   4.231   6.120
 9174SOL     OW28420   6.425   4.253   1.411
 9174SOL    HW128421   6.523   4.263   1.391
 9174SOL    HW228422   6.382   4.196   1.341
 9175SOL     OW28423   1.255   6.384   6.368
 9175SOL    HW128424   1.292   6.418   6.454
 9175SOL    HW228425   1.204   6.299   6.385
 9176SOL     OW28426   2.244   0.809   3.417
 9176SOL    HW128427   2.196   0.871   3.355
 9176SOL    HW228428   2.275   0.729   3.366
 9177SOL     OW28429   1.056   4.588   4.383
 9177SOL    HW128430   1.006   4.667   4.348
 9177SOL    HW228431   1.003   4.505   4.367
 9178SOL     OW28432   1.602   5.320   0.748
 9178SOL    HW128433   1.519   5.327   0.803
 9178SOL    HW228434   1.670   5.384   0.782
 9179SOL     OW28435   1.980   4.962   3.740
 9179SOL    HW128436   1.901   4.969   3.801
 9179SOL    HW228437   1.949   4.969   3.645
 9180SOL     OW28438   6.592   2.975   3.220
 9180SOL    HW128439   6.598   2.876   3.209
 9180SOL    HW228440   6.497   3.004   3.205
 9181SOL     OW28441   6.088   2.579   4.526
 9181SOL    HW128442   6.043   2.516   4.589
 9181SOL    HW228443   6.031   2.660   4.513
 9182SOL     OW28444   2.415   6.778   3.178
 9182SOL    HW128445   2.497   6.806   3.227
 9182SOL    HW228446   2.437   6.701   3.118
 9183SOL     OW28447   4.652   4.377   0.263
 9183SOL    HW128448   4.573   4.325   0.293
 9183SOL    HW228449   4.664   4.364   0.164
 9184SOL     OW28450   4.531   2.141   1.004
 9184SOL    HW128451   4.509   2.213   1.070
 9184SOL    HW228452   4.454   2.077   0.999
 9185SOL     OW28453   4.636   6.559   5.036
 9185SOL    HW128454   4.657   6.504   5.117
 9185SOL    HW228455   4.570   6.630   5.061
 9186SOL     OW28456   5.961   6.824   4.737
 9186SOL    HW128457   6.002   6.781   4.818
 9186SOL    HW228458   5.987   6.921   4.734
 9187SOL     OW28459   3.628   1.638   0.734
 9187SOL    HW128460   3.554   1.672   0.677
 9187SOL    HW228461   3.641   1.540   0.717
 9188SOL     OW28462   1.806   0.218   1.582
 9188SOL    HW128463   1.818   0.295   1.520
 9188SOL    HW228464   1.708   0.197   1.590
 9189SOL     OW28465   3.208   5.553   2.134
 9189SOL    HW128466   3.173   5.467   2.169
 9189SOL    HW228467   3.138   5.624   2.143
 9190SOL     OW28468   1.740   4.187   5.144
 9190SOL    HW128469   1.806   4.112   5.137
 9190SOL    HW228470   1.656   4.163   5.096
 9191SOL     OW28471   5.501   1.311   0.380
 9191SOL    HW128472   5.598   1.289   0.388
 9191SOL    HW228473   5.463   1.329   0.470
 9192SOL     OW28474   0.242   2.286   6.145
 9192SOL    HW128475   0.148   2.309   6.171
 9192SOL    HW228476   0.305   2.316   6.217
 9193SOL     OW28477   3.744   3.584   5.175
 9193SOL    HW128478   3.707   3.665   5.219
 9193SOL    HW228479   3.670   3.526   5.143
 9194SOL     OW28480   3.271   1.331   2.910
 9194SOL    HW128481   3.358   1.377   2.929
 9194SOL    HW228482   3.238   1.359   2.820
 9195SOL     OW28483   0.732   3.450   2.846
 9195SOL    HW128484   0.640   3.442   2.809
 9195SOL    HW228485   0.727   3.470   2.944
 9196SOL     OW28486   6.091   0.253   3.654
 9196SOL    HW128487   6.107   0.343   3.614
 9196SOL    HW228488   6.126   0.182   3.591
 9197SOL     OW28489   2.877   4.831   1.684
 9197SOL    HW128490   2.836   4.909   1.637
 9197SOL    HW228491   2.876   4.751   1.625
 9198SOL     OW28492   6.155   4.702   6.817
 9198SOL    HW128493   6.108   4.613   6.820
 9198SOL    HW228494   6.111   4.760   6.748
 9199SOL     OW28495   6.850   3.080   5.504
 9199SOL    HW128496   6.765   3.055   5.457
 9199SOL    HW228497   6.927   3.065   5.443
 9200SOL     OW28498   3.307   6.046   6.543
 9200SOL    HW128499   3.293   5.950   6.518
 9200SOL    HW228500   3.405   6.068   6.538
 9201SOL     OW28501   7.000   3.711   0.237
 9201SOL    HW128502   6.943   3.761   0.172
 9201SOL    HW228503   6.983   3.613   0.228
 9202SOL     OW28504   1.028   6.312   3.501
 9202SOL    HW128505   1.071   6.311   3.591
 9202SOL    HW228506   0.948   6.253   3.502
 9203SOL     OW28507   6.343   2.761   6.023
 9203SOL    HW128508   6.301   2.825   6.087
 9203SOL    HW228509   6.429   2.728   6.062
 9204SOL     OW28510   4.814   3.125   4.893
 9204SOL    HW128511   4.751   3.074   4.952
 9204SOL    HW228512   4.861   3.195   4.946
 9205SOL     OW28513   5.296   5.660   3.962
 9205SOL    HW128514   5.197   5.652   3.976
 9205SOL    HW228515   5.341   5.577   3.994
 9206SOL     OW28516   3.135   5.132   3.236
 9206SOL    HW128517   3.046   5.127   3.281
 9206SOL    HW228518   3.194   5.194   3.288
 9207SOL     OW28519   4.865   4.061   0.155
 9207SOL    HW128520   4.865   4.138   0.091
 9207SOL    HW228521   4.831   3.979   0.109
 9208SOL     OW28522   5.422   4.699   3.098
 9208SOL    HW128523   5.337   4.752   3.097
 9208SOL    HW228524   5.406   4.610   3.055
 9209SOL     OW28525   4.883   0.919   0.192
 9209SOL    HW128526   4.952   0.943   0.124
 9209SOL    HW228527   4.844   0.830   0.171
 9210SOL     OW28528   1.510   1.777   1.718
 9210SOL    HW128529   1.504   1.786   1.817
 9210SOL    HW228530   1.419   1.759   1.681
 9211SOL     OW28531   6.102   3.019   5.893
 9211SOL    HW128532   6.124   2.922   5.878
 9211SOL    HW228533   6.076   3.061   5.806
 9212SOL     OW28534   4.748   5.522   4.216
 9212SOL    HW128535   4.752   5.470   4.302
 9212SOL    HW228536   4.656   5.517   4.178
 9213SOL     OW28537   5.586   4.659   4.714
 9213SOL    HW128538   5.585   4.666   4.814
 9213SOL    HW228539   5.535   4.578   4.686
 9214SOL     OW28540   6.743   3.301   5.660
 9214SOL    HW128541   6.652   3.280   5.624
 9214SOL    HW228542   6.808   3.235   5.624
 9215SOL     OW28543   2.068   3.264   2.167
 9215SOL    HW128544   1.971   3.260   2.144
 9215SOL    HW228545   2.109   3.345   2.124
 9216SOL     OW28546   2.590   6.775   3.654
 9216SOL    HW128547   2.583   6.785   3.555
 9216SOL    HW228548   2.570   6.680   3.679
 9217SOL     OW28549   6.052   3.589   6.701
 9217SOL    HW128550   5.998   3.524   6.648
 9217SOL    HW228551   6.149   3.575   6.681
 9218SOL     OW28552   2.841   0.692   0.275
 9218SOL    HW128553   2.868   0.650   0.362
 9218SOL    HW228554   2.916   0.686   0.210
 9219SOL     OW28555   5.273   3.785   6.401
 9219SOL    HW128556   5.365   3.822   6.386
 9219SOL    HW228557   5.207   3.837   6.347
 9220SOL     OW28558   0.766   5.953   1.755
 9220SOL    HW128559   0.817   5.990   1.833
 9220SOL    HW228560   0.795   5.999   1.671
 9221SOL     OW28561   1.961   0.717   2.738
 9221SOL    HW128562   1.867   0.744   2.758
 9221SOL    HW228563   1.995   0.770   2.660
 9222SOL     OW28564   2.274   5.789   6.169
 9222SOL    HW128565   2.228   5.767   6.255
 9222SOL    HW228566   2.323   5.708   6.136
 9223SOL     OW28567   1.210   2.026   4.164
 9223SOL    HW128568   1.265   2.001   4.084
 9223SOL    HW228569   1.194   1.945   4.220
 9224SOL     OW28570   1.105   5.169   4.538
 9224SOL    HW128571   1.008   5.189   4.554
 9224SOL    HW228572   1.113   5.098   4.469
 9225SOL     OW28573   3.422   5.802   6.456
 9225SOL    HW128574   3.407   5.816   6.358
 9225SOL    HW228575   3.520   5.794   6.474
 9226SOL     OW28576   0.070   6.549   1.217
 9226SOL    HW128577   0.131   6.493   1.161
 9226SOL    HW228578   0.089   6.646   1.202
 9227SOL     OW28579   2.106   5.690   1.300
 9227SOL    HW128580   2.127   5.592   1.296
 9227SOL    HW228581   2.047   5.708   1.378
 9228SOL     OW28582   3.055   1.244   6.357
 9228SOL    HW128583   3.072   1.334   6.395
 9228SOL    HW228584   2.956   1.227   6.352
 9229SOL     OW28585   1.167   5.444   5.110
 9229SOL    HW128586   1.173   5.509   5.186
 9229SOL    HW228587   1.087   5.466   5.055
 9230SOL     OW28588   5.175   3.069   3.312
 9230SOL    HW128589   5.138   2.991   3.362
 9230SOL    HW228590   5.109   3.145   3.314
 9231SOL     OW28591   1.134   3.304   4.604
 9231SOL    HW128592   1.193   3.229   4.636
 9231SOL    HW228593   1.149   3.384   4.662
 9232SOL     OW28594   3.649   5.050   6.593
 9232SOL    HW128595   3.586   5.048   6.516
 9232SOL    HW228596   3.612   5.107   6.666
 9233SOL     OW28597   5.705   6.390   2.057
 9233SOL    HW128598   5.680   6.457   2.128
 9233SOL    HW228599   5.803   6.375   2.059
 9234SOL     OW28600   3.742   5.144   6.907
 9234SOL    HW128601   3.777   5.057   6.874
 9234SOL    HW228602   3.665   5.128   6.968
 9235SOL     OW28603   1.657   2.532   4.001
 9235SOL    HW128604   1.718   2.589   4.056
 9235SOL    HW228605   1.568   2.525   4.045
 9236SOL     OW28606   1.724   4.561   6.489
 9236SOL    HW128607   1.686   4.473   6.516
 9236SOL    HW228608   1.786   4.594   6.560
 9237SOL     OW28609   0.243   6.324   3.577
 9237SOL    HW128610   0.234   6.306   3.479
 9237SOL    HW228611   0.154   6.313   3.622
 9238SOL     OW28612   1.887   2.173   7.014
 9238SOL    HW128613   1.930   2.082   7.018
 9238SOL    HW228614   1.857   2.191   6.920
 9239SOL     OW28615   0.019   3.903   6.858
 9239SOL    HW128616   0.029   3.858   6.947
 9239SOL    HW228617   0.026   4.002   6.870
 9240SOL     OW28618   5.338   2.733   2.415
 9240SOL    HW128619   5.334   2.681   2.501
 9240SOL    HW228620   5.301   2.677   2.341
 9241SOL     OW28621   0.839   5.322   5.605
 9241SOL    HW128622   0.832   5.249   5.673
 9241SOL    HW228623   0.892   5.289   5.527
 9242SOL     OW28624   1.404   5.113   0.440
 9242SOL    HW128625   1.393   5.050   0.363
 9242SOL    HW228626   1.469   5.074   0.506
 9243SOL     OW28627   0.461   0.039   1.646
 9243SOL    HW128628   0.481   6.962   1.644
 9243SOL    HW228629   0.396   0.062   1.574
 9244SOL     OW28630   3.676   4.869   6.205
 9244SOL    HW128631   3.684   4.926   6.287
 9244SOL    HW228632   3.763   4.823   6.187
 9245SOL     OW28633   1.011   5.342   4.131
 9245SOL    HW128634   0.951   5.300   4.063
 9245SOL    HW228635   1.076   5.274   4.165
 9246SOL     OW28636   6.544   6.878   2.161
 9246SOL    HW128637   6.606   6.800   2.151
 9246SOL    HW228638   6.453   6.853   2.127
 9247SOL     OW28639   1.973   6.252   3.607
 9247SOL    HW128640   1.909   6.260   3.683
 9247SOL    HW228641   1.921   6.249   3.521
 9248SOL     OW28642   2.492   2.124   4.786
 9248SOL    HW128643   2.443   2.208   4.809
 9248SOL    HW228644   2.531   2.133   4.694
 9249SOL     OW28645   3.554   4.361   1.088
 9249SOL    HW128646   3.568   4.262   1.090
 9249SOL    HW228647   3.523   4.392   1.178
 9250SOL     OW28648   6.002   3.031   3.730
 9250SOL    HW128649   5.956   3.119   3.715
 9250SOL    HW228650   6.038   2.997   3.644
 9251SOL     OW28651   3.629   1.633   2.724
 9251SOL    HW128652   3.667   1.708   2.778
 9251SOL    HW228653   3.564   1.670   2.658
 9252SOL     OW28654   5.187   0.888   4.009
 9252SOL    HW128655   5.151   0.982   4.015
 9252SOL    HW228656   5.116   0.828   3.972
 9253SOL     OW28657   5.530   5.728   5.860
 9253SOL    HW128658   5.515   5.822   5.891
 9253SOL    HW228659   5.627   5.706   5.869
 9254SOL     OW28660   5.893   5.126   3.318
 9254SOL    HW128661   5.976   5.178   3.339
 9254SOL    HW228662   5.912   5.028   3.324
 9255SOL     OW28663   4.472   4.246   0.442
 9255SOL    HW128664   4.556   4.210   0.481
 9255SOL    HW228665   4.393   4.202   0.485
 9256SOL     OW28666   2.969   0.296   2.799
 9256SOL    HW128667   2.939   0.212   2.754
 9256SOL    HW228668   3.029   0.274   2.876
 9257SOL     OW28669   0.571   4.206   3.289
 9257SOL    HW128670   0.480   4.194   3.250
 9257SOL    HW228671   0.564   4.227   3.386
 9258SOL     OW28672   2.988   3.386   3.027
 9258SOL    HW128673   2.921   3.372   3.099
 9258SOL    HW228674   3.079   3.396   3.067
 9259SOL     OW28675   0.719   2.849   6.925
 9259SOL    HW128676   0.793   2.812   6.982
 9259SOL    HW228677   0.735   2.946   6.909
 9260SOL     OW28678   6.062   1.298   4.971
 9260SOL    HW128679   6.034   1.347   4.888
 9260SOL    HW228680   6.161   1.289   4.973
 9261SOL     OW28681   2.574   1.511   0.195
 9261SOL    HW128682   2.605   1.448   0.266
 9261SOL    HW228683   2.651   1.569   0.167
 9262SOL     OW28684   6.765   4.987   5.370
 9262SOL    HW128685   6.682   4.932   5.358
 9262SOL    HW228686   6.845   4.927   5.372
 9263SOL     OW28687   5.124   6.947   1.679
 9263SOL    HW128688   5.088   6.886   1.608
 9263SOL    HW228689   5.052   7.008   1.710
 9264SOL     OW28690   5.099   4.920   0.456
 9264SOL    HW128691   5.102   4.821   0.464
 9264SOL    HW228692   5.004   4.950   0.444
 9265SOL     OW28693   3.662   2.061   0.720
 9265SOL    HW128694   3.579   2.107   0.689
 9265SOL    HW228695   3.717   2.034   0.640
 9266SOL     OW28696   1.733   6.558   0.955
 9266SOL    HW128697   1.730   6.607   1.042
 9266SOL    HW228698   1.641   6.527   0.930
 9267SOL     OW28699   6.869   2.807   4.762
 9267SOL    HW128700   6.859   2.895   4.717
 9267SOL    HW228701   6.928   2.816   4.841
 9268SOL     OW28702   1.313   5.415   2.683
 9268SOL    HW128703   1.315   5.315   2.676
 9268SOL    HW228704   1.331   5.455   2.593
 9269SOL     OW28705   3.726   1.338   6.635
 9269SOL    HW128706   3.741   1.289   6.550
 9269SOL    HW228707   3.630   1.329   6.662
 9270SOL     OW28708   4.582   0.129   5.878
 9270SOL    HW128709   4.505   0.174   5.833
 9270SOL    HW228710   4.618   0.189   5.950
 9271SOL     OW28711   5.523   0.375   0.832
 9271SOL    HW128712   5.504   0.282   0.864
 9271SOL    HW228713   5.595   0.415   0.888
 9272SOL     OW28714   0.850   5.893   4.428
 9272SOL    HW128715   0.914   5.824   4.394
 9272SOL    HW228716   0.891   5.984   4.420
 9273SOL     OW28717   5.446   6.737   2.976
 9273SOL    HW128718   5.425   6.640   2.988
 9273SOL    HW228719   5.496   6.751   2.891
 9274SOL     OW28720   6.149   1.609   6.802
 9274SOL    HW128721   6.171   1.540   6.871
 9274SOL    HW228722   6.200   1.693   6.821
 9275SOL     OW28723   6.099   0.772   0.651
 9275SOL    HW128724   6.060   0.683   0.672
 9275SOL    HW228725   6.056   0.809   0.569
 9276SOL     OW28726   1.620   3.421   1.330
 9276SOL    HW128727   1.691   3.426   1.399
 9276SOL    HW228728   1.601   3.513   1.294
 9277SOL     OW28729   4.512   3.368   0.632
 9277SOL    HW128730   4.522   3.425   0.550
 9277SOL    HW228731   4.536   3.421   0.713
 9278SOL     OW28732   1.938   0.310   5.957
 9278SOL    HW128733   1.990   0.225   5.943
 9278SOL    HW228734   1.917   0.351   5.868
 9279SOL     OW28735   4.009   1.094   2.259
 9279SOL    HW128736   4.057   1.179   2.233
 9279SOL    HW228737   3.911   1.111   2.260
 9280SOL     OW28738   2.247   1.994   2.947
 9280SOL    HW128739   2.222   2.040   3.033
 9280SOL    HW228740   2.173   2.006   2.881
 9281SOL     OW28741   2.369   3.619   6.644
 9281SOL    HW128742   2.407   3.539   6.691
 9281SOL    HW228743   2.426   3.641   6.565
 9282SOL     OW28744   4.911   0.466   3.817
 9282SOL    HW128745   4.960   0.380   3.833
 9282SOL    HW228746   4.860   0.461   3.732
 9283SOL     OW28747   5.262   0.636   3.605
 9283SOL    HW128748   5.237   0.731   3.587
 9283SOL    HW228749   5.280   0.624   3.702
 9284SOL     OW28750   2.910   3.249   5.215
 9284SOL    HW128751   2.850   3.324   5.244
 9284SOL    HW228752   2.910   3.177   5.285
 9285SOL     OW28753   4.719   2.384   0.977
 9285SOL    HW128754   4.622   2.373   1.000
 9285SOL    HW228755   4.739   2.481   0.962
 9286SOL     OW28756   5.057   5.790   1.173
 9286SOL    HW128757   5.014   5.753   1.255
 9286SOL    HW228758   5.122   5.862   1.199
 9287SOL     OW28759   3.203   4.762   0.150
 9287SOL    HW128760   3.220   4.852   0.189
 9287SOL    HW228761   3.179   4.698   0.223
 9288SOL     OW28762   4.508   1.851   3.075
 9288SOL    HW128763   4.496   1.762   3.119
 9288SOL    HW228764   4.460   1.851   2.987
 9289SOL     OW28765   3.544   1.023   2.442
 9289SOL    HW128766   3.486   1.092   2.485
 9289SOL    HW228767   3.488   0.966   2.382
 9290SOL     OW28768   5.896   1.157   2.977
 9290SOL    HW128769   5.825   1.168   3.047
 9290SOL    HW228770   5.935   1.246   2.955
 9291SOL     OW28771   0.888   6.174   4.749
 9291SOL    HW128772   0.949   6.095   4.751
 9291SOL    HW228773   0.942   6.258   4.735
 9292SOL     OW28774   1.675   2.816   6.604
 9292SOL    HW128775   1.741   2.741   6.600
 9292SOL    HW228776   1.681   2.870   6.520
 9293SOL     OW28777   5.243   2.904   6.430
 9293SOL    HW128778   5.304   2.932   6.504
 9293SOL    HW228779   5.223   2.806   6.439
 9294SOL     OW28780   4.302   0.709   5.745
 9294SOL    HW128781   4.301   0.627   5.688
 9294SOL    HW228782   4.345   0.784   5.695
 9295SOL     OW28783   5.239   1.545   4.814
 9295SOL    HW128784   5.196   1.456   4.827
 9295SOL    HW228785   5.231   1.572   4.718
 9296SOL     OW28786   1.238   5.773   0.030
 9296SOL    HW128787   1.319   5.730   7.011
 9296SOL    HW228788   1.259   5.867   0.057
 9297SOL     OW28789   0.217   0.100   2.150
 9297SOL    HW128790   0.227   0.056   2.061
 9297SOL    HW228791   0.304   0.143   2.176
 9298SOL     OW28792   1.040   6.304   5.991
 9298SOL    HW128793   1.122   6.359   6.008
 9298SOL    HW228794   0.974   6.318   6.064
 9299SOL     OW28795   0.555   2.593   4.773
 9299SOL    HW128796   0.486   2.573   4.703
 9299SOL    HW228797   0.566   2.513   4.833
 9300SOL     OW28798   0.033   4.506   5.519
 9300SOL    HW128799   0.100   4.547   5.580
 9300SOL    HW228800   0.069   4.420   5.482
 9301SOL     OW28801   5.419   5.075   4.217
 9301SOL    HW128802   5.400   5.159   4.269
 9301SOL    HW228803   5.433   4.999   4.281
 9302SOL     OW28804   2.428   2.413   4.234
 9302SOL    HW128805   2.345   2.398   4.179
 9302SOL    HW228806   2.494   2.465   4.180
 9303SOL     OW28807   2.621   3.982   0.587
 9303SOL    HW128808   2.705   3.927   0.587
 9303SOL    HW228809   2.542   3.923   0.602
 9304SOL     OW28810   4.069   4.622   1.764
 9304SOL    HW128811   4.128   4.631   1.844
 9304SOL    HW228812   4.124   4.605   1.683
 9305SOL     OW28813   3.346   1.300   0.869
 9305SOL    HW128814   3.337   1.201   0.859
 9305SOL    HW228815   3.334   1.343   0.779
 9306SOL     OW28816   0.120   5.791   5.200
 9306SOL    HW128817   0.207   5.829   5.169
 9306SOL    HW228818   0.071   5.860   5.254
 9307SOL     OW28819   1.517   3.344   1.621
 9307SOL    HW128820   1.462   3.332   1.539
 9307SOL    HW228821   1.472   3.299   1.698
 9308SOL     OW28822   2.523   3.114   0.393
 9308SOL    HW128823   2.502   3.028   0.347
 9308SOL    HW228824   2.476   3.117   0.481
 9309SOL     OW28825   3.776   4.531   5.733
 9309SOL    HW128826   3.874   4.517   5.721
 9309SOL    HW228827   3.737   4.569   5.649
 9310SOL     OW28828   5.045   5.280   6.419
 9310SOL    HW128829   5.049   5.270   6.320
 9310SOL    HW228830   4.983   5.211   6.457
 9311SOL     OW28831   4.675   4.677   1.409
 9311SOL    HW128832   4.660   4.715   1.500
 9311SOL    HW228833   4.771   4.648   1.400
 9312SOL     OW28834   0.906   3.644   0.990
 9312SOL    HW128835   0.994   3.603   0.969
 9312SOL    HW228836   0.833   3.577   0.974
 9313SOL     OW28837   0.573   0.779   0.700
 9313SOL    HW128838   0.670   0.783   0.675
 9313SOL    HW228839   0.540   0.685   0.691
 9314SOL     OW28840   5.510   4.385   6.986
 9314SOL    HW128841   5.547   4.330   6.911
 9314SOL    HW228842   5.417   4.412   6.965
 9315SOL     OW28843   5.946   0.174   5.105
 9315SOL    HW128844   5.857   0.142   5.139
 9315SOL    HW228845   5.976   0.251   5.161
 9316SOL     OW28846   5.639   6.335   6.164
 9316SOL    HW128847   5.686   6.338   6.076
 9316SOL    HW228848   5.547   6.373   6.155
 9317SOL     OW28849   5.648   4.976   3.515
 9317SOL    HW128850   5.592   4.950   3.593
 9317SOL    HW228851   5.592   4.974   3.432
 9318SOL     OW28852   5.817   1.045   5.985
 9318SOL    HW128853   5.913   1.073   5.985
 9318SOL    HW228854   5.759   1.127   5.993
 9319SOL     OW28855   2.800   2.535   6.810
 9319SOL    HW128856   2.715   2.507   6.855
 9319SOL    HW228857   2.779   2.584   6.726
 9320SOL     OW28858   3.606   0.367   5.207
 9320SOL    HW128859   3.526   0.418   5.238
 9320SOL    HW228860   3.641   0.408   5.123
 9321SOL     OW28861   0.772   0.648   4.353
 9321SOL    HW128862   0.688   0.598   4.332
 9321SOL    HW228863   0.825   0.662   4.269
 9322SOL     OW28864   6.730   3.697   5.858
 9322SOL    HW128865   6.644   3.708   5.907
 9322SOL    HW228866   6.767   3.787   5.834
 9323SOL     OW28867   1.449   0.687   5.580
 9323SOL    HW128868   1.483   0.631   5.655
 9323SOL    HW228869   1.527   0.718   5.525
 9324SOL     OW28870   1.363   4.254   1.466
 9324SOL    HW128871   1.432   4.184   1.449
 9324SOL    HW228872   1.393   4.341   1.427
 9325SOL     OW28873   5.752   1.184   0.292
 9325SOL    HW128874   5.810   1.233   0.227
 9325SOL    HW228875   5.723   1.097   0.252
 9326SOL     OW28876   2.354   4.967   0.505
 9326SOL    HW128877   2.390   4.989   0.596
 9326SOL    HW228878   2.260   5.002   0.498
 9327SOL     OW28879   5.092   0.210   2.766
 9327SOL    HW128880   5.157   0.262   2.821
 9327SOL    HW228881   5.091   0.115   2.796
 9328SOL     OW28882   2.713   0.973   5.009
 9328SOL    HW128883   2.757   0.988   5.097
 9328SOL    HW228884   2.779   0.989   4.936
 9329SOL     OW28885   6.303   3.780   0.695
 9329SOL    HW128886   6.314   3.705   0.630
 9329SOL    HW228887   6.208   3.783   0.727
 9330SOL     OW28888   6.361   0.306   5.604
 9330SOL    HW128889   6.269   0.345   5.603
 9330SOL    HW228890   6.418   0.354   5.537
 9331SOL     OW28891   2.223   0.928   0.209
 9331SOL    HW128892   2.166   0.852   0.179
 9331SOL    HW228893   2.218   1.002   0.141
 9332SOL     OW28894   4.075   4.479   1.037
 9332SOL    HW128895   3.997   4.530   1.000
 9332SOL    HW228896   4.156   4.537   1.038
 9333SOL     OW28897   4.138   3.816   6.929
 9333SOL    HW128898   4.196   3.798   6.850
 9333SOL    HW228899   4.076   3.891   6.908
 9334SOL     OW28900   5.163   6.264   3.553
 9334SOL    HW128901   5.251   6.248   3.596
 9334SOL    HW228902   5.176   6.276   3.454
 9335SOL     OW28903   1.076   0.781   6.992
 9335SOL    HW128904   0.979   0.808   6.991
 9335SOL    HW228905   1.124   0.826   6.917
 9336SOL     OW28906   3.394   6.080   5.473
 9336SOL    HW128907   3.299   6.060   5.453
 9336SOL    HW228908   3.412   6.177   5.457
 9337SOL     OW28909   4.062   1.526   4.553
 9337SOL    HW128910   4.121   1.600   4.587
 9337SOL    HW228911   4.074   1.445   4.611
 9338SOL     OW28912   6.259   0.136   1.604
 9338SOL    HW128913   6.225   0.227   1.580
 9338SOL    HW228914   6.297   0.093   1.522
 9339SOL     OW28915   5.869   6.047   1.138
 9339SOL    HW128916   5.886   5.953   1.109
 9339SOL    HW228917   5.929   6.109   1.088
 9340SOL     OW28918   4.794   4.636   3.209
 9340SOL    HW128919   4.847   4.697   3.151
 9340SOL    HW228920   4.812   4.657   3.305
 9341SOL     OW28921   6.979   5.064   1.363
 9341SOL    HW128922   7.014   5.010   1.439
 9341SOL    HW228923   7.002   5.019   1.277
 9342SOL     OW28924   3.177   6.511   3.762
 9342SOL    HW128925   3.084   6.480   3.742
 9342SOL    HW228926   3.182   6.611   3.751
 9343SOL     OW28927   5.122   4.195   1.513
 9343SOL    HW128928   5.057   4.233   1.447
 9343SOL    HW228929   5.112   4.243   1.600
 9344SOL     OW28930   5.211   6.801   2.297
 9344SOL    HW128931   5.214   6.701   2.306
 9344SOL    HW228932   5.118   6.830   2.273
 9345SOL     OW28933   6.719   6.003   1.875
 9345SOL    HW128934   6.637   5.947   1.881
 9345SOL    HW228935   6.790   5.954   1.825
 9346SOL     OW28936   5.560   1.099   1.405
 9346SOL    HW128937   5.639   1.126   1.349
 9346SOL    HW228938   5.573   1.132   1.499
 9347SOL     OW28939   3.644   3.949   0.232
 9347SOL    HW128940   3.717   3.905   0.180
 9347SOL    HW228941   3.641   3.910   0.324
 9348SOL     OW28942   2.256   6.063   3.026
 9348SOL    HW128943   2.270   5.980   3.081
 9348SOL    HW228944   2.303   6.052   2.938
 9349SOL     OW28945   6.753   5.064   2.357
 9349SOL    HW128946   6.831   5.128   2.357
 9349SOL    HW228947   6.671   5.112   2.389
 9350SOL     OW28948   6.746   2.695   5.292
 9350SOL    HW128949   6.832   2.739   5.267
 9350SOL    HW228950   6.710   2.645   5.213
 9351SOL     OW28951   3.519   6.638   6.282
 9351SOL    HW128952   3.549   6.708   6.347
 9351SOL    HW228953   3.508   6.678   6.191
 9352SOL     OW28954   3.769   1.095   6.499
 9352SOL    HW128955   3.707   1.095   6.420
 9352SOL    HW228956   3.740   1.027   6.565
 9353SOL     OW28957   1.034   4.239   1.109
 9353SOL    HW128958   1.075   4.147   1.108
 9353SOL    HW228959   0.991   4.256   1.020
 9354SOL     OW28960   6.890   2.087   6.169
 9354SOL    HW128961   6.825   2.075   6.243
 9354SOL    HW228962   6.960   2.153   6.196
 9355SOL     OW28963   0.256   2.132   4.503
 9355SOL    HW128964   0.280   2.066   4.431
 9355SOL    HW228965   0.267   2.225   4.468
 9356SOL     OW28966   4.567   6.625   2.205
 9356SOL    HW128967   4.587   6.592   2.113
 9356SOL    HW228968   4.506   6.560   2.250
 9357SOL     OW28969   1.564   3.506   6.492
 9357SOL    HW128970   1.565   3.584   6.429
 9357SOL    HW228971   1.653   3.496   6.535
 9358SOL     OW28972   0.255   3.077   1.966
 9358SOL    HW128973   0.332   3.134   1.995
 9358SOL    HW228974   0.235   3.010   2.038
 9359SOL     OW28975   1.769   3.525   5.707
 9359SOL    HW128976   1.787   3.446   5.648
 9359SOL    HW228977   1.765   3.494   5.802
 9360SOL     OW28978   0.971   5.303   6.782
 9360SOL    HW128979   0.954   5.329   6.877
 9360SOL    HW228980   1.070   5.292   6.768
 9361SOL     OW28981   1.792   5.173   2.629
 9361SOL    HW128982   1.725   5.177   2.555
 9361SOL    HW228983   1.793   5.259   2.679
 9362SOL     OW28984   2.131   2.667   2.936
 9362SOL    HW128985   2.122   2.571   2.961
 9362SOL    HW228986   2.125   2.724   3.018
 9363SOL     OW28987   3.647   6.545   2.020
 9363SOL    HW128988   3.712   6.500   2.081
 9363SOL    HW228989   3.556   6.543   2.061
 9364SOL     OW28990   3.371   2.951   6.344
 9364SOL    HW128991   3.363   3.025   6.277
 9364SOL    HW228992   3.467   2.927   6.357
 9365SOL     OW28993   2.281   2.124   3.975
 9365SOL    HW128994   2.342   2.127   4.054
 9365SOL    HW228995   2.202   2.183   3.991
 9366SOL     OW28996   3.677   5.516   6.118
 9366SOL    HW128997   3.737   5.438   6.140
 9366SOL    HW228998   3.600   5.517   6.182
 9367SOL     OW28999   0.212   6.560   3.044
 9367SOL    HW129000   0.298   6.531   3.002
 9367SOL    HW229001   0.228   6.584   3.140
 9368SOL     OW29002   2.762   0.896   2.453
 9368SOL    HW129003   2.736   0.802   2.430
 9368SOL    HW229004   2.855   0.913   2.423
 9369SOL     OW29005   6.537   5.975   4.367
 9369SOL    HW129006   6.460   6.025   4.328
 9369SOL    HW229007   6.602   6.040   4.408
 9370SOL     OW29008   5.755   0.613   3.658
 9370SOL    HW129009   5.679   0.578   3.603
 9370SOL    HW229010   5.732   0.602   3.755
 9371SOL     OW29011   3.058   5.150   0.877
 9371SOL    HW129012   3.004   5.114   0.953
 9371SOL    HW229013   3.143   5.191   0.912
 9372SOL     OW29014   4.642   0.871   1.621
 9372SOL    HW129015   4.690   0.852   1.535
 9372SOL    HW229016   4.600   0.961   1.616
 9373SOL     OW29017   5.110   1.950   2.066
 9373SOL    HW129018   5.157   1.985   1.985
 9373SOL    HW229019   5.055   2.023   2.106
 9374SOL     OW29020   0.291   3.442   0.245
 9374SOL    HW129021   0.204   3.417   0.203
 9374SOL    HW229022   0.309   3.539   0.232
 9375SOL     OW29023   1.153   1.595   1.184
 9375SOL    HW129024   1.154   1.614   1.086
 9375SOL    HW229025   1.061   1.566   1.212
 9376SOL     OW29026   2.297   4.297   1.184
 9376SOL    HW129027   2.363   4.302   1.109
 9376SOL    HW229028   2.256   4.386   1.199
 9377SOL     OW29029   1.704   5.171   3.142
 9377SOL    HW129030   1.791   5.155   3.097
 9377SOL    HW229031   1.718   5.233   3.220
 9378SOL     OW29032   2.048   0.978   3.613
 9378SOL    HW129033   1.960   0.959   3.656
 9378SOL    HW229034   2.121   0.937   3.667
 9379SOL     OW29035   4.918   7.013   5.193
 9379SOL    HW129036   4.903   6.937   5.129
 9379SOL    HW229037   4.911   6.979   5.286
 9380SOL     OW29038   4.201   5.931   6.003
 9380SOL    HW129039   4.227   5.888   6.089
 9380SOL    HW229040   4.153   6.017   6.023
 9381SOL     OW29041   4.417   3.115   5.715
 9381SOL    HW129042   4.493   3.131   5.777
 9381SOL    HW229043   4.449   3.060   5.637
 9382SOL     OW29044   3.304   0.839   4.313
 9382SOL    HW129045   3.371   0.765   4.311
 9382SOL    HW229046   3.282   0.866   4.219
 9383SOL     OW29047   5.812   5.582   4.395
 9383SOL    HW129048   5.765   5.648   4.454
 9383SOL    HW229049   5.759   5.570   4.310
 9384SOL     OW29050   4.422   0.651   1.949
 9384SOL    HW129051   4.510   0.695   1.928
 9384SOL    HW229052   4.427   0.609   2.040
 9385SOL     OW29053   3.863   1.196   3.562
 9385SOL    HW129054   3.947   1.201   3.615
 9385SOL    HW229055   3.793   1.145   3.612
 9386SOL     OW29056   3.389   5.819   5.006
 9386SOL    HW129057   3.435   5.818   4.917
 9386SOL    HW229058   3.400   5.730   5.050
 9387SOL     OW29059   2.835   2.073   0.186
 9387SOL    HW129060   2.839   2.159   0.134
 9387SOL    HW229061   2.740   2.047   0.200
 9388SOL     OW29062   2.784   5.907   3.288
 9388SOL    HW129063   2.863   5.849   3.307
 9388SOL    HW229064   2.717   5.898   3.362
 9389SOL     OW29065   2.061   0.272   3.332
 9389SOL    HW129066   2.092   0.339   3.265
 9389SOL    HW229067   2.068   0.180   3.293
 9390SOL     OW29068   5.380   4.624   6.583
 9390SOL    HW129069   5.461   4.657   6.631
 9390SOL    HW229070   5.379   4.659   6.490
 9391SOL     OW29071   1.713   1.052   5.498
 9391SOL    HW129072   1.740   0.975   5.555
 9391SOL    HW229073   1.617   1.074   5.515
 9392SOL     OW29074   5.484   5.433   5.675
 9392SOL    HW129075   5.455   5.347   5.633
 9392SOL    HW229076   5.479   5.426   5.775
 9393SOL     OW29077   3.240   6.751   6.409
 9393SOL    HW129078   3.286   6.667   6.382
 9393SOL    HW229079   3.199   6.794   6.329
 9394SOL     OW29080   6.656   0.685   1.971
 9394SOL    HW129081   6.695   0.715   2.058
 9394SOL    HW229082   6.663   0.759   1.904
 9395SOL     OW29083   3.177   0.931   1.271
 9395SOL    HW129084   3.173   0.869   1.350
 9395SOL    HW229085   3.142   0.884   1.190
 9396SOL     OW29086   2.318   4.173   4.162
 9396SOL    HW129087   2.237   4.156   4.218
 9396SOL    HW229088   2.360   4.086   4.135
 9397SOL     OW29089   3.626   6.231   6.315
 9397SOL    HW129090   3.605   6.207   6.410
 9397SOL    HW229091   3.684   6.312   6.313
 9398SOL     OW29092   6.172   0.941   5.091
 9398SOL    HW129093   6.242   0.994   5.140
 9398SOL    HW229094   6.088   0.940   5.146
 9399SOL     OW29095   1.202   2.777   5.074
 9399SOL    HW129096   1.124   2.833   5.103
 9399SOL    HW229097   1.287   2.821   5.102
 9400SOL     OW29098   5.416   1.203   0.985
 9400SOL    HW129099   5.389   1.147   0.907
 9400SOL    HW229100   5.514   1.224   0.980
 9401SOL     OW29101   6.539   1.256   3.076
 9401SOL    HW129102   6.539   1.219   2.984
 9401SOL    HW229103   6.450   1.296   3.097
 9402SOL     OW29104   1.344   5.254   3.050
 9402SOL    HW129105   1.335   5.180   3.117
 9402SOL    HW229106   1.387   5.333   3.094
 9403SOL     OW29107   6.365   1.466   1.927
 9403SOL    HW129108   6.311   1.404   1.871
 9403SOL    HW229109   6.429   1.413   1.982
 9404SOL     OW29110   1.196   2.050   0.520
 9404SOL    HW129111   1.266   2.002   0.575
 9404SOL    HW229112   1.166   1.990   0.446
 9405SOL     OW29113   2.131   3.967   3.864
 9405SOL    HW129114   2.195   4.043   3.858
 9405SOL    HW229115   2.131   3.916   3.779
 9406SOL     OW29116   0.602   2.708   6.720
 9406SOL    HW129117   0.639   2.764   6.793
 9406SOL    HW229118   0.666   2.634   6.699
 9407SOL     OW29119   2.581   4.536   3.278
 9407SOL    HW129120   2.545   4.497   3.363
 9407SOL    HW229121   2.666   4.585   3.297
 9408SOL     OW29122   6.796   2.833   5.991
 9408SOL    HW129123   6.887   2.807   6.022
 9408SOL    HW229124   6.803   2.886   5.907
 9409SOL     OW29125   6.332   5.612   0.832
 9409SOL    HW129126   6.390   5.564   0.766
 9409SOL    HW229127   6.369   5.703   0.848
 9410SOL     OW29128   2.185   0.575   2.352
 9410SOL    HW129129   2.281   0.549   2.360
 9410SOL    HW229130   2.174   0.672   2.374
 9411SOL     OW29131   3.916   3.909   3.181
 9411SOL    HW129132   3.823   3.946   3.184
 9411SOL    HW229133   3.969   3.945   3.258
 9412SOL     OW29134   1.755   1.230   2.267
 9412SOL    HW129135   1.759   1.191   2.175
 9412SOL    HW229136   1.847   1.257   2.295
 9413SOL     OW29137   4.086   5.084   3.684
 9413SOL    HW129138   4.010   5.146   3.705
 9413SOL    HW229139   4.083   5.005   3.747
 9414SOL     OW29140   2.857   1.296   3.263
 9414SOL    HW129141   2.850   1.275   3.360
 9414SOL    HW229142   2.953   1.290   3.235
 9415SOL     OW29143   2.152   0.130   2.812
 9415SOL    HW129144   2.217   0.082   2.871
 9415SOL    HW229145   2.146   0.226   2.840
 9416SOL     OW29146   0.186   1.188   6.214
 9416SOL    HW129147   0.241   1.118   6.259
 9416SOL    HW229148   0.090   1.161   6.216
 9417SOL     OW29149   3.519   0.738   0.723
 9417SOL    HW129150   3.520   0.826   0.771
 9417SOL    HW229151   3.613   0.711   0.701
 9418SOL     OW29152   2.729   0.897   1.416
 9418SOL    HW129153   2.645   0.857   1.380
 9418SOL    HW229154   2.799   0.826   1.422
 9419SOL     OW29155   2.221   3.994   6.477
 9419SOL    HW129156   2.222   3.959   6.570
 9419SOL    HW229157   2.178   3.927   6.417
 9420SOL     OW29158   5.443   4.886   1.162
 9420SOL    HW129159   5.485   4.898   1.073
 9420SOL    HW229160   5.395   4.798   1.164
 9421SOL     OW29161   2.895   6.066   4.830
 9421SOL    HW129162   2.944   6.147   4.860
 9421SOL    HW229163   2.873   6.075   4.733
 9422SOL     OW29164   2.890   5.429   2.872
 9422SOL    HW129165   2.990   5.431   2.864
 9422SOL    HW229166   2.859   5.335   2.880
 9423SOL     OW29167   3.561   6.272   3.627
 9423SOL    HW129168   3.527   6.238   3.715
 9423SOL    HW229169   3.493   6.331   3.585
 9424SOL     OW29170   4.554   2.180   4.353
 9424SOL    HW129171   4.505   2.205   4.437
 9424SOL    HW229172   4.652   2.176   4.371
 9425SOL     OW29173   5.167   4.279   1.108
 9425SOL    HW129174   5.172   4.355   1.043
 9425SOL    HW229175   5.189   4.194   1.061
 9426SOL     OW29176   3.284   1.952   6.194
 9426SOL    HW129177   3.313   1.905   6.277
 9426SOL    HW229178   3.288   1.888   6.117
 9427SOL     OW29179   2.896   5.382   3.267
 9427SOL    HW129180   2.867   5.330   3.187
 9427SOL    HW229181   2.957   5.326   3.323
 9428SOL     OW29182   0.289   6.924   1.012
 9428SOL    HW129183   0.349   6.875   0.949
 9428SOL    HW229184   0.225   6.981   0.961
 9429SOL     OW29185   1.763   3.523   3.616
 9429SOL    HW129186   1.668   3.505   3.638
 9429SOL    HW229187   1.781   3.621   3.624
 9430SOL     OW29188   0.273   2.943   5.139
 9430SOL    HW129189   0.299   3.040   5.138
 9430SOL    HW229190   0.354   2.887   5.123
 9431SOL     OW29191   6.473   4.567   0.965
 9431SOL    HW129192   6.456   4.468   0.967
 9431SOL    HW229193   6.553   4.586   0.908
 9432SOL     OW29194   6.337   0.582   4.078
 9432SOL    HW129195   6.359   0.498   4.127
 9432SOL    HW229196   6.249   0.571   4.030
 9433SOL     OW29197   3.022   6.361   2.817
 9433SOL    HW129198   3.045   6.264   2.830
 9433SOL    HW229199   2.953   6.369   2.745
 9434SOL     OW29200   5.631   5.750   2.077
 9434SOL    HW129201   5.662   5.747   1.982
 9434SOL    HW229202   5.709   5.770   2.137
 9435SOL     OW29203   6.896   2.215   3.457
 9435SOL    HW129204   6.817   2.176   3.505
 9435SOL    HW229205   6.899   2.178   3.364
 9436SOL     OW29206   1.510   2.412   2.143
 9436SOL    HW129207   1.548   2.371   2.059
 9436SOL    HW229208   1.413   2.431   2.129
 9437SOL     OW29209   0.461   5.972   2.966
 9437SOL    HW129210   0.515   5.995   2.885
 9437SOL    HW229211   0.378   5.924   2.939
 9438SOL     OW29212   1.061   0.388   1.729
 9438SOL    HW129213   0.978   0.359   1.777
 9438SOL    HW229214   1.141   0.348   1.772
 9439SOL     OW29215   0.707   3.281   0.616
 9439SOL    HW129216   0.718   3.326   0.528
 9439SOL    HW229217   0.611   3.254   0.628
 9440SOL     OW29218   3.608   4.996   3.337
 9440SOL    HW129219   3.568   5.082   3.370
 9440SOL    HW229220   3.640   4.942   3.415
 9441SOL     OW29221   6.013   4.726   5.873
 9441SOL    HW129222   6.057   4.752   5.787
 9441SOL    HW229223   6.079   4.680   5.932
 9442SOL     OW29224   5.837   4.095   1.714
 9442SOL    HW129225   5.814   4.068   1.620
 9442SOL    HW229226   5.832   4.014   1.773
 9443SOL     OW29227   2.646   5.568   0.413
 9443SOL    HW129228   2.556   5.530   0.393
 9443SOL    HW229229   2.635   5.660   0.452
 9444SOL     OW29230   2.406   3.826   0.595
 9444SOL    HW129231   2.359   3.819   0.684
 9444SOL    HW229232   2.356   3.772   0.527
 9445SOL     OW29233   6.229   3.663   3.422
 9445SOL    HW129234   6.197   3.698   3.510
 9445SOL    HW229235   6.315   3.614   3.434
 9446SOL     OW29236   6.136   5.474   5.096
 9446SOL    HW129237   6.133   5.522   5.184
 9446SOL    HW229238   6.187   5.529   5.030
 9447SOL     OW29239   5.681   4.263   3.580
 9447SOL    HW129240   5.662   4.361   3.584
 9447SOL    HW229241   5.722   4.233   3.666
 9448SOL     OW29242   6.707   0.546   5.700
 9448SOL    HW129243   6.694   0.629   5.646
 9448SOL    HW229244   6.745   0.474   5.642
 9449SOL     OW29245   5.539   6.875   0.318
 9449SOL    HW129246   5.456   6.908   0.272
 9449SOL    HW229247   5.538   6.775   0.320
 9450SOL     OW29248   2.345   5.878   3.230
 9450SOL    HW129249   2.326   5.925   3.316
 9450SOL    HW229250   2.443   5.880   3.211
 9451SOL     OW29251   5.025   5.818   5.797
 9451SOL    HW129252   4.987   5.761   5.723
 9451SOL    HW229253   5.115   5.852   5.770
 9452SOL     OW29254   1.656   4.330   0.191
 9452SOL    HW129255   1.755   4.320   0.176
 9452SOL    HW229256   1.638   4.332   0.290
 9453SOL     OW29257   2.852   5.137   2.838
 9453SOL    HW129258   2.788   5.062   2.826
 9453SOL    HW229259   2.941   5.101   2.868
 9454SOL     OW29260   3.421   3.582   6.760
 9454SOL    HW129261   3.469   3.669   6.751
 9454SOL    HW229262   3.417   3.536   6.672
 9455SOL     OW29263   3.153   1.731   3.604
 9455SOL    HW129264   3.111   1.819   3.624
 9455SOL    HW229265   3.083   1.663   3.584
 9456SOL     OW29266   6.899   3.347   0.834
 9456SOL    HW129267   6.813   3.396   0.836
 9456SOL    HW229268   6.948   3.368   0.750
 9457SOL     OW29269   1.218   4.255   3.982
 9457SOL    HW129270   1.170   4.281   4.066
 9457SOL    HW229271   1.242   4.338   3.932
 9458SOL     OW29272   0.344   3.528   6.141
 9458SOL    HW129273   0.373   3.620   6.165
 9458SOL    HW229274   0.276   3.496   6.206
 9459SOL     OW29275   5.681   4.446   3.970
 9459SOL    HW129276   5.636   4.516   3.914
 9459SOL    HW229277   5.613   4.378   3.998
 9460SOL     OW29278   2.073   3.577   4.950
 9460SOL    HW129279   2.081   3.655   5.012
 9460SOL    HW229280   2.098   3.493   4.998
 9461SOL     OW29281   0.785   1.751   1.214
 9461SOL    HW129282   0.716   1.702   1.267
 9461SOL    HW229283   0.797   1.705   1.126
 9462SOL     OW29284   1.287   2.745   3.608
 9462SOL    HW129285   1.332   2.764   3.521
 9462SOL    HW229286   1.285   2.828   3.664
 9463SOL     OW29287   5.897   0.532   1.383
 9463SOL    HW129288   5.986   0.572   1.360
 9463SOL    HW229289   5.880   0.543   1.480
 9464SOL     OW29290   5.770   0.468   0.936
 9464SOL    HW129291   5.791   0.400   1.006
 9464SOL    HW229292   5.787   0.560   0.972
 9465SOL     OW29293   0.066   3.842   1.776
 9465SOL    HW129294   0.111   3.757   1.749
 9465SOL    HW229295   6.993   3.823   1.805
 9466SOL     OW29296   3.155   4.791   5.426
 9466SOL    HW129297   3.109   4.849   5.359
 9466SOL    HW229298   3.117   4.699   5.422
 9467SOL     OW29299   1.021   2.970   1.237
 9467SOL    HW129300   0.997   3.065   1.257
 9467SOL    HW229301   1.093   2.940   1.299
 9468SOL     OW29302   5.276   4.128   6.609
 9468SOL    HW129303   5.233   4.209   6.649
 9468SOL    HW229304   5.362   4.155   6.564
 9469SOL     OW29305   0.565   5.769   1.840
 9469SOL    HW129306   0.648   5.821   1.820
 9469SOL    HW229307   0.590   5.676   1.868
 9470SOL     OW29308   5.304   3.353   0.211
 9470SOL    HW129309   5.328   3.438   0.259
 9470SOL    HW229310   5.255   3.376   0.127
 9471SOL     OW29311   6.681   2.633   4.303
 9471SOL    HW129312   6.692   2.547   4.352
 9471SOL    HW229313   6.765   2.655   4.254
 9472SOL     OW29314   6.943   2.871   5.255
 9472SOL    HW129315   6.902   2.919   5.177
 9472SOL    HW229316   7.001   2.935   5.306
 9473SOL     OW29317   3.054   4.385   0.299
 9473SOL    HW129318   3.031   4.476   0.334
 9473SOL    HW229319   3.150   4.366   0.318
 9474SOL     OW29320   6.775   3.549   1.120
 9474SOL    HW129321   6.873   3.539   1.100
 9474SOL    HW229322   6.762   3.624   1.185
 9475SOL     OW29323   3.850   3.314   0.479
 9475SOL    HW129324   3.752   3.318   0.501
 9475SOL    HW229325   3.896   3.252   0.543
 9476SOL     OW29326   4.015   3.905   4.407
 9476SOL    HW129327   4.027   3.816   4.364
 9476SOL    HW229328   4.043   3.977   4.344
 9477SOL     OW29329   0.403   2.802   1.129
 9477SOL    HW129330   0.497   2.772   1.118
 9477SOL    HW229331   0.372   2.783   1.222
 9478SOL     OW29332   5.259   3.516   1.348
 9478SOL    HW129333   5.211   3.566   1.420
 9478SOL    HW229334   5.193   3.458   1.299
 9479SOL     OW29335   4.267   6.450   0.298
 9479SOL    HW129336   4.354   6.500   0.300
 9479SOL    HW229337   4.244   6.418   0.390
 9480SOL     OW29338   5.789   5.272   0.591
 9480SOL    HW129339   5.693   5.245   0.584
 9480SOL    HW229340   5.801   5.365   0.555
 9481SOL     OW29341   4.913   2.923   2.586
 9481SOL    HW129342   5.012   2.931   2.595
 9481SOL    HW229343   4.887   2.940   2.490
 9482SOL     OW29344   0.701   0.640   2.559
 9482SOL    HW129345   0.654   0.728   2.558
 9482SOL    HW229346   0.787   0.649   2.610
 9483SOL     OW29347   1.048   0.219   0.691
 9483SOL    HW129348   1.085   0.207   0.598
 9483SOL    HW229349   1.017   0.313   0.702
 9484SOL     OW29350   3.863   0.039   4.514
 9484SOL    HW129351   3.788   0.101   4.535
 9484SOL    HW229352   3.862   0.016   4.417
 9485SOL     OW29353   0.440   1.068   0.989
 9485SOL    HW129354   0.398   0.979   1.002
 9485SOL    HW229355   0.503   1.064   0.911
 9486SOL     OW29356   4.349   6.336   0.789
 9486SOL    HW129357   4.349   6.249   0.838
 9486SOL    HW229358   4.296   6.404   0.840
 9487SOL     OW29359   3.205   3.858   3.911
 9487SOL    HW129360   3.231   3.783   3.973
 9487SOL    HW229361   3.115   3.839   3.871
 9488SOL     OW29362   2.868   6.929   1.220
 9488SOL    HW129363   2.804   6.977   1.280
 9488SOL    HW229364   2.935   6.994   1.184
 9489SOL     OW29365   4.988   4.495   1.626
 9489SOL    HW129366   4.913   4.438   1.592
 9489SOL    HW229367   5.053   4.439   1.677
 9490SOL     OW29368   6.279   5.519   3.027
 9490SOL    HW129369   6.278   5.434   2.974
 9490SOL    HW229370   6.196   5.572   3.008
 9491SOL     OW29371   4.918   4.801   3.964
 9491SOL    HW129372   4.991   4.869   3.967
 9491SOL    HW229373   4.871   4.800   4.052
 9492SOL     OW29374   3.802   3.555   4.699
 9492SOL    HW129375   3.748   3.521   4.776
 9492SOL    HW229376   3.754   3.631   4.655
 9493SOL     OW29377   2.801   5.692   4.397
 9493SOL    HW129378   2.718   5.717   4.448
 9493SOL    HW229379   2.775   5.642   4.314
 9494SOL     OW29380   5.436   2.849   3.009
 9494SOL    HW129381   5.424   2.917   3.081
 9494SOL    HW229382   5.347   2.808   2.988
 9495SOL     OW29383   7.007   2.118   3.196
 9495SOL    HW129384   0.062   2.080   3.249
 9495SOL    HW229385   6.982   2.054   3.123
 9496SOL     OW29386   6.268   3.577   1.721
 9496SOL    HW129387   6.179   3.621   1.737
 9496SOL    HW229388   6.308   3.552   1.809
 9497SOL     OW29389   5.369   6.305   5.534
 9497SOL    HW129390   5.459   6.292   5.575
 9497SOL    HW229391   5.351   6.232   5.468
 9498SOL     OW29392   5.543   5.651   4.741
 9498SOL    HW129393   5.574   5.687   4.829
 9498SOL    HW229394   5.578   5.709   4.668
 9499SOL     OW29395   1.703   5.490   6.069
 9499SOL    HW129396   1.707   5.393   6.046
 9499SOL    HW229397   1.646   5.502   6.150
 9500SOL     OW29398   4.594   6.908   0.247
 9500SOL    HW129399   4.629   7.001   0.261
 9500SOL    HW229400   4.522   6.910   0.178
 9501SOL     OW29401   2.649   1.343   4.816
 9501SOL    HW129402   2.730   1.401   4.817
 9501SOL    HW229403   2.571   1.394   4.853
 9502SOL     OW29404   5.950   2.942   4.820
 9502SOL    HW129405   6.029   2.922   4.879
 9502SOL    HW229406   5.965   2.902   4.729
 9503SOL     OW29407   0.445   1.629   0.237
 9503SOL    HW129408   0.489   1.544   0.209
 9503SOL    HW229409   0.497   1.707   0.201
 9504SOL     OW29410   6.950   3.274   1.147
 9504SOL    HW129411   6.898   3.195   1.180
 9504SOL    HW229412   6.901   3.317   1.071
 9505SOL     OW29413   5.481   4.789   4.952
 9505SOL    HW129414   5.432   4.714   4.996
 9505SOL    HW229415   5.499   4.861   5.019
 9506SOL     OW29416   1.792   2.680   0.084
 9506SOL    HW129417   1.756   2.591   0.054
 9506SOL    HW229418   1.786   2.687   0.183
 9507SOL     OW29419   0.869   1.263   1.898
 9507SOL    HW129420   0.815   1.343   1.870
 9507SOL    HW229421   0.936   1.242   1.827
 9508SOL     OW29422   6.070   2.517   2.288
 9508SOL    HW129423   5.973   2.523   2.311
 9508SOL    HW229424   6.118   2.460   2.355
 9509SOL     OW29425   0.479   0.681   4.059
 9509SOL    HW129426   0.402   0.697   3.998
 9509SOL    HW229427   0.543   0.758   4.053
 9510SOL     OW29428   1.311   3.886   3.574
 9510SOL    HW129429   1.410   3.888   3.585
 9510SOL    HW229430   1.271   3.971   3.608
 9511SOL     OW29431   2.221   0.114   1.350
 9511SOL    HW129432   2.248   0.171   1.273
 9511SOL    HW229433   2.121   0.105   1.352
 9512SOL     OW29434   6.326   1.700   1.160
 9512SOL    HW129435   6.263   1.743   1.094
 9512SOL    HW229436   6.333   1.602   1.141
 9513SOL     OW29437   2.193   4.156   5.699
 9513SOL    HW129438   2.100   4.124   5.685
 9513SOL    HW229439   2.201   4.196   5.790
 9514SOL     OW29440   2.430   5.330   5.933
 9514SOL    HW129441   2.381   5.331   6.021
 9514SOL    HW229442   2.433   5.423   5.896
 9515SOL     OW29443   1.774   5.622   1.202
 9515SOL    HW129444   1.751   5.711   1.162
 9515SOL    HW229445   1.842   5.634   1.274
 9516SOL     OW29446   5.757   5.117   6.694
 9516SOL    HW129447   5.724   5.211   6.699
 9516SOL    HW229448   5.717   5.072   6.614
 9517SOL     OW29449   1.398   3.732   1.443
 9517SOL    HW129450   1.445   3.692   1.364
 9517SOL    HW229451   1.308   3.765   1.414
 9518SOL     OW29452   1.592   1.823   0.424
 9518SOL    HW129453   1.556   1.793   0.513
 9518SOL    HW229454   1.686   1.789   0.414
 9519SOL     OW29455   3.682   3.051   5.250
 9519SOL    HW129456   3.652   2.966   5.293
 9519SOL    HW229457   3.758   3.090   5.302
 9520SOL     OW29458   2.496   1.714   2.923
 9520SOL    HW129459   2.514   1.723   3.021
 9520SOL    HW229460   2.426   1.645   2.908
 9521SOL     OW29461   5.096   5.883   2.546
 9521SOL    HW129462   5.007   5.902   2.586
 9521SOL    HW229463   5.091   5.892   2.446
 9522SOL     OW29464   2.873   5.553   1.096
 9522SOL    HW129465   2.815   5.509   1.027
 9522SOL    HW229466   2.888   5.490   1.172
 9523SOL     OW29467   3.694   5.105   4.950
 9523SOL    HW129468   3.696   5.184   4.890
 9523SOL    HW229469   3.637   5.124   5.030
 9524SOL     OW29470   3.513   2.271   1.230
 9524SOL    HW129471   3.481   2.281   1.324
 9524SOL    HW229472   3.443   2.304   1.167
 9525SOL     OW29473   2.415   2.574   5.999
 9525SOL    HW129474   2.323   2.567   6.038
 9525SOL    HW229475   2.442   2.486   5.961
 9526SOL     OW29476   4.780   5.565   1.976
 9526SOL    HW129477   4.848   5.582   2.048
 9526SOL    HW229478   4.710   5.636   1.978
 9527SOL     OW29479   0.944   0.642   2.740
 9527SOL    HW129480   0.871   0.655   2.808
 9527SOL    HW229481   1.024   0.601   2.784
 9528SOL     OW29482   6.816   0.774   0.627
 9528SOL    HW129483   6.774   0.772   0.718
 9528SOL    HW229484   6.870   0.691   0.614
 9529SOL     OW29485   6.287   3.129   5.597
 9529SOL    HW129486   6.295   3.031   5.610
 9529SOL    HW229487   6.246   3.171   5.678
 9530SOL     OW29488   1.930   2.995   2.570
 9530SOL    HW129489   2.028   3.006   2.558
 9530SOL    HW229490   1.905   2.899   2.560
 9531SOL     OW29491   4.366   6.177   2.685
 9531SOL    HW129492   4.454   6.203   2.645
 9531SOL    HW229493   4.349   6.230   2.768
 9532SOL     OW29494   0.001   6.485   2.236
 9532SOL    HW129495   0.040   6.574   2.258
 9532SOL    HW229496   0.063   6.436   2.175
 9533SOL     OW29497   6.689   0.627   5.236
 9533SOL    HW129498   6.663   0.541   5.193
 9533SOL    HW229499   6.788   0.638   5.230
 9534SOL     OW29500   5.976   3.312   5.198
 9534SOL    HW129501   5.891   3.309   5.251
 9534SOL    HW229502   6.053   3.290   5.258
 9535SOL     OW29503   2.323   1.426   5.756
 9535SOL    HW129504   2.415   1.466   5.745
 9535SOL    HW229505   2.298   1.381   5.670
 9536SOL     OW29506   3.033   4.954   5.228
 9536SOL    HW129507   3.076   4.943   5.138
 9536SOL    HW229508   2.956   4.890   5.237
 9537SOL     OW29509   2.275   6.789   2.715
 9537SOL    HW129510   2.296   6.696   2.744
 9537SOL    HW229511   2.352   6.826   2.663
 9538SOL     OW29512   6.537   1.974   3.826
 9538SOL    HW129513   6.514   2.008   3.917
 9538SOL    HW229514   6.534   2.049   3.760
 9539SOL     OW29515   1.732   3.144   5.326
 9539SOL    HW129516   1.639   3.177   5.308
 9539SOL    HW229517   1.798   3.208   5.287
 9540SOL     OW29518   4.906   3.607   4.191
 9540SOL    HW129519   4.871   3.569   4.276
 9540SOL    HW229520   5.006   3.603   4.191
 9541SOL     OW29521   2.906   2.026   5.897
 9541SOL    HW129522   2.919   1.982   5.986
 9541SOL    HW229523   2.992   2.027   5.847
 9542SOL     OW29524   5.117   3.614   4.685
 9542SOL    HW129525   5.070   3.527   4.674
 9542SOL    HW229526   5.073   3.667   4.758
 9543SOL     OW29527   3.208   0.837   4.565
 9543SOL    HW129528   3.297   0.842   4.611
 9543SOL    HW229529   3.221   0.839   4.466
 9544SOL     OW29530   0.051   1.342   2.832
 9544SOL    HW129531   0.050   1.442   2.834
 9544SOL    HW229532   0.125   1.311   2.773
 9545SOL     OW29533   6.643   4.638   3.466
 9545SOL    HW129534   6.731   4.636   3.418
 9545SOL    HW229535   6.658   4.619   3.563
 9546SOL     OW29536   2.710   2.459   5.667
 9546SOL    HW129537   2.757   2.371   5.658
 9546SOL    HW229538   2.698   2.499   5.576
 9547SOL     OW29539   2.182   5.529   3.767
 9547SOL    HW129540   2.152   5.581   3.848
 9547SOL    HW229541   2.173   5.586   3.686
 9548SOL     OW29542   5.888   6.140   4.771
 9548SOL    HW129543   5.899   6.041   4.780
 9548SOL    HW229544   5.904   6.166   4.675
 9549SOL     OW29545   2.922   3.573   1.263
 9549SOL    HW129546   2.959   3.569   1.356
 9549SOL    HW229547   2.859   3.496   1.250
 9550SOL     OW29548   0.149   1.239   0.172
 9550SOL    HW129549   0.194   1.150   0.186
 9550SOL    HW229550   0.148   1.261   0.075
 9551SOL     OW29551   6.603   0.744   4.328
 9551SOL    HW129552   6.588   0.830   4.279
 9551SOL    HW229553   6.644   0.677   4.266
 9552SOL     OW29554   1.124   5.957   2.185
 9552SOL    HW129555   1.128   6.050   2.220
 9552SOL    HW229556   1.084   5.897   2.254
 9553SOL     OW29557   6.065   3.938   6.724
 9553SOL    HW129558   5.989   3.874   6.738
 9553SOL    HW229559   6.046   3.994   6.643
 9554SOL     OW29560   2.761   0.074   1.427
 9554SOL    HW129561   2.852   0.100   1.394
 9554SOL    HW229562   2.759   0.083   1.527
 9555SOL     OW29563   0.628   0.850   1.168
 9555SOL    HW129564   0.563   0.779   1.139
 9555SOL    HW229565   0.722   0.818   1.151
 9556SOL     OW29566   2.637   2.518   1.169
 9556SOL    HW129567   2.660   2.457   1.245
 9556SOL    HW229568   2.599   2.465   1.093
 9557SOL     OW29569   6.502   0.998   2.847
 9557SOL    HW129570   6.453   0.919   2.884
 9557SOL    HW229571   6.573   0.966   2.783
 9558SOL     OW29572   5.659   5.591   4.165
 9558SOL    HW129573   5.566   5.556   4.160
 9558SOL    HW229574   5.711   5.560   4.085
 9559SOL     OW29575   0.323   3.694   1.306
 9559SOL    HW129576   0.240   3.654   1.344
 9559SOL    HW229577   0.399   3.630   1.318
 9560SOL     OW29578   1.620   1.732   2.484
 9560SOL    HW129579   1.583   1.680   2.561
 9560SOL    HW229580   1.566   1.815   2.471
 9561SOL     OW29581   1.521   6.772   0.602
 9561SOL    HW129582   1.613   6.811   0.596
 9561SOL    HW229583   1.528   6.673   0.619
 9562SOL     OW29584   3.078   6.521   5.027
 9562SOL    HW129585   3.083   6.477   5.117
 9562SOL    HW229586   3.043   6.614   5.037
 9563SOL     OW29587   6.312   6.735   0.496
 9563SOL    HW129588   6.328   6.660   0.432
 9563SOL    HW229589   6.224   6.721   0.542
 9564SOL     OW29590   2.952   6.779   6.472
 9564SOL    HW129591   2.929   6.876   6.462
 9564SOL    HW229592   3.051   6.768   6.471
 9565SOL     OW29593   4.005   6.277   5.187
 9565SOL    HW129594   4.051   6.230   5.263
 9565SOL    HW229595   3.959   6.358   5.222
 9566SOL     OW29596   3.651   4.240   0.179
 9566SOL    HW129597   3.570   4.184   0.160
 9566SOL    HW229598   3.729   4.201   0.131
 9567SOL     OW29599   6.545   5.358   6.311
 9567SOL    HW129600   6.561   5.268   6.350
 9567SOL    HW229601   6.494   5.348   6.225
 9568SOL     OW29602   4.722   2.863   6.791
 9568SOL    HW129603   4.689   2.769   6.806
 9568SOL    HW229604   4.812   2.874   6.834
 9569SOL     OW29605   0.080   0.511   1.908
 9569SOL    HW129606   0.080   0.456   1.824
 9569SOL    HW229607   0.076   0.450   1.988
 9570SOL     OW29608   0.984   2.129   1.697
 9570SOL    HW129609   0.968   2.034   1.724
 9570SOL    HW229610   0.924   2.153   1.621
 9571SOL     OW29611   2.515   3.588   6.991
 9571SOL    HW129612   2.540   3.564   6.897
 9571SOL    HW229613   2.521   3.687   7.003
 9572SOL     OW29614   1.852   5.259   0.964
 9572SOL    HW129615   1.808   5.206   0.891
 9572SOL    HW229616   1.788   5.330   0.995
 9573SOL     OW29617   0.577   1.816   6.609
 9573SOL    HW129618   0.532   1.729   6.589
 9573SOL    HW229619   0.671   1.799   6.638
 9574SOL     OW29620   4.018   3.155   4.633
 9574SOL    HW129621   4.097   3.142   4.693
 9574SOL    HW229622   3.937   3.172   4.687
 9575SOL     OW29623   5.320   0.525   0.734
 9575SOL    HW129624   5.276   0.504   0.647
 9575SOL    HW229625   5.396   0.461   0.749
 9576SOL     OW29626   3.097   0.986   2.784
 9576SOL    HW129627   3.070   1.081   2.763
 9576SOL    HW229628   3.069   0.927   2.708
 9577SOL     OW29629   1.338   0.868   3.148
 9577SOL    HW129630   1.368   0.776   3.176
 9577SOL    HW229631   1.238   0.872   3.146
 9578SOL     OW29632   0.090   3.914   3.069
 9578SOL    HW129633   0.173   3.968   3.055
 9578SOL    HW229634   0.114   3.823   3.100
 9579SOL     OW29635   1.586   6.052   3.108
 9579SOL    HW129636   1.488   6.039   3.123
 9579SOL    HW229637   1.602   6.143   3.071
 9580SOL     OW29638   5.367   3.085   0.537
 9580SOL    HW129639   5.411   3.102   0.449
 9580SOL    HW229640   5.294   3.017   0.525
 9581SOL     OW29641   1.316   5.217   6.339
 9581SOL    HW129642   1.245   5.262   6.287
 9581SOL    HW229643   1.302   5.118   6.335
 9582SOL     OW29644   4.481   4.645   4.853
 9582SOL    HW129645   4.457   4.581   4.926
 9582SOL    HW229646   4.418   4.723   4.854
 9583SOL     OW29647   2.966   3.299   1.590
 9583SOL    HW129648   3.025   3.312   1.669
 9583SOL    HW229649   2.871   3.314   1.616
 9584SOL     OW29650   6.085   5.815   6.799
 9584SOL    HW129651   6.005   5.790   6.746
 9584SOL    HW229652   6.090   5.758   6.882
 9585SOL     OW29653   6.770   0.970   2.984
 9585SOL    HW129654   6.684   0.938   2.943
 9585SOL    HW229655   6.789   1.063   2.954
 9586SOL     OW29656   5.909   4.351   1.806
 9586SOL    HW129657   5.839   4.403   1.855
 9586SOL    HW229658   5.879   4.256   1.797
 9587SOL     OW29659   6.276   0.398   2.375
 9587SOL    HW129660   6.344   0.325   2.389
 9587SOL    HW229661   6.238   0.426   2.463
 9588SOL     OW29662   0.650   1.467   1.918
 9588SOL    HW129663   0.641   1.479   1.820
 9588SOL    HW229664   0.559   1.458   1.959
 9589SOL     OW29665   2.831   5.718   6.482
 9589SOL    HW129666   2.777   5.642   6.518
 9589SOL    HW229667   2.780   5.804   6.494
 9590SOL     OW29668   0.202   4.755   2.288
 9590SOL    HW129669   0.209   4.656   2.302
 9590SOL    HW229670   0.254   4.781   2.206
 9591SOL     OW29671   3.238   5.713   0.261
 9591SOL    HW129672   3.315   5.740   0.203
 9591SOL    HW229673   3.205   5.793   0.313
 9592SOL     OW29674   3.684   5.167   2.033
 9592SOL    HW129675   3.644   5.086   2.074
 9592SOL    HW229676   3.689   5.240   2.101
 9593SOL     OW29677   5.082   1.289   4.753
 9593SOL    HW129678   5.128   1.323   4.671
 9593SOL    HW229679   5.006   1.230   4.727
 9594SOL     OW29680   6.849   5.605   3.627
 9594SOL    HW129681   6.858   5.518   3.675
 9594SOL    HW229682   6.769   5.602   3.567
 9595SOL     OW29683   1.867   4.538   4.170
 9595SOL    HW129684   1.779   4.495   4.188
 9595SOL    HW229685   1.904   4.502   4.084
 9596SOL     OW29686   0.035   5.115   6.854
 9596SOL    HW129687   7.011   5.158   6.775
 9596SOL    HW229688   0.112   5.172   6.884
 9597SOL     OW29689   0.396   4.163   0.908
 9597SOL    HW129690   0.334   4.085   0.913
 9597SOL    HW229691   0.383   4.221   0.989
 9598SOL     OW29692   0.505   4.147   5.182
 9598SOL    HW129693   0.596   4.157   5.141
 9598SOL    HW229694   0.495   4.055   5.219
 9599SOL     OW29695   3.350   0.546   4.990
 9599SOL    HW129696   3.362   0.645   4.997
 9599SOL    HW229697   3.294   0.513   5.066
 9600SOL     OW29698   2.714   6.860   6.029
 9600SOL    HW129699   2.731   6.843   6.127
 9600SOL    HW229700   2.625   6.823   6.003
 9601SOL     OW29701   6.165   4.524   5.997
 9601SOL    HW129702   6.254   4.564   5.978
 9601SOL    HW229703   6.175   4.452   6.066
 9602SOL     OW29704   6.751   4.953   6.568
 9602SOL    HW129705   6.780   5.048   6.556
 9602SOL    HW229706   6.825   4.901   6.610
 9603SOL     OW29707   2.302   6.953   4.341
 9603SOL    HW129708   2.397   6.968   4.368
 9603SOL    HW229709   2.255   6.899   4.412
 9604SOL     OW29710   5.111   0.702   0.354
 9604SOL    HW129711   5.178   0.639   0.313
 9604SOL    HW229712   5.024   0.654   0.367
 9605SOL     OW29713   0.405   4.938   5.771
 9605SOL    HW129714   0.360   4.901   5.853
 9605SOL    HW229715   0.355   4.908   5.690
 9606SOL     OW29716   0.999   6.929   4.078
 9606SOL    HW129717   0.920   6.884   4.037
 9606SOL    HW229718   0.994   6.920   4.178
 9607SOL     OW29719   1.296   2.090   1.604
 9607SOL    HW129720   1.278   2.001   1.645
 9607SOL    HW229721   1.307   2.079   1.505
 9608SOL     OW29722   0.533   6.668   2.782
 9608SOL    HW129723   0.440   6.632   2.789
 9608SOL    HW229724   0.598   6.594   2.799
 9609SOL     OW29725   1.474   3.481   5.128
 9609SOL    HW129726   1.439   3.448   5.040
 9609SOL    HW229727   1.496   3.403   5.186
 9610SOL     OW29728   1.086   3.412   5.415
 9610SOL    HW129729   0.994   3.373   5.411
 9610SOL    HW229730   1.136   3.373   5.492
 9611SOL     OW29731   0.132   6.806   1.208
 9611SOL    HW129732   0.177   6.834   1.123
 9611SOL    HW229733   0.035   6.829   1.203
 9612SOL     OW29734   6.477   2.678   0.306
 9612SOL    HW129735   6.409   2.751   0.295
 9612SOL    HW229736   6.506   2.674   0.402
 9613SOL     OW29737   5.314   6.218   4.664
 9613SOL    HW129738   5.228   6.270   4.654
 9613SOL    HW229739   5.307   6.159   4.745
 9614SOL     OW29740   4.235   3.649   1.495
 9614SOL    HW129741   4.151   3.630   1.445
 9614SOL    HW229742   4.222   3.728   1.554
 9615SOL     OW29743   1.992   6.014   2.846
 9615SOL    HW129744   1.981   5.916   2.857
 9615SOL    HW229745   2.085   6.034   2.814
 9616SOL     OW29746   4.604   3.329   1.023
 9616SOL    HW129747   4.572   3.424   1.016
 9616SOL    HW229748   4.524   3.268   1.028
 9617SOL     OW29749   1.277   3.773   4.023
 9617SOL    HW129750   1.243   3.771   4.117
 9617SOL    HW229751   1.285   3.679   3.988
 9618SOL     OW29752   3.177   0.532   6.591
 9618SOL    HW129753   3.160   0.576   6.503
 9618SOL    HW229754   3.107   0.463   6.609
 9619SOL     OW29755   1.012   6.900   1.018
 9619SOL    HW129756   0.924   6.872   0.979
 9619SOL    HW229757   1.043   6.984   0.973
 9620SOL     OW29758   4.335   1.830   6.963
 9620SOL    HW129759   4.372   1.888   0.015
 9620SOL    HW229760   4.392   1.838   6.881
 9621SOL     OW29761   1.431   1.204   1.710
 9621SOL    HW129762   1.527   1.229   1.719
 9621SOL    HW229763   1.398   1.165   1.797
 9622SOL     OW29764   6.304   1.236   6.595
 9622SOL    HW129765   6.210   1.228   6.630
 9622SOL    HW229766   6.364   1.267   6.668
 9623SOL     OW29767   4.865   5.202   6.809
 9623SOL    HW129768   4.868   5.119   6.866
 9623SOL    HW229769   4.957   5.240   6.803
 9624SOL     OW29770   5.415   4.668   5.311
 9624SOL    HW129771   5.337   4.716   5.353
 9624SOL    HW229772   5.397   4.655   5.213
 9625SOL     OW29773   4.358   4.303   6.756
 9625SOL    HW129774   4.297   4.382   6.771
 9625SOL    HW229775   4.329   4.228   6.816
 9626SOL     OW29776   2.226   5.458   4.364
 9626SOL    HW129777   2.180   5.369   4.359
 9626SOL    HW229778   2.308   5.451   4.420
 9627SOL     OW29779   0.701   4.471   4.553
 9627SOL    HW129780   0.682   4.389   4.608
 9627SOL    HW229781   0.701   4.551   4.612
 9628SOL     OW29782   6.052   3.757   0.769
 9628SOL    HW129783   6.013   3.751   0.677
 9628SOL    HW229784   5.980   3.743   0.837
 9629SOL     OW29785   6.560   6.255   3.153
 9629SOL    HW129786   6.475   6.233   3.105
 9629SOL    HW229787   6.621   6.304   3.092
 9630SOL     OW29788   5.939   6.063   5.252
 9630SOL    HW129789   5.970   6.127   5.322
 9630SOL    HW229790   5.974   6.090   5.163
 9631SOL     OW29791   4.467   1.771   1.238
 9631SOL    HW129792   4.522   1.834   1.183
 9631SOL    HW229793   4.488   1.783   1.335
 9632SOL     OW29794   2.138   5.174   1.225
 9632SOL    HW129795   2.220   5.175   1.168
 9632SOL    HW229796   2.072   5.109   1.187
 9633SOL     OW29797   3.834   3.286   0.947
 9633SOL    HW129798   3.858   3.379   0.919
 9633SOL    HW229799   3.735   3.279   0.960
 9634SOL     OW29800   5.963   5.430   3.300
 9634SOL    HW129801   5.876   5.393   3.332
 9634SOL    HW229802   6.032   5.424   3.372
 9635SOL     OW29803   0.369   4.464   5.132
 9635SOL    HW129804   0.344   4.380   5.085
 9635SOL    HW229805   0.335   4.461   5.226
 9636SOL     OW29806   3.502   1.478   6.226
 9636SOL    HW129807   3.466   1.454   6.316
 9636SOL    HW229808   3.451   1.429   6.155
 9637SOL     OW29809   3.236   3.333   1.311
 9637SOL    HW129810   3.219   3.358   1.216
 9637SOL    HW229811   3.173   3.382   1.371
 9638SOL     OW29812   0.054   3.783   6.436
 9638SOL    HW129813   0.032   3.879   6.419
 9638SOL    HW229814   0.072   3.737   6.349
 9639SOL     OW29815   4.574   2.821   1.743
 9639SOL    HW129816   4.639   2.869   1.802
 9639SOL    HW229817   4.576   2.723   1.765
 9640SOL     OW29818   3.739   1.079   2.263
 9640SOL    HW129819   3.681   1.060   2.342
 9640SOL    HW229820   3.717   1.169   2.226
 9641SOL     OW29821   5.227   6.212   2.406
 9641SOL    HW129822   5.307   6.258   2.443
 9641SOL    HW229823   5.225   6.222   2.306
 9642SOL     OW29824   1.167   0.050   3.906
 9642SOL    HW129825   1.261   0.065   3.938
 9642SOL    HW229826   1.113   0.011   3.980
 9643SOL     OW29827   5.201   3.711   3.873
 9643SOL    HW129828   5.291   3.753   3.862
 9643SOL    HW229829   5.211   3.619   3.909
 9644SOL     OW29830   1.942   5.977   4.953
 9644SOL    HW129831   1.895   5.972   4.865
 9644SOL    HW229832   1.893   5.922   5.020
 9645SOL     OW29833   2.098   4.641   5.144
 9645SOL    HW129834   2.076   4.544   5.139
 9645SOL    HW229835   2.185   4.654   5.193
 9646SOL     OW29836   3.110   5.730   2.718
 9646SOL    HW129837   3.204   5.723   2.753
 9646SOL    HW229838   3.107   5.695   2.624
 9647SOL     OW29839   0.242   0.096   3.253
 9647SOL    HW129840   0.283   0.133   3.169
 9647SOL    HW229841   0.150   0.133   3.264
 9648SOL     OW29842   5.155   2.980   1.284
 9648SOL    HW129843   5.106   2.992   1.370
 9648SOL    HW229844   5.138   2.887   1.250
 9649SOL     OW29845   2.380   4.217   6.818
 9649SOL    HW129846   2.466   4.188   6.778
 9649SOL    HW229847   2.373   4.317   6.813
 9650SOL     OW29848   5.294   4.333   3.728
 9650SOL    HW129849   5.362   4.390   3.682
 9650SOL    HW229850   5.252   4.271   3.663
 9651SOL     OW29851   3.798   0.971   0.904
 9651SOL    HW129852   3.835   0.878   0.912
 9651SOL    HW229853   3.698   0.967   0.907
 9652SOL     OW29854   0.517   4.934   1.004
 9652SOL    HW129855   0.601   4.879   1.003
 9652SOL    HW229856   0.539   5.028   1.032
 9653SOL     OW29857   4.514   4.756   5.756
 9653SOL    HW129858   4.581   4.683   5.759
 9653SOL    HW229859   4.527   4.817   5.834
 9654SOL     OW29860   3.098   3.128   3.262
 9654SOL    HW129861   3.007   3.170   3.274
 9654SOL    HW229862   3.102   3.043   3.314
 9655SOL     OW29863   0.110   1.813   0.112
 9655SOL    HW129864   0.187   1.834   0.053
 9655SOL    HW229865   0.126   1.726   0.159
 9656SOL     OW29866   4.681   1.925   1.114
 9656SOL    HW129867   4.692   1.871   1.031
 9656SOL    HW229868   4.654   2.019   1.091
 9657SOL     OW29869   5.929   4.283   2.776
 9657SOL    HW129870   5.961   4.378   2.766
 9657SOL    HW229871   5.914   4.244   2.685
 9658SOL     OW29872   5.794   2.232   2.687
 9658SOL    HW129873   5.703   2.271   2.705
 9658SOL    HW229874   5.789   2.172   2.607
 9659SOL     OW29875   1.217   2.656   0.309
 9659SOL    HW129876   1.240   2.689   0.217
 9659SOL    HW229877   1.247   2.562   0.319
 9660SOL     OW29878   0.741   0.060   1.998
 9660SOL    HW129879   0.645   0.083   1.984
 9660SOL    HW229880   0.798   0.139   1.975
 9661SOL     OW29881   4.258   5.936   1.162
 9661SOL    HW129882   4.235   6.019   1.112
 9661SOL    HW229883   4.347   5.902   1.131
 9662SOL     OW29884   5.000   3.610   0.290
 9662SOL    HW129885   5.006   3.639   0.385
 9662SOL    HW229886   5.087   3.570   0.262
 9663SOL     OW29887   0.281   5.839   2.617
 9663SOL    HW129888   0.331   5.925   2.620
 9663SOL    HW229889   0.277   5.805   2.523
 9664SOL     OW29890   5.429   4.455   4.794
 9664SOL    HW129891   5.487   4.428   4.871
 9664SOL    HW229892   5.351   4.393   4.788
 9665SOL     OW29893   6.132   6.019   5.749
 9665SOL    HW129894   6.196   6.096   5.744
 9665SOL    HW229895   6.097   6.009   5.842
 9666SOL     OW29896   6.320   3.418   1.977
 9666SOL    HW129897   6.366   3.470   2.049
 9666SOL    HW229898   6.315   3.322   2.002
 9667SOL     OW29899   3.873   3.562   0.894
 9667SOL    HW129900   3.946   3.552   0.826
 9667SOL    HW229901   3.837   3.656   0.891
 9668SOL     OW29902   1.169   0.844   6.696
 9668SOL    HW129903   1.155   0.921   6.634
 9668SOL    HW229904   1.113   0.767   6.666
 9669SOL     OW29905   2.036   6.768   1.444
 9669SOL    HW129906   2.082   6.697   1.391
 9669SOL    HW229907   2.077   6.857   1.424
 9670SOL     OW29908   0.029   5.508   5.303
 9670SOL    HW129909   0.074   5.442   5.362
 9670SOL    HW229910   0.091   5.584   5.284
 9671SOL     OW29911   6.497   4.232   0.623
 9671SOL    HW129912   6.415   4.267   0.578
 9671SOL    HW229913   6.556   4.187   0.555
 9672SOL     OW29914   1.335   4.842   3.422
 9672SOL    HW129915   1.386   4.907   3.478
 9672SOL    HW229916   1.266   4.890   3.369
 9673SOL     OW29917   3.726   3.755   1.314
 9673SOL    HW129918   3.637   3.772   1.358
 9673SOL    HW229919   3.720   3.779   1.217
 9674SOL     OW29920   3.686   6.464   3.327
 9674SOL    HW129921   3.779   6.485   3.295
 9674SOL    HW229922   3.691   6.414   3.413
 9675SOL     OW29923   4.951   2.380   6.730
 9675SOL    HW129924   4.864   2.351   6.769
 9675SOL    HW229925   4.994   2.447   6.791
 9676SOL     OW29926   1.504   3.872   5.953
 9676SOL    HW129927   1.566   3.798   5.928
 9676SOL    HW229928   1.426   3.835   6.005
 9677SOL     OW29929   6.701   4.989   5.778
 9677SOL    HW129930   6.777   5.047   5.750
 9677SOL    HW229931   6.639   5.040   5.838
 9678SOL     OW29932   2.888   3.488   4.260
 9678SOL    HW129933   2.900   3.398   4.301
 9678SOL    HW229934   2.915   3.558   4.326
 9679SOL     OW29935   2.455   0.055   3.922
 9679SOL    HW129936   2.451   6.982   3.959
 9679SOL    HW229937   2.366   0.079   3.883
 9680SOL     OW29938   4.388   0.482   5.330
 9680SOL    HW129939   4.478   0.448   5.304
 9680SOL    HW229940   4.357   0.433   5.412
 9681SOL     OW29941   3.233   2.339   0.754
 9681SOL    HW129942   3.312   2.310   0.807
 9681SOL    HW229943   3.162   2.375   0.815
 9682SOL     OW29944   5.034   4.026   3.492
 9682SOL    HW129945   4.975   4.099   3.459
 9682SOL    HW229946   5.055   3.963   3.417
 9683SOL     OW29947   3.305   6.530   1.213
 9683SOL    HW129948   3.250   6.453   1.181
 9683SOL    HW229949   3.402   6.506   1.207
 9684SOL     OW29950   0.728   4.239   4.728
 9684SOL    HW129951   0.813   4.195   4.702
 9684SOL    HW229952   0.740   4.284   4.817
 9685SOL     OW29953   4.773   4.159   0.961
 9685SOL    HW129954   4.715   4.148   1.042
 9685SOL    HW229955   4.850   4.096   0.966
 9686SOL     OW29956   0.665   2.987   6.462
 9686SOL    HW129957   0.648   3.085   6.445
 9686SOL    HW229958   0.757   2.975   6.500
 9687SOL     OW29959   6.943   1.051   3.272
 9687SOL    HW129960   6.889   0.968   3.286
 9687SOL    HW229961   6.881   1.129   3.261
 9688SOL     OW29962   1.241   3.180   0.944
 9688SOL    HW129963   1.225   3.232   0.860
 9688SOL    HW229964   1.217   3.084   0.930
 9689SOL     OW29965   0.780   4.598   6.591
 9689SOL    HW129966   0.856   4.617   6.653
 9689SOL    HW229967   0.752   4.502   6.602
 9690SOL     OW29968   5.592   6.765   5.806
 9690SOL    HW129969   5.676   6.767   5.752
 9690SOL    HW229970   5.530   6.837   5.775
 9691SOL     OW29971   2.893   3.826   1.666
 9691SOL    HW129972   2.826   3.898   1.682
 9691SOL    HW229973   2.860   3.766   1.592
 9692SOL     OW29974   4.635   5.870   0.936
 9692SOL    HW129975   4.721   5.901   0.978
 9692SOL    HW229976   4.653   5.829   0.847
 9693SOL     OW29977   6.253   4.029   3.026
 9693SOL    HW129978   6.176   4.087   3.053
 9693SOL    HW229979   6.246   3.940   3.070
 9694SOL     OW29980   2.910   0.927   2.111
 9694SOL    HW129981   2.948   1.014   2.143
 9694SOL    HW229982   2.816   0.942   2.079
 9695SOL     OW29983   6.783   2.245   2.905
 9695SOL    HW129984   6.820   2.316   2.966
 9695SOL    HW229985   6.684   2.240   2.916
 9696SOL     OW29986   5.752   2.974   1.272
 9696SOL    HW129987   5.800   3.014   1.349
 9696SOL    HW229988   5.742   3.042   1.199
 9697SOL     OW29989   0.517   6.316   0.224
 9697SOL    HW129990   0.588   6.357   0.167
 9697SOL    HW229991   0.511   6.364   0.311
 9698SOL     OW29992   5.528   2.411   6.026
 9698SOL    HW129993   5.570   2.348   5.961
 9698SOL    HW229994   5.450   2.368   6.069
 9699SOL     OW29995   6.904   5.652   0.364
 9699SOL    HW129996   6.994   5.694   0.379
 9699SOL    HW229997   6.873   5.674   0.271
 9700SOL     OW29998   5.919   4.758   4.845
 9700SOL    HW129999   5.938   4.666   4.811
 9700SOL    HW230000   5.868   4.752   4.931
 9701SOL     OW30001   4.789   4.280   5.761
 9701SOL    HW130002   4.816   4.241   5.849
 9701SOL    HW230003   4.763   4.207   5.698
 9702SOL     OW30004   3.781   2.404   0.165
 9702SOL    HW130005   3.780   2.337   0.091
 9702SOL    HW230006   3.875   2.414   0.199
 9703SOL     OW30007   4.967   3.643   3.738
 9703SOL    HW130008   4.945   3.545   3.730
 9703SOL    HW230009   5.054   3.653   3.787
 9704SOL     OW30010   3.492   6.010   1.637
 9704SOL    HW130011   3.399   5.980   1.617
 9704SOL    HW230012   3.557   5.941   1.605
 9705SOL     OW30013   5.132   4.332   6.221
 9705SOL    HW130014   5.225   4.341   6.258
 9705SOL    HW230015   5.085   4.258   6.269
 9706SOL     OW30016   2.822   2.174   0.914
 9706SOL    HW130017   2.856   2.205   0.825
 9706SOL    HW230018   2.879   2.211   0.986
 9707SOL     OW30019   6.332   4.949   2.547
 9707SOL    HW130020   6.402   4.900   2.495
 9707SOL    HW230021   6.373   4.992   2.627
 9708SOL     OW30022   0.680   1.526   3.654
 9708SOL    HW130023   0.694   1.618   3.689
 9708SOL    HW230024   0.741   1.511   3.576
 9709SOL     OW30025   5.547   5.213   2.555
 9709SOL    HW130026   5.623   5.157   2.588
 9709SOL    HW230027   5.462   5.183   2.599
 9710SOL     OW30028   0.139   1.684   1.442
 9710SOL    HW130029   0.085   1.768   1.445
 9710SOL    HW230030   0.105   1.626   1.368
 9711SOL     OW30031   4.694   5.394   6.484
 9711SOL    HW130032   4.787   5.365   6.464
 9711SOL    HW230033   4.671   5.373   6.579
 9712SOL     OW30034   5.678   3.747   0.304
 9712SOL    HW130035   5.627   3.827   0.274
 9712SOL    HW230036   5.644   3.717   0.393
 9713SOL     OW30037   2.010   4.456   3.486
 9713SOL    HW130038   1.943   4.421   3.422
 9713SOL    HW230039   2.000   4.555   3.495
 9714SOL     OW30040   4.434   6.318   6.274
 9714SOL    HW130041   4.401   6.412   6.287
 9714SOL    HW230042   4.534   6.318   6.273
 9715SOL     OW30043   5.943   3.883   0.113
 9715SOL    HW130044   6.004   3.938   0.055
 9715SOL    HW230045   5.927   3.932   0.199
 9716SOL     OW30046   3.300   4.391   6.530
 9716SOL    HW130047   3.374   4.390   6.462
 9716SOL    HW230048   3.300   4.305   6.581
 9717SOL     OW30049   5.298   6.752   6.067
 9717SOL    HW130050   5.201   6.753   6.091
 9717SOL    HW230051   5.335   6.845   6.076
 9718SOL     OW30052   5.010   3.361   1.248
 9718SOL    HW130053   5.077   3.302   1.203
 9718SOL    HW230054   4.968   3.312   1.325
 9719SOL     OW30055   5.854   0.572   6.109
 9719SOL    HW130056   5.817   0.648   6.056
 9719SOL    HW230057   5.932   0.604   6.163
 9720SOL     OW30058   1.169   4.401   2.313
 9720SOL    HW130059   1.158   4.412   2.412
 9720SOL    HW230060   1.155   4.489   2.268
 9721SOL     OW30061   0.460   1.408   0.062
 9721SOL    HW130062   0.537   1.372   0.010
 9721SOL    HW230063   0.386   1.431   7.019
 9722SOL     OW30064   3.378   1.261   4.923
 9722SOL    HW130065   3.281   1.261   4.899
 9722SOL    HW230066   3.415   1.353   4.911
 9723SOL     OW30067   3.977   5.962   3.539
 9723SOL    HW130068   3.878   5.952   3.550
 9723SOL    HW230069   4.021   5.964   3.629
 9724SOL     OW30070   1.345   4.966   0.219
 9724SOL    HW130071   1.433   4.973   0.172
 9724SOL    HW230072   1.271   4.987   0.154
 9725SOL     OW30073   4.188   6.042   6.293
 9725SOL    HW130074   4.210   6.081   6.383
 9725SOL    HW230075   4.092   6.014   6.291
 9726SOL     OW30076   4.312   1.501   3.481
 9726SOL    HW130077   4.315   1.599   3.462
 9726SOL    HW230078   4.333   1.485   3.577
 9727SOL     OW30079   0.816   2.516   6.716
 9727SOL    HW130080   0.843   2.426   6.682
 9727SOL    HW230081   0.872   2.587   6.673
 9728SOL     OW30082   0.649   1.243   5.340
 9728SOL    HW130083   0.636   1.281   5.431
 9728SOL    HW230084   0.712   1.165   5.345
 9729SOL     OW30085   1.525   4.517   3.906
 9729SOL    HW130086   1.560   4.436   3.954
 9729SOL    HW230087   1.429   4.502   3.882
 9730SOL     OW30088   1.085   4.511   3.114
 9730SOL    HW130089   1.161   4.513   3.179
 9730SOL    HW230090   1.102   4.578   3.041
 9731SOL     OW30091   4.864   5.330   1.834
 9731SOL    HW130092   4.796   5.276   1.785
 9731SOL    HW230093   4.821   5.414   1.869
 9732SOL     OW30094   1.176   4.078   2.445
 9732SOL    HW130095   1.195   4.003   2.381
 9732SOL    HW230096   1.113   4.143   2.402
 9733SOL     OW30097   5.034   5.620   6.989
 9733SOL    HW130098   5.062   5.527   7.014
 9733SOL    HW230099   4.983   5.661   0.044
 9734SOL     OW30100   6.636   0.311   0.282
 9734SOL    HW130101   6.573   0.341   0.354
 9734SOL    HW230102   6.681   0.391   0.242
 9735SOL     OW30103   2.009   3.127   3.576
 9735SOL    HW130104   2.062   3.043   3.583
 9735SOL    HW230105   2.071   3.205   3.571
 9736SOL     OW30106   5.075   1.272   5.649
 9736SOL    HW130107   4.992   1.216   5.644
 9736SOL    HW230108   5.050   1.368   5.667
 9737SOL     OW30109   5.116   2.627   3.185
 9737SOL    HW130110   5.147   2.693   3.117
 9737SOL    HW230111   5.118   2.535   3.146
 9738SOL     OW30112   2.672   6.642   0.625
 9738SOL    HW130113   2.737   6.638   0.701
 9738SOL    HW230114   2.582   6.667   0.659
 9739SOL     OW30115   5.063   5.840   0.731
 9739SOL    HW130116   5.038   5.784   0.652
 9739SOL    HW230117   5.064   5.782   0.813
 9740SOL     OW30118   0.411   1.062   3.449
 9740SOL    HW130119   0.492   1.091   3.398
 9740SOL    HW230120   0.334   1.051   3.386
 9741SOL     OW30121   2.549   0.986   2.621
 9741SOL    HW130122   2.622   0.934   2.577
 9741SOL    HW230123   2.569   1.084   2.613
 9742SOL     OW30124   3.594   0.967   0.556
 9742SOL    HW130125   3.682   1.015   0.556
 9742SOL    HW230126   3.600   0.886   0.499
 9743SOL     OW30127   6.765   3.988   3.566
 9743SOL    HW130128   6.803   4.028   3.482
 9743SOL    HW230129   6.704   3.912   3.542
 9744SOL     OW30130   1.216   6.700   1.664
 9744SOL    HW130131   1.224   6.800   1.666
 9744SOL    HW230132   1.250   6.663   1.750
 9745SOL     OW30133   4.361   2.729   6.694
 9745SOL    HW130134   4.454   2.701   6.674
 9745SOL    HW230135   4.304   2.649   6.712
 9746SOL     OW30136   5.688   0.474   5.804
 9746SOL    HW130137   5.612   0.515   5.856
 9746SOL    HW230138   5.748   0.546   5.771
 9747SOL     OW30139   2.709   2.157   1.937
 9747SOL    HW130140   2.694   2.251   1.908
 9747SOL    HW230141   2.792   2.152   1.993
 9748SOL     OW30142   6.060   6.870   3.847
 9748SOL    HW130143   6.051   6.904   3.941
 9748SOL    HW230144   6.027   6.775   3.843
 9749SOL     OW30145   1.190   0.552   4.065
 9749SOL    HW130146   1.269   0.499   4.034
 9749SOL    HW230147   1.210   0.593   4.154
 9750SOL     OW30148   6.157   5.058   3.270
 9750SOL    HW130149   6.146   5.010   3.357
 9750SOL    HW230150   6.247   5.102   3.267
 9751SOL     OW30151   2.821   0.294   0.992
 9751SOL    HW130152   2.871   0.363   1.044
 9751SOL    HW230153   2.726   0.291   1.024
 9752SOL     OW30154   4.008   1.540   5.292
 9752SOL    HW130155   4.089   1.523   5.236
 9752SOL    HW230156   3.949   1.607   5.246
 9753SOL     OW30157   0.077   5.475   5.603
 9753SOL    HW130158   7.002   5.499   5.587
 9753SOL    HW230159   0.084   5.425   5.689
 9754SOL     OW30160   1.971   0.199   0.864
 9754SOL    HW130161   1.890   0.170   0.813
 9754SOL    HW230162   1.948   0.207   0.961
 9755SOL     OW30163   3.697   3.560   4.380
 9755SOL    HW130164   3.742   3.528   4.297
 9755SOL    HW230165   3.759   3.550   4.458
 9756SOL     OW30166   5.514   1.773   5.669
 9756SOL    HW130167   5.600   1.821   5.689
 9756SOL    HW230168   5.460   1.828   5.605
 9757SOL     OW30169   5.721   4.573   4.485
 9757SOL    HW130170   5.768   4.490   4.513
 9757SOL    HW230171   5.681   4.618   4.566
 9758SOL     OW30172   2.054   0.730   0.081
 9758SOL    HW130173   1.988   0.683   0.022
 9758SOL    HW230174   2.075   0.673   0.160
 9759SOL     OW30175   1.009   0.840   0.392
 9759SOL    HW130176   1.011   0.762   0.329
 9759SOL    HW230177   0.994   0.924   0.340
 9760SOL     OW30178   4.676   3.349   5.787
 9760SOL    HW130179   4.699   3.285   5.713
 9760SOL    HW230180   4.617   3.303   5.853
 9761SOL     OW30181   0.555   1.992   1.504
 9761SOL    HW130182   0.464   2.003   1.463
 9761SOL    HW230183   0.568   2.062   1.574
 9762SOL     OW30184   3.573   2.083   4.768
 9762SOL    HW130185   3.594   2.160   4.709
 9762SOL    HW230186   3.496   2.032   4.730
 9763SOL     OW30187   5.077   1.805   3.077
 9763SOL    HW130188   5.075   1.711   3.042
 9763SOL    HW230189   4.986   1.831   3.109
 9764SOL     OW30190   6.730   2.682   2.605
 9764SOL    HW130191   6.641   2.643   2.631
 9764SOL    HW230192   6.800   2.654   2.670
 9765SOL     OW30193   6.578   6.698   3.371
 9765SOL    HW130194   6.652   6.708   3.438
 9765SOL    HW230195   6.551   6.602   3.366
 9766SOL     OW30196   2.322   6.608   2.118
 9766SOL    HW130197   2.312   6.675   2.044
 9766SOL    HW230198   2.414   6.568   2.114
 9767SOL     OW30199   2.818   1.801   5.749
 9767SOL    HW130200   2.760   1.748   5.811
 9767SOL    HW230201   2.864   1.874   5.800
 9768SOL     OW30202   5.422   1.246   1.651
 9768SOL    HW130203   5.370   1.296   1.720
 9768SOL    HW230204   5.420   1.148   1.673
 9769SOL     OW30205   4.333   0.561   4.696
 9769SOL    HW130206   4.291   0.478   4.731
 9769SOL    HW230207   4.417   0.539   4.647
 9770SOL     OW30208   3.645   1.115   6.045
 9770SOL    HW130209   3.605   1.049   6.108
 9770SOL    HW230210   3.573   1.151   5.985
 9771SOL     OW30211   2.703   5.440   0.927
 9771SOL    HW130212   2.652   5.513   0.881
 9771SOL    HW230213   2.779   5.411   0.868
 9772SOL     OW30214   1.394   6.018   1.725
 9772SOL    HW130215   1.310   6.070   1.738
 9772SOL    HW230216   1.382   5.925   1.758
 9773SOL     OW30217   5.422   5.453   4.129
 9773SOL    HW130218   5.477   5.412   4.056
 9773SOL    HW230219   5.412   5.387   4.204
 9774SOL     OW30220   6.649   5.252   2.034
 9774SOL    HW130221   6.714   5.179   2.052
 9774SOL    HW230222   6.688   5.340   2.063
 9775SOL     OW30223   2.821   0.453   3.690
 9775SOL    HW130224   2.869   0.367   3.675
 9775SOL    HW230225   2.750   0.440   3.760
 9776SOL     OW30226   7.000   4.877   5.394
 9776SOL    HW130227   0.019   4.871   5.485
 9776SOL    HW230228   6.988   4.786   5.356
 9777SOL     OW30229   5.992   4.815   0.497
 9777SOL    HW130230   6.046   4.860   0.425
 9777SOL    HW230231   5.949   4.885   0.554
 9778SOL     OW30232   0.477   1.914   4.351
 9778SOL    HW130233   0.468   1.893   4.254
 9778SOL    HW230234   0.518   1.835   4.398
 9779SOL     OW30235   0.419   2.191   4.085
 9779SOL    HW130236   0.491   2.216   4.021
 9779SOL    HW230237   0.413   2.091   4.092
 9780SOL     OW30238   2.270   2.723   0.104
 9780SOL    HW130239   2.176   2.738   0.075
 9780SOL    HW230240   2.300   2.800   0.161
 9781SOL     OW30241   2.333   2.295   4.921
 9781SOL    HW130242   2.264   2.368   4.917
 9781SOL    HW230243   2.394   2.312   4.998
 9782SOL     OW30244   0.621   1.746   0.522
 9782SOL    HW130245   0.619   1.846   0.520
 9782SOL    HW230246   0.531   1.710   0.498
 9783SOL     OW30247   4.698   2.846   3.638
 9783SOL    HW130248   4.665   2.766   3.588
 9783SOL    HW230249   4.688   2.927   3.581
 9784SOL     OW30250   3.176   1.185   6.090
 9784SOL    HW130251   3.138   1.202   6.181
 9784SOL    HW230252   3.202   1.089   6.082
 9785SOL     OW30253   0.245   2.025   5.698
 9785SOL    HW130254   0.186   1.968   5.754
 9785SOL    HW230255   0.287   2.096   5.754
 9786SOL     OW30256   2.688   3.900   0.281
 9786SOL    HW130257   2.659   3.995   0.275
 9786SOL    HW230258   2.745   3.877   0.202
 9787SOL     OW30259   3.137   3.043   2.719
 9787SOL    HW130260   3.209   3.111   2.711
 9787SOL    HW230261   3.156   2.983   2.796
 9788SOL     OW30262   0.751   0.274   3.064
 9788SOL    HW130263   0.685   0.271   2.989
 9788SOL    HW230264   0.829   0.216   3.040
 9789SOL     OW30265   1.667   5.300   0.439
 9789SOL    HW130266   1.670   5.306   0.539
 9789SOL    HW230267   1.600   5.231   0.411
 9790SOL     OW30268   6.298   4.999   6.642
 9790SOL    HW130269   6.286   4.935   6.566
 9790SOL    HW230270   6.227   5.069   6.639
 9791SOL     OW30271   0.727   6.805   6.690
 9791SOL    HW130272   0.723   6.727   6.753
 9791SOL    HW230273   0.636   6.846   6.683
 9792SOL     OW30274   3.318   4.050   0.658
 9792SOL    HW130275   3.386   4.118   0.684
 9792SOL    HW230276   3.287   4.002   0.741
 9793SOL     OW30277   4.589   0.419   2.506
 9793SOL    HW130278   4.556   0.472   2.584
 9793SOL    HW230279   4.520   0.352   2.479
 9794SOL     OW30280   0.001   4.461   6.522
 9794SOL    HW130281   0.063   4.387   6.496
 9794SOL    HW230282   6.927   4.432   6.507
 9795SOL     OW30283   1.083   1.939   4.595
 9795SOL    HW130284   1.152   2.008   4.574
 9795SOL    HW230285   1.118   1.848   4.569
 9796SOL     OW30286   4.101   3.303   2.256
 9796SOL    HW130287   4.081   3.226   2.317
 9796SOL    HW230288   4.106   3.270   2.162
 9797SOL     OW30289   2.116   5.689   0.470
 9797SOL    HW130290   2.061   5.700   0.388
 9797SOL    HW230291   2.064   5.640   0.539
 9798SOL     OW30292   3.290   0.658   2.435
 9798SOL    HW130293   3.376   0.657   2.383
 9798SOL    HW230294   3.241   0.742   2.416
 9799SOL     OW30295   2.525   4.350   5.574
 9799SOL    HW130296   2.505   4.425   5.638
 9799SOL    HW230297   2.610   4.370   5.525
 9800SOL     OW30298   5.013   5.211   5.491
 9800SOL    HW130299   5.039   5.271   5.416
 9800SOL    HW230300   4.916   5.187   5.484
 9801SOL     OW30301   4.550   3.943   6.938
 9801SOL    HW130302   4.466   3.945   6.885
 9801SOL    HW230303   4.622   3.897   6.886
 9802SOL     OW30304   6.139   4.482   1.928
 9802SOL    HW130305   6.070   4.552   1.948
 9802SOL    HW230306   6.098   4.410   1.871
 9803SOL     OW30307   1.888   2.213   6.495
 9803SOL    HW130308   1.883   2.140   6.427
 9803SOL    HW230309   1.927   2.295   6.453
 9804SOL     OW30310   0.767   6.180   3.003
 9804SOL    HW130311   0.750   6.132   3.089
 9804SOL    HW230312   0.720   6.133   2.929
 9805SOL     OW30313   0.971   0.073   3.108
 9805SOL    HW130314   0.946   7.011   3.158
 9805SOL    HW230315   1.024   0.048   3.027
 9806SOL     OW30316   1.463   1.170   6.672
 9806SOL    HW130317   1.383   1.229   6.686
 9806SOL    HW230318   1.514   1.162   6.757
 9807SOL     OW30319   3.410   3.714   1.703
 9807SOL    HW130320   3.374   3.763   1.623
 9807SOL    HW230321   3.504   3.684   1.684
 9808SOL     OW30322   3.727   6.706   5.196
 9808SOL    HW130323   3.634   6.677   5.174
 9808SOL    HW230324   3.726   6.799   5.233
 9809SOL     OW30325   1.060   3.727   6.683
 9809SOL    HW130326   1.048   3.678   6.597
 9809SOL    HW230327   0.972   3.736   6.729
 9810SOL     OW30328   2.739   2.353   3.994
 9810SOL    HW130329   2.821   2.325   4.044
 9810SOL    HW230330   2.717   2.448   4.018
 9811SOL     OW30331   5.532   4.881   3.281
 9811SOL    HW130332   5.489   4.964   3.244
 9811SOL    HW230333   5.491   4.800   3.239
 9812SOL     OW30334   3.770   1.982   5.783
 9812SOL    HW130335   3.761   1.925   5.864
 9812SOL    HW230336   3.867   1.985   5.756
 9813SOL     OW30337   4.573   1.373   0.710
 9813SOL    HW130338   4.603   1.283   0.678
 9813SOL    HW230339   4.489   1.363   0.764
 9814SOL     OW30340   6.961   0.211   6.697
 9814SOL    HW130341   6.910   0.286   6.654
 9814SOL    HW230342   6.897   0.143   6.732
 9815SOL     OW30343   4.938   3.415   4.430
 9815SOL    HW130344   4.904   3.329   4.391
 9815SOL    HW230345   4.945   3.405   4.529
 9816SOL     OW30346   1.050   1.022   6.493
 9816SOL    HW130347   1.050   0.954   6.420
 9816SOL    HW230348   0.963   1.017   6.543
 9817SOL     OW30349   2.723   6.233   3.123
 9817SOL    HW130350   2.778   6.304   3.167
 9817SOL    HW230351   2.765   6.206   3.037
 9818SOL     OW30352   0.637   0.585   3.817
 9818SOL    HW130353   0.637   0.512   3.749
 9818SOL    HW230354   0.569   0.565   3.887
 9819SOL     OW30355   4.944   3.598   3.445
 9819SOL    HW130356   4.915   3.610   3.540
 9819SOL    HW230357   5.033   3.554   3.442
 9820SOL     OW30358   3.956   2.787   6.412
 9820SOL    HW130359   3.920   2.850   6.343
 9820SOL    HW230360   4.049   2.813   6.437
 9821SOL     OW30361   5.336   1.680   0.023
 9821SOL    HW130362   5.434   1.696   0.016
 9821SOL    HW230363   5.320   1.599   0.079
 9822SOL     OW30364   2.090   7.020   3.269
 9822SOL    HW130365   2.154   6.944   3.285
 9822SOL    HW230366   2.023   6.993   3.201
 9823SOL     OW30367   2.455   0.588   6.926
 9823SOL    HW130368   2.368   0.596   6.877
 9823SOL    HW230369   2.445   0.523   7.001
 9824SOL     OW30370   2.148   5.083   4.484
 9824SOL    HW130371   2.160   5.182   4.478
 9824SOL    HW230372   2.148   5.055   4.580
 9825SOL     OW30373   4.892   5.688   5.596
 9825SOL    HW130374   4.815   5.637   5.557
 9825SOL    HW230375   4.932   5.747   5.525
 9826SOL     OW30376   5.202   5.049   6.861
 9826SOL    HW130377   5.179   5.145   6.843
 9826SOL    HW230378   5.277   5.021   6.801
 9827SOL     OW30379   2.179   3.840   3.158
 9827SOL    HW130380   2.222   3.783   3.088
 9827SOL    HW230381   2.187   3.936   3.133
 9828SOL     OW30382   2.443   2.546   5.487
 9828SOL    HW130383   2.380   2.570   5.412
 9828SOL    HW230384   2.535   2.575   5.463
 9829SOL     OW30385   4.164   4.883   0.368
 9829SOL    HW130386   4.131   4.914   0.279
 9829SOL    HW230387   4.198   4.962   0.420
 9830SOL     OW30388   5.775   2.995   1.831
 9830SOL    HW130389   5.844   3.030   1.767
 9830SOL    HW230390   5.739   2.908   1.797
 9831SOL     OW30391   2.494   4.899   1.233
 9831SOL    HW130392   2.521   4.902   1.136
 9831SOL    HW230393   2.395   4.887   1.239
 9832SOL     OW30394   4.816   5.295   3.152
 9832SOL    HW130395   4.908   5.293   3.114
 9832SOL    HW230396   4.804   5.218   3.215
 9833SOL     OW30397   3.661   3.813   5.282
 9833SOL    HW130398   3.698   3.894   5.236
 9833SOL    HW230399   3.635   3.837   5.375
 9834SOL     OW30400   2.824   4.784   5.258
 9834SOL    HW130401   2.735   4.824   5.281
 9834SOL    HW230402   2.812   4.712   5.190
 9835SOL     OW30403   3.488   3.327   5.465
 9835SOL    HW130404   3.403   3.320   5.517
 9835SOL    HW230405   3.468   3.352   5.371
 9836SOL     OW30406   6.841   4.717   3.710
 9836SOL    HW130407   6.884   4.694   3.622
 9836SOL    HW230408   6.800   4.807   3.704
 9837SOL     OW30409   3.100   0.322   3.594
 9837SOL    HW130410   3.145   0.410   3.577
 9837SOL    HW230411   3.146   0.251   3.541
 9838SOL     OW30412   2.039   6.830   6.618
 9838SOL    HW130413   2.138   6.828   6.632
 9838SOL    HW230414   1.994   6.792   6.698
 9839SOL     OW30415   5.976   0.753   3.614
 9839SOL    HW130416   6.005   0.723   3.523
 9839SOL    HW230417   5.889   0.710   3.637
 9840SOL     OW30418   5.995   1.424   1.089
 9840SOL    HW130419   5.943   1.465   1.014
 9840SOL    HW230420   6.008   1.492   1.161
 9841SOL     OW30421   2.043   4.602   4.854
 9841SOL    HW130422   1.998   4.535   4.795
 9841SOL    HW230423   2.005   4.595   4.947
 9842SOL     OW30424   3.991   3.118   2.055
 9842SOL    HW130425   3.980   3.044   2.121
 9842SOL    HW230426   3.935   3.100   1.974
 9843SOL     OW30427   6.024   0.858   1.315
 9843SOL    HW130428   6.086   0.902   1.251
 9843SOL    HW230429   5.936   0.842   1.271
 9844SOL     OW30430   6.387   0.525   2.146
 9844SOL    HW130431   6.336   0.483   2.071
 9844SOL    HW230432   6.362   0.480   2.232
 9845SOL     OW30433   2.336   2.858   3.808
 9845SOL    HW130434   2.313   2.837   3.903
 9845SOL    HW230435   2.432   2.887   3.803
 9846SOL     OW30436   3.898   3.549   1.351
 9846SOL    HW130437   3.834   3.626   1.340
 9846SOL    HW230438   3.947   3.534   1.265
 9847SOL     OW30439   3.409   2.890   3.981
 9847SOL    HW130440   3.470   2.870   3.904
 9847SOL    HW230441   3.459   2.874   4.067
 9848SOL     OW30442   3.452   3.480   5.174
 9848SOL    HW130443   3.362   3.440   5.192
 9848SOL    HW230444   3.463   3.564   5.228
 9849SOL     OW30445   0.031   6.717   6.415
 9849SOL    HW130446   0.114   6.661   6.410
 9849SOL    HW230447   6.983   6.680   6.353
 9850SOL     OW30448   5.692   0.032   4.074
 9850SOL    HW130449   5.657   0.124   4.057
 9850SOL    HW230450   5.691   7.000   3.989
 9851SOL     OW30451   5.573   0.757   4.629
 9851SOL    HW130452   5.633   0.787   4.554
 9851SOL    HW230453   5.553   0.835   4.688
 9852SOL     OW30454   4.263   2.119   3.649
 9852SOL    HW130455   4.311   2.201   3.619
 9852SOL    HW230456   4.202   2.087   3.576
 9853SOL     OW30457   5.175   3.764   5.033
 9853SOL    HW130458   5.117   3.759   4.952
 9853SOL    HW230459   5.207   3.858   5.047
 9854SOL     OW30460   6.808   5.966   5.026
 9854SOL    HW130461   6.869   5.897   4.988
 9854SOL    HW230462   6.743   5.996   4.955
 9855SOL     OW30463   2.119   3.131   1.006
 9855SOL    HW130464   2.124   3.230   0.992
 9855SOL    HW230465   2.182   3.103   1.078
 9856SOL     OW30466   5.176   4.792   5.320
 9856SOL    HW130467   5.107   4.846   5.367
 9856SOL    HW230468   5.176   4.814   5.222
 9857SOL     OW30469   4.735   2.819   3.305
 9857SOL    HW130470   4.761   2.905   3.349
 9857SOL    HW230471   4.778   2.814   3.215
 9858SOL     OW30472   0.411   0.690   1.113
 9858SOL    HW130473   0.429   0.604   1.065
 9858SOL    HW230474   0.318   0.721   1.093
 9859SOL     OW30475   6.223   0.064   2.317
 9859SOL    HW130476   6.243   6.987   2.321
 9859SOL    HW230477   6.307   0.116   2.334
 9860SOL     OW30478   1.109   1.441   3.672
 9860SOL    HW130479   1.072   1.349   3.686
 9860SOL    HW230480   1.209   1.437   3.670
 9861SOL     OW30481   2.856   0.181   3.576
 9861SOL    HW130482   2.955   0.189   3.565
 9861SOL    HW230483   2.835   0.094   3.621
 9862SOL     OW30484   3.836   3.018   0.037
 9862SOL    HW130485   3.786   3.080   0.098
 9862SOL    HW230486   3.847   2.929   0.081
 9863SOL     OW30487   3.139   6.731   3.049
 9863SOL    HW130488   3.152   6.822   3.010
 9863SOL    HW230489   3.191   6.664   2.996
 9864SOL     OW30490   4.092   7.000   3.946
 9864SOL    HW130491   4.093   0.019   3.854
 9864SOL    HW230492   4.062   6.905   3.941
 9865SOL     OW30493   1.520   0.886   4.450
 9865SOL    HW130494   1.614   0.910   4.425
 9865SOL    HW230495   1.493   0.938   4.531
 9866SOL     OW30496   5.384   4.735   6.312
 9866SOL    HW130497   5.338   4.691   6.235
 9866SOL    HW230498   5.443   4.809   6.279
 9867SOL     OW30499   6.271   0.926   1.168
 9867SOL    HW130500   6.329   0.990   1.218
 9867SOL    HW230501   6.232   0.973   1.088
 9868SOL     OW30502   0.128   3.737   6.071
 9868SOL    HW130503   0.107   3.668   6.141
 9868SOL    HW230504   0.226   3.756   6.072
 9869SOL     OW30505   1.462   3.240   2.089
 9869SOL    HW130506   1.473   3.331   2.127
 9869SOL    HW230507   1.515   3.233   2.004
 9870SOL     OW30508   3.839   5.623   2.735
 9870SOL    HW130509   3.919   5.661   2.781
 9870SOL    HW230510   3.790   5.697   2.687
 9871SOL     OW30511   0.373   5.933   5.994
 9871SOL    HW130512   0.446   5.943   5.928
 9871SOL    HW230513   0.409   5.892   6.078
 9872SOL     OW30514   2.378   5.357   3.844
 9872SOL    HW130515   2.341   5.330   3.933
 9872SOL    HW230516   2.313   5.415   3.797
 9873SOL     OW30517   2.853   2.510   0.132
 9873SOL    HW130518   2.951   2.527   0.144
 9873SOL    HW230519   2.808   2.596   0.106
 9874SOL     OW30520   6.132   3.148   4.546
 9874SOL    HW130521   6.218   3.106   4.575
 9874SOL    HW230522   6.079   3.176   4.627
 9875SOL     OW30523   5.976   6.320   2.100
 9875SOL    HW130524   6.049   6.252   2.107
 9875SOL    HW230525   5.983   6.384   2.176
 9876SOL     OW30526   6.493   0.107   3.520
 9876SOL    HW130527   6.441   0.129   3.438
 9876SOL    HW230528   6.522   0.192   3.564
 9877SOL     OW30529   6.964   6.066   4.125
 9877SOL    HW130530   6.866   6.080   4.108
 9877SOL    HW230531   6.976   5.982   4.178
 9878SOL     OW30532   2.574   4.829   4.945
 9878SOL    HW130533   2.610   4.820   4.851
 9878SOL    HW230534   2.650   4.839   5.008
 9879SOL     OW30535   5.564   5.266   5.306
 9879SOL    HW130536   5.614   5.215   5.376
 9879SOL    HW230537   5.532   5.353   5.345
 9880SOL     OW30538   3.761   0.664   6.928
 9880SOL    HW130539   3.780   0.761   6.916
 9880SOL    HW230540   3.792   0.614   6.847
 9881SOL     OW30541   0.926   1.239   5.251
 9881SOL    HW130542   0.929   1.223   5.152
 9881SOL    HW230543   0.924   1.151   5.299
 9882SOL     OW30544   1.227   3.516   4.728
 9882SOL    HW130545   1.237   3.587   4.798
 9882SOL    HW230546   1.317   3.497   4.687
 9883SOL     OW30547   1.287   6.423   0.608
 9883SOL    HW130548   1.258   6.442   0.702
 9883SOL    HW230549   1.279   6.506   0.553
 9884SOL     OW30550   5.325   2.714   1.714
 9884SOL    HW130551   5.386   2.775   1.664
 9884SOL    HW230552   5.281   2.764   1.789
 9885SOL     OW30553   6.671   2.024   4.919
 9885SOL    HW130554   6.697   2.083   4.996
 9885SOL    HW230555   6.672   1.929   4.949
 9886SOL     OW30556   1.328   4.730   1.939
 9886SOL    HW130557   1.288   4.804   1.993
 9886SOL    HW230558   1.257   4.686   1.885
 9887SOL     OW30559   4.116   0.429   6.124
 9887SOL    HW130560   4.168   0.495   6.070
 9887SOL    HW230561   4.167   0.406   6.207
 9888SOL     OW30562   5.914   5.008   2.343
 9888SOL    HW130563   5.939   4.913   2.362
 9888SOL    HW230564   5.976   5.045   2.273
 9889SOL     OW30565   6.463   4.724   1.184
 9889SOL    HW130566   6.472   4.692   1.090
 9889SOL    HW230567   6.533   4.681   1.241
 9890SOL     OW30568   1.209   2.703   1.219
 9890SOL    HW130569   1.271   2.631   1.250
 9890SOL    HW230570   1.235   2.790   1.260
 9891SOL     OW30571   5.650   3.335   1.822
 9891SOL    HW130572   5.606   3.401   1.761
 9891SOL    HW230573   5.593   3.253   1.829
 9892SOL     OW30574   0.648   5.065   1.379
 9892SOL    HW130575   0.697   5.031   1.299
 9892SOL    HW230576   0.714   5.094   1.449
 9893SOL     OW30577   0.459   1.050   1.778
 9893SOL    HW130578   0.442   1.134   1.726
 9893SOL    HW230579   0.374   1.000   1.789
 9894SOL     OW30580   3.249   2.177   0.462
 9894SOL    HW130581   3.268   2.165   0.365
 9894SOL    HW230582   3.150   2.182   0.477
 9895SOL     OW30583   5.627   4.284   5.279
 9895SOL    HW130584   5.568   4.209   5.308
 9895SOL    HW230585   5.722   4.263   5.303
 9896SOL     OW30586   6.224   0.961   0.810
 9896SOL    HW130587   6.191   0.894   0.743
 9896SOL    HW230588   6.299   0.921   0.863
 9897SOL     OW30589   5.588   6.796   2.699
 9897SOL    HW130590   5.595   6.808   2.600
 9897SOL    HW230591   5.618   6.703   2.723
 9898SOL     OW30592   0.944   5.147   5.393
 9898SOL    HW130593   1.038   5.138   5.426
 9898SOL    HW230594   0.945   5.151   5.293
 9899SOL     OW30595   1.679   5.443   1.032
 9899SOL    HW130596   1.715   5.507   1.100
 9899SOL    HW230597   1.583   5.421   1.055
 9900SOL     OW30598   1.418   2.711   2.967
 9900SOL    HW130599   1.367   2.627   2.948
 9900SOL    HW230600   1.363   2.790   2.940
 9901SOL     OW30601   2.862   0.889   6.925
 9901SOL    HW130602   2.873   0.913   6.828
 9901SOL    HW230603   2.769   0.857   6.941
 9902SOL     OW30604   3.118   4.568   1.408
 9902SOL    HW130605   3.120   4.583   1.507
 9902SOL    HW230606   3.029   4.595   1.372
 9903SOL     OW30607   5.564   2.244   1.989
 9903SOL    HW130608   5.647   2.254   1.935
 9903SOL    HW230609   5.583   2.191   2.072
 9904SOL     OW30610   0.877   4.119   6.872
 9904SOL    HW130611   0.817   4.136   6.950
 9904SOL    HW230612   0.966   4.086   6.905
 9905SOL     OW30613   2.268   0.430   5.979
 9905SOL    HW130614   2.231   0.512   6.023
 9905SOL    HW230615   2.323   0.379   6.044
 9906SOL     OW30616   1.766   3.177   0.598
 9906SOL    HW130617   1.743   3.190   0.694
 9906SOL    HW230618   1.706   3.234   0.541
 9907SOL     OW30619   0.817   0.307   1.171
 9907SOL    HW130620   0.886   0.237   1.190
 9907SOL    HW230621   0.806   0.366   1.251
 9908SOL     OW30622   6.402   2.048   4.841
 9908SOL    HW130623   6.361   1.966   4.802
 9908SOL    HW230624   6.501   2.036   4.848
 9909SOL     OW30625   4.060   1.027   2.743
 9909SOL    HW130626   4.039   0.943   2.793
 9909SOL    HW230627   3.983   1.090   2.750
 9910SOL     OW30628   1.346   5.028   1.705
 9910SOL    HW130629   1.354   5.105   1.768
 9910SOL    HW230630   1.437   4.997   1.677
 9911SOL     OW30631   2.842   6.375   2.584
 9911SOL    HW130632   2.757   6.398   2.538
 9911SOL    HW230633   2.862   6.278   2.571
 9912SOL     OW30634   3.574   1.136   1.107
 9912SOL    HW130635   3.602   1.231   1.091
 9912SOL    HW230636   3.514   1.107   1.033
 9913SOL     OW30637   6.584   3.666   0.578
 9913SOL    HW130638   6.671   3.652   0.531
 9913SOL    HW230639   6.517   3.601   0.544
 9914SOL     OW30640   6.210   0.965   4.801
 9914SOL    HW130641   6.180   0.909   4.879
 9914SOL    HW230642   6.299   0.932   4.770
 9915SOL     OW30643   6.122   1.116   3.483
 9915SOL    HW130644   6.207   1.142   3.438
 9915SOL    HW230645   6.052   1.099   3.413
 9916SOL     OW30646   2.446   2.250   3.182
 9916SOL    HW130647   2.441   2.191   3.262
 9916SOL    HW230648   2.496   2.204   3.109
 9917SOL     OW30649   4.324   4.069   6.274
 9917SOL    HW130650   4.302   4.093   6.369
 9917SOL    HW230651   4.366   4.148   6.230
 9918SOL     OW30652   1.718   2.221   2.763
 9918SOL    HW130653   1.699   2.126   2.737
 9918SOL    HW230654   1.632   2.270   2.777
 9919SOL     OW30655   1.283   5.903   1.266
 9919SOL    HW130656   1.328   5.815   1.250
 9919SOL    HW230657   1.329   5.950   1.341
 9920SOL     OW30658   5.532   0.504   2.430
 9920SOL    HW130659   5.467   0.433   2.458
 9920SOL    HW230660   5.498   0.549   2.347
 9921SOL     OW30661   4.177   6.210   4.271
 9921SOL    HW130662   4.259   6.242   4.225
 9921SOL    HW230663   4.177   6.243   4.366
 9922SOL     OW30664   3.850   4.111   0.957
 9922SOL    HW130665   3.795   4.030   0.978
 9922SOL    HW230666   3.913   4.090   0.881
 9923SOL     OW30667   5.976   4.472   6.837
 9923SOL    HW130668   5.924   4.552   6.868
 9923SOL    HW230669   5.970   4.400   6.906
 9924SOL     OW30670   6.060   1.684   3.146
 9924SOL    HW130671   5.976   1.683   3.091
 9924SOL    HW230672   6.139   1.671   3.086
 9925SOL     OW30673   0.288   5.337   4.040
 9925SOL    HW130674   0.293   5.259   3.978
 9925SOL    HW230675   0.225   5.316   4.115
 9926SOL     OW30676   4.062   2.177   1.153
 9926SOL    HW130677   4.143   2.120   1.171
 9926SOL    HW230678   3.983   2.136   1.198
 9927SOL     OW30679   1.356   0.586   0.855
 9927SOL    HW130680   1.339   0.502   0.907
 9927SOL    HW230681   1.454   0.593   0.836
 9928SOL     OW30682   4.735   4.863   3.725
 9928SOL    HW130683   4.794   4.808   3.783
 9928SOL    HW230684   4.779   4.951   3.706
 9929SOL     OW30685   3.364   4.181   4.535
 9929SOL    HW130686   3.315   4.219   4.614
 9929SOL    HW230687   3.461   4.170   4.559
 9930SOL     OW30688   0.135   6.699   5.248
 9930SOL    HW130689   0.219   6.675   5.199
 9930SOL    HW230690   0.121   6.636   5.324
 9931SOL     OW30691   6.915   5.227   4.710
 9931SOL    HW130692   6.922   5.190   4.802
 9931SOL    HW230693   6.999   5.208   4.660
 9932SOL     OW30694   2.609   3.189   5.880
 9932SOL    HW130695   2.590   3.146   5.792
 9932SOL    HW230696   2.530   3.177   5.941
 9933SOL     OW30697   1.833   6.945   4.244
 9933SOL    HW130698   1.835   6.847   4.222
 9933SOL    HW230699   1.835   6.998   4.159
 9934SOL     OW30700   0.011   2.247   5.844
 9934SOL    HW130701   6.943   2.247   5.797
 9934SOL    HW230702   0.081   2.282   5.782
 9935SOL     OW30703   2.842   6.825   0.923
 9935SOL    HW130704   2.897   6.889   0.976
 9935SOL    HW230705   2.901   6.770   0.865
 9936SOL     OW30706   6.197   4.290   0.825
 9936SOL    HW130707   6.175   4.374   0.874
 9936SOL    HW230708   6.114   4.236   0.811
 9937SOL     OW30709   0.218   2.003   1.088
 9937SOL    HW130710   0.238   2.092   1.129
 9937SOL    HW230711   0.303   1.958   1.062
 9938SOL     OW30712   5.799   4.804   3.715
 9938SOL    HW130713   5.854   4.827   3.796
 9938SOL    HW230714   5.768   4.888   3.671
 9939SOL     OW30715   4.765   2.873   1.393
 9939SOL    HW130716   4.771   2.776   1.369
 9939SOL    HW230717   4.709   2.921   1.326
 9940SOL     OW30718   1.186   0.627   1.748
 9940SOL    HW130719   1.120   0.686   1.796
 9940SOL    HW230720   1.145   0.537   1.733
 9941SOL     OW30721   3.193   2.982   5.059
 9941SOL    HW130722   3.144   2.919   5.121
 9941SOL    HW230723   3.291   2.962   5.063
 9942SOL     OW30724   3.417   5.244   2.392
 9942SOL    HW130725   3.378   5.283   2.475
 9942SOL    HW230726   3.360   5.169   2.359
 9943SOL     OW30727   1.044   4.896   6.460
 9943SOL    HW130728   1.128   4.890   6.514
 9943SOL    HW230729   1.025   4.807   6.419
 9944SOL     OW30730   0.626   4.795   6.413
 9944SOL    HW130731   0.708   4.747   6.444
 9944SOL    HW230732   0.644   4.893   6.410
 9945SOL     OW30733   4.400   6.111   6.999
 9945SOL    HW130734   4.427   6.059   0.059
 9945SOL    HW230735   4.315   6.074   6.962
 9946SOL     OW30736   6.221   0.435   3.474
 9946SOL    HW130737   6.147   0.482   3.426
 9946SOL    HW230738   6.274   0.502   3.526
 9947SOL     OW30739   2.974   2.222   4.606
 9947SOL    HW130740   2.954   2.124   4.616
 9947SOL    HW230741   2.905   2.275   4.654
 9948SOL     OW30742   6.919   5.114   6.263
 9948SOL    HW130743   6.896   5.179   6.191
 9948SOL    HW230744   6.906   5.157   6.352
 9949SOL     OW30745   6.563   4.734   4.145
 9949SOL    HW130746   6.545   4.696   4.055
 9949SOL    HW230747   6.644   4.793   4.142
 9950SOL     OW30748   5.958   6.053   6.284
 9950SOL    HW130749   5.867   6.079   6.254
 9950SOL    HW230750   5.970   6.078   6.381
 9951SOL     OW30751   1.636   2.169   3.398
 9951SOL    HW130752   1.708   2.134   3.459
 9951SOL    HW230753   1.547   2.135   3.428
 9952SOL     OW30754   1.368   4.751   0.438
 9952SOL    HW130755   1.374   4.800   0.525
 9952SOL    HW230756   1.313   4.804   0.373
 9953SOL     OW30757   6.418   2.250   3.852
 9953SOL    HW130758   6.381   2.276   3.941
 9953SOL    HW230759   6.505   2.298   3.836
 9954SOL     OW30760   1.037   0.694   5.626
 9954SOL    HW130761   1.095   0.775   5.630
 9954SOL    HW230762   1.052   0.639   5.708
 9955SOL     OW30763   4.866   4.056   6.260
 9955SOL    HW130764   4.919   4.038   6.342
 9955SOL    HW230765   4.866   3.975   6.201
 9956SOL     OW30766   0.482   5.528   3.654
 9956SOL    HW130767   0.563   5.479   3.623
 9956SOL    HW230768   0.465   5.606   3.594
 9957SOL     OW30769   5.776   0.107   1.852
 9957SOL    HW130770   5.679   0.094   1.833
 9957SOL    HW230771   5.818   0.157   1.776
 9958SOL     OW30772   2.260   5.770   6.807
 9958SOL    HW130773   2.212   5.690   6.770
 9958SOL    HW230774   2.208   5.852   6.787
 9959SOL     OW30775   4.113   3.613   4.018
 9959SOL    HW130776   4.192   3.666   4.050
 9959SOL    HW230777   4.101   3.629   3.920
 9960SOL     OW30778   0.034   0.339   2.109
 9960SOL    HW130779   6.976   0.302   2.059
 9960SOL    HW230780   0.099   0.266   2.127
 9961SOL     OW30781   1.478   4.866   4.597
 9961SOL    HW130782   1.378   4.872   4.602
 9961SOL    HW230783   1.513   4.820   4.678
 9962SOL     OW30784   4.457   0.641   2.226
 9962SOL    HW130785   4.390   0.579   2.266
 9962SOL    HW230786   4.548   0.616   2.258
 9963SOL     OW30787   2.444   2.201   6.146
 9963SOL    HW130788   2.362   2.155   6.110
 9963SOL    HW230789   2.469   2.276   6.085
 9964SOL     OW30790   4.250   3.934   5.767
 9964SOL    HW130791   4.232   3.852   5.713
 9964SOL    HW230792   4.164   3.970   5.803
 9965SOL     OW30793   3.917   4.731   6.172
 9965SOL    HW130794   3.909   4.634   6.195
 9965SOL    HW230795   3.981   4.742   6.095
 9966SOL     OW30796   2.383   6.054   2.246
 9966SOL    HW130797   2.481   6.047   2.228
 9966SOL    HW230798   2.365   6.134   2.303
 9967SOL     OW30799   5.932   6.235   1.818
 9967SOL    HW130800   5.869   6.303   1.779
 9967SOL    HW230801   5.937   6.249   1.917
 9968SOL     OW30802   3.121   3.755   6.585
 9968SOL    HW130803   3.107   3.817   6.662
 9968SOL    HW230804   3.109   3.661   6.615
 9969SOL     OW30805   1.261   2.814   4.234
 9969SOL    HW130806   1.237   2.805   4.137
 9969SOL    HW230807   1.354   2.849   4.242
 9970SOL     OW30808   5.797   4.486   2.592
 9970SOL    HW130809   5.808   4.386   2.593
 9970SOL    HW230810   5.782   4.518   2.685
 9971SOL     OW30811   3.008   3.579   0.227
 9971SOL    HW130812   2.909   3.566   0.229
 9971SOL    HW230813   3.046   3.531   0.148
 9972SOL     OW30814   3.751   4.376   0.428
 9972SOL    HW130815   3.691   4.347   0.354
 9972SOL    HW230816   3.719   4.463   0.465
 9973SOL     OW30817   4.044   1.491   3.777
 9973SOL    HW130818   4.054   1.408   3.831
 9973SOL    HW230819   3.947   1.514   3.768
 9974SOL     OW30820   6.507   3.886   3.508
 9974SOL    HW130821   6.494   3.787   3.498
 9974SOL    HW230822   6.487   3.931   3.422
 9975SOL     OW30823   6.453   4.539   0.319
 9975SOL    HW130824   6.449   4.625   0.268
 9975SOL    HW230825   6.548   4.519   0.342
 9976SOL     OW30826   0.436   5.754   5.331
 9976SOL    HW130827   0.360   5.718   5.386
 9976SOL    HW230828   0.402   5.825   5.269
 9977SOL     OW30829   0.131   5.413   6.090
 9977SOL    HW130830   0.053   5.437   6.147
 9977SOL    HW230831   0.154   5.317   6.103
 9978SOL     OW30832   6.351   3.057   3.120
 9978SOL    HW130833   6.327   3.085   3.027
 9978SOL    HW230834   6.288   3.100   3.185
 9979SOL     OW30835   6.196   5.244   5.688
 9979SOL    HW130836   6.268   5.312   5.674
 9979SOL    HW230837   6.236   5.161   5.726
 9980SOL     OW30838   1.505   1.188   6.218
 9980SOL    HW130839   1.423   1.163   6.270
 9980SOL    HW230840   1.477   1.228   6.131
 9981SOL     OW30841   2.037   1.813   1.354
 9981SOL    HW130842   1.986   1.820   1.268
 9981SOL    HW230843   2.012   1.728   1.400
 9982SOL     OW30844   0.543   1.321   3.907
 9982SOL    HW130845   0.479   1.263   3.857
 9982SOL    HW230846   0.581   1.390   3.845
 9983SOL     OW30847   0.958   2.423   2.383
 9983SOL    HW130848   0.916   2.390   2.467
 9983SOL    HW230849   0.943   2.356   2.310
 9984SOL     OW30850   1.518   0.237   0.525
 9984SOL    HW130851   1.500   0.151   0.571
 9984SOL    HW230852   1.611   0.268   0.547
 9985SOL     OW30853   2.317   0.867   1.866
 9985SOL    HW130854   2.277   0.923   1.793
 9985SOL    HW230855   2.417   0.865   1.855
 9986SOL     OW30856   5.023   4.035   6.856
 9986SOL    HW130857   5.064   3.943   6.853
 9986SOL    HW230858   5.095   4.104   6.852
 9987SOL     OW30859   6.234   2.019   2.994
 9987SOL    HW130860   6.261   2.057   3.083
 9987SOL    HW230861   6.187   2.089   2.941
 9988SOL     OW30862   0.196   5.776   4.820
 9988SOL    HW130863   0.213   5.801   4.725
 9988SOL    HW230864   0.283   5.769   4.869
 9989SOL     OW30865   6.117   4.516   3.354
 9989SOL    HW130866   6.209   4.503   3.393
 9989SOL    HW230867   6.055   4.550   3.425
 9990SOL     OW30868   2.581   6.886   2.715
 9990SOL    HW130869   2.613   6.961   2.656
 9990SOL    HW230870   2.585   6.914   2.810
 9991SOL     OW30871   2.135   3.235   4.197
 9991SOL    HW130872   2.162   3.216   4.102
 9991SOL    HW230873   2.168   3.161   4.256
 9992SOL     OW30874   4.651   3.566   0.423
 9992SOL    HW130875   4.566   3.613   0.398
 9992SOL    HW230876   4.684   3.512   0.345
 9993SOL     OW30877   3.704   0.323   2.191
 9993SOL    HW130878   3.666   0.385   2.122
 9993SOL    HW230879   3.704   0.230   2.156
 9994SOL     OW30880   0.034   4.779   4.080
 9994SOL    HW130881   0.016   4.730   4.165
 9994SOL    HW230882   7.020   4.725   4.003
 9995SOL     OW30883   3.306   0.594   2.915
 9995SOL    HW130884   3.220   0.580   2.866
 9995SOL    HW230885   3.382   0.563   2.858
 9996SOL     OW30886   3.000   3.122   1.958
 9996SOL    HW130887   3.041   3.097   2.045
 9996SOL    HW230888   2.961   3.041   1.914
 9997SOL     OW30889   3.919   1.472   1.105
 9997SOL    HW130890   3.885   1.531   1.031
 9997SOL    HW230891   3.968   1.527   1.172
 9998SOL     OW30892   5.911   4.444   1.542
 9998SOL    HW130893   5.925   4.389   1.624
 9998SOL    HW230894   5.974   4.414   1.470
 9999SOL     OW30895   5.940   3.586   5.360
 9999SOL    HW130896   6.030   3.578   5.317
 9999SOL    HW230897   5.950   3.583   5.460
10000SOL     OW30898   5.959   3.474   6.948
10000SOL    HW130899   5.880   3.527   6.978
10000SOL    HW230900   6.013   3.527   6.883
10001SOL     OW30901   5.164   0.992   2.036
10001SOL    HW130902   5.175   0.961   1.942
10001SOL    HW230903   5.232   1.063   2.055
10002SOL     OW30904   1.733   0.549   1.201
10002SOL    HW130905   1.770   0.640   1.221
10002SOL    HW230906   1.706   0.545   1.105
10003SOL     OW30907   3.534   1.670   4.306
10003SOL    HW130908   3.468   1.613   4.257
10003SOL    HW230909   3.570   1.740   4.245
10004SOL     OW30910   4.609   2.116   4.703
10004SOL    HW130911   4.526   2.171   4.694
10004SOL    HW230912   4.625   2.096   4.799
10005SOL     OW30913   4.756   0.117   4.106
10005SOL    HW130914   4.753   0.060   4.188
10005SOL    HW230915   4.792   0.064   4.030
10006SOL     OW30916   5.219   0.916   3.491
10006SOL    HW130917   5.167   0.889   3.410
10006SOL    HW230918   5.317   0.899   3.474
10007SOL     OW30919   0.640   5.218   4.913
10007SOL    HW130920   0.670   5.131   4.874
10007SOL    HW230921   0.592   5.272   4.843
10008SOL     OW30922   4.337   1.226   4.514
10008SOL    HW130923   4.295   1.260   4.598
10008SOL    HW230924   4.406   1.291   4.483
10009SOL     OW30925   2.147   3.907   1.356
10009SOL    HW130926   2.055   3.923   1.322
10009SOL    HW230927   2.147   3.911   1.456
10010SOL     OW30928   1.880   6.597   6.491
10010SOL    HW130929   1.906   6.562   6.401
10010SOL    HW230930   1.956   6.651   6.528
10011SOL     OW30931   5.600   1.578   4.838
10011SOL    HW130932   5.516   1.628   4.859
10011SOL    HW230933   5.674   1.643   4.819
10012SOL     OW30934   4.568   0.968   3.068
10012SOL    HW130935   4.623   1.049   3.088
10012SOL    HW230936   4.478   0.996   3.034
10013SOL     OW30937   1.304   1.848   3.637
10013SOL    HW130938   1.251   1.912   3.693
10013SOL    HW230939   1.243   1.777   3.601
10014SOL     OW30940   6.567   3.179   6.485
10014SOL    HW130941   6.620   3.250   6.439
10014SOL    HW230942   6.476   3.173   6.443
10015SOL     OW30943   2.579   4.157   0.252
10015SOL    HW130944   2.500   4.177   0.193
10015SOL    HW230945   2.641   4.235   0.252
10016SOL     OW30946   2.027   0.273   5.478
10016SOL    HW130947   2.001   0.369   5.492
10016SOL    HW230948   2.126   0.267   5.465
10017SOL     OW30949   2.560   2.461   2.877
10017SOL    HW130950   2.477   2.408   2.895
10017SOL    HW230951   2.591   2.444   2.784
10018SOL     OW30952   4.761   0.041   5.675
10018SOL    HW130953   4.722   0.075   5.761
10018SOL    HW230954   4.800   6.971   5.690
10019SOL     OW30955   0.740   1.622   2.729
10019SOL    HW130956   0.821   1.681   2.720
10019SOL    HW230957   0.658   1.678   2.725
10020SOL     OW30958   0.755   2.817   1.412
10020SOL    HW130959   0.850   2.790   1.428
10020SOL    HW230960   0.746   2.857   1.321
10021SOL     OW30961   0.236   2.425   0.591
10021SOL    HW130962   0.204   2.519   0.578
10021SOL    HW230963   0.158   2.367   0.613
10022SOL     OW30964   2.957   0.022   6.806
10022SOL    HW130965   2.893   7.017   6.878
10022SOL    HW230966   3.031   6.977   6.802
10023SOL     OW30967   1.248   5.171   5.852
10023SOL    HW130968   1.219   5.115   5.930
10023SOL    HW230969   1.346   5.192   5.860
10024SOL     OW30970   2.128   6.673   1.705
10024SOL    HW130971   2.180   6.628   1.633
10024SOL    HW230972   2.071   6.745   1.665
10025SOL     OW30973   1.680   1.638   1.307
10025SOL    HW130974   1.588   1.600   1.304
10025SOL    HW230975   1.746   1.567   1.281
10026SOL     OW30976   5.127   6.657   3.839
10026SOL    HW130977   5.218   6.694   3.820
10026SOL    HW230978   5.134   6.559   3.857
10027SOL     OW30979   6.913   3.993   5.416
10027SOL    HW130980   6.982   3.985   5.344
10027SOL    HW230981   6.829   3.946   5.387
10028SOL     OW30982   1.891   1.573   0.916
10028SOL    HW130983   1.963   1.618   0.864
10028SOL    HW230984   1.802   1.603   0.882
10029SOL     OW30985   3.800   2.077   4.376
10029SOL    HW130986   3.821   2.013   4.450
10029SOL    HW230987   3.705   2.106   4.383
10030SOL     OW30988   2.275   6.504   3.707
10030SOL    HW130989   2.227   6.497   3.619
10030SOL    HW230990   2.212   6.537   3.777
10031SOL     OW30991   6.090   4.936   4.193
10031SOL    HW130992   6.086   4.950   4.292
10031SOL    HW230993   6.122   4.844   4.174
10032SOL     OW30994   2.586   2.099   5.060
10032SOL    HW130995   2.551   2.138   4.974
10032SOL    HW230996   2.660   2.157   5.095
10033SOL     OW30997   5.706   1.971   3.785
10033SOL    HW130998   5.640   2.022   3.729
10033SOL    HW230999   5.722   1.881   3.743
10034SOL     OW31000   2.794   0.079   4.131
10034SOL    HW131001   2.872   0.141   4.119
10034SOL    HW231002   2.828   7.010   4.160
10035SOL     OW31003   6.692   4.328   1.791
10035SOL    HW131004   6.723   4.236   1.769
10035SOL    HW231005   6.682   4.337   1.890
10036SOL     OW31006   6.166   2.364   1.596
10036SOL    HW131007   6.122   2.309   1.667
10036SOL    HW231008   6.172   2.311   1.511
10037SOL     OW31009   6.523   0.945   0.978
10037SOL    HW131010   6.527   0.952   1.078
10037SOL    HW231011   6.526   1.036   0.938
10038SOL     OW31012   5.140   0.967   0.262
10038SOL    HW131013   5.136   0.873   0.295
10038SOL    HW231014   5.191   1.023   0.328
10039SOL     OW31015   3.489   0.397   3.300
10039SOL    HW131016   3.500   0.474   3.238
10039SOL    HW231017   3.415   0.338   3.269
10040SOL     OW31018   4.879   5.107   6.547
10040SOL    HW131019   4.856   5.031   6.486
10040SOL    HW231020   4.831   5.095   6.634
10041SOL     OW31021   3.828   6.049   6.804
10041SOL    HW131022   3.799   6.056   6.899
10041SOL    HW231023   3.902   5.983   6.796
10042SOL     OW31024   1.031   1.870   4.301
10042SOL    HW131025   0.997   1.804   4.367
10042SOL    HW231026   0.955   1.905   4.246
10043SOL     OW31027   6.297   1.455   5.205
10043SOL    HW131028   6.335   1.527   5.263
10043SOL    HW231029   6.233   1.400   5.258
10044SOL     OW31030   1.791   1.919   4.664
10044SOL    HW131031   1.835   1.988   4.606
10044SOL    HW231032   1.747   1.850   4.607
10045SOL     OW31033   3.762   0.386   2.944
10045SOL    HW131034   3.845   0.350   2.901
10045SOL    HW231035   3.785   0.422   3.035
10046SOL     OW31036   2.384   3.652   0.870
10046SOL    HW131037   2.435   3.738   0.875
10046SOL    HW231038   2.329   3.641   0.953
10047SOL     OW31039   0.653   3.389   4.477
10047SOL    HW131040   0.585   3.390   4.551
10047SOL    HW231041   0.724   3.457   4.496
10048SOL     OW31042   0.003   0.062   2.295
10048SOL    HW131043   0.094   0.093   2.266
10048SOL    HW231044   6.983   0.006   2.222
10049SOL     OW31045   1.206   1.329   5.761
10049SOL    HW131046   1.188   1.248   5.705
10049SOL    HW231047   1.142   1.402   5.736
10050SOL     OW31048   5.312   3.805   5.628
10050SOL    HW131049   5.349   3.895   5.651
10050SOL    HW231050   5.365   3.765   5.553
10051SOL     OW31051   0.069   4.000   5.219
10051SOL    HW131052   0.084   4.000   5.120
10051SOL    HW231053   0.109   4.083   5.258
10052SOL     OW31054   2.306   1.058   3.038
10052SOL    HW131055   2.360   1.141   3.023
10052SOL    HW231056   2.289   1.014   2.950
10053SOL     OW31057   4.389   5.812   4.149
10053SOL    HW131058   4.408   5.718   4.175
10053SOL    HW231059   4.290   5.825   4.140
10054SOL     OW31060   5.548   6.073   5.443
10054SOL    HW131061   5.596   6.152   5.405
10054SOL    HW231062   5.612   6.019   5.498
10055SOL     OW31063   6.434   1.622   5.388
10055SOL    HW131064   6.449   1.592   5.483
10055SOL    HW231065   6.373   1.701   5.388
10056SOL     OW31066   5.507   4.383   3.044
10056SOL    HW131067   5.600   4.385   3.007
10056SOL    HW231068   5.442   4.362   2.971
10057SOL     OW31069   4.887   3.290   5.425
10057SOL    HW131070   4.934   3.378   5.424
10057SOL    HW231071   4.793   3.302   5.394
10058SOL     OW31072   6.323   3.682   4.875
10058SOL    HW131073   6.385   3.698   4.951
10058SOL    HW231074   6.313   3.584   4.861
10059SOL     OW31075   0.238   1.689   6.756
10059SOL    HW131076   0.144   1.662   6.777
10059SOL    HW231077   0.268   1.760   6.821
10060SOL     OW31078   2.314   2.768   2.589
10060SOL    HW131079   2.356   2.695   2.536
10060SOL    HW231080   2.254   2.822   2.529
10061SOL     OW31081   4.797   1.282   3.779
10061SOL    HW131082   4.749   1.229   3.708
10061SOL    HW231083   4.826   1.370   3.741
10062SOL     OW31084   6.791   0.481   4.297
10062SOL    HW131085   6.846   0.439   4.225
10062SOL    HW231086   6.731   0.412   4.338
10063SOL     OW31087   3.467   1.083   4.408
10063SOL    HW131088   3.509   1.061   4.320
10063SOL    HW231089   3.417   1.003   4.442
10064SOL     OW31090   5.139   6.779   6.870
10064SOL    HW131091   5.116   6.774   6.773
10064SOL    HW231092   5.188   6.696   6.897
10065SOL     OW31093   2.168   0.973   2.059
10065SOL    HW131094   2.086   0.916   2.061
10065SOL    HW231095   2.231   0.939   1.990
10066SOL     OW31096   0.323   3.182   4.655
10066SOL    HW131097   0.339   3.108   4.590
10066SOL    HW231098   0.410   3.218   4.687
10067SOL     OW31099   0.092   3.545   6.264
10067SOL    HW131100   0.037   3.481   6.211
10067SOL    HW231101   0.106   3.508   6.356
10068SOL     OW31102   0.985   3.366   3.307
10068SOL    HW131103   0.918   3.358   3.234
10068SOL    HW231104   1.046   3.443   3.289
10069SOL     OW31105   3.161   5.095   1.837
10069SOL    HW131106   3.096   5.171   1.833
10069SOL    HW231107   3.248   5.128   1.874
10070SOL     OW31108   0.017   5.913   5.573
10070SOL    HW131109   6.994   5.958   5.651
10070SOL    HW231110   0.003   5.968   5.490
10071SOL     OW31111   0.973   6.865   4.351
10071SOL    HW131112   0.967   6.781   4.405
10071SOL    HW231113   1.058   6.913   4.373
10072SOL     OW31114   0.222   0.985   3.843
10072SOL    HW131115   0.253   0.894   3.869
10072SOL    HW231116   0.129   0.979   3.808
10073SOL     OW31117   0.227   4.092   3.643
10073SOL    HW131118   0.321   4.088   3.610
10073SOL    HW231119   0.224   4.134   3.733
10074SOL     OW31120   2.515   6.432   6.442
10074SOL    HW131121   2.465   6.346   6.428
10074SOL    HW231122   2.588   6.418   6.509
10075SOL     OW31123   1.470   1.475   1.878
10075SOL    HW131124   1.370   1.472   1.877
10075SOL    HW231125   1.506   1.460   1.786
10076SOL     OW31126   4.687   6.076   2.933
10076SOL    HW131127   4.760   6.013   2.959
10076SOL    HW231128   4.614   6.026   2.887
10077SOL     OW31129   4.193   2.775   0.790
10077SOL    HW131130   4.162   2.860   0.834
10077SOL    HW231131   4.164   2.697   0.845
10078SOL     OW31132   6.719   6.056   4.681
10078SOL    HW131133   6.808   6.015   4.661
10078SOL    HW231134   6.697   6.123   4.611
10079SOL     OW31135   6.360   3.083   2.386
10079SOL    HW131136   6.373   2.994   2.430
10079SOL    HW231137   6.265   3.112   2.396
10080SOL     OW31138   4.773   1.636   6.309
10080SOL    HW131139   4.844   1.590   6.256
10080SOL    HW231140   4.696   1.575   6.323
10081SOL     OW31141   1.068   1.720   6.910
10081SOL    HW131142   1.072   1.691   7.005
10081SOL    HW231143   1.083   1.641   6.850
10082SOL     OW31144   1.153   5.493   3.156
10082SOL    HW131145   1.163   5.508   3.254
10082SOL    HW231146   1.242   5.473   3.116
10083SOL     OW31147   3.221   6.997   3.892
10083SOL    HW131148   3.225   0.047   3.822
10083SOL    HW231149   3.126   6.975   3.912
10084SOL     OW31150   0.547   6.943   5.280
10084SOL    HW131151   0.496   6.927   5.364
10084SOL    HW231152   0.645   6.946   5.300
10085SOL     OW31153   3.799   0.226   0.735
10085SOL    HW131154   3.891   0.200   0.704
10085SOL    HW231155   3.733   0.204   0.663
10086SOL     OW31156   6.053   6.852   3.231
10086SOL    HW131157   6.012   6.821   3.146
10086SOL    HW231158   5.991   6.834   3.307
10087SOL     OW31159   6.339   6.018   3.827
10087SOL    HW131160   6.284   5.937   3.809
10087SOL    HW231161   6.404   5.999   3.901
10088SOL     OW31162   0.059   0.323   1.702
10088SOL    HW131163   0.021   0.319   1.609
10088SOL    HW231164   0.033   0.241   1.752
10089SOL     OW31165   3.315   1.689   2.994
10089SOL    HW131166   3.389   1.750   3.020
10089SOL    HW231167   3.282   1.712   2.903
10090SOL     OW31168   0.500   4.905   2.385
10090SOL    HW131169   0.449   4.929   2.468
10090SOL    HW231170   0.534   4.812   2.393
10091SOL     OW31171   6.742   5.923   6.796
10091SOL    HW131172   6.826   5.882   6.762
10091SOL    HW231173   6.683   5.948   6.719
10092SOL     OW31174   0.857   2.934   5.775
10092SOL    HW131175   0.957   2.925   5.781
10092SOL    HW231176   0.825   2.994   5.849
10093SOL     OW31177   5.036   3.604   5.211
10093SOL    HW131178   5.097   3.649   5.146
10093SOL    HW231179   4.950   3.581   5.167
10094SOL     OW31180   2.561   6.346   0.734
10094SOL    HW131181   2.480   6.385   0.691
10094SOL    HW231182   2.634   6.413   0.734
10095SOL     OW31183   5.402   1.667   4.119
10095SOL    HW131184   5.474   1.685   4.052
10095SOL    HW231185   5.427   1.588   4.175
10096SOL     OW31186   4.750   0.650   2.930
10096SOL    HW131187   4.719   0.559   2.902
10096SOL    HW231188   4.763   0.652   3.029
10097SOL     OW31189   2.351   1.961   6.548
10097SOL    HW131190   2.410   2.020   6.493
10097SOL    HW231191   2.290   2.018   6.603
10098SOL     OW31192   2.752   6.796   5.207
10098SOL    HW131193   2.675   6.779   5.268
10098SOL    HW231194   2.773   6.894   5.206
10099SOL     OW31195   6.896   4.541   1.838
10099SOL    HW131196   6.821   4.477   1.818
10099SOL    HW231197   6.937   4.517   1.926
10100SOL     OW31198   5.511   6.263   5.852
10100SOL    HW131199   5.557   6.340   5.807
10100SOL    HW231200   5.415   6.285   5.867
10101SOL     OW31201   6.401   3.252   1.346
10101SOL    HW131202   6.362   3.267   1.255
10101SOL    HW231203   6.334   3.206   1.404
10102SOL     OW31204   0.105   0.552   1.384
10102SOL    HW131205   0.081   0.457   1.405
10102SOL    HW231206   0.205   0.562   1.389
10103SOL     OW31207   1.553   0.487   5.226
10103SOL    HW131208   1.579   0.456   5.318
10103SOL    HW231209   1.611   0.442   5.158
10104SOL     OW31210   1.666   0.989   6.044
10104SOL    HW131211   1.640   0.999   5.948
10104SOL    HW231212   1.620   1.059   6.099
10105SOL     OW31213   1.903   0.622   5.802
10105SOL    HW131214   1.996   0.655   5.821
10105SOL    HW231215   1.846   0.636   5.883
10106SOL     OW31216   4.064   6.608   0.661
10106SOL    HW131217   4.116   6.530   0.625
10106SOL    HW231218   4.066   6.605   0.761
10107SOL     OW31219   5.472   1.682   5.965
10107SOL    HW131220   5.548   1.618   5.972
10107SOL    HW231221   5.478   1.731   5.878
10108SOL     OW31222   0.815   2.562   0.212
10108SOL    HW131223   0.851   2.469   0.212
10108SOL    HW231224   0.778   2.583   0.302
10109SOL     OW31225   0.788   1.104   0.514
10109SOL    HW131226   0.886   1.102   0.536
10109SOL    HW231227   0.771   1.050   0.432
10110SOL     OW31228   4.485   4.892   3.566
10110SOL    HW131229   4.584   4.896   3.582
10110SOL    HW231230   4.438   4.951   3.631
10111SOL     OW31231   0.272   3.296   3.219
10111SOL    HW131232   0.178   3.323   3.240
10111SOL    HW231233   0.329   3.309   3.299
10112SOL     OW31234   5.652   3.468   3.163
10112SOL    HW131235   5.749   3.475   3.141
10112SOL    HW231236   5.629   3.533   3.235
10113SOL     OW31237   4.104   6.859   0.589
10113SOL    HW131238   4.085   6.761   0.583
10113SOL    HW231239   4.183   6.882   0.532
10114SOL     OW31240   3.912   2.157   3.159
10114SOL    HW131241   3.902   2.145   3.060
10114SOL    HW231242   4.007   2.141   3.186
10115SOL     OW31243   3.678   1.841   4.850
10115SOL    HW131244   3.603   1.779   4.827
10115SOL    HW231245   3.645   1.935   4.850
10116SOL     OW31246   6.917   0.439   6.075
10116SOL    HW131247   6.957   0.531   6.076
10116SOL    HW231248   6.976   0.378   6.023
10117SOL     OW31249   6.804   6.138   5.602
10117SOL    HW131250   6.833   6.203   5.531
10117SOL    HW231251   6.722   6.173   5.647
10118SOL     OW31252   2.749   4.687   4.163
10118SOL    HW131253   2.815   4.668   4.090
10118SOL    HW231254   2.657   4.685   4.126
10119SOL     OW31255   6.290   5.184   4.553
10119SOL    HW131256   6.354   5.202   4.478
10119SOL    HW231257   6.209   5.241   4.542
10120SOL     OW31258   1.300   3.237   3.718
10120SOL    HW131259   1.270   3.311   3.657
10120SOL    HW231260   1.399   3.224   3.707
10121SOL     OW31261   5.887   4.442   1.024
10121SOL    HW131262   5.837   4.471   0.942
10121SOL    HW231263   5.950   4.514   1.052
10122SOL     OW31264   6.303   2.427   3.615
10122SOL    HW131265   6.300   2.364   3.693
10122SOL    HW231266   6.345   2.513   3.643
10123SOL     OW31267   5.655   6.632   0.909
10123SOL    HW131268   5.700   6.548   0.879
10123SOL    HW231269   5.722   6.707   0.909
10124SOL     OW31270   1.096   5.059   1.379
10124SOL    HW131271   1.111   5.026   1.285
10124SOL    HW231272   1.062   4.984   1.435
10125SOL     OW31273   2.759   1.468   1.328
10125SOL    HW131274   2.818   1.536   1.285
10125SOL    HW231275   2.767   1.381   1.278
10126SOL     OW31276   6.706   0.292   6.040
10126SOL    HW131277   6.787   0.339   6.073
10126SOL    HW231278   6.727   0.244   5.954
10127SOL     OW31279   1.638   4.309   6.589
10127SOL    HW131280   1.616   4.306   6.687
10127SOL    HW231281   1.721   4.254   6.573
10128SOL     OW31282   2.861   0.570   6.380
10128SOL    HW131283   2.809   0.652   6.356
10128SOL    HW231284   2.829   0.535   6.468
10129SOL     OW31285   0.400   1.652   1.942
10129SOL    HW131286   0.450   1.690   1.864
10129SOL    HW231287   0.380   1.555   1.925
10130SOL     OW31288   0.911   3.175   1.883
10130SOL    HW131289   1.001   3.202   1.848
10130SOL    HW231290   0.878   3.095   1.833
10131SOL     OW31291   1.407   0.680   4.305
10131SOL    HW131292   1.417   0.591   4.351
10131SOL    HW231293   1.457   0.749   4.357
10132SOL     OW31294   1.546   0.344   2.461
10132SOL    HW131295   1.457   0.361   2.503
10132SOL    HW231296   1.592   0.431   2.443
10133SOL     OW31297   4.668   6.688   1.016
10133SOL    HW131298   4.620   6.622   0.958
10133SOL    HW231299   4.679   6.775   0.968
10134SOL     OW31300   6.854   1.880   3.077
10134SOL    HW131301   6.908   1.804   3.116
10134SOL    HW231302   6.778   1.843   3.024
10135SOL     OW31303   5.310   1.807   3.226
10135SOL    HW131304   5.214   1.814   3.201
10135SOL    HW231305   5.348   1.721   3.190
10136SOL     OW31306   5.197   2.390   2.388
10136SOL    HW131307   5.154   2.304   2.362
10136SOL    HW231308   5.212   2.446   2.306
10137SOL     OW31309   0.276   4.877   6.021
10137SOL    HW131310   0.323   4.801   6.065
10137SOL    HW231311   0.181   4.852   6.004
10138SOL     OW31312   5.151   1.974   0.304
10138SOL    HW131313   5.176   2.028   0.223
10138SOL    HW231314   5.207   1.891   0.307
10139SOL     OW31315   3.647   3.488   4.929
10139SOL    HW131316   3.640   3.394   4.962
10139SOL    HW231317   3.559   3.535   4.941
10140SOL     OW31318   6.843   6.590   6.278
10140SOL    HW131319   6.872   6.514   6.220
10140SOL    HW231320   6.797   6.554   6.359
10141SOL     OW31321   4.351   0.922   3.519
10141SOL    HW131322   4.354   0.998   3.584
10141SOL    HW231323   4.282   0.942   3.448
10142SOL     OW31324   6.426   6.695   5.168
10142SOL    HW131325   6.495   6.721   5.236
10142SOL    HW231326   6.336   6.726   5.199
10143SOL     OW31327   5.767   2.975   0.276
10143SOL    HW131328   5.670   2.977   0.249
10143SOL    HW231329   5.790   2.883   0.308
10144SOL     OW31330   4.360   0.003   5.472
10144SOL    HW131331   4.331   0.091   5.511
10144SOL    HW231332   4.442   0.016   5.417
10145SOL     OW31333   4.176   5.995   2.811
10145SOL    HW131334   4.242   6.053   2.763
10145SOL    HW231335   4.203   5.985   2.906
10146SOL     OW31336   6.833   4.228   4.587
10146SOL    HW131337   6.862   4.232   4.491
10146SOL    HW231338   6.775   4.307   4.607
10147SOL     OW31339   4.981   4.783   0.094
10147SOL    HW131340   5.028   4.845   0.156
10147SOL    HW231341   4.931   4.714   0.146
10148SOL     OW31342   5.793   4.222   1.147
10148SOL    HW131343   5.820   4.311   1.111
10148SOL    HW231344   5.770   4.161   1.072
10149SOL     OW31345   4.982   4.975   1.541
10149SOL    HW131346   4.887   4.950   1.559
10149SOL    HW231347   5.002   4.964   1.443
10150SOL     OW31348   5.463   3.554   1.737
10150SOL    HW131349   5.436   3.650   1.725
10150SOL    HW231350   5.409   3.496   1.677
10151SOL     OW31351   0.726   6.635   5.608
10151SOL    HW131352   0.740   6.624   5.510
10151SOL    HW231353   0.814   6.631   5.655
10152SOL     OW31354   6.373   5.831   3.365
10152SOL    HW131355   6.437   5.893   3.319
10152SOL    HW231356   6.421   5.783   3.439
10153SOL     OW31357   4.427   6.064   4.028
10153SOL    HW131358   4.432   5.972   4.068
10153SOL    HW231359   4.435   6.132   4.101
10154SOL     OW31360   3.867   5.303   6.121
10154SOL    HW131361   3.949   5.282   6.069
10154SOL    HW231362   3.881   5.279   6.217
10155SOL     OW31363   5.185   2.274   5.649
10155SOL    HW131364   5.220   2.362   5.681
10155SOL    HW231365   5.242   2.201   5.686
10156SOL     OW31366   4.638   0.353   1.084
10156SOL    HW131367   4.624   0.420   1.012
10156SOL    HW231368   4.626   0.261   1.047
10157SOL     OW31369   0.309   2.229   0.209
10157SOL    HW131370   0.303   2.193   0.116
10157SOL    HW231371   0.217   2.239   0.247
10158SOL     OW31372   6.020   6.644   2.743
10158SOL    HW131373   5.929   6.604   2.749
10158SOL    HW231374   6.089   6.572   2.736
10159SOL     OW31375   4.090   3.642   3.156
10159SOL    HW131376   4.120   3.621   3.249
10159SOL    HW231377   4.045   3.731   3.155
10160SOL     OW31378   1.889   4.355   3.248
10160SOL    HW131379   1.801   4.359   3.295
10160SOL    HW231380   1.905   4.262   3.216
10161SOL     OW31381   3.645   4.729   6.659
10161SOL    HW131382   3.644   4.805   6.594
10161SOL    HW231383   3.552   4.694   6.670
10162SOL     OW31384   2.668   4.522   1.177
10162SOL    HW131385   2.598   4.572   1.126
10162SOL    HW231386   2.719   4.462   1.115
10163SOL     OW31387   0.709   5.798   6.218
10163SOL    HW131388   0.742   5.804   6.313
10163SOL    HW231389   0.787   5.799   6.156
10164SOL     OW31390   6.169   3.324   3.553
10164SOL    HW131391   6.260   3.282   3.550
10164SOL    HW231392   6.145   3.344   3.648
10165SOL     OW31393   6.084   2.292   3.516
10165SOL    HW131394   6.110   2.205   3.559
10165SOL    HW231395   6.164   2.352   3.512
10166SOL     OW31396   1.471   3.340   1.017
10166SOL    HW131397   1.398   3.282   0.983
10166SOL    HW231398   1.555   3.322   0.965
10167SOL     OW31399   0.219   5.071   0.357
10167SOL    HW131400   0.143   5.130   0.330
10167SOL    HW231401   0.237   5.004   0.285
10168SOL     OW31402   6.349   1.417   5.970
10168SOL    HW131403   6.326   1.505   6.011
10168SOL    HW231404   6.323   1.343   6.032
10169SOL     OW31405   6.646   3.835   3.235
10169SOL    HW131406   6.744   3.857   3.242
10169SOL    HW231407   6.632   3.768   3.163
10170SOL     OW31408   6.129   5.210   6.656
10170SOL    HW131409   6.117   5.294   6.708
10170SOL    HW231410   6.147   5.233   6.560
10171SOL     OW31411   0.908   2.475   5.848
10171SOL    HW131412   0.890   2.377   5.854
10171SOL    HW231413   0.876   2.510   5.760
10172SOL     OW31414   0.424   0.160   4.494
10172SOL    HW131415   0.469   0.148   4.582
10172SOL    HW231416   0.490   0.194   4.427
10173SOL     OW31417   2.524   3.864   6.976
10173SOL    HW131418   2.604   3.922   6.956
10173SOL    HW231419   2.454   3.920   7.020
10174SOL     OW31420   4.386   5.058   3.739
10174SOL    HW131421   4.368   5.132   3.675
10174SOL    HW231422   4.418   5.096   3.826
10175SOL     OW31423   6.652   1.626   3.525
10175SOL    HW131424   6.601   1.705   3.490
10175SOL    HW231425   6.682   1.569   3.448
10176SOL     OW31426   6.206   3.872   5.413
10176SOL    HW131427   6.259   3.951   5.445
10176SOL    HW231428   6.199   3.875   5.314
10177SOL     OW31429   2.025   0.005   1.105
10177SOL    HW131430   1.990   6.947   1.054
10177SOL    HW231431   1.978   0.010   1.194
10178SOL     OW31432   1.511   1.123   0.643
10178SOL    HW131433   1.596   1.092   0.685
10178SOL    HW231434   1.434   1.073   0.682
10179SOL     OW31435   0.161   4.192   6.792
10179SOL    HW131436   0.074   4.242   6.791
10179SOL    HW231437   0.204   4.199   6.702
10180SOL     OW31438   4.415   0.148   0.292
10180SOL    HW131439   4.365   0.220   0.339
10180SOL    HW231440   4.509   0.145   0.326
10181SOL     OW31441   0.175   2.998   1.496
10181SOL    HW131442   0.242   2.984   1.568
10181SOL    HW231443   0.135   3.090   1.504
10182SOL     OW31444   4.984   1.253   6.893
10182SOL    HW131445   5.005   1.278   6.798
10182SOL    HW231446   4.890   1.281   6.914
10183SOL     OW31447   6.034   3.157   6.128
10183SOL    HW131448   6.057   3.104   6.046
10183SOL    HW231449   5.997   3.096   6.198
10184SOL     OW31450   5.724   3.145   6.492
10184SOL    HW131451   5.769   3.057   6.476
10184SOL    HW231452   5.755   3.181   6.580
10185SOL     OW31453   4.955   6.205   2.583
10185SOL    HW131454   5.027   6.227   2.517
10185SOL    HW231455   4.996   6.175   2.669
10186SOL     OW31456   4.978   3.774   4.841
10186SOL    HW131457   4.920   3.724   4.906
10186SOL    HW231458   4.921   3.806   4.765
10187SOL     OW31459   1.954   4.126   5.390
10187SOL    HW131460   2.039   4.122   5.338
10187SOL    HW231461   1.895   4.049   5.365
10188SOL     OW31462   3.205   5.464   6.859
10188SOL    HW131463   3.287   5.458   6.917
10188SOL    HW231464   3.222   5.529   6.785
10189SOL     OW31465   1.765   1.004   6.625
10189SOL    HW131466   1.743   1.035   6.532
10189SOL    HW231467   1.681   0.977   6.672
10190SOL     OW31468   3.439   2.904   1.201
10190SOL    HW131469   3.506   2.871   1.267
10190SOL    HW231470   3.348   2.873   1.227
10191SOL     OW31471   5.879   5.855   1.442
10191SOL    HW131472   5.798   5.890   1.396
10191SOL    HW231473   5.857   5.768   1.486
10192SOL     OW31474   2.680   1.763   4.654
10192SOL    HW131475   2.635   1.795   4.737
10192SOL    HW231476   2.613   1.724   4.592
10193SOL     OW31477   2.898   3.810   2.560
10193SOL    HW131478   2.887   3.711   2.556
10193SOL    HW231479   2.816   3.855   2.524
10194SOL     OW31480   3.894   0.019   4.929
10194SOL    HW131481   3.978   0.023   4.875
10194SOL    HW231482   3.836   0.097   4.907
10195SOL     OW31483   6.813   7.014   1.578
10195SOL    HW131484   6.879   7.001   1.652
10195SOL    HW231485   6.731   6.959   1.595
10196SOL     OW31486   5.688   2.278   3.685
10196SOL    HW131487   5.690   2.198   3.625
10196SOL    HW231488   5.757   2.344   3.655
10197SOL     OW31489   5.486   1.079   4.080
10197SOL    HW131490   5.451   1.014   4.148
10197SOL    HW231491   5.462   1.047   3.988
10198SOL     OW31492   3.420   6.462   0.903
10198SOL    HW131493   3.353   6.526   0.942
10198SOL    HW231494   3.432   6.384   0.964
10199SOL     OW31495   0.598   1.395   6.632
10199SOL    HW131496   0.681   1.415   6.580
10199SOL    HW231497   0.522   1.450   6.595
10200SOL     OW31498   4.958   3.146   5.212
10200SOL    HW131499   4.927   3.199   5.292
10200SOL    HW231500   4.971   3.051   5.239
10201SOL     OW31501   0.749   6.273   1.188
10201SOL    HW131502   0.676   6.223   1.235
10201SOL    HW231503   0.716   6.304   1.099
10202SOL     OW31504   1.403   3.610   0.422
10202SOL    HW131505   1.336   3.574   0.357
10202SOL    HW231506   1.390   3.709   0.431
10203SOL     OW31507   1.531   3.017   1.844
10203SOL    HW131508   1.458   3.072   1.804
10203SOL    HW231509   1.491   2.950   1.907
10204SOL     OW31510   3.968   5.003   6.574
10204SOL    HW131511   3.877   5.045   6.572
10204SOL    HW231512   3.979   4.954   6.660
10205SOL     OW31513   3.808   1.135   2.652
10205SOL    HW131514   3.721   1.102   2.617
10205SOL    HW231515   3.798   1.231   2.680
10206SOL     OW31516   4.962   6.278   6.222
10206SOL    HW131517   4.956   6.327   6.309
10206SOL    HW231518   4.873   6.241   6.197
10207SOL     OW31519   1.995   0.744   0.651
10207SOL    HW131520   1.941   0.796   0.585
10207SOL    HW231521   1.982   0.782   0.743
10208SOL     OW31522   6.348   4.925   4.417
10208SOL    HW131523   6.437   4.960   4.388
10208SOL    HW231524   6.344   4.926   4.517
10209SOL     OW31525   0.686   0.888   5.484
10209SOL    HW131526   0.619   0.952   5.524
10209SOL    HW231527   0.661   0.795   5.509
10210SOL     OW31528   5.068   0.208   1.596
10210SOL    HW131529   5.026   0.291   1.633
10210SOL    HW231530   5.001   0.157   1.544
10211SOL     OW31531   4.645   6.404   5.859
10211SOL    HW131532   4.597   6.318   5.847
10211SOL    HW231533   4.589   6.479   5.824
10212SOL     OW31534   0.512   1.456   4.353
10212SOL    HW131535   0.425   1.419   4.386
10212SOL    HW231536   0.571   1.478   4.430
10213SOL     OW31537   6.655   2.033   2.286
10213SOL    HW131538   6.680   2.045   2.382
10213SOL    HW231539   6.676   1.939   2.258
10214SOL     OW31540   1.061   1.593   2.250
10214SOL    HW131541   1.088   1.583   2.154
10214SOL    HW231542   1.098   1.516   2.303
10215SOL     OW31543   3.312   2.926   4.811
10215SOL    HW131544   3.337   3.021   4.829
10215SOL    HW231545   3.248   2.894   4.881
10216SOL     OW31546   6.862   0.003   0.711
10216SOL    HW131547   6.832   0.095   0.735
10216SOL    HW231548   6.812   6.956   0.765
10217SOL     OW31549   2.439   1.223   3.800
10217SOL    HW131550   2.467   1.191   3.710
10217SOL    HW231551   2.339   1.227   3.805
10218SOL     OW31552   1.280   0.805   1.101
10218SOL    HW131553   1.231   0.757   1.173
10218SOL    HW231554   1.324   0.739   1.040
10219SOL     OW31555   0.512   3.117   1.852
10219SOL    HW131556   0.536   3.205   1.894
10219SOL    HW231557   0.580   3.049   1.878
10220SOL     OW31558   4.002   1.616   2.238
10220SOL    HW131559   4.018   1.517   2.244
10220SOL    HW231560   3.916   1.639   2.283
10221SOL     OW31561   1.412   2.007   3.447
10221SOL    HW131562   1.353   2.002   3.367
10221SOL    HW231563   1.371   1.953   3.522
10222SOL     OW31564   1.391   3.403   5.797
10222SOL    HW131565   1.425   3.489   5.760
10222SOL    HW231566   1.378   3.412   5.896
10223SOL     OW31567   1.598   5.951   6.863
10223SOL    HW131568   1.573   6.024   6.926
10223SOL    HW231569   1.634   5.991   6.779
10224SOL     OW31570   0.069   1.294   4.672
10224SOL    HW131571   7.008   1.236   4.680
10224SOL    HW231572   0.044   1.389   4.691
10225SOL     OW31573   1.522   6.406   5.603
10225SOL    HW131574   1.467   6.368   5.529
10225SOL    HW231575   1.474   6.393   5.690
10226SOL     OW31576   2.578   0.208   6.853
10226SOL    HW131577   2.650   0.236   6.917
10226SOL    HW231578   2.617   0.147   6.784
10227SOL     OW31579   4.546   4.722   0.995
10227SOL    HW131580   4.559   4.704   0.898
10227SOL    HW231581   4.632   4.753   1.035
10228SOL     OW31582   1.337   5.749   2.316
10228SOL    HW131583   1.380   5.789   2.235
10228SOL    HW231584   1.238   5.744   2.301
10229SOL     OW31585   0.923   1.194   4.198
10229SOL    HW131586   0.944   1.117   4.138
10229SOL    HW231587   0.825   1.213   4.193
10230SOL     OW31588   6.530   6.459   3.963
10230SOL    HW131589   6.629   6.469   3.952
10230SOL    HW231590   6.484   6.536   3.919
10231SOL     OW31591   0.014   6.156   5.782
10231SOL    HW131592   0.073   6.235   5.793
10231SOL    HW231593   6.965   6.174   5.713
10232SOL     OW31594   2.463   0.586   4.129
10232SOL    HW131595   2.366   0.606   4.139
10232SOL    HW231596   2.500   0.557   4.217
10233SOL     OW31597   5.264   3.540   5.352
10233SOL    HW131598   5.191   3.559   5.286
10233SOL    HW231599   5.225   3.496   5.433
10234SOL     OW31600   5.365   1.065   1.216
10234SOL    HW131601   5.432   1.081   1.289
10234SOL    HW231602   5.387   1.124   1.138
10235SOL     OW31603   4.457   2.055   0.532
10235SOL    HW131604   4.446   2.077   0.629
10235SOL    HW231605   4.501   1.966   0.522
10236SOL     OW31606   1.665   6.728   2.138
10236SOL    HW131607   1.737   6.685   2.193
10236SOL    HW231608   1.692   6.728   2.042
10237SOL     OW31609   5.711   3.762   1.279
10237SOL    HW131610   5.801   3.806   1.282
10237SOL    HW231611   5.657   3.803   1.205
10238SOL     OW31612   3.371   4.061   4.007
10238SOL    HW131613   3.308   3.986   3.989
10238SOL    HW231614   3.355   4.096   4.100
10239SOL     OW31615   1.510   4.137   4.970
10239SOL    HW131616   1.449   4.216   4.975
10239SOL    HW231617   1.573   4.150   4.893
10240SOL     OW31618   1.925   5.092   3.013
10240SOL    HW131619   1.888   5.056   2.928
10240SOL    HW231620   2.018   5.127   2.998
10241SOL     OW31621   0.496   0.256   1.944
10241SOL    HW131622   0.505   0.350   1.911
10241SOL    HW231623   0.491   0.257   2.044
10242SOL     OW31624   6.699   1.477   6.939
10242SOL    HW131625   6.674   1.573   6.944
10242SOL    HW231626   6.792   1.468   6.904
10243SOL     OW31627   0.441   5.582   1.122
10243SOL    HW131628   0.522   5.551   1.072
10243SOL    HW231629   0.371   5.611   1.057
10244SOL     OW31630   2.070   5.078   0.295
10244SOL    HW131631   1.984   5.117   0.263
10244SOL    HW231632   2.144   5.144   0.280
10245SOL     OW31633   3.085   4.355   0.036
10245SOL    HW131634   3.036   4.401   6.984
10245SOL    HW231635   3.047   4.383   0.125
10246SOL     OW31636   2.884   3.687   4.047
10246SOL    HW131637   2.856   3.639   4.129
10246SOL    HW231638   2.977   3.660   4.022
10247SOL     OW31639   6.915   5.437   5.087
10247SOL    HW131640   6.970   5.481   5.158
10247SOL    HW231641   6.898   5.503   5.013
10248SOL     OW31642   3.374   6.518   2.051
10248SOL    HW131643   3.377   6.503   2.150
10248SOL    HW231644   3.279   6.534   2.023
10249SOL     OW31645   3.230   0.814   5.787
10249SOL    HW131646   3.318   0.861   5.781
10249SOL    HW231647   3.246   0.716   5.804
10250SOL     OW31648   6.661   1.914   1.394
10250SOL    HW131649   6.688   1.964   1.312
10250SOL    HW231650   6.590   1.965   1.442
10251SOL     OW31651   2.810   2.242   5.096
10251SOL    HW131652   2.802   2.335   5.060
10251SOL    HW231653   2.887   2.195   5.054
10252SOL     OW31654   6.566   6.183   0.520
10252SOL    HW131655   6.543   6.101   0.467
10252SOL    HW231656   6.574   6.158   0.617
10253SOL     OW31657   5.654   6.004   0.793
10253SOL    HW131658   5.665   6.060   0.876
10253SOL    HW231659   5.631   5.910   0.819
10254SOL     OW31660   4.054   1.692   5.037
10254SOL    HW131661   4.135   1.749   5.027
10254SOL    HW231662   3.983   1.743   5.086
10255SOL     OW31663   2.311   5.138   1.464
10255SOL    HW131664   2.260   5.159   1.381
10255SOL    HW231665   2.334   5.223   1.511
10256SOL     OW31666   5.550   0.641   1.747
10256SOL    HW131667   5.454   0.612   1.748
10256SOL    HW231668   5.563   0.710   1.676
10257SOL     OW31669   2.045   5.329   3.987
10257SOL    HW131670   2.130   5.298   4.029
10257SOL    HW231671   2.027   5.424   4.011
10258SOL     OW31672   4.750   0.387   4.410
10258SOL    HW131673   4.786   0.370   4.319
10258SOL    HW231674   4.677   0.456   4.404
10259SOL     OW31675   1.101   5.031   3.424
10259SOL    HW131676   1.125   5.058   3.517
10259SOL    HW231677   1.010   5.066   3.402
10260SOL     OW31678   0.364   0.173   2.977
10260SOL    HW131679   0.313   0.145   2.895
10260SOL    HW231680   0.331   0.262   3.008
10261SOL     OW31681   6.786   6.201   2.954
10261SOL    HW131682   6.882   6.217   2.976
10261SOL    HW231683   6.764   6.104   2.968
10262SOL     OW31684   2.609   6.272   4.564
10262SOL    HW131685   2.686   6.332   4.542
10262SOL    HW231686   2.527   6.306   4.518
10263SOL     OW31687   4.748   1.352   6.357
10263SOL    HW131688   4.798   1.294   6.421
10263SOL    HW231689   4.810   1.384   6.286
10264SOL     OW31690   5.545   1.901   6.691
10264SOL    HW131691   5.485   1.954   6.631
10264SOL    HW231692   5.584   1.961   6.761
10265SOL     OW31693   3.216   2.130   2.934
10265SOL    HW131694   3.225   2.067   3.012
10265SOL    HW231695   3.120   2.138   2.908
10266SOL     OW31696   3.352   2.688   5.285
10266SOL    HW131697   3.446   2.673   5.316
10266SOL    HW231698   3.293   2.614   5.318
10267SOL     OW31699   5.786   2.215   6.272
10267SOL    HW131700   5.691   2.208   6.243
10267SOL    HW231701   5.804   2.146   6.342
10268SOL     OW31702   4.062   5.846   2.056
10268SOL    HW131703   4.149   5.799   2.047
10268SOL    HW231704   4.074   5.943   2.037
10269SOL     OW31705   1.466   2.031   5.335
10269SOL    HW131706   1.516   2.091   5.397
10269SOL    HW231707   1.463   1.938   5.374
10270SOL     OW31708   2.499   5.175   2.940
10270SOL    HW131709   2.562   5.135   2.873
10270SOL    HW231710   2.551   5.227   3.008
10271SOL     OW31711   4.220   2.914   0.333
10271SOL    HW131712   4.191   2.971   0.256
10271SOL    HW231713   4.151   2.844   0.351
10272SOL     OW31714   0.650   0.203   4.347
10272SOL    HW131715   0.723   0.271   4.336
10272SOL    HW231716   0.688   0.111   4.336
10273SOL     OW31717   4.739   5.088   3.325
10273SOL    HW131718   4.714   5.027   3.250
10273SOL    HW231719   4.658   5.135   3.358
10274SOL     OW31720   1.042   4.428   4.683
10274SOL    HW131721   1.001   4.484   4.611
10274SOL    HW231722   1.062   4.487   4.762
10275SOL     OW31723   0.681   6.266   1.985
10275SOL    HW131724   0.738   6.338   2.024
10275SOL    HW231725   0.680   6.275   1.885
10276SOL     OW31726   5.802   5.643   5.932
10276SOL    HW131727   5.848   5.583   5.997
10276SOL    HW231728   5.862   5.718   5.905
10277SOL     OW31729   3.073   5.590   4.012
10277SOL    HW131730   3.071   5.596   4.112
10277SOL    HW231731   2.991   5.543   3.980
10278SOL     OW31732   5.885   0.926   4.380
10278SOL    HW131733   5.850   0.837   4.409
10278SOL    HW231734   5.930   0.972   4.457
10279SOL     OW31735   1.984   6.268   4.366
10279SOL    HW131736   2.036   6.220   4.437
10279SOL    HW231737   2.033   6.263   4.279
10280SOL     OW31738   1.930   3.754   1.079
10280SOL    HW131739   1.885   3.780   1.165
10280SOL    HW231740   1.879   3.792   1.002
10281SOL     OW31741   6.470   2.391   2.331
10281SOL    HW131742   6.562   2.405   2.367
10281SOL    HW231743   6.462   2.435   2.241
10282SOL     OW31744   6.537   4.336   4.380
10282SOL    HW131745   6.506   4.352   4.286
10282SOL    HW231746   6.512   4.243   4.407
10283SOL     OW31747   0.806   3.428   0.827
10283SOL    HW131748   0.811   3.388   0.735
10283SOL    HW231749   0.711   3.424   0.859
10284SOL     OW31750   4.904   3.820   5.647
10284SOL    HW131751   4.937   3.855   5.735
10284SOL    HW231752   4.804   3.825   5.645
10285SOL     OW31753   4.531   0.405   0.447
10285SOL    HW131754   4.570   0.456   0.524
10285SOL    HW231755   4.550   0.454   0.362
10286SOL     OW31756   3.157   2.088   4.089
10286SOL    HW131757   3.150   2.083   4.188
10286SOL    HW231758   3.227   2.024   4.057
10287SOL     OW31759   1.998   6.532   1.931
10287SOL    HW131760   2.024   6.546   1.836
10287SOL    HW231761   2.079   6.523   1.988
10288SOL     OW31762   5.175   6.298   2.143
10288SOL    HW131763   5.096   6.280   2.084
10288SOL    HW231764   5.253   6.327   2.086
10289SOL     OW31765   3.473   0.574   2.673
10289SOL    HW131766   3.520   0.494   2.635
10289SOL    HW231767   3.413   0.613   2.603
10290SOL     OW31768   3.523   4.116   2.312
10290SOL    HW131769   3.505   4.214   2.327
10290SOL    HW231770   3.438   4.069   2.292
10291SOL     OW31771   4.070   1.367   4.081
10291SOL    HW131772   4.017   1.444   4.042
10291SOL    HW231773   4.093   1.387   4.176
10292SOL     OW31774   0.947   1.230   4.684
10292SOL    HW131775   0.914   1.230   4.589
10292SOL    HW231776   0.878   1.270   4.743
10293SOL     OW31777   2.000   5.782   3.590
10293SOL    HW131778   1.995   5.730   3.676
10293SOL    HW231779   2.045   5.870   3.608
10294SOL     OW31780   4.945   3.857   2.760
10294SOL    HW131781   4.938   3.891   2.666
10294SOL    HW231782   4.898   3.769   2.767
10295SOL     OW31783   6.432   5.376   6.059
10295SOL    HW131784   6.416   5.471   6.089
10295SOL    HW231785   6.441   5.374   5.959
10296SOL     OW31786   4.887   2.808   6.328
10296SOL    HW131787   4.948   2.872   6.280
10296SOL    HW231788   4.822   2.860   6.384
10297SOL     OW31789   2.168   6.507   4.968
10297SOL    HW131790   2.108   6.556   5.032
10297SOL    HW231791   2.172   6.411   4.993
10298SOL     OW31792   4.055   4.797   2.448
10298SOL    HW131793   3.973   4.854   2.440
10298SOL    HW231794   4.119   4.820   2.376
10299SOL     OW31795   4.706   4.351   2.711
10299SOL    HW131796   4.787   4.314   2.665
10299SOL    HW231797   4.725   4.444   2.742
10300SOL     OW31798   1.950   4.805   2.763
10300SOL    HW131799   1.884   4.879   2.772
10300SOL    HW231800   1.909   4.719   2.795
10301SOL     OW31801   6.164   2.272   2.825
10301SOL    HW131802   6.100   2.198   2.803
10301SOL    HW231803   6.112   2.351   2.858
10302SOL     OW31804   0.580   6.033   3.933
10302SOL    HW131805   0.643   6.019   4.009
10302SOL    HW231806   0.550   6.128   3.932
10303SOL     OW31807   3.177   5.605   1.238
10303SOL    HW131808   3.276   5.619   1.246
10303SOL    HW231809   3.151   5.610   1.142
10304SOL     OW31810   5.543   0.774   2.965
10304SOL    HW131811   5.576   0.682   2.982
10304SOL    HW231812   5.584   0.810   2.881
10305SOL     OW31813   0.282   5.238   6.872
10305SOL    HW131814   0.311   5.257   6.778
10305SOL    HW231815   0.343   5.169   6.912
10306SOL     OW31816   4.709   6.239   6.338
10306SOL    HW131817   4.783   6.284   6.386
10306SOL    HW231818   4.710   6.141   6.359
10307SOL     OW31819   1.990   1.869   4.201
10307SOL    HW131820   1.901   1.885   4.158
10307SOL    HW231821   2.060   1.859   4.131
10308SOL     OW31822   2.692   5.010   3.731
10308SOL    HW131823   2.700   4.958   3.646
10308SOL    HW231824   2.596   5.028   3.751
10309SOL     OW31825   6.567   0.414   3.663
10309SOL    HW131826   6.614   0.473   3.729
10309SOL    HW231827   6.476   0.391   3.698
10310SOL     OW31828   3.759   2.753   1.645
10310SOL    HW131829   3.821   2.679   1.670
10310SOL    HW231830   3.676   2.747   1.700
10311SOL     OW31831   0.611   5.897   1.052
10311SOL    HW131832   0.568   5.968   1.108
10311SOL    HW231833   0.547   5.868   0.981
10312SOL     OW31834   3.070   5.697   0.990
10312SOL    HW131835   3.004   5.631   1.027
10312SOL    HW231836   3.032   5.789   0.996
10313SOL     OW31837   3.808   0.072   2.133
10313SOL    HW131838   3.810   6.996   2.158
10313SOL    HW231839   3.872   0.123   2.191
10314SOL     OW31840   6.261   0.793   1.738
10314SOL    HW131841   6.180   0.753   1.782
10314SOL    HW231842   6.340   0.735   1.753
10315SOL     OW31843   6.113   5.676   4.711
10315SOL    HW131844   6.096   5.612   4.636
10315SOL    HW231845   6.173   5.634   4.778
10316SOL     OW31846   6.319   3.429   5.054
10316SOL    HW131847   6.284   3.412   4.961
10316SOL    HW231848   6.417   3.443   5.050
10317SOL     OW31849   3.578   4.609   5.916
10317SOL    HW131850   3.506   4.637   5.852
10317SOL    HW231851   3.667   4.617   5.871
10318SOL     OW31852   6.029   5.484   0.992
10318SOL    HW131853   6.034   5.469   0.894
10318SOL    HW231854   6.112   5.450   1.036
10319SOL     OW31855   1.215   3.296   5.626
10319SOL    HW131856   1.286   3.338   5.683
10319SOL    HW231857   1.246   3.205   5.597
10320SOL     OW31858   0.936   0.467   0.769
10320SOL    HW131859   0.866   0.507   0.829
10320SOL    HW231860   0.999   0.538   0.739
10321SOL     OW31861   3.990   0.473   5.035
10321SOL    HW131862   4.005   0.507   5.128
10321SOL    HW231863   3.902   0.426   5.030
10322SOL     OW31864   6.088   5.642   7.020
10322SOL    HW131865   6.038   5.578   0.058
10322SOL    HW231866   6.067   5.735   0.027
10323SOL     OW31867   6.192   4.028   6.307
10323SOL    HW131868   6.290   4.017   6.288
10323SOL    HW231869   6.147   4.072   6.229
10324SOL     OW31870   3.436   2.891   3.131
10324SOL    HW131871   3.519   2.836   3.145
10324SOL    HW231872   3.461   2.988   3.133
10325SOL     OW31873   6.897   4.728   3.082
10325SOL    HW131874   6.991   4.755   3.104
10325SOL    HW231875   6.834   4.797   3.119
10326SOL     OW31876   4.554   2.521   0.331
10326SOL    HW131877   4.595   2.462   0.261
10326SOL    HW231878   4.493   2.587   0.288
10327SOL     OW31879   2.906   1.678   2.202
10327SOL    HW131880   2.893   1.615   2.279
10327SOL    HW231881   2.961   1.633   2.132
10328SOL     OW31882   6.072   3.633   1.446
10328SOL    HW131883   6.164   3.594   1.439
10328SOL    HW231884   6.045   3.638   1.542
10329SOL     OW31885   3.497   6.831   4.668
10329SOL    HW131886   3.545   6.846   4.754
10329SOL    HW231887   3.425   6.763   4.681
10330SOL     OW31888   3.387   5.741   2.897
10330SOL    HW131889   3.383   5.644   2.921
10330SOL    HW231890   3.427   5.752   2.806
10331SOL     OW31891   6.247   0.838   3.201
10331SOL    HW131892   6.241   0.890   3.286
10331SOL    HW231893   6.173   0.865   3.140
10332SOL     OW31894   5.971   1.286   0.677
10332SOL    HW131895   5.923   1.363   0.721
10332SOL    HW231896   6.066   1.286   0.707
10333SOL     OW31897   6.104   4.339   4.603
10333SOL    HW131898   6.167   4.391   4.546
10333SOL    HW231899   6.156   4.282   4.667
10334SOL     OW31900   2.261   5.617   3.204
10334SOL    HW131901   2.267   5.563   3.288
10334SOL    HW231902   2.270   5.714   3.227
10335SOL     OW31903   2.047   4.517   6.859
10335SOL    HW131904   1.988   4.557   6.929
10335SOL    HW231905   2.065   4.421   6.882
10336SOL     OW31906   5.288   6.562   3.548
10336SOL    HW131907   5.239   6.475   3.543
10336SOL    HW231908   5.224   6.635   3.571
10337SOL     OW31909   6.578   6.210   5.722
10337SOL    HW131910   6.591   6.136   5.788
10337SOL    HW231911   6.481   6.226   5.707
10338SOL     OW31912   3.372   6.789   1.334
10338SOL    HW131913   3.413   6.835   1.256
10338SOL    HW231914   3.320   6.709   1.302
10339SOL     OW31915   3.695   4.536   0.729
10339SOL    HW131916   3.747   4.464   0.775
10339SOL    HW231917   3.729   4.549   0.636
10340SOL     OW31918   1.215   5.566   0.224
10340SOL    HW131919   1.223   5.630   0.147
10340SOL    HW231920   1.299   5.570   0.278
10341SOL     OW31921   2.479   3.163   1.668
10341SOL    HW131922   2.575   3.137   1.668
10341SOL    HW231923   2.472   3.263   1.668
10342SOL     OW31924   2.835   5.774   5.411
10342SOL    HW131925   2.883   5.837   5.351
10342SOL    HW231926   2.773   5.825   5.471
10343SOL     OW31927   2.399   3.842   0.292
10343SOL    HW131928   2.342   3.897   0.231
10343SOL    HW231929   2.487   3.886   0.305
10344SOL     OW31930   3.922   4.026   3.472
10344SOL    HW131931   3.881   4.108   3.431
10344SOL    HW231932   3.879   4.008   3.560
10345SOL     OW31933   1.733   0.335   6.312
10345SOL    HW131934   1.722   0.290   6.224
10345SOL    HW231935   1.653   0.318   6.369
10346SOL     OW31936   6.115   0.660   1.500
10346SOL    HW131937   6.155   0.716   1.573
10346SOL    HW231938   6.075   0.720   1.431
10347SOL     OW31939   4.869   2.669   1.756
10347SOL    HW131940   4.778   2.628   1.768
10347SOL    HW231941   4.930   2.638   1.829
10348SOL     OW31942   6.896   1.354   6.528
10348SOL    HW131943   6.824   1.331   6.461
10348SOL    HW231944   6.968   1.406   6.482
10349SOL     OW31945   6.675   0.754   0.868
10349SOL    HW131946   6.617   0.832   0.893
10349SOL    HW231947   6.663   0.681   0.934
10350SOL     OW31948   3.028   6.223   5.009
10350SOL    HW131949   3.098   6.165   5.051
10350SOL    HW231950   3.063   6.317   5.001
10351SOL     OW31951   6.195   5.027   5.896
10351SOL    HW131952   6.218   4.939   5.936
10351SOL    HW231953   6.117   5.067   5.944
10352SOL     OW31954   5.514   2.159   6.212
10352SOL    HW131955   5.516   2.067   6.253
10352SOL    HW231956   5.433   2.208   6.244
10353SOL     OW31957   6.475   3.475   4.165
10353SOL    HW131958   6.561   3.492   4.212
10353SOL    HW231959   6.482   3.390   4.112
10354SOL     OW31960   0.625   3.181   1.002
10354SOL    HW131961   0.574   3.258   0.964
10354SOL    HW231962   0.633   3.193   1.101
10355SOL     OW31963   0.823   0.816   0.628
10355SOL    HW131964   0.880   0.841   0.706
10355SOL    HW231965   0.873   0.833   0.543
10356SOL     OW31966   6.863   3.531   6.078
10356SOL    HW131967   6.780   3.503   6.030
10356SOL    HW231968   6.907   3.605   6.027
10357SOL     OW31969   3.433   2.014   5.898
10357SOL    HW131970   3.467   1.964   5.819
10357SOL    HW231971   3.363   2.079   5.868
10358SOL     OW31972   1.063   2.843   3.462
10358SOL    HW131973   1.073   2.939   3.435
10358SOL    HW231974   1.136   2.819   3.527
10359SOL     OW31975   4.957   2.145   2.204
10359SOL    HW131976   4.899   2.207   2.152
10359SOL    HW231977   4.964   2.176   2.299
10360SOL     OW31978   5.076   5.424   2.741
10360SOL    HW131979   5.099   5.521   2.736
10360SOL    HW231980   5.023   5.398   2.660
10361SOL     OW31981   2.788   0.433   2.656
10361SOL    HW131982   2.864   0.410   2.716
10361SOL    HW231983   2.806   0.397   2.564
10362SOL     OW31984   0.774   5.076   2.754
10362SOL    HW131985   0.788   4.993   2.700
10362SOL    HW231986   0.830   5.150   2.716
10363SOL     OW31987   4.798   2.634   0.959
10363SOL    HW131988   4.736   2.710   0.940
10363SOL    HW231989   4.891   2.660   0.931
10364SOL     OW31990   4.839   4.517   2.023
10364SOL    HW131991   4.802   4.606   2.051
10364SOL    HW231992   4.927   4.530   1.978
10365SOL     OW31993   5.562   4.673   0.410
10365SOL    HW131994   5.605   4.594   0.453
10365SOL    HW231995   5.547   4.653   0.313
10366SOL     OW31996   3.926   6.565   3.680
10366SOL    HW131997   3.981   6.506   3.739
10366SOL    HW231998   3.887   6.511   3.606
10367SOL     OW31999   6.875   1.657   2.363
10367SOL    HW132000   6.820   1.702   2.294
10367SOL    HW232001   6.964   1.632   2.325
10368SOL     OW32002   2.055   0.944   2.591
10368SOL    HW132003   1.962   0.980   2.601
10368SOL    HW232004   2.089   0.964   2.499
10369SOL     OW32005   2.319   6.184   6.390
10369SOL    HW132006   2.248   6.244   6.353
10369SOL    HW232007   2.351   6.121   6.318
10370SOL     OW32008   6.231   1.531   4.967
10370SOL    HW132009   6.213   1.630   4.963
10370SOL    HW232010   6.237   1.502   5.063
10371SOL     OW32011   2.170   6.661   4.104
10371SOL    HW132012   2.228   6.583   4.079
10371SOL    HW232013   2.119   6.690   4.023
10372SOL     OW32014   2.861   1.056   0.957
10372SOL    HW132015   2.913   1.021   1.034
10372SOL    HW232016   2.914   1.125   0.908
10373SOL     OW32017   0.440   6.645   4.890
10373SOL    HW132018   0.507   6.585   4.847
10373SOL    HW232019   0.380   6.684   4.820
10374SOL     OW32020   3.021   0.260   3.844
10374SOL    HW132021   2.962   0.186   3.813
10374SOL    HW232022   3.072   0.297   3.767
10375SOL     OW32023   2.661   2.130   5.945
10375SOL    HW132024   2.647   2.228   5.957
10375SOL    HW232025   2.759   2.109   5.945
10376SOL     OW32026   0.909   6.318   4.118
10376SOL    HW132027   0.951   6.229   4.135
10376SOL    HW232028   0.941   6.353   4.030
10377SOL     OW32029   0.530   1.752   1.715
10377SOL    HW132030   0.615   1.701   1.703
10377SOL    HW232031   0.528   1.829   1.651
10378SOL     OW32032   6.224   5.813   6.270
10378SOL    HW132033   6.213   5.819   6.369
10378SOL    HW232034   6.179   5.729   6.237
10379SOL     OW32035   3.305   5.745   4.058
10379SOL    HW132036   3.374   5.675   4.041
10379SOL    HW232037   3.215   5.702   4.062
10380SOL     OW32038   0.579   2.843   4.855
10380SOL    HW132039   0.484   2.873   4.852
10380SOL    HW232040   0.588   2.755   4.808
10381SOL     OW32041   4.441   3.762   0.709
10381SOL    HW132042   4.434   3.807   0.620
10381SOL    HW232043   4.407   3.823   0.780
10382SOL     OW32044   3.029   6.154   1.662
10382SOL    HW132045   2.933   6.132   1.675
10382SOL    HW232046   3.062   6.208   1.740
10383SOL     OW32047   1.381   3.873   0.442
10383SOL    HW132048   1.467   3.923   0.426
10383SOL    HW232049   1.308   3.939   0.463
10384SOL     OW32050   6.667   6.765   0.333
10384SOL    HW132051   6.738   6.768   0.403
10384SOL    HW232052   6.577   6.756   0.376
10385SOL     OW32053   4.165   5.704   6.681
10385SOL    HW132054   4.132   5.646   6.607
10385SOL    HW232055   4.097   5.774   6.702
10386SOL     OW32056   0.767   0.634   5.555
10386SOL    HW132057   0.850   0.675   5.592
10386SOL    HW232058   0.726   0.573   5.623
10387SOL     OW32059   5.188   2.696   2.773
10387SOL    HW132060   5.150   2.783   2.742
10387SOL    HW232061   5.118   2.646   2.824
10388SOL     OW32062   1.470   6.474   0.890
10388SOL    HW132063   1.388   6.515   0.850
10388SOL    HW232064   1.447   6.385   0.929
10389SOL     OW32065   5.595   3.914   1.102
10389SOL    HW132066   5.598   3.973   1.183
10389SOL    HW232067   5.518   3.851   1.109
10390SOL     OW32068   1.510   2.898   0.096
10390SOL    HW132069   1.534   2.814   0.047
10390SOL    HW232070   1.501   2.878   0.194
10391SOL     OW32071   0.427   5.990   4.186
10391SOL    HW132072   0.365   5.942   4.125
10391SOL    HW232073   0.424   6.088   4.167
10392SOL     OW32074   5.706   5.120   5.491
10392SOL    HW132075   5.801   5.128   5.522
10392SOL    HW232076   5.645   5.122   5.570
10393SOL     OW32077   2.059   3.748   3.644
10393SOL    HW132078   2.063   3.705   3.554
10393SOL    HW232079   2.083   3.682   3.714
10394SOL     OW32080   2.399   5.478   4.903
10394SOL    HW132081   2.414   5.489   4.805
10394SOL    HW232082   2.345   5.395   4.920
10395SOL     OW32083   0.107   0.199   1.276
10395SOL    HW132084   0.199   0.236   1.259
10395SOL    HW232085   0.057   0.196   1.190
10396SOL     OW32086   3.384   1.764   3.777
10396SOL    HW132087   3.312   1.753   3.708
10396SOL    HW232088   3.472   1.780   3.732
10397SOL     OW32089   3.152   1.624   4.559
10397SOL    HW132090   3.150   1.530   4.593
10397SOL    HW232091   3.145   1.624   4.459
10398SOL     OW32092   6.148   2.473   0.282
10398SOL    HW132093   6.057   2.443   0.251
10398SOL    HW232094   6.210   2.477   0.205
10399SOL     OW32095   5.244   2.572   3.453
10399SOL    HW132096   5.176   2.533   3.516
10399SOL    HW232097   5.200   2.591   3.365
10400SOL     OW32098   4.387   5.698   6.855
10400SOL    HW132099   4.330   5.681   6.775
10400SOL    HW232100   4.361   5.784   6.898
10401SOL     OW32101   0.152   6.555   2.707
10401SOL    HW132102   0.073   6.497   2.686
10401SOL    HW232103   0.126   6.651   2.697
10402SOL     OW32104   6.301   1.859   5.447
10402SOL    HW132105   6.387   1.899   5.477
10402SOL    HW232106   6.241   1.931   5.412
10403SOL     OW32107   4.622   2.636   3.460
10403SOL    HW132108   4.664   2.703   3.399
10403SOL    HW232109   4.684   2.558   3.471
10404SOL     OW32110   5.707   6.646   4.806
10404SOL    HW132111   5.772   6.570   4.813
10404SOL    HW232112   5.756   6.729   4.780
10405SOL     OW32113   1.390   6.859   4.312
10405SOL    HW132114   1.411   6.789   4.379
10405SOL    HW232115   1.319   6.920   4.348
10406SOL     OW32116   2.194   3.964   3.511
10406SOL    HW132117   2.216   3.926   3.421
10406SOL    HW232118   2.154   3.892   3.568
10407SOL     OW32119   2.613   6.566   6.205
10407SOL    HW132120   2.550   6.520   6.267
10407SOL    HW232121   2.648   6.649   6.248
10408SOL     OW32122   4.445   0.270   1.308
10408SOL    HW132123   4.504   0.262   1.388
10408SOL    HW232124   4.497   0.312   1.233
10409SOL     OW32125   0.333   5.281   1.625
10409SOL    HW132126   0.244   5.245   1.652
10409SOL    HW232127   0.354   5.251   1.532
10410SOL     OW32128   5.131   2.244   1.849
10410SOL    HW132129   5.183   2.329   1.840
10410SOL    HW232130   5.191   2.173   1.886
10411SOL     OW32131   3.353   6.689   3.436
10411SOL    HW132132   3.365   6.780   3.397
10411SOL    HW232133   3.405   6.683   3.521
10412SOL     OW32134   0.175   1.185   6.821
10412SOL    HW132135   0.075   1.182   6.826
10412SOL    HW232136   0.204   1.186   6.725
10413SOL     OW32137   0.245   2.914   0.145
10413SOL    HW132138   0.314   2.849   0.112
10413SOL    HW232139   0.291   2.991   0.190
10414SOL     OW32140   4.226   5.579   5.965
10414SOL    HW132141   4.305   5.519   5.971
10414SOL    HW232142   4.213   5.609   5.870
10415SOL     OW32143   1.775   3.866   5.335
10415SOL    HW132144   1.702   3.888   5.400
10415SOL    HW232145   1.770   3.769   5.312
10416SOL     OW32146   5.981   0.492   5.165
10416SOL    HW132147   5.890   0.457   5.185
10416SOL    HW232148   5.974   0.564   5.096
10417SOL     OW32149   3.098   5.024   3.955
10417SOL    HW132150   3.100   4.970   3.871
10417SOL    HW232151   3.004   5.034   3.986
10418SOL     OW32152   6.487   4.034   6.294
10418SOL    HW132153   6.485   4.069   6.200
10418SOL    HW232154   6.524   3.941   6.294
10419SOL     OW32155   2.781   6.692   5.798
10419SOL    HW132156   2.756   6.755   5.872
10419SOL    HW232157   2.720   6.707   5.720
10420SOL     OW32158   0.568   3.609   3.731
10420SOL    HW132159   0.593   3.513   3.743
10420SOL    HW232160   0.470   3.620   3.743
10421SOL     OW32161   1.084   2.365   3.703
10421SOL    HW132162   1.016   2.403   3.640
10421SOL    HW232163   1.169   2.417   3.697
10422SOL     OW32164   5.689   3.599   5.277
10422SOL    HW132165   5.781   3.580   5.312
10422SOL    HW232166   5.666   3.531   5.207
10423SOL     OW32167   5.858   5.057   5.209
10423SOL    HW132168   5.846   5.070   5.308
10423SOL    HW232169   5.955   5.045   5.188
10424SOL     OW32170   4.614   2.596   0.608
10424SOL    HW132171   4.553   2.658   0.658
10424SOL    HW232172   4.570   2.570   0.522
10425SOL     OW32173   0.977   6.560   1.873
10425SOL    HW132174   0.962   6.599   1.783
10425SOL    HW232175   1.028   6.624   1.930
10426SOL     OW32176   5.493   5.231   0.465
10426SOL    HW132177   5.427   5.168   0.425
10426SOL    HW232178   5.456   5.267   0.551
10427SOL     OW32179   3.699   0.882   6.655
10427SOL    HW132180   3.796   0.863   6.640
10427SOL    HW232181   3.645   0.800   6.636
10428SOL     OW32182   3.466   0.787   3.713
10428SOL    HW132183   3.389   0.781   3.649
10428SOL    HW232184   3.441   0.741   3.798
10429SOL     OW32185   6.968   4.043   0.761
10429SOL    HW132186   6.926   3.978   0.824
10429SOL    HW232187   7.009   4.118   0.812
10430SOL     OW32188   4.988   0.172   4.875
10430SOL    HW132189   4.953   0.265   4.879
10430SOL    HW232190   5.031   0.148   4.962
10431SOL     OW32191   2.630   5.718   4.621
10431SOL    HW132192   2.663   5.680   4.708
10431SOL    HW232193   2.618   5.816   4.631
10432SOL     OW32194   5.356   6.881   4.784
10432SOL    HW132195   5.420   6.928   4.845
10432SOL    HW232196   5.285   6.945   4.755
10433SOL     OW32197   1.052   5.627   1.802
10433SOL    HW132198   1.136   5.597   1.756
10433SOL    HW232199   0.985   5.657   1.734
10434SOL     OW32200   4.069   6.119   3.332
10434SOL    HW132201   4.055   6.046   3.398
10434SOL    HW232202   4.096   6.203   3.380
10435SOL     OW32203   0.130   1.163   5.247
10435SOL    HW132204   0.085   1.226   5.311
10435SOL    HW232205   0.074   1.152   5.165
10436SOL     OW32206   0.059   4.909   5.680
10436SOL    HW132207   0.019   4.988   5.726
10436SOL    HW232208   0.068   4.833   5.744
10437SOL     OW32209   4.741   3.794   6.025
10437SOL    HW132210   4.753   3.746   5.938
10437SOL    HW232211   4.783   3.742   6.099
10438SOL     OW32212   6.024   6.316   0.355
10438SOL    HW132213   6.059   6.408   0.369
10438SOL    HW232214   6.097   6.256   0.323
10439SOL     OW32215   3.849   1.071   5.386
10439SOL    HW132216   3.871   1.119   5.471
10439SOL    HW232217   3.927   1.016   5.357
10440SOL     OW32218   1.481   0.017   0.185
10440SOL    HW132219   1.555   0.080   0.207
10440SOL    HW232220   1.473   6.969   0.257
10441SOL     OW32221   3.545   1.255   1.422
10441SOL    HW132222   3.445   1.247   1.413
10441SOL    HW232223   3.588   1.171   1.388
10442SOL     OW32224   3.759   6.074   6.135
10442SOL    HW132225   3.688   6.081   6.064
10442SOL    HW232226   3.726   6.117   6.219
10443SOL     OW32227   4.771   4.062   3.883
10443SOL    HW132228   4.809   4.038   3.793
10443SOL    HW232229   4.755   3.978   3.935
10444SOL     OW32230   4.086   5.934   4.266
10444SOL    HW132231   4.111   5.876   4.188
10444SOL    HW232232   4.118   6.027   4.250
10445SOL     OW32233   0.799   4.974   4.731
10445SOL    HW132234   0.887   4.978   4.779
10445SOL    HW232235   0.803   5.031   4.649
10446SOL     OW32236   1.050   2.972   5.524
10446SOL    HW132237   1.141   3.008   5.543
10446SOL    HW232238   1.030   2.896   5.585
10447SOL     OW32239   0.416   1.299   1.642
10447SOL    HW132240   0.495   1.334   1.592
10447SOL    HW232241   0.337   1.356   1.623
10448SOL     OW32242   4.864   0.736   2.398
10448SOL    HW132243   4.826   0.739   2.490
10448SOL    HW232244   4.929   0.811   2.386
10449SOL     OW32245   2.935   5.202   4.782
10449SOL    HW132246   2.859   5.167   4.836
10449SOL    HW232247   2.959   5.294   4.814
10450SOL     OW32248   0.964   1.927   0.683
10450SOL    HW132249   1.027   1.980   0.625
10450SOL    HW232250   0.975   1.955   0.778
10451SOL     OW32251   1.345   5.515   2.424
10451SOL    HW132252   1.356   5.608   2.391
10451SOL    HW232253   1.292   5.462   2.358
10452SOL     OW32254   6.293   3.157   2.045
10452SOL    HW132255   6.268   3.077   1.991
10452SOL    HW232256   6.216   3.183   2.104
10453SOL     OW32257   3.966   6.963   1.509
10453SOL    HW132258   3.955   6.866   1.529
10453SOL    HW232259   3.894   6.992   1.445
10454SOL     OW32260   4.173   3.293   0.343
10454SOL    HW132261   4.244   3.233   0.306
10454SOL    HW232262   4.201   3.327   0.433
10455SOL     OW32263   6.522   6.420   3.388
10455SOL    HW132264   6.553   6.379   3.302
10455SOL    HW232265   6.562   6.371   3.465
10456SOL     OW32266   2.895   6.434   1.069
10456SOL    HW132267   2.847   6.449   0.983
10456SOL    HW232268   2.887   6.516   1.126
10457SOL     OW32269   3.043   3.024   2.228
10457SOL    HW132270   3.098   2.984   2.301
10457SOL    HW232271   2.963   2.967   2.211
10458SOL     OW32272   6.823   1.761   6.435
10458SOL    HW132273   6.797   1.731   6.343
10458SOL    HW232274   6.748   1.814   6.475
10459SOL     OW32275   4.740   5.940   1.527
10459SOL    HW132276   4.810   5.948   1.456
10459SOL    HW232277   4.755   6.009   1.598
10460SOL     OW32278   0.866   4.228   2.035
10460SOL    HW132279   0.899   4.221   2.129
10460SOL    HW232280   0.784   4.287   2.033
10461SOL     OW32281   0.682   5.011   5.411
10461SOL    HW132282   0.761   5.071   5.409
10461SOL    HW232283   0.598   5.065   5.411
10462SOL     OW32284   5.976   1.553   3.518
10462SOL    HW132285   5.915   1.631   3.503
10462SOL    HW232286   5.993   1.543   3.616
10463SOL     OW32287   3.991   2.900   5.791
10463SOL    HW132288   3.969   2.994   5.817
10463SOL    HW232289   3.969   2.886   5.695
10464SOL     OW32290   6.230   6.913   1.020
10464SOL    HW132291   6.316   6.866   1.041
10464SOL    HW232292   6.192   6.875   0.936
10465SOL     OW32293   6.456   5.655   1.486
10465SOL    HW132294   6.479   5.746   1.451
10465SOL    HW232295   6.374   5.622   1.441
10466SOL     OW32296   4.615   5.260   6.707
10466SOL    HW132297   4.706   5.235   6.743
10466SOL    HW232298   4.579   5.183   6.654
10467SOL     OW32299   2.145   1.991   6.363
10467SOL    HW132300   2.218   1.969   6.427
10467SOL    HW232301   2.065   1.935   6.382
10468SOL     OW32302   3.935   5.082   3.012
10468SOL    HW132303   3.999   5.018   2.969
10468SOL    HW232304   3.980   5.128   3.088
10469SOL     OW32305   3.855   3.614   5.629
10469SOL    HW132306   3.878   3.655   5.541
10469SOL    HW232307   3.834   3.686   5.696
10470SOL     OW32308   2.588   2.339   3.769
10470SOL    HW132309   2.554   2.245   3.771
10470SOL    HW232310   2.640   2.357   3.853
10471SOL     OW32311   2.676   1.938   1.194
10471SOL    HW132312   2.774   1.957   1.190
10471SOL    HW232313   2.656   1.852   1.148
10472SOL     OW32314   3.902   5.537   0.183
10472SOL    HW132315   3.998   5.528   0.211
10472SOL    HW232316   3.885   5.478   0.104
10473SOL     OW32317   6.818   0.626   6.669
10473SOL    HW132318   6.882   0.678   6.611
10473SOL    HW232319   6.798   0.538   6.626
10474SOL     OW32320   4.629   1.839   4.591
10474SOL    HW132321   4.667   1.848   4.499
10474SOL    HW232322   4.595   1.928   4.622
10475SOL     OW32323   4.823   6.975   2.341
10475SOL    HW132324   4.892   6.926   2.287
10475SOL    HW232325   4.823   0.050   2.316
10476SOL     OW32326   6.972   6.257   6.843
10476SOL    HW132327   6.973   6.221   6.750
10476SOL    HW232328   6.986   6.356   6.840
10477SOL     OW32329   6.760   1.896   4.151
10477SOL    HW132330   6.673   1.946   4.149
10477SOL    HW232331   6.752   1.819   4.214
10478SOL     OW32332   0.141   0.595   0.918
10478SOL    HW132333   0.182   0.619   0.830
10478SOL    HW232334   0.155   0.670   0.983
10479SOL     OW32335   0.293   2.458   0.953
10479SOL    HW132336   0.371   2.458   1.016
10479SOL    HW232337   0.252   2.549   0.951
10480SOL     OW32338   6.219   0.362   1.975
10480SOL    HW132339   6.176   0.277   2.004
10480SOL    HW232340   6.287   0.343   1.905
10481SOL     OW32341   2.627   6.742   4.392
10481SOL    HW132342   2.611   6.835   4.424
10481SOL    HW232343   2.554   6.682   4.426
10482SOL     OW32344   6.585   5.632   4.964
10482SOL    HW132345   6.577   5.718   4.914
10482SOL    HW232346   6.626   5.562   4.906
10483SOL     OW32347   6.883   5.399   0.477
10483SOL    HW132348   6.791   5.360   0.467
10483SOL    HW232349   6.881   5.495   0.448
10484SOL     OW32350   6.013   1.418   1.676
10484SOL    HW132351   5.958   1.350   1.628
10484SOL    HW232352   6.087   1.372   1.725
10485SOL     OW32353   3.398   4.131   1.864
10485SOL    HW132354   3.478   4.070   1.868
10485SOL    HW232355   3.354   4.134   1.954
10486SOL     OW32356   6.671   0.758   5.494
10486SOL    HW132357   6.599   0.827   5.494
10486SOL    HW232358   6.659   0.697   5.416
10487SOL     OW32359   4.553   2.138   2.001
10487SOL    HW132360   4.635   2.096   2.039
10487SOL    HW232361   4.496   2.173   2.075
10488SOL     OW32362   2.150   1.660   5.785
10488SOL    HW132363   2.202   1.733   5.740
10488SOL    HW232364   2.207   1.579   5.795
10489SOL     OW32365   6.367   6.909   4.492
10489SOL    HW132366   6.329   6.837   4.435
10489SOL    HW232367   6.293   6.958   4.538
10490SOL     OW32368   6.013   1.765   0.796
10490SOL    HW132369   6.089   1.744   0.735
10490SOL    HW232370   5.950   1.828   0.750
10491SOL     OW32371   2.640   1.896   5.301
10491SOL    HW132372   2.621   1.994   5.310
10491SOL    HW232373   2.722   1.883   5.246
10492SOL     OW32374   4.924   6.379   1.555
10492SOL    HW132375   5.017   6.345   1.537
10492SOL    HW232376   4.910   6.464   1.505
10493SOL     OW32377   2.754   6.410   2.216
10493SOL    HW132378   2.821   6.337   2.204
10493SOL    HW232379   2.800   6.499   2.207
10494SOL     OW32380   5.546   4.147   6.442
10494SOL    HW132381   5.571   4.235   6.403
10494SOL    HW232382   5.610   4.123   6.515
10495SOL     OW32383   0.261   0.265   0.749
10495SOL    HW132384   0.264   0.340   0.815
10495SOL    HW232385   0.302   0.295   0.663
10496SOL     OW32386   6.125   4.361   6.615
10496SOL    HW132387   6.163   4.442   6.572
10496SOL    HW232388   6.055   4.389   6.682
10497SOL     OW32389   1.448   6.533   2.067
10497SOL    HW132390   1.420   6.499   1.977
10497SOL    HW232391   1.436   6.632   2.071
10498SOL     OW32392   5.792   5.355   0.977
10498SOL    HW132393   5.884   5.372   0.941
10498SOL    HW232394   5.781   5.257   0.996
10499SOL     OW32395   4.750   0.784   2.163
10499SOL    HW132396   4.774   0.781   2.261
10499SOL    HW232397   4.804   0.856   2.118
10500SOL     OW32398   5.749   1.592   5.431
10500SOL    HW132399   5.667   1.624   5.383
10500SOL    HW232400   5.808   1.670   5.452
10501SOL     OW32401   2.475   5.255   1.908
10501SOL    HW132402   2.477   5.312   1.991
10501SOL    HW232403   2.463   5.159   1.934
10502SOL     OW32404   3.023   3.263   1.064
10502SOL    HW132405   3.046   3.361   1.058
10502SOL    HW232406   3.059   3.216   0.983
10503SOL     OW32407   5.604   3.395   0.541
10503SOL    HW132408   5.591   3.312   0.595
10503SOL    HW232409   5.638   3.370   0.450
10504SOL     OW32410   0.059   3.049   5.387
10504SOL    HW132411   0.070   3.147   5.369
10504SOL    HW232412   0.134   3.017   5.443
10505SOL     OW32413   5.979   5.262   1.387
10505SOL    HW132414   5.919   5.320   1.331
10505SOL    HW232415   5.926   5.223   1.462
10506SOL     OW32416   1.030   3.922   0.377
10506SOL    HW132417   0.948   3.972   0.353
10506SOL    HW232418   1.062   3.869   0.298
10507SOL     OW32419   2.084   5.349   0.623
10507SOL    HW132420   1.993   5.383   0.600
10507SOL    HW232421   2.102   5.364   0.720
10508SOL     OW32422   6.962   5.727   4.908
10508SOL    HW132423   6.935   5.642   4.864
10508SOL    HW232424   0.040   5.741   4.895
10509SOL     OW32425   6.678   5.177   5.163
10509SOL    HW132426   6.700   5.110   5.234
10509SOL    HW232427   6.607   5.239   5.198
10510SOL     OW32428   4.591   6.490   6.978
10510SOL    HW132429   4.621   6.585   6.966
10510SOL    HW232430   4.608   6.462   0.052
10511SOL     OW32431   3.064   1.132   2.189
10511SOL    HW132432   2.999   1.165   2.257
10511SOL    HW232433   3.130   1.205   2.168
10512SOL     OW32434   3.500   0.929   6.262
10512SOL    HW132435   3.429   0.967   6.320
10512SOL    HW232436   3.458   0.876   6.188
10513SOL     OW32437   6.791   3.078   3.073
10513SOL    HW132438   6.737   3.142   3.019
10513SOL    HW232439   6.734   3.037   3.143
10514SOL     OW32440   0.605   2.517   1.322
10514SOL    HW132441   0.621   2.614   1.304
10514SOL    HW232442   0.547   2.506   1.403
10515SOL     OW32443   1.698   3.711   4.718
10515SOL    HW132444   1.726   3.802   4.747
10515SOL    HW232445   1.655   3.716   4.628
10516SOL     OW32446   2.968   1.672   0.423
10516SOL    HW132447   2.979   1.734   0.345
10516SOL    HW232448   2.990   1.720   0.507
10517SOL     OW32449   0.829   3.580   1.537
10517SOL    HW132450   0.845   3.483   1.555
10517SOL    HW232451   0.902   3.634   1.580
10518SOL     OW32452   0.029   6.326   1.639
10518SOL    HW132453   0.066   6.367   1.555
10518SOL    HW232454   0.071   6.236   1.653
10519SOL     OW32455   3.126   3.683   0.743
10519SOL    HW132456   3.149   3.693   0.646
10519SOL    HW232457   3.033   3.647   0.752
10520SOL     OW32458   0.482   2.831   5.853
10520SOL    HW132459   0.490   2.854   5.950
10520SOL    HW232460   0.402   2.773   5.839
10521SOL     OW32461   0.087   5.489   1.284
10521SOL    HW132462   0.059   5.449   1.372
10521SOL    HW232463   0.152   5.562   1.300
10522SOL     OW32464   6.944   2.399   4.182
10522SOL    HW132465   0.001   2.357   4.136
10522SOL    HW232466   6.939   2.368   4.276
10523SOL     OW32467   0.927   5.023   3.004
10523SOL    HW132468   0.935   5.088   3.079
10523SOL    HW232469   0.857   5.054   2.940
10524SOL     OW32470   6.685   6.191   4.449
10524SOL    HW132471   6.623   6.269   4.460
10524SOL    HW232472   6.769   6.220   4.403
10525SOL     OW32473   3.366   0.825   4.955
10525SOL    HW132474   3.396   0.824   4.859
10525SOL    HW232475   3.405   0.905   5.001
10526SOL     OW32476   1.094   0.004   1.700
10526SOL    HW132477   0.997   7.001   1.711
10526SOL    HW232478   1.133   0.027   1.789
10527SOL     OW32479   1.255   0.873   5.654
10527SOL    HW132480   1.247   0.880   5.753
10527SOL    HW232481   1.325   0.804   5.631
10528SOL     OW32482   1.499   4.440   6.384
10528SOL    HW132483   1.513   4.364   6.447
10528SOL    HW232484   1.493   4.526   6.435
10529SOL     OW32485   2.238   6.091   4.424
10529SOL    HW132486   2.318   6.149   4.436
10529SOL    HW232487   2.207   6.058   4.513
10530SOL     OW32488   1.235   6.665   6.189
10530SOL    HW132489   1.220   6.761   6.163
10530SOL    HW232490   1.255   6.660   6.286
10531SOL     OW32491   1.965   2.387   4.290
10531SOL    HW132492   2.024   2.371   4.369
10531SOL    HW232493   1.878   2.339   4.304
10532SOL     OW32494   0.472   6.586   6.383
10532SOL    HW132495   0.566   6.565   6.411
10532SOL    HW232496   0.417   6.607   6.464
10533SOL     OW32497   2.912   6.124   3.431
10533SOL    HW132498   2.853   6.084   3.361
10533SOL    HW232499   2.942   6.052   3.494
10534SOL     OW32500   6.411   4.921   2.051
10534SOL    HW132501   6.398   5.011   2.010
10534SOL    HW232502   6.457   4.931   2.139
10535SOL     OW32503   2.222   1.576   2.625
10535SOL    HW132504   2.294   1.640   2.600
10535SOL    HW232505   2.210   1.577   2.724
10536SOL     OW32506   4.419   1.067   4.258
10536SOL    HW132507   4.445   1.146   4.203
10536SOL    HW232508   4.367   1.097   4.337
10537SOL     OW32509   4.671   6.666   4.254
10537SOL    HW132510   4.679   6.662   4.155
10537SOL    HW232511   4.575   6.659   4.281
10538SOL     OW32512   6.799   3.260   0.494
10538SOL    HW132513   6.751   3.204   0.561
10538SOL    HW232514   6.744   3.341   0.473
10539SOL     OW32515   6.340   5.509   1.093
10539SOL    HW132516   6.439   5.509   1.099
10539SOL    HW232517   6.311   5.557   1.011
10540SOL     OW32518   1.785   2.858   5.603
10540SOL    HW132519   1.802   2.848   5.701
10540SOL    HW232520   1.861   2.906   5.560
10541SOL     OW32521   3.935   3.899   2.242
10541SOL    HW132522   3.878   3.844   2.180
10541SOL    HW232523   4.028   3.862   2.243
10542SOL     OW32524   6.906   0.907   5.121
10542SOL    HW132525   6.914   0.807   5.118
10542SOL    HW232526   6.988   0.947   5.080
10543SOL     OW32527   1.217   1.701   4.177
10543SOL    HW132528   1.156   1.772   4.213
10543SOL    HW232529   1.311   1.734   4.181
10544SOL     OW32530   2.502   6.409   2.084
10544SOL    HW132531   2.463   6.318   2.099
10544SOL    HW232532   2.592   6.414   2.128
10545SOL     OW32533   0.935   2.476   1.507
10545SOL    HW132534   0.959   2.573   1.513
10545SOL    HW232535   0.912   2.453   1.413
10546SOL     OW32536   2.965   6.271   0.315
10546SOL    HW132537   2.875   6.231   0.297
10546SOL    HW232538   3.033   6.198   0.324
10547SOL     OW32539   5.472   3.138   3.529
10547SOL    HW132540   5.468   3.038   3.535
10547SOL    HW232541   5.525   3.164   3.448
10548SOL     OW32542   0.254   4.419   4.177
10548SOL    HW132543   0.194   4.441   4.254
10548SOL    HW232544   0.294   4.504   4.141
10549SOL     OW32545   0.735   1.310   0.970
10549SOL    HW132546   0.675   1.358   0.906
10549SOL    HW232547   0.804   1.259   0.919
10550SOL     OW32548   4.571   6.395   3.788
10550SOL    HW132549   4.570   6.429   3.694
10550SOL    HW232550   4.653   6.427   3.834
10551SOL     OW32551   1.547   2.127   7.018
10551SOL    HW132552   1.520   2.112   0.092
10551SOL    HW232553   1.621   2.064   6.994
10552SOL     OW32554   2.056   0.863   5.394
10552SOL    HW132555   1.971   0.809   5.395
10552SOL    HW232556   2.080   0.888   5.488
10553SOL     OW32557   0.592   4.649   1.201
10553SOL    HW132558   0.516   4.611   1.147
10553SOL    HW232559   0.658   4.692   1.139
10554SOL     OW32560   4.907   5.357   1.492
10554SOL    HW132561   4.882   5.260   1.491
10554SOL    HW232562   4.829   5.411   1.525
10555SOL     OW32563   2.487   2.629   0.849
10555SOL    HW132564   2.478   2.582   0.761
10555SOL    HW232565   2.402   2.619   0.902
10556SOL     OW32566   1.817   0.963   3.743
10556SOL    HW132567   1.822   1.058   3.772
10556SOL    HW232568   1.815   0.903   3.823
10557SOL     OW32569   2.118   2.860   3.605
10557SOL    HW132570   2.208   2.862   3.651
10557SOL    HW232571   2.065   2.782   3.639
10558SOL     OW32572   4.020   5.872   5.614
10558SOL    HW132573   4.024   5.913   5.523
10558SOL    HW232574   3.924   5.862   5.642
10559SOL     OW32575   3.991   0.592   1.703
10559SOL    HW132576   4.030   0.610   1.793
10559SOL    HW232577   4.059   0.545   1.646
10560SOL     OW32578   4.794   0.193   3.020
10560SOL    HW132579   4.799   0.264   2.950
10560SOL    HW232580   4.744   0.228   3.099
10561SOL     OW32581   3.635   4.451   1.673
10561SOL    HW132582   3.561   4.384   1.662
10561SOL    HW232583   3.608   4.521   1.738
10562SOL     OW32584   4.498   5.264   0.097
10562SOL    HW132585   4.469   5.355   0.067
10562SOL    HW232586   4.438   5.233   0.170
10563SOL     OW32587   0.788   0.752   2.250
10563SOL    HW132588   0.746   0.696   2.321
10563SOL    HW232589   0.866   0.801   2.288
10564SOL     OW32590   5.501   6.463   3.850
10564SOL    HW132591   5.459   6.385   3.895
10564SOL    HW232592   5.576   6.498   3.907
10565SOL     OW32593   6.747   6.553   5.803
10565SOL    HW132594   6.672   6.579   5.742
10565SOL    HW232595   6.820   6.510   5.749
10566SOL     OW32596   3.700   1.626   6.573
10566SOL    HW132597   3.796   1.646   6.553
10566SOL    HW232598   3.689   1.527   6.586
10567SOL     OW32599   2.226   2.371   5.502
10567SOL    HW132600   2.164   2.436   5.458
10567SOL    HW232601   2.301   2.420   5.545
10568SOL     OW32602   6.511   3.196   0.754
10568SOL    HW132603   6.571   3.172   0.831
10568SOL    HW232604   6.490   3.293   0.757
10569SOL     OW32605   5.934   0.947   2.517
10569SOL    HW132606   5.933   0.868   2.456
10569SOL    HW232607   5.851   1.002   2.501
10570SOL     OW32608   1.497   4.662   3.662
10570SOL    HW132609   1.553   4.688   3.740
10570SOL    HW232610   1.500   4.563   3.650
10571SOL     OW32611   0.030   4.631   5.137
10571SOL    HW132612   6.991   4.691   5.084
10571SOL    HW232613   0.030   4.540   5.095
10572SOL     OW32614   0.013   4.497   2.491
10572SOL    HW132615   6.961   4.517   2.426
10572SOL    HW232616   0.100   4.488   2.442
10573SOL     OW32617   5.217   1.020   4.832
10573SOL    HW132618   5.229   1.119   4.828
10573SOL    HW232619   5.177   0.987   4.747
10574SOL     OW32620   0.991   1.471   4.240
10574SOL    HW132621   1.054   1.509   4.172
10574SOL    HW232622   0.950   1.387   4.204
10575SOL     OW32623   0.249   0.714   3.905
10575SOL    HW132624   0.264   0.669   3.818
10575SOL    HW232625   0.216   0.648   3.972
10576SOL     OW32626   0.711   5.983   4.170
10576SOL    HW132627   0.619   6.012   4.196
10576SOL    HW232628   0.734   5.899   4.219
10577SOL     OW32629   1.782   4.501   0.503
10577SOL    HW132630   1.758   4.409   0.536
10577SOL    HW232631   1.879   4.503   0.478
10578SOL     OW32632   3.823   1.536   3.161
10578SOL    HW132633   3.801   1.632   3.179
10578SOL    HW232634   3.824   1.486   3.248
10579SOL     OW32635   4.228   2.771   1.696
10579SOL    HW132636   4.214   2.677   1.728
10579SOL    HW232637   4.326   2.790   1.690
10580SOL     OW32638   6.527   6.809   6.336
10580SOL    HW132639   6.517   6.868   6.416
10580SOL    HW232640   6.480   6.722   6.352
10581SOL     OW32641   5.768   0.365   3.212
10581SOL    HW132642   5.750   0.268   3.196
10581SOL    HW232643   5.779   0.381   3.310
10582SOL     OW32644   4.574   4.810   6.232
10582SOL    HW132645   4.494   4.844   6.281
10582SOL    HW232646   4.556   4.719   6.197
10583SOL     OW32647   4.439   1.162   3.878
10583SOL    HW132648   4.459   1.064   3.879
10583SOL    HW232649   4.478   1.204   3.959
10584SOL     OW32650   6.469   0.371   0.519
10584SOL    HW132651   6.405   0.443   0.545
10584SOL    HW232652   6.563   0.401   0.538
10585SOL     OW32653   2.795   1.850   5.071
10585SOL    HW132654   2.727   1.892   5.011
10585SOL    HW232655   2.887   1.879   5.043
10586SOL     OW32656   5.371   4.782   5.775
10586SOL    HW132657   5.452   4.725   5.790
10586SOL    HW232658   5.310   4.737   5.710
10587SOL     OW32659   6.894   5.330   0.011
10587SOL    HW132660   6.872   5.378   6.946
10587SOL    HW232661   6.852   5.239   0.009
10588SOL     OW32662   1.635   1.998   4.904
10588SOL    HW132663   1.547   2.031   4.871
10588SOL    HW232664   1.698   1.987   4.826
10589SOL     OW32665   5.544   1.090   4.494
10589SOL    HW132666   5.582   1.110   4.584
10589SOL    HW232667   5.610   1.115   4.423
10590SOL     OW32668   0.323   0.008   0.398
10590SOL    HW132669   0.226   0.030   0.399
10590SOL    HW232670   0.375   0.090   0.373
10591SOL     OW32671   2.236   2.215   0.053
10591SOL    HW132672   2.205   2.236   0.146
10591SOL    HW232673   2.318   2.159   0.057
10592SOL     OW32674   5.695   3.497   3.821
10592SOL    HW132675   5.663   3.590   3.840
10592SOL    HW232676   5.762   3.500   3.746
10593SOL     OW32677   3.107   5.977   1.027
10593SOL    HW132678   3.100   6.038   0.949
10593SOL    HW232679   3.197   5.986   1.069
10594SOL     OW32680   4.768   1.804   2.287
10594SOL    HW132681   4.680   1.756   2.291
10594SOL    HW232682   4.842   1.738   2.295
10595SOL     OW32683   5.783   6.954   0.164
10595SOL    HW132684   5.767   7.000   0.077
10595SOL    HW232685   5.695   6.932   0.207
10596SOL     OW32686   4.146   0.724   0.080
10596SOL    HW132687   4.074   0.655   0.082
10596SOL    HW232688   4.110   0.809   0.042
10597SOL     OW32689   3.474   1.187   5.786
10597SOL    HW132690   3.535   1.245   5.733
10597SOL    HW232691   3.382   1.189   5.746
10598SOL     OW32692   3.365   2.813   0.246
10598SOL    HW132693   3.447   2.826   0.191
10598SOL    HW232694   3.292   2.776   0.188
10599SOL     OW32695   5.238   3.278   6.521
10599SOL    HW132696   5.223   3.370   6.484
10599SOL    HW232697   5.325   3.242   6.488
10600SOL     OW32698   3.348   2.528   1.734
10600SOL    HW132699   3.261   2.477   1.734
10600SOL    HW232700   3.405   2.495   1.658
10601SOL     OW32701   1.356   4.633   5.738
10601SOL    HW132702   1.412   4.627   5.655
10601SOL    HW232703   1.372   4.553   5.795
10602SOL     OW32704   1.249   1.254   1.069
10602SOL    HW132705   1.259   1.279   0.973
10602SOL    HW232706   1.338   1.230   1.107
10603SOL     OW32707   4.087   6.724   3.491
10603SOL    HW132708   4.158   6.660   3.521
10603SOL    HW232709   4.010   6.721   3.555
10604SOL     OW32710   6.127   4.967   5.155
10604SOL    HW132711   6.208   5.025   5.158
10604SOL    HW232712   6.110   4.938   5.061
10605SOL     OW32713   2.121   6.265   0.087
10605SOL    HW132714   2.121   6.258   7.008
10605SOL    HW232715   2.192   6.205   0.124
10606SOL     OW32716   0.490   0.871   0.445
10606SOL    HW132717   0.393   0.895   0.438
10606SOL    HW232718   0.517   0.869   0.542
10607SOL     OW32719   4.080   4.651   6.648
10607SOL    HW132720   4.176   4.678   6.654
10607SOL    HW232721   4.069   4.586   6.573
10608SOL     OW32722   0.106   4.117   4.181
10608SOL    HW132723   0.132   4.210   4.207
10608SOL    HW232724   0.109   4.058   4.261
10609SOL     OW32725   2.822   6.889   7.004
10609SOL    HW132726   2.764   6.809   7.018
10609SOL    HW232727   2.917   6.860   6.996
10610SOL     OW32728   0.586   2.384   3.772
10610SOL    HW132729   0.500   2.435   3.766
10610SOL    HW232730   0.566   2.286   3.770
10611SOL     OW32731   2.784   4.424   6.351
10611SOL    HW132732   2.814   4.455   6.261
10611SOL    HW232733   2.857   4.371   6.395
10612SOL     OW32734   4.308   1.974   4.707
10612SOL    HW132735   4.355   1.989   4.620
10612SOL    HW232736   4.352   2.029   4.778
10613SOL     OW32737   5.811   5.930   5.845
10613SOL    HW132738   5.886   5.932   5.912
10613SOL    HW232739   5.724   5.943   5.893
10614SOL     OW32740   4.897   1.561   4.525
10614SOL    HW132741   4.961   1.629   4.488
10614SOL    HW232742   4.847   1.518   4.450
10615SOL     OW32743   3.336   1.044   6.431
10615SOL    HW132744   3.240   1.039   6.402
10615SOL    HW232745   3.340   1.046   6.531
10616SOL     OW32746   2.217   6.848   7.001
10616SOL    HW132747   2.292   6.891   6.950
10616SOL    HW232748   2.253   6.776   0.039
10617SOL     OW32749   3.079   3.822   1.280
10617SOL    HW132750   3.021   3.901   1.259
10617SOL    HW232751   3.057   3.748   1.217
10618SOL     OW32752   1.417   4.466   5.955
10618SOL    HW132753   1.459   4.548   5.995
10618SOL    HW232754   1.424   4.390   6.020
10619SOL     OW32755   0.317   2.698   3.398
10619SOL    HW132756   0.331   2.599   3.404
10619SOL    HW232757   0.228   2.716   3.357
10620SOL     OW32758   1.273   0.047   4.874
10620SOL    HW132759   1.215   6.989   4.851
10620SOL    HW232760   1.229   0.102   4.944
10621SOL     OW32761   0.960   4.856   1.503
10621SOL    HW132762   0.972   4.872   1.601
10621SOL    HW232763   0.970   4.758   1.484
10622SOL     OW32764   4.764   1.937   2.559
10622SOL    HW132765   4.805   1.920   2.469
10622SOL    HW232766   4.807   1.876   2.626
10623SOL     OW32767   6.791   5.383   5.706
10623SOL    HW132768   6.803   5.464   5.649
10623SOL    HW232769   6.701   5.385   5.750
10624SOL     OW32770   0.509   2.806   5.143
10624SOL    HW132771   0.549   2.820   5.052
10624SOL    HW232772   0.575   2.834   5.212
10625SOL     OW32773   0.920   4.477   1.181
10625SOL    HW132774   0.821   4.465   1.168
10625SOL    HW232775   0.967   4.390   1.163
10626SOL     OW32776   3.417   3.110   0.710
10626SOL    HW132777   3.417   3.080   0.805
10626SOL    HW232778   3.354   3.054   0.657
10627SOL     OW32779   5.688   1.516   6.988
10627SOL    HW132780   5.675   1.602   0.016
10627SOL    HW232781   5.745   1.532   6.907
10628SOL     OW32782   4.740   6.348   1.178
10628SOL    HW132783   4.692   6.435   1.184
10628SOL    HW232784   4.836   6.361   1.205
10629SOL     OW32785   2.592   5.199   4.706
10629SOL    HW132786   2.593   5.136   4.628
10629SOL    HW232787   2.533   5.162   4.778
10630SOL     OW32788   6.811   1.666   2.674
10630SOL    HW132789   6.881   1.695   2.609
10630SOL    HW232790   6.755   1.593   2.634
10631SOL     OW32791   3.932   4.817   5.198
10631SOL    HW132792   3.880   4.742   5.239
10631SOL    HW232793   3.901   4.904   5.237
10632SOL     OW32794   5.499   6.546   3.349
10632SOL    HW132795   5.550   6.460   3.351
10632SOL    HW232796   5.444   6.553   3.433
10633SOL     OW32797   2.715   2.526   1.574
10633SOL    HW132798   2.633   2.580   1.553
10633SOL    HW232799   2.737   2.468   1.495
10634SOL     OW32800   2.386   4.429   0.386
10634SOL    HW132801   2.453   4.368   0.429
10634SOL    HW232802   2.385   4.517   0.435
10635SOL     OW32803   1.979   3.891   6.718
10635SOL    HW132804   2.072   3.873   6.751
10635SOL    HW232805   1.933   3.805   6.696
10636SOL     OW32806   0.173   2.129   0.826
10636SOL    HW132807   0.141   2.114   0.919
10636SOL    HW232808   0.270   2.154   0.827
10637SOL     OW32809   0.923   4.738   6.130
10637SOL    HW132810   0.874   4.685   6.061
10637SOL    HW232811   0.974   4.812   6.086
10638SOL     OW32812   5.669   5.831   2.756
10638SOL    HW132813   5.708   5.904   2.811
10638SOL    HW232814   5.625   5.870   2.675
10639SOL     OW32815   0.968   3.876   3.139
10639SOL    HW132816   0.983   3.887   3.238
10639SOL    HW232817   1.053   3.846   3.096
10640SOL     OW32818   5.082   0.049   4.097
10640SOL    HW132819   5.031   0.095   4.169
10640SOL    HW232820   5.082   6.971   4.114
10641SOL     OW32821   2.555   1.743   2.318
10641SOL    HW132822   2.534   1.657   2.273
10641SOL    HW232823   2.605   1.724   2.403
10642SOL     OW32824   6.464   1.840   0.862
10642SOL    HW132825   6.519   1.843   0.946
10642SOL    HW232826   6.406   1.758   0.864
10643SOL     OW32827   2.144   5.672   4.618
10643SOL    HW132828   2.138   5.719   4.530
10643SOL    HW232829   2.053   5.639   4.645
10644SOL     OW32830   5.841   2.712   1.169
10644SOL    HW132831   5.796   2.680   1.086
10644SOL    HW232832   5.840   2.812   1.171
10645SOL     OW32833   1.848   2.688   4.567
10645SOL    HW132834   1.906   2.613   4.537
10645SOL    HW232835   1.771   2.698   4.504
10646SOL     OW32836   0.200   6.663   5.571
10646SOL    HW132837   0.152   6.595   5.515
10646SOL    HW232838   0.240   6.618   5.651
10647SOL     OW32839   3.110   5.886   4.796
10647SOL    HW132840   3.049   5.946   4.847
10647SOL    HW232841   3.059   5.810   4.756
10648SOL     OW32842   5.898   4.496   6.329
10648SOL    HW132843   5.890   4.554   6.248
10648SOL    HW232844   5.878   4.551   6.411
10649SOL     OW32845   0.759   4.258   3.055
10649SOL    HW132846   0.702   4.246   3.137
10649SOL    HW232847   0.830   4.188   3.053
10650SOL     OW32848   0.712   7.021   3.863
10650SOL    HW132849   0.647   6.947   3.883
10650SOL    HW232850   0.674   0.087   3.895
10651SOL     OW32851   5.957   6.565   0.018
10651SOL    HW132852   5.862   6.564   0.049
10651SOL    HW232853   5.968   6.504   6.961
10652SOL     OW32854   3.248   6.612   5.970
10652SOL    HW132855   3.238   6.515   5.993
10652SOL    HW232856   3.345   6.637   5.974
10653SOL     OW32857   4.516   5.632   4.512
10653SOL    HW132858   4.548   5.573   4.437
10653SOL    HW232859   4.588   5.640   4.581
10654SOL     OW32860   4.907   0.588   6.905
10654SOL    HW132861   4.942   0.653   6.837
10654SOL    HW232862   4.831   0.537   6.866
10655SOL     OW32863   2.278   5.314   0.381
10655SOL    HW132864   2.291   5.378   0.305
10655SOL    HW232865   2.259   5.366   0.465
10656SOL     OW32866   0.351   1.959   2.538
10656SOL    HW132867   0.290   1.891   2.577
10656SOL    HW232868   0.319   1.985   2.446
10657SOL     OW32869   5.732   0.425   5.239
10657SOL    HW132870   5.667   0.499   5.223
10657SOL    HW232871   5.686   0.337   5.230
10658SOL     OW32872   6.847   4.902   4.409
10658SOL    HW132873   6.886   4.861   4.491
10658SOL    HW232874   6.754   4.933   4.429
10659SOL     OW32875   0.720   5.664   1.240
10659SOL    HW132876   0.664   5.733   1.196
10659SOL    HW232877   0.794   5.708   1.291
10660SOL     OW32878   5.140   3.926   6.223
10660SOL    HW132879   5.120   3.988   6.299
10660SOL    HW232880   5.157   3.980   6.140
10661SOL     OW32881   1.209   7.019   1.458
10661SOL    HW132882   1.177   7.011   1.552
10661SOL    HW232883   1.226   6.927   1.421
10662SOL     OW32884   5.203   0.746   2.181
10662SOL    HW132885   5.133   0.675   2.178
10662SOL    HW232886   5.179   0.819   2.117
10663SOL     OW32887   0.683   2.041   2.547
10663SOL    HW132888   0.692   2.053   2.646
10663SOL    HW232889   0.600   1.989   2.527
10664SOL     OW32890   5.859   4.058   5.044
10664SOL    HW132891   5.759   4.049   5.047
10664SOL    HW232892   5.884   4.154   5.055
10665SOL     OW32893   0.852   1.817   0.327
10665SOL    HW132894   0.880   1.738   0.272
10665SOL    HW232895   0.786   1.788   0.396
10666SOL     OW32896   3.682   3.691   1.667
10666SOL    HW132897   3.761   3.752   1.673
10666SOL    HW232898   3.713   3.596   1.676
10667SOL     OW32899   4.647   2.718   4.097
10667SOL    HW132900   4.667   2.709   3.999
10667SOL    HW232901   4.690   2.643   4.146
10668SOL     OW32902   2.411   0.634   5.200
10668SOL    HW132903   2.356   0.556   5.229
10668SOL    HW232904   2.445   0.618   5.107
10669SOL     OW32905   5.527   0.355   1.815
10669SOL    HW132906   5.596   0.365   1.886
10669SOL    HW232907   5.437   0.380   1.852
10670SOL     OW32908   5.805   4.785   5.099
10670SOL    HW132909   5.780   4.875   5.135
10670SOL    HW232910   5.766   4.714   5.158
10671SOL     OW32911   2.139   2.047   3.683
10671SOL    HW132912   2.187   1.959   3.685
10671SOL    HW232913   2.191   2.112   3.628
10672SOL     OW32914   6.754   3.786   1.258
10672SOL    HW132915   6.682   3.849   1.228
10672SOL    HW232916   6.808   3.830   1.330
10673SOL     OW32917   0.800   0.578   6.866
10673SOL    HW132918   0.751   0.623   6.791
10673SOL    HW232919   0.739   0.514   6.913
10674SOL     OW32920   3.803   4.015   2.434
10674SOL    HW132921   3.742   4.088   2.404
10674SOL    HW232922   3.860   3.985   2.357
10675SOL     OW32923   2.010   6.544   6.995
10675SOL    HW132924   2.023   6.536   0.073
10675SOL    HW232925   2.024   6.639   6.967
10676SOL     OW32926   6.378   5.785   5.780
10676SOL    HW132927   6.358   5.835   5.695
10676SOL    HW232928   6.295   5.736   5.809
10677SOL     OW32929   1.836   0.808   1.253
10677SOL    HW132930   1.890   0.761   1.323
10677SOL    HW232931   1.840   0.906   1.269
10678SOL     OW32932   4.469   5.528   4.198
10678SOL    HW132933   4.458   5.508   4.100
10678SOL    HW232934   4.422   5.458   4.251
10679SOL     OW32935   4.512   5.664   6.351
10679SOL    HW132936   4.537   5.748   6.398
10679SOL    HW232937   4.540   5.585   6.405
10680SOL     OW32938   3.781   1.557   4.521
10680SOL    HW132939   3.874   1.538   4.552
10680SOL    HW232940   3.784   1.611   4.437
10681SOL     OW32941   0.754   3.866   0.937
10681SOL    HW132942   0.670   3.861   0.991
10681SOL    HW232943   0.814   3.790   0.962
10682SOL     OW32944   0.679   1.373   5.590
10682SOL    HW132945   0.668   1.299   5.656
10682SOL    HW232946   0.678   1.461   5.638
10683SOL     OW32947   3.716   2.015   3.938
10683SOL    HW132948   3.707   1.973   3.848
10683SOL    HW232949   3.810   2.004   3.970
10684SOL     OW32950   5.200   4.876   3.138
10684SOL    HW132951   5.134   4.859   3.065
10684SOL    HW232952   5.150   4.891   3.224
10685SOL     OW32953   0.809   5.607   2.126
10685SOL    HW132954   0.748   5.686   2.129
10685SOL    HW232955   0.818   5.568   2.218
10686SOL     OW32956   0.365   4.597   6.023
10686SOL    HW132957   0.441   4.658   6.042
10686SOL    HW232958   0.387   4.540   5.943
10687SOL     OW32959   5.594   5.765   3.300
10687SOL    HW132960   5.591   5.706   3.380
10687SOL    HW232961   5.517   5.744   3.240
10688SOL     OW32962   6.187   3.809   2.168
10688SOL    HW132963   6.140   3.879   2.222
10688SOL    HW232964   6.252   3.760   2.226
10689SOL     OW32965   6.923   5.962   3.384
10689SOL    HW132966   6.899   6.059   3.381
10689SOL    HW232967   6.843   5.908   3.359
10690SOL     OW32968   6.717   5.879   4.173
10690SOL    HW132969   6.808   5.893   4.213
10690SOL    HW232970   6.647   5.899   4.242
10691SOL     OW32971   0.663   2.672   1.983
10691SOL    HW132972   0.572   2.672   1.941
10691SOL    HW232973   0.720   2.603   1.938
10692SOL     OW32974   3.166   5.919   3.398
10692SOL    HW132975   3.145   5.855   3.325
10692SOL    HW232976   3.256   5.961   3.381
10693SOL     OW32977   2.082   5.992   0.392
10693SOL    HW132978   2.149   5.926   0.356
10693SOL    HW232979   2.027   6.028   0.317
10694SOL     OW32980   5.396   6.890   1.625
10694SOL    HW132981   5.398   6.793   1.600
10694SOL    HW232982   5.302   6.922   1.627
10695SOL     OW32983   0.245   2.585   2.194
10695SOL    HW132984   0.161   2.565   2.143
10695SOL    HW232985   0.227   2.574   2.292
10696SOL     OW32986   0.466   3.937   3.686
10696SOL    HW132987   0.523   4.002   3.737
10696SOL    HW232988   0.408   3.886   3.749
10697SOL     OW32989   6.531   5.754   5.185
10697SOL    HW132990   6.544   5.701   5.101
10697SOL    HW232991   6.620   5.765   5.231
10698SOL     OW32992   4.914   4.721   6.639
10698SOL    HW132993   4.914   4.653   6.565
10698SOL    HW232994   5.009   4.738   6.667
10699SOL     OW32995   4.129   3.823   1.886
10699SOL    HW132996   4.043   3.866   1.856
10699SOL    HW232997   4.206   3.865   1.838
10700SOL     OW32998   6.887   6.809   1.152
10700SOL    HW132999   6.858   6.725   1.199
10700SOL    HW233000   6.926   6.786   1.063
10701SOL     OW33001   3.463   6.136   6.981
10701SOL    HW133002   3.469   6.181   6.892
10701SOL    HW233003   3.381   6.168   0.008
10702SOL     OW33004   5.862   2.726   1.427
10702SOL    HW133005   5.848   2.819   1.461
10702SOL    HW233006   5.837   2.721   1.331
10703SOL     OW33007   3.047   3.190   4.971
10703SOL    HW133008   3.092   3.110   5.011
10703SOL    HW233009   2.965   3.212   5.023
10704SOL     OW33010   6.027   5.761   2.114
10704SOL    HW133011   5.948   5.799   2.163
10704SOL    HW233012   6.020   5.785   2.017
10705SOL     OW33013   6.065   4.502   2.279
10705SOL    HW133014   6.018   4.488   2.192
10705SOL    HW233015   6.146   4.558   2.265
10706SOL     OW33016   5.089   6.776   1.877
10706SOL    HW133017   5.161   6.709   1.863
10706SOL    HW233018   5.062   6.816   1.790
10707SOL     OW33019   0.294   6.625   4.256
10707SOL    HW133020   0.267   6.530   4.275
10707SOL    HW233021   0.216   6.677   4.222
10708SOL     OW33022   3.944   0.637   2.265
10708SOL    HW133023   3.875   0.701   2.230
10708SOL    HW233024   3.939   0.635   2.365
10709SOL     OW33025   6.018   6.199   5.486
10709SOL    HW133026   6.111   6.168   5.505
10709SOL    HW233027   5.984   6.252   5.564
10710SOL     OW33028   6.954   6.928   4.527
10710SOL    HW133029   6.997   6.839   4.516
10710SOL    HW233030   6.855   6.919   4.514
10711SOL     OW33031   1.586   5.852   4.264
10711SOL    HW133032   1.593   5.847   4.164
10711SOL    HW233033   1.494   5.880   4.290
10712SOL     OW33034   3.017   0.920   1.856
10712SOL    HW133035   2.976   0.937   1.946
10712SOL    HW233036   3.112   0.889   1.869
10713SOL     OW33037   0.491   3.296   1.630
10713SOL    HW133038   0.492   3.391   1.664
10713SOL    HW233039   0.502   3.234   1.708
10714SOL     OW33040   6.064   4.335   5.212
10714SOL    HW133041   6.128   4.295   5.147
10714SOL    HW233042   6.057   4.433   5.197
10715SOL     OW33043   5.466   0.769   2.565
10715SOL    HW133044   5.544   0.776   2.627
10715SOL    HW233045   5.497   0.736   2.476
10716SOL     OW33046   5.761   2.704   4.135
10716SOL    HW133047   5.826   2.639   4.095
10716SOL    HW233048   5.739   2.775   4.068
10717SOL     OW33049   0.962   2.079   0.913
10717SOL    HW133050   0.990   2.145   0.983
10717SOL    HW233051   0.871   2.043   0.936
10718SOL     OW33052   1.004   2.829   6.418
10718SOL    HW133053   1.091   2.779   6.414
10718SOL    HW233054   0.939   2.790   6.353
10719SOL     OW33055   5.878   5.947   1.824
10719SOL    HW133056   5.975   5.938   1.805
10719SOL    HW233057   5.855   6.044   1.835
10720SOL     OW33058   0.140   4.214   4.551
10720SOL    HW133059   0.084   4.135   4.526
10720SOL    HW233060   0.229   4.182   4.582
10721SOL     OW33061   5.572   4.080   4.748
10721SOL    HW133062   5.645   4.061   4.683
10721SOL    HW233063   5.484   4.060   4.706
10722SOL     OW33064   1.237   4.548   0.696
10722SOL    HW133065   1.271   4.618   0.633
10722SOL    HW233066   1.154   4.507   0.658
10723SOL     OW33067   0.737   4.036   6.546
10723SOL    HW133068   0.759   3.962   6.610
10723SOL    HW233069   0.670   4.097   6.588
10724SOL     OW33070   5.678   1.115   6.864
10724SOL    HW133071   5.717   1.115   6.957
10724SOL    HW233072   5.739   1.163   6.802
10725SOL     OW33073   0.980   4.684   4.991
10725SOL    HW133074   0.917   4.689   4.913
10725SOL    HW233075   0.966   4.764   5.050
10726SOL     OW33076   5.046   0.446   5.271
10726SOL    HW133077   5.122   0.508   5.294
10726SOL    HW233078   4.968   0.500   5.241
10727SOL     OW33079   0.396   4.950   4.564
10727SOL    HW133080   0.442   4.962   4.652
10727SOL    HW233081   0.397   4.853   4.539
10728SOL     OW33082   6.853   6.451   0.500
10728SOL    HW133083   6.761   6.485   0.519
10728SOL    HW233084   6.866   6.445   0.401
10729SOL     OW33085   5.584   1.228   2.195
10729SOL    HW133086   5.506   1.231   2.132
10729SOL    HW233087   5.550   1.219   2.289
10730SOL     OW33088   2.039   0.018   2.135
10730SOL    HW133089   1.972   0.018   2.209
10730SOL    HW233090   1.995   7.013   2.049
10731SOL     OW33091   3.247   6.297   0.716
10731SOL    HW133092   3.293   6.372   0.764
10731SOL    HW233093   3.173   6.262   0.772
10732SOL     OW33094   5.320   4.623   3.652
10732SOL    HW133095   5.300   4.716   3.684
10732SOL    HW233096   5.240   4.586   3.605
10733SOL     OW33097   5.742   2.386   6.821
10733SOL    HW133098   5.830   2.376   6.867
10733SOL    HW233099   5.737   2.477   6.779
10734SOL     OW33100   1.197   0.337   6.464
10734SOL    HW133101   1.185   0.396   6.384
10734SOL    HW233102   1.287   0.294   6.460
10735SOL     OW33103   1.522   3.674   2.921
10735SOL    HW133104   1.427   3.658   2.893
10735SOL    HW233105   1.577   3.593   2.902
10736SOL     OW33106   0.969   0.156   3.460
10736SOL    HW133107   0.942   0.131   3.553
10736SOL    HW233108   1.061   0.121   3.442
10737SOL     OW33109   1.546   2.345   6.700
10737SOL    HW133110   1.553   2.333   6.601
10737SOL    HW233111   1.460   2.305   6.733
10738SOL     OW33112   2.496   0.390   3.672
10738SOL    HW133113   2.533   0.447   3.599
10738SOL    HW233114   2.522   0.429   3.761
10739SOL     OW33115   0.533   1.413   0.819
10739SOL    HW133116   0.457   1.402   0.883
10739SOL    HW233117   0.497   1.423   0.727
10740SOL     OW33118   0.361   4.852   5.505
10740SOL    HW133119   0.378   4.950   5.502
10740SOL    HW233120   0.350   4.817   5.412
10741SOL     OW33121   0.377   0.331   2.219
10741SOL    HW133122   0.404   0.406   2.159
10741SOL    HW233123   0.344   0.367   2.306
10742SOL     OW33124   5.996   0.669   1.812
10742SOL    HW133125   5.934   0.639   1.740
10742SOL    HW233126   5.987   0.608   1.891
10743SOL     OW33127   3.196   2.231   5.570
10743SOL    HW133128   3.279   2.283   5.548
10743SOL    HW233129   3.141   2.221   5.487
10744SOL     OW33130   3.179   0.653   2.104
10744SOL    HW133131   3.211   0.569   2.147
10744SOL    HW233132   3.167   0.638   2.005
10745SOL     OW33133   0.902   5.200   0.709
10745SOL    HW133134   0.817   5.246   0.685
10745SOL    HW233135   0.971   5.219   0.638
10746SOL     OW33136   1.843   3.911   1.334
10746SOL    HW133137   1.848   3.903   1.434
10746SOL    HW233138   1.812   4.003   1.310
10747SOL     OW33139   4.493   0.795   3.281
10747SOL    HW133140   4.515   0.864   3.211
10747SOL    HW233141   4.458   0.841   3.363
10748SOL     OW33142   3.565   0.740   1.754
10748SOL    HW133143   3.611   0.775   1.672
10748SOL    HW233144   3.467   0.759   1.747
10749SOL     OW33145   6.818   5.055   3.318
10749SOL    HW133146   6.769   5.009   3.244
10749SOL    HW233147   6.816   5.154   3.303
10750SOL     OW33148   4.509   5.886   4.408
10750SOL    HW133149   4.480   5.861   4.315
10750SOL    HW233150   4.519   5.803   4.463
10751SOL     OW33151   1.468   4.492   4.322
10751SOL    HW133152   1.549   4.451   4.279
10751SOL    HW233153   1.487   4.508   4.419
10752SOL     OW33154   6.025   4.127   6.523
10752SOL    HW133155   6.054   4.208   6.575
10752SOL    HW233156   6.094   4.106   6.453
10753SOL     OW33157   4.015   6.618   4.406
10753SOL    HW133158   3.979   6.532   4.444
10753SOL    HW233159   4.011   6.690   4.475
10754SOL     OW33160   1.478   1.716   3.413
10754SOL    HW133161   1.480   1.655   3.334
10754SOL    HW233162   1.435   1.803   3.387
10755SOL     OW33163   0.399   1.566   6.571
10755SOL    HW133164   0.356   1.619   6.644
10755SOL    HW233165   0.354   1.586   6.484
10756SOL     OW33166   6.847   3.795   0.461
10756SOL    HW133167   6.905   3.836   0.531
10756SOL    HW233168   6.902   3.741   0.398
10757SOL     OW33169   0.879   2.960   0.441
10757SOL    HW133170   0.927   2.973   0.527
10757SOL    HW233171   0.944   2.967   0.365
10758SOL     OW33172   0.772   6.701   4.742
10758SOL    HW133173   0.723   6.787   4.733
10758SOL    HW233174   0.709   6.625   4.723
10759SOL     OW33175   1.356   3.170   6.995
10759SOL    HW133176   1.258   3.178   7.013
10759SOL    HW233177   1.396   3.101   0.035
10760SOL     OW33178   6.109   1.817   1.065
10760SOL    HW133179   6.051   1.776   1.136
10760SOL    HW233180   6.067   1.801   0.975
10761SOL     OW33181   0.901   1.580   6.260
10761SOL    HW133182   0.923   1.585   6.163
10761SOL    HW233183   0.887   1.673   6.295
10762SOL     OW33184   4.042   2.134   5.063
10762SOL    HW133185   4.115   2.193   5.026
10762SOL    HW233186   3.957   2.153   5.015
10763SOL     OW33187   4.547   6.314   1.568
10763SOL    HW133188   4.458   6.341   1.605
10763SOL    HW233189   4.570   6.373   1.491
10764SOL     OW33190   5.433   2.003   5.982
10764SOL    HW133191   5.446   1.908   6.010
10764SOL    HW233192   5.472   2.064   6.051
10765SOL     OW33193   5.868   2.525   0.813
10765SOL    HW133194   5.825   2.502   0.726
10765SOL    HW233195   5.803   2.511   0.888
10766SOL     OW33196   4.651   3.060   1.184
10766SOL    HW133197   4.610   2.973   1.155
10766SOL    HW233198   4.698   3.102   1.107
10767SOL     OW33199   0.792   0.424   0.181
10767SOL    HW133200   0.727   0.423   0.104
10767SOL    HW233201   0.747   0.462   0.262
10768SOL     OW33202   4.438   4.395   0.826
10768SOL    HW133203   4.467   4.414   0.920
10768SOL    HW233204   4.413   4.480   0.781
10769SOL     OW33205   2.438   4.995   4.577
10769SOL    HW133206   2.505   4.927   4.606
10769SOL    HW233207   2.347   4.968   4.608
10770SOL     OW33208   5.613   0.151   5.219
10770SOL    HW133209   5.525   0.164   5.173
10770SOL    HW233210   5.655   0.066   5.189
10771SOL     OW33211   5.011   1.245   3.231
10771SOL    HW133212   4.936   1.237   3.166
10771SOL    HW233213   4.977   1.283   3.318
10772SOL     OW33214   0.082   0.086   4.697
10772SOL    HW133215   0.121   0.166   4.652
10772SOL    HW233216   0.052   0.020   4.627
10773SOL     OW33217   0.014   5.679   6.936
10773SOL    HW133218   0.013   5.611   6.863
10773SOL    HW233219   6.955   5.666   6.995
10774SOL     OW33220   1.636   1.192   6.456
10774SOL    HW133221   1.571   1.196   6.532
10774SOL    HW233222   1.586   1.188   6.370
10775SOL     OW33223   0.678   3.615   1.219
10775SOL    HW133224   0.630   3.641   1.303
10775SOL    HW233225   0.706   3.519   1.225
10776SOL     OW33226   1.431   6.492   6.616
10776SOL    HW133227   1.485   6.554   6.673
10776SOL    HW233228   1.391   6.543   6.540
10777SOL     OW33229   4.038   5.834   3.107
10777SOL    HW133230   3.953   5.808   3.153
10777SOL    HW233231   4.043   5.934   3.101
10778SOL     OW33232   5.443   6.625   4.745
10778SOL    HW133233   5.401   6.715   4.736
10778SOL    HW233234   5.538   6.635   4.774
10779SOL     OW33235   6.523   4.854   3.348
10779SOL    HW133236   6.570   4.776   3.388
10779SOL    HW233237   6.451   4.820   3.287
10780SOL     OW33238   1.521   0.290   3.739
10780SOL    HW133239   1.540   0.315   3.644
10780SOL    HW233240   1.593   0.230   3.773
10781SOL     OW33241   4.263   0.488   3.591
10781SOL    HW133242   4.188   0.459   3.651
10781SOL    HW233243   4.333   0.416   3.589
10782SOL     OW33244   6.322   2.201   2.591
10782SOL    HW133245   6.344   2.190   2.688
10782SOL    HW233246   6.302   2.298   2.572
10783SOL     OW33247   0.536   3.349   3.215
10783SOL    HW133248   0.460   3.369   3.153
10783SOL    HW233249   0.622   3.354   3.165
10784SOL     OW33250   3.269   0.987   4.045
10784SOL    HW133251   3.354   0.982   3.994
10784SOL    HW233252   3.266   1.073   4.097
10785SOL     OW33253   0.159   5.585   1.882
10785SOL    HW133254   0.250   5.543   1.885
10785SOL    HW233255   0.161   5.673   1.930
10786SOL     OW33256   5.250   4.942   2.601
10786SOL    HW133257   5.274   4.938   2.698
10786SOL    HW233258   5.222   5.035   2.576
10787SOL     OW33259   2.484   1.655   4.500
10787SOL    HW133260   2.396   1.617   4.526
10787SOL    HW233261   2.500   1.641   4.402
10788SOL     OW33262   2.203   5.513   6.370
10788SOL    HW133263   2.295   5.479   6.387
10788SOL    HW233264   2.193   5.605   6.410
10789SOL     OW33265   6.470   2.837   6.427
10789SOL    HW133266   6.554   2.891   6.425
10789SOL    HW233267   6.438   2.827   6.521
10790SOL     OW33268   1.526   1.159   2.416
10790SOL    HW133269   1.607   1.208   2.385
10790SOL    HW233270   1.508   1.082   2.354
10791SOL     OW33271   0.660   6.847   0.039
10791SOL    HW133272   0.573   6.862   0.086
10791SOL    HW233273   0.652   6.770   6.997
10792SOL     OW33274   3.378   3.382   3.472
10792SOL    HW133275   3.376   3.482   3.475
10792SOL    HW233276   3.440   3.348   3.543
10793SOL     OW33277   5.487   3.045   4.353
10793SOL    HW133278   5.445   3.057   4.263
10793SOL    HW233279   5.424   2.996   4.412
10794SOL     OW33280   2.937   3.823   3.824
10794SOL    HW133281   2.901   3.780   3.741
10794SOL    HW233282   2.901   3.775   3.905
10795SOL     OW33283   6.935   4.358   2.735
10795SOL    HW133284   6.949   4.392   2.642
10795SOL    HW233285   0.003   4.348   2.781
10796SOL     OW33286   5.487   6.852   0.633
10796SOL    HW133287   5.531   6.867   0.544
10796SOL    HW233288   5.537   6.902   0.704
10797SOL     OW33289   4.185   1.922   1.611
10797SOL    HW133290   4.138   1.836   1.631
10797SOL    HW233291   4.117   1.995   1.599
10798SOL     OW33292   2.878   6.538   0.253
10798SOL    HW133293   2.855   6.447   0.287
10798SOL    HW233294   2.977   6.550   0.254
10799SOL     OW33295   3.937   0.657   2.538
10799SOL    HW133296   3.875   0.629   2.610
10799SOL    HW233297   3.934   0.756   2.527
10800SOL     OW33298   0.731   6.281   6.440
10800SOL    HW133299   0.659   6.275   6.371
10800SOL    HW233300   0.690   6.296   6.530
10801SOL     OW33301   0.539   6.198   6.284
10801SOL    HW133302   0.488   6.113   6.274
10801SOL    HW233303   0.568   6.230   6.194
10802SOL     OW33304   0.736   2.216   3.022
10802SOL    HW133305   0.790   2.283   2.971
10802SOL    HW233306   0.782   2.195   3.108
10803SOL     OW33307   3.271   3.854   5.776
10803SOL    HW133308   3.176   3.860   5.748
10803SOL    HW233309   3.325   3.807   5.706
10804SOL     OW33310   5.853   3.913   2.051
10804SOL    HW133311   5.845   3.858   1.968
10804SOL    HW233312   5.947   3.947   2.060
10805SOL     OW33313   3.999   0.140   6.958
10805SOL    HW133314   4.010   0.133   0.037
10805SOL    HW233315   3.999   0.049   6.918
10806SOL     OW33316   4.633   3.742   6.425
10806SOL    HW133317   4.626   3.648   6.392
10806SOL    HW233318   4.704   3.747   6.496
10807SOL     OW33319   1.251   7.004   1.914
10807SOL    HW133320   1.210   6.941   1.980
10807SOL    HW233321   1.329   6.960   1.870
10808SOL     OW33322   6.778   3.122   6.044
10808SOL    HW133323   6.782   3.023   6.054
10808SOL    HW233324   6.721   3.145   5.965
10809SOL     OW33325   3.004   5.919   3.623
10809SOL    HW133326   3.059   5.927   3.540
10809SOL    HW233327   3.048   5.855   3.686
10810SOL     OW33328   1.932   0.292   4.997
10810SOL    HW133329   2.020   0.255   4.966
10810SOL    HW233330   1.869   0.217   5.017
10811SOL     OW33331   4.051   4.493   5.671
10811SOL    HW133332   4.143   4.517   5.700
10811SOL    HW233333   4.054   4.456   5.578
10812SOL     OW33334   0.838   3.324   1.632
10812SOL    HW133335   0.808   3.233   1.605
10812SOL    HW233336   0.840   3.331   1.731
10813SOL     OW33337   2.154   4.956   6.481
10813SOL    HW133338   2.162   4.977   6.384
10813SOL    HW233339   2.209   5.019   6.534
10814SOL     OW33340   1.557   6.784   6.332
10814SOL    HW133341   1.600   6.859   6.282
10814SOL    HW233342   1.560   6.701   6.277
10815SOL     OW33343   4.067   4.827   3.811
10815SOL    HW133344   4.099   4.828   3.905
10815SOL    HW233345   4.140   4.795   3.751
10816SOL     OW33346   2.643   3.151   1.106
10816SOL    HW133347   2.715   3.093   1.068
10816SOL    HW233348   2.630   3.129   1.203
10817SOL     OW33349   4.642   6.798   3.123
10817SOL    HW133350   4.654   6.822   3.219
10817SOL    HW233351   4.691   6.864   3.066
10818SOL     OW33352   4.191   4.691   5.440
10818SOL    HW133353   4.128   4.614   5.429
10818SOL    HW233354   4.143   4.767   5.485
10819SOL     OW33355   6.779   4.451   0.105
10819SOL    HW133356   6.814   4.513   0.035
10819SOL    HW233357   6.853   4.390   0.134
10820SOL     OW33358   6.062   5.790   4.058
10820SOL    HW133359   5.970   5.824   4.079
10820SOL    HW233360   6.123   5.867   4.043
10821SOL     OW33361   5.733   0.301   2.037
10821SOL    HW133362   5.761   0.211   2.003
10821SOL    HW233363   5.657   0.290   2.101
10822SOL     OW33364   6.941   2.797   3.062
10822SOL    HW133365   6.883   2.875   3.086
10822SOL    HW233366   7.013   2.827   2.999
10823SOL     OW33367   1.680   5.810   1.761
10823SOL    HW133368   1.697   5.883   1.826
10823SOL    HW233369   1.625   5.738   1.803
10824SOL     OW33370   6.845   0.360   3.481
10824SOL    HW133371   6.817   0.342   3.575
10824SOL    HW233372   6.783   0.427   3.440
10825SOL     OW33373   2.524   0.824   6.572
10825SOL    HW133374   2.427   0.808   6.557
10825SOL    HW233375   2.539   0.921   6.591
10826SOL     OW33376   1.585   2.467   3.593
10826SOL    HW133377   1.603   2.562   3.621
10826SOL    HW233378   1.603   2.458   3.495
10827SOL     OW33379   5.915   3.682   4.557
10827SOL    HW133380   5.830   3.629   4.561
10827SOL    HW233381   5.920   3.730   4.469
10828SOL     OW33382   0.882   5.742   1.598
10828SOL    HW133383   0.846   5.810   1.661
10828SOL    HW233384   0.931   5.788   1.524
10829SOL     OW33385   3.895   2.369   0.904
10829SOL    HW133386   3.818   2.431   0.894
10829SOL    HW233387   3.904   2.342   1.000
10830SOL     OW33388   5.570   2.127   2.840
10830SOL    HW133389   5.600   2.209   2.888
10830SOL    HW233390   5.637   2.054   2.853
10831SOL     OW33391   3.815   5.436   2.516
10831SOL    HW133392   3.821   5.349   2.565
10831SOL    HW233393   3.812   5.512   2.581
10832SOL     OW33394   1.131   2.974   0.162
10832SOL    HW133395   1.173   2.945   0.248
10832SOL    HW233396   1.145   2.904   0.092
10833SOL     OW33397   1.912   0.800   2.034
10833SOL    HW133398   1.970   0.725   2.002
10833SOL    HW233399   1.817   0.770   2.037
10834SOL     OW33400   0.847   2.254   6.662
10834SOL    HW133401   0.775   2.186   6.651
10834SOL    HW233402   0.936   2.208   6.663
10835SOL     OW33403   6.277   1.847   6.879
10835SOL    HW133404   6.347   1.873   6.946
10835SOL    HW233405   6.196   1.904   6.893
10836SOL     OW33406   6.644   1.759   4.984
10836SOL    HW133407   6.636   1.689   5.054
10836SOL    HW233408   6.621   1.720   4.895
10837SOL     OW33409   6.762   4.907   0.828
10837SOL    HW133410   6.709   4.936   0.908
10837SOL    HW233411   6.801   4.988   0.783
10838SOL     OW33412   4.897   6.188   5.023
10838SOL    HW133413   4.996   6.176   5.021
10838SOL    HW233414   4.875   6.282   5.050
10839SOL     OW33415   4.454   3.118   1.689
10839SOL    HW133416   4.424   3.045   1.628
10839SOL    HW233417   4.525   3.083   1.750
10840SOL     OW33418   3.041   5.623   2.446
10840SOL    HW133419   3.058   5.686   2.371
10840SOL    HW233420   3.094   5.539   2.431
10841SOL     OW33421   5.680   5.469   6.960
10841SOL    HW133422   5.760   5.529   6.972
10841SOL    HW233423   5.600   5.525   6.938
10842SOL     OW33424   4.821   2.362   1.759
10842SOL    HW133425   4.910   2.370   1.716
10842SOL    HW233426   4.752   2.341   1.690
10843SOL     OW33427   1.348   2.794   1.661
10843SOL    HW133428   1.418   2.799   1.732
10843SOL    HW233429   1.392   2.777   1.573
10844SOL     OW33430   0.159   0.029   3.769
10844SOL    HW133431   0.203   0.019   3.680
10844SOL    HW233432   0.214   0.087   3.828
10845SOL     OW33433   3.523   0.146   5.079
10845SOL    HW133434   3.425   0.128   5.095
10845SOL    HW233435   3.547   0.235   5.116
10846SOL     OW33436   4.765   1.579   0.768
10846SOL    HW133437   4.714   1.497   0.794
10846SOL    HW233438   4.777   1.581   0.668
10847SOL     OW33439   3.564   3.275   6.526
10847SOL    HW133440   3.569   3.247   6.430
10847SOL    HW233441   3.485   3.334   6.540
10848SOL     OW33442   3.012   3.545   6.733
10848SOL    HW133443   2.919   3.579   6.736
10848SOL    HW233444   3.021   3.476   6.661
10849SOL     OW33445   2.482   6.144   2.617
10849SOL    HW133446   2.405   6.105   2.667
10849SOL    HW233447   2.448   6.211   2.551
10850SOL     OW33448   3.147   4.714   6.346
10850SOL    HW133449   3.109   4.635   6.394
10850SOL    HW233450   3.195   4.684   6.264
10851SOL     OW33451   2.069   3.016   6.718
10851SOL    HW133452   1.972   2.991   6.713
10851SOL    HW233453   2.085   3.098   6.663
10852SOL     OW33454   1.418   0.321   6.892
10852SOL    HW133455   1.412   0.222   6.906
10852SOL    HW233456   1.338   0.353   6.841
10853SOL     OW33457   2.445   1.760   5.929
10853SOL    HW133458   2.399   1.800   5.850
10853SOL    HW233459   2.470   1.665   5.908
10854SOL     OW33460   4.317   5.508   5.379
10854SOL    HW133461   4.233   5.462   5.350
10854SOL    HW233462   4.302   5.607   5.379
10855SOL     OW33463   3.052   6.733   0.810
10855SOL    HW133464   3.090   6.804   0.750
10855SOL    HW233465   3.120   6.707   0.879
10856SOL     OW33466   5.807   2.101   0.796
10856SOL    HW133467   5.720   2.092   0.843
10856SOL    HW233468   5.839   2.196   0.803
10857SOL     OW33469   6.566   2.742   2.333
10857SOL    HW133470   6.517   2.776   2.252
10857SOL    HW233471   6.537   2.795   2.413
10858SOL     OW33472   0.336   2.222   5.894
10858SOL    HW133473   0.413   2.177   5.937
10858SOL    HW233474   0.289   2.281   5.960
10859SOL     OW33475   2.111   3.479   4.089
10859SOL    HW133476   2.144   3.389   4.119
10859SOL    HW233477   2.084   3.532   4.169
10860SOL     OW33478   6.638   1.646   5.863
10860SOL    HW133479   6.555   1.700   5.870
10860SOL    HW233480   6.718   1.705   5.873
10861SOL     OW33481   3.787   3.488   2.689
10861SOL    HW133482   3.749   3.486   2.596
10861SOL    HW233483   3.887   3.487   2.684
10862SOL     OW33484   2.315   1.709   6.470
10862SOL    HW133485   2.323   1.805   6.499
10862SOL    HW233486   2.284   1.654   6.547
10863SOL     OW33487   3.987   0.549   3.457
10863SOL    HW133488   4.022   0.630   3.410
10863SOL    HW233489   3.988   0.564   3.556
10864SOL     OW33490   2.977   4.988   0.654
10864SOL    HW133491   3.007   5.077   0.689
10864SOL    HW233492   2.991   4.919   0.725
10865SOL     OW33493   6.678   1.466   2.543
10865SOL    HW133494   6.699   1.375   2.578
10865SOL    HW233495   6.737   1.486   2.464
10866SOL     OW33496   5.525   4.729   6.856
10866SOL    HW133497   5.444   4.669   6.851
10866SOL    HW233498   5.509   4.810   6.801
10867SOL     OW33499   3.465   3.861   0.449
10867SOL    HW133500   3.464   3.764   0.472
10867SOL    HW233501   3.371   3.891   0.428
10868SOL     OW33502   3.414   2.073   3.766
10868SOL    HW133503   3.440   1.986   3.808
10868SOL    HW233504   3.330   2.107   3.809
10869NA      NA33505   0.190   2.126   5.454
10870NA      NA33506   4.342   4.630   5.242
10871NA      NA33507   1.763   3.889   2.581
10872NA      NA33508   4.978   4.175   4.011
10873NA      NA33509   4.351   2.397   5.200
10874NA      NA33510   3.109   4.855   1.769
10875NA      NA33511   0.117   4.651   0.452
10876NA      NA33512   3.286   3.239   3.298
10877NA      NA33513   4.970   5.395   1.275
10878NA      NA33514   3.709   6.353   5.452
10879NA      NA33515   6.112   5.433   1.810
10880NA      NA33516   2.201   0.936   4.702
10881NA      NA33517   3.861   5.088   1.850
10882NA      NA33518   3.926   3.389   1.533
   7.02081   7.02081   7.02081
