Generated by trjconv : CNT in water t=  11.00000
33518
    1C        C    1   2.842   2.770   4.749
    1C        C    2   2.895   2.719   4.870
    1C        C    3   2.836   2.769   4.987
    1C        C    4   2.854   2.776   4.262
    1C        C    5   2.904   2.729   4.385
    1C        C    6   2.847   2.775   4.506
    1C        C    7   3.014   2.643   4.628
    1C        C    8   2.897   2.722   4.628
    1C        C    9   3.075   2.604   4.749
    1C        C   10   3.007   2.634   4.869
    1C        C   11   3.178   2.488   4.974
    1C        C   12   3.057   2.559   4.976
    1C        C   13   2.857   2.774   3.769
    1C        C   14   2.903   2.726   3.894
    1C        C   15   2.850   2.774   4.015
    1C        C   16   3.019   2.647   4.137
    1C        C   17   2.907   2.732   4.138
    1C        C   18   3.080   2.615   4.260
    1C        C   19   3.016   2.643   4.383
    1C        C   20   3.209   2.560   4.504
    1C        C   21   3.076   2.608   4.506
    1C        C   22   3.277   2.535   4.624
    1C        C   23   3.206   2.548   4.745
    1C        C   24   3.411   2.487   4.865
    1C        C   25   3.269   2.501   4.864
    1C        C   26   3.488   2.478   4.981
    1C        C   27   2.848   2.769   3.282
    1C        C   28   2.908   2.724   3.402
    1C        C   29   2.854   2.773   3.524
    1C        C   30   3.020   2.642   3.649
    1C        C   31   2.905   2.724   3.646
    1C        C   32   3.078   2.604   3.772
    1C        C   33   3.015   2.640   3.894
    1C        C   34   3.205   2.542   4.018
    1C        C   35   3.076   2.601   4.016
    1C        C   36   3.275   2.528   4.139
    1C        C   37   3.209   2.558   4.261
    1C        C   38   3.417   2.512   4.380
    1C        C   39   3.278   2.541   4.383
    1C        C   40   3.485   2.498   4.503
    1C        C   41   3.416   2.509   4.625
    1C        C   42   3.630   2.483   4.743
    1C        C   43   3.488   2.488   4.745
    1C        C   44   3.705   2.482   4.863
    1C        C   45   3.627   2.472   4.979
    1C        C   46   2.831   2.749   2.792
    1C        C   47   2.889   2.705   2.913
    1C        C   48   2.845   2.758   3.036
    1C        C   49   3.015   2.637   3.161
    1C        C   50   2.897   2.716   3.161
    1C        C   51   3.082   2.604   3.281
    1C        C   52   3.021   2.640   3.403
    1C        C   53   3.208   2.545   3.532
    1C        C   54   3.079   2.604   3.527
    1C        C   55   3.279   2.523   3.652
    1C        C   56   3.207   2.546   3.772
    1C        C   57   3.412   2.504   3.895
    1C        C   58   3.272   2.525   3.895
    1C        C   59   3.487   2.500   4.015
    1C        C   60   3.414   2.501   4.135
    1C        C   61   3.626   2.493   4.259
    1C        C   62   3.485   2.496   4.257
    1C        C   63   3.699   2.502   4.379
    1C        C   64   3.626   2.493   4.500
    1C        C   65   3.834   2.541   4.619
    1C        C   66   3.699   2.499   4.621
    1C        C   67   3.901   2.562   4.742
    1C        C   68   3.841   2.518   4.862
    1C        C   69   4.048   2.584   4.979
    1C        C   70   3.920   2.526   4.977
    1C        C   71   2.825   2.734   2.309
    1C        C   72   2.885   2.698   2.431
    1C        C   73   2.827   2.745   2.551
    1C        C   74   3.007   2.628   2.671
    1C        C   75   2.885   2.700   2.671
    1C        C   76   3.069   2.593   2.793
    1C        C   77   3.010   2.631   2.916
    1C        C   78   3.205   2.547   3.036
    1C        C   79   3.074   2.601   3.038
    1C        C   80   3.273   2.528   3.158
    1C        C   81   3.212   2.550   3.284
    1C        C   82   3.412   2.501   3.402
    1C        C   83   3.273   2.524   3.409
    1C        C   84   3.486   2.499   3.523
    1C        C   85   3.419   2.506   3.647
    1C        C   86   3.623   2.499   3.770
    1C        C   87   3.482   2.497   3.773
    1C        C   88   3.694   2.514   3.891
    1C        C   89   3.628   2.513   4.016
    1C        C   90   3.834   2.550   4.136
    1C        C   91   3.698   2.512   4.139
    1C        C   92   3.903   2.570   4.258
    1C        C   93   3.835   2.540   4.378
    1C        C   94   4.029   2.631   4.499
    1C        C   95   3.902   2.570   4.498
    1C        C   96   4.092   2.664   4.621
    1C        C   97   4.027   2.628   4.741
    1C        C   98   4.190   2.761   4.861
    1C        C   99   4.091   2.658   4.864
    1C        C  100   4.214   2.841   4.974
    1C        C  101   2.817   2.723   2.069
    1C        C  102   2.988   2.592   2.188
    1C        C  103   2.871   2.674   2.189
    1C        C  104   3.061   2.577   2.309
    1C        C  105   3.002   2.619   2.431
    1C        C  106   3.203   2.540   2.553
    1C        C  107   3.073   2.595   2.551
    1C        C  108   3.271   2.516   2.674
    1C        C  109   3.198   2.535   2.794
    1C        C  110   3.410   2.495   2.916
    1C        C  111   3.271   2.520   2.914
    1C        C  112   3.480   2.485   3.038
    1C        C  113   3.411   2.499   3.161
    1C        C  114   3.626   2.495   3.281
    1C        C  115   3.485   2.492   3.281
    1C        C  116   3.695   2.505   3.404
    1C        C  117   3.627   2.500   3.527
    1C        C  118   3.836   2.537   3.647
    1C        C  119   3.698   2.508   3.650
    1C        C  120   3.899   2.570   3.769
    1C        C  121   3.832   2.546   3.891
    1C        C  122   4.025   2.637   4.013
    1C        C  123   3.899   2.572   4.012
    1C        C  124   4.089   2.675   4.133
    1C        C  125   4.029   2.634   4.254
    1C        C  126   4.195   2.763   4.376
    1C        C  127   4.088   2.670   4.377
    1C        C  128   4.243   2.817   4.497
    1C        C  129   4.196   2.761   4.618
    1C        C  130   4.322   2.933   4.737
    1C        C  131   4.240   2.817   4.740
    1C        C  132   4.355   3.000   4.857
    1C        C  133   4.288   2.958   4.973
    1C        C  134   3.174   2.469   2.081
    1C        C  135   3.041   2.513   2.081
    1C        C  136   3.257   2.477   2.193
    1C        C  137   3.191   2.520   2.310
    1C        C  138   3.403   2.481   2.429
    1C        C  139   3.263   2.504   2.430
    1C        C  140   3.480   2.484   2.547
    1C        C  141   3.410   2.489   2.670
    1C        C  142   3.620   2.493   2.791
    1C        C  143   3.479   2.488   2.793
    1C        C  144   3.692   2.496   2.913
    1C        C  145   3.621   2.484   3.035
    1C        C  146   3.829   2.539   3.158
    1C        C  147   3.693   2.501   3.156
    1C        C  148   3.899   2.563   3.278
    1C        C  149   3.832   2.541   3.400
    1C        C  150   4.022   2.630   3.519
    1C        C  151   3.898   2.562   3.523
    1C        C  152   4.080   2.669   3.642
    1C        C  153   4.022   2.640   3.767
    1C        C  154   4.192   2.764   3.886
    1C        C  155   4.081   2.678   3.890
    1C        C  156   4.247   2.809   4.008
    1C        C  157   4.199   2.764   4.133
    1C        C  158   4.341   2.920   4.252
    1C        C  159   4.250   2.813   4.256
    1C        C  160   4.377   2.982   4.374
    1C        C  161   4.330   2.928   4.496
    1C        C  162   4.430   3.118   4.613
    1C        C  163   4.365   2.993   4.616
    1C        C  164   4.465   3.182   4.734
    1C        C  165   4.429   3.120   4.856
    1C        C  166   4.508   3.319   4.973
    1C        C  167   4.475   3.183   4.972
    1C        C  168   3.473   2.433   2.073
    1C        C  169   3.397   2.460   2.188
    1C        C  170   3.615   2.463   2.305
    1C        C  171   3.473   2.464   2.308
    1C        C  172   3.691   2.484   2.422
    1C        C  173   3.621   2.485   2.545
    1C        C  174   3.826   2.533   2.665
    1C        C  175   3.688   2.501   2.668
    1C        C  176   3.893   2.556   2.788
    1C        C  177   3.829   2.530   2.911
    1C        C  178   4.021   2.618   3.032
    1C        C  179   3.892   2.560   3.033
    1C        C  180   4.085   2.656   3.152
    1C        C  181   4.026   2.625   3.277
    1C        C  182   4.194   2.755   3.398
    1C        C  183   4.086   2.664   3.398
    1C        C  184   4.242   2.806   3.520
    1C        C  185   4.190   2.758   3.642
    1C        C  186   4.332   2.920   3.765
    1C        C  187   4.242   2.812   3.762
    1C        C  188   4.374   2.979   3.887
    1C        C  189   4.338   2.917   4.008
    1C        C  190   4.444   3.103   4.125
    1C        C  191   4.381   2.977   4.129
    1C        C  192   4.467   3.172   4.246
    1C        C  193   4.441   3.108   4.370
    1C        C  194   4.504   3.314   4.489
    1C        C  195   4.465   3.178   4.490
    1C        C  196   4.522   3.385   4.610
    1C        C  197   4.511   3.317   4.733
    1C        C  198   4.551   3.530   4.848
    1C        C  199   4.533   3.388   4.854
    1C        C  200   4.582   3.613   4.961
    1C        C  201   3.611   2.411   2.076
    1C        C  202   3.827   2.501   2.181
    1C        C  203   3.692   2.453   2.186
    1C        C  204   3.896   2.536   2.300
    1C        C  205   3.826   2.523   2.422
    1C        C  206   4.019   2.618   2.542
    1C        C  207   3.893   2.553   2.543
    1C        C  208   4.078   2.656   2.665
    1C        C  209   4.019   2.620   2.788
    1C        C  210   4.188   2.749   2.907
    1C        C  211   4.080   2.658   2.910
    1C        C  212   4.243   2.798   3.027
    1C        C  213   4.193   2.747   3.149
    1C        C  214   4.327   2.911   3.274
    1C        C  215   4.243   2.797   3.272
    1C        C  216   4.366   2.975   3.394
    1C        C  217   4.327   2.919   3.518
    1C        C  218   4.438   3.098   3.635
    1C        C  219   4.368   2.976   3.640
    1C        C  220   4.458   3.168   3.756
    1C        C  221   4.437   3.106   3.881
    1C        C  222   4.503   3.307   4.001
    1C        C  223   4.468   3.170   4.003
    1C        C  224   4.514   3.378   4.123
    1C        C  225   4.502   3.309   4.246
    1C        C  226   4.514   3.524   4.364
    1C        C  227   4.514   3.382   4.366
    1C        C  228   4.517   3.595   4.486
    1C        C  229   4.524   3.526   4.609
    1C        C  230   4.504   3.741   4.725
    1C        C  231   4.536   3.603   4.727
    1C        C  232   4.493   3.816   4.844
    1C        C  233   4.542   3.747   4.956
    1C        C  234   4.013   2.608   2.066
    1C        C  235   3.891   2.541   2.063
    1C        C  236   4.083   2.645   2.182
    1C        C  237   4.018   2.609   2.302
    1C        C  238   4.199   2.732   2.421
    1C        C  239   4.082   2.651   2.420
    1C        C  240   4.250   2.784   2.542
    1C        C  241   4.189   2.743   2.663
    1C        C  242   4.331   2.902   2.784
    1C        C  243   4.239   2.795   2.784
    1C        C  244   4.375   2.960   2.905
    1C        C  245   4.336   2.905   3.029
    1C        C  246   4.435   3.091   3.148
    1C        C  247   4.373   2.965   3.152
    1C        C  248   4.462   3.159   3.269
    1C        C  249   4.435   3.098   3.394
    1C        C  250   4.502   3.302   3.510
    1C        C  251   4.466   3.165   3.514
    1C        C  252   4.508   3.373   3.632
    1C        C  253   4.493   3.304   3.755
    1C        C  254   4.521   3.514   3.878
    1C        C  255   4.514   3.373   3.877
    1C        C  256   4.516   3.591   3.996
    1C        C  257   4.518   3.519   4.118
    1C        C  258   4.490   3.730   4.239
    1C        C  259   4.511   3.590   4.239
    1C        C  260   4.469   3.802   4.359
    1C        C  261   4.487   3.733   4.481
    1C        C  262   4.426   3.936   4.603
    1C        C  263   4.479   3.806   4.602
    1C        C  264   4.393   4.005   4.722
    1C        C  265   4.428   3.941   4.843
    1C        C  266   4.316   4.130   4.955
    1C        C  267   4.387   4.010   4.958
    1C        C  268   4.260   2.774   2.063
    1C        C  269   4.193   2.733   2.179
    1C        C  270   4.345   2.887   2.298
    1C        C  271   4.251   2.780   2.298
    1C        C  272   4.378   2.953   2.419
    1C        C  273   4.341   2.892   2.541
    1C        C  274   4.449   3.078   2.660
    1C        C  275   4.380   2.955   2.662
    1C        C  276   4.476   3.147   2.780
    1C        C  277   4.442   3.085   2.903
    1C        C  278   4.501   3.290   3.022
    1C        C  279   4.461   3.154   3.024
    1C        C  280   4.514   3.363   3.143
    1C        C  281   4.497   3.296   3.266
    1C        C  282   4.514   3.511   3.384
    1C        C  283   4.505   3.370   3.386
    1C        C  284   4.512   3.583   3.506
    1C        C  285   4.517   3.514   3.629
    1C        C  286   4.492   3.720   3.749
    1C        C  287   4.517   3.581   3.754
    1C        C  288   4.478   3.794   3.869
    1C        C  289   4.495   3.731   3.994
    1C        C  290   4.428   3.931   4.112
    1C        C  291   4.479   3.799   4.117
    1C        C  292   4.395   3.995   4.234
    1C        C  293   4.424   3.936   4.359
    1C        C  294   4.326   4.124   4.476
    1C        C  295   4.398   4.002   4.481
    1C        C  296   4.283   4.185   4.596
    1C        C  297   4.322   4.128   4.719
    1C        C  298   4.198   4.313   4.836
    1C        C  299   4.281   4.196   4.837
    1C        C  300   4.167   4.399   4.946
    1C        C  301   4.347   2.882   2.061
    1C        C  302   4.470   3.065   2.175
    1C        C  303   4.396   2.942   2.177
    1C        C  304   4.485   3.138   2.296
    1C        C  305   4.446   3.076   2.417
    1C        C  306   4.504   3.283   2.533
    1C        C  307   4.472   3.145   2.538
    1C        C  308   4.515   3.355   2.654
    1C        C  309   4.507   3.284   2.776
    1C        C  310   4.521   3.496   2.896
    1C        C  311   4.515   3.355   2.898
    1C        C  312   4.513   3.570   3.016
    1C        C  313   4.520   3.504   3.141
    1C        C  314   4.490   3.718   3.261
    1C        C  315   4.516   3.579   3.261
    1C        C  316   4.476   3.789   3.382
    1C        C  317   4.487   3.722   3.506
    1C        C  318   4.425   3.924   3.625
    1C        C  319   4.469   3.790   3.629
    1C        C  320   4.390   3.983   3.748
    1C        C  321   4.424   3.924   3.872
    1C        C  322   4.312   4.109   3.990
    1C        C  323   4.397   3.996   3.991
    1C        C  324   4.270   4.163   4.113
    1C        C  325   4.321   4.115   4.235
    1C        C  326   4.188   4.286   4.352
    1C        C  327   4.282   4.181   4.355
    1C        C  328   4.135   4.338   4.472
    1C        C  329   4.186   4.288   4.594
    1C        C  330   4.019   4.427   4.709
    1C        C  331   4.133   4.343   4.713
    1C        C  332   3.968   4.484   4.828
    1C        C  333   4.053   4.480   4.939
    1C        C  334   4.552   3.264   2.060
    1C        C  335   4.533   3.126   2.062
    1C        C  336   4.536   3.347   2.172
    1C        C  337   4.516   3.277   2.293
    1C        C  338   4.522   3.495   2.409
    1C        C  339   4.518   3.353   2.412
    1C        C  340   4.522   3.565   2.532
    1C        C  341   4.524   3.496   2.655
    1C        C  342   4.493   3.708   2.771
    1C        C  343   4.517   3.569   2.775
    1C        C  344   4.471   3.776   2.893
    1C        C  345   4.490   3.709   3.016
    1C        C  346   4.418   3.913   3.134
    1C        C  347   4.469   3.781   3.136
    1C        C  348   4.390   3.977   3.257
    1C        C  349   4.429   3.922   3.380
    1C        C  350   4.315   4.101   3.502
    1C        C  351   4.400   3.988   3.502
    1C        C  352   4.273   4.162   3.622
    1C        C  353   4.315   4.102   3.743
    1C        C  354   4.173   4.261   3.863
    1C        C  355   4.271   4.160   3.865
    1C        C  356   4.121   4.314   3.983
    1C        C  357   4.175   4.268   4.105
    1C        C  358   4.012   4.398   4.226
    1C        C  359   4.131   4.322   4.228
    1C        C  360   3.951   4.445   4.345
    1C        C  361   4.019   4.418   4.466
    1C        C  362   3.824   4.508   4.591
    1C        C  363   3.955   4.455   4.586
    1C        C  364   3.760   4.542   4.712
    1C        C  365   3.837   4.537   4.831
    1C        C  366   3.627   4.591   4.946
    1C        C  367   3.765   4.576   4.944
    1C        C  368   4.509   3.562   2.052
    1C        C  369   4.524   3.488   2.170
    1C        C  370   4.504   3.706   2.289
    1C        C  371   4.518   3.565   2.287
    1C        C  372   4.481   3.776   2.409
    1C        C  373   4.494   3.704   2.530
    1C        C  374   4.425   3.909   2.648
    1C        C  375   4.477   3.778   2.649
    1C        C  376   4.392   3.974   2.769
    1C        C  377   4.421   3.908   2.890
    1C        C  378   4.314   4.094   3.013
    1C        C  379   4.392   3.976   3.010
    1C        C  380   4.273   4.156   3.133
    1C        C  381   4.314   4.096   3.255
    1C        C  382   4.170   4.251   3.375
    1C        C  383   4.265   4.147   3.377
    1C        C  384   4.120   4.305   3.495
    1C        C  385   4.176   4.264   3.619
    1C        C  386   4.004   4.389   3.740
    1C        C  387   4.121   4.310   3.741
    1C        C  388   3.948   4.432   3.863
    1C        C  389   4.008   4.399   3.986
    1C        C  390   3.813   4.488   4.106
    1C        C  391   3.944   4.433   4.107
    1C        C  392   3.748   4.512   4.229
    1C        C  393   3.819   4.494   4.350
    1C        C  394   3.613   4.552   4.472
    1C        C  395   3.752   4.523   4.470
    1C        C  396   3.545   4.559   4.595
    1C        C  397   3.620   4.555   4.715
    1C        C  398   3.405   4.558   4.838
    1C        C  399   3.546   4.572   4.834
    1C        C  400   3.337   4.514   4.953
    1C        C  401   4.501   3.701   2.052
    1C        C  402   4.456   3.914   2.167
    1C        C  403   4.497   3.779   2.168
    1C        C  404   4.409   3.977   2.285
    1C        C  405   4.433   3.909   2.406
    1C        C  406   4.326   4.094   2.520
    1C        C  407   4.404   3.977   2.526
    1C        C  408   4.276   4.146   2.641
    1C        C  409   4.316   4.094   2.766
    1C        C  410   4.174   4.249   2.885
    1C        C  411   4.272   4.147   2.889
    1C        C  412   4.123   4.301   3.006
    1C        C  413   4.174   4.257   3.130
    1C        C  414   4.000   4.377   3.251
    1C        C  415   4.118   4.300   3.253
    1C        C  416   3.939   4.413   3.374
    1C        C  417   4.002   4.381   3.496
    1C        C  418   3.811   4.475   3.620
    1C        C  419   3.939   4.418   3.618
    1C        C  420   3.745   4.502   3.742
    1C        C  421   3.817   4.485   3.863
    1C        C  422   3.608   4.534   3.984
    1C        C  423   3.746   4.507   3.983
    1C        C  424   3.537   4.541   4.106
    1C        C  425   3.611   4.544   4.227
    1C        C  426   3.401   4.550   4.354
    1C        C  427   3.542   4.553   4.350
    1C        C  428   3.331   4.544   4.477
    1C        C  429   3.404   4.554   4.598
    1C        C  430   3.192   4.517   4.720
    1C        C  431   3.331   4.547   4.719
    1C        C  432   3.120   4.496   4.841
    1C        C  433   3.201   4.488   4.955
    1C        C  434   4.380   4.118   2.046
    1C        C  435   4.443   3.993   2.052
    1C        C  436   4.304   4.164   2.158
    1C        C  437   4.330   4.096   2.280
    1C        C  438   4.181   4.252   2.398
    1C        C  439   4.283   4.154   2.399
    1C        C  440   4.125   4.294   2.521
    1C        C  441   4.175   4.246   2.644
    1C        C  442   4.004   4.375   2.765
    1C        C  443   4.121   4.297   2.764
    1C        C  444   3.942   4.410   2.887
    1C        C  445   4.002   4.375   3.010
    1C        C  446   3.808   4.471   3.128
    1C        C  447   3.936   4.410   3.130
    1C        C  448   3.745   4.495   3.252
    1C        C  449   3.811   4.473   3.375
    1C        C  450   3.606   4.529   3.492
    1C        C  451   3.744   4.498   3.497
    1C        C  452   3.540   4.537   3.617
    1C        C  453   3.608   4.537   3.740
    1C        C  454   3.396   4.542   3.861
    1C        C  455   3.538   4.548   3.862
    1C        C  456   3.328   4.534   3.984
    1C        C  457   3.396   4.540   4.108
    1C        C  458   3.191   4.509   4.234
    1C        C  459   3.330   4.533   4.233
    1C        C  460   3.125   4.487   4.357
    1C        C  461   3.193   4.515   4.478
    1C        C  462   2.997   4.430   4.601
    1C        C  463   3.124   4.491   4.599
    1C        C  464   2.931   4.400   4.722
    1C        C  465   2.987   4.445   4.845
    1C        C  466   2.806   4.332   4.957
    1C        C  467   2.903   4.433   4.961
    1C        C  468   4.128   4.289   2.037
    1C        C  469   4.189   4.249   2.156
    1C        C  470   4.006   4.369   2.277
    1C        C  471   4.130   4.300   2.275
    1C        C  472   3.942   4.406   2.397
    1C        C  473   4.009   4.375   2.518
    1C        C  474   3.813   4.458   2.643
    1C        C  475   3.944   4.403   2.640
    1C        C  476   3.743   4.484   2.762
    1C        C  477   3.812   4.463   2.884
    1C        C  478   3.605   4.520   3.005
    1C        C  479   3.743   4.490   3.004
    1C        C  480   3.536   4.527   3.129
    1C        C  481   3.607   4.522   3.251
    1C        C  482   3.394   4.530   3.373
    1C        C  483   3.534   4.540   3.371
    1C        C  484   3.327   4.528   3.498
    1C        C  485   3.398   4.538   3.619
    1C        C  486   3.188   4.502   3.742
    1C        C  487   3.325   4.535   3.740
    1C        C  488   3.126   4.476   3.867
    1C        C  489   3.191   4.498   3.990
    1C        C  490   3.001   4.409   4.114
    1C        C  491   3.125   4.477   4.113
    1C        C  492   2.943   4.376   4.238
    1C        C  493   2.998   4.424   4.359
    1C        C  494   2.826   4.300   4.480
    1C        C  495   2.935   4.390   4.481
    1C        C  496   2.770   4.257   4.602
    1C        C  497   2.818   4.314   4.722
    1C        C  498   2.670   4.160   4.844
    1C        C  499   2.754   4.273   4.841
    1C        C  500   2.588   4.117   4.950
    1C        C  501   4.002   4.348   2.037
    1C        C  502   3.816   4.460   2.155
    1C        C  503   3.944   4.399   2.154
    1C        C  504   3.745   4.477   2.275
    1C        C  505   3.811   4.457   2.398
    1C        C  506   3.606   4.509   2.518
    1C        C  507   3.744   4.479   2.521
    1C        C  508   3.534   4.520   2.639
    1C        C  509   3.604   4.511   2.762
    1C        C  510   3.393   4.524   2.885
    1C        C  511   3.534   4.524   2.883
    1C        C  512   3.321   4.519   3.006
    1C        C  513   3.395   4.529   3.126
    1C        C  514   3.188   4.495   3.256
    1C        C  515   3.326   4.523   3.249
    1C        C  516   3.120   4.475   3.378
    1C        C  517   3.189   4.498   3.499
    1C        C  518   2.996   4.410   3.624
    1C        C  519   3.120   4.478   3.621
    1C        C  520   2.944   4.365   3.748
    1C        C  521   3.003   4.405   3.869
    1C        C  522   2.836   4.276   3.993
    1C        C  523   2.946   4.365   3.992
    1C        C  524   2.787   4.231   4.117
    1C        C  525   2.832   4.288   4.239
    1C        C  526   2.699   4.124   4.364
    1C        C  527   2.779   4.241   4.361
    1C        C  528   2.661   4.070   4.488
    1C        C  529   2.691   4.140   4.607
    1C        C  530   2.581   3.956   4.730
    1C        C  531   2.647   4.081   4.728
    1C        C  532   2.532   3.898   4.851
    1C        C  533   2.515   3.997   4.953
    1C        C  534   3.615   4.549   2.039
    1C        C  535   3.749   4.509   2.042
    1C        C  536   3.534   4.528   2.155
    1C        C  537   3.605   4.506   2.275
    1C        C  538   3.393   4.507   2.398
    1C        C  539   3.534   4.512   2.397
    1C        C  540   3.321   4.509   2.519
    1C        C  541   3.393   4.519   2.640
    1C        C  542   3.184   4.484   2.764
    1C        C  543   3.323   4.512   2.763
    1C        C  544   3.115   4.462   2.885
    1C        C  545   3.184   4.484   3.007
    1C        C  546   2.995   4.406   3.134
    1C        C  547   3.122   4.468   3.133
    1C        C  548   2.939   4.363   3.257
    1C        C  549   2.997   4.405   3.378
    1C        C  550   2.833   4.275   3.505
    1C        C  551   2.938   4.369   3.502
    1C        C  552   2.779   4.228   3.627
    1C        C  553   2.832   4.279   3.748
    1C        C  554   2.695   4.119   3.876
    1C        C  555   2.781   4.232   3.871
    1C        C  556   2.656   4.059   3.998
    1C        C  557   2.698   4.122   4.117
    1C        C  558   2.596   3.940   4.247
    1C        C  559   2.660   4.066   4.241
    1C        C  560   2.563   3.876   4.368
    1C        C  561   2.593   3.946   4.487
    1C        C  562   2.532   3.746   4.615
    1C        C  563   2.565   3.883   4.610
    1C        C  564   2.522   3.676   4.737
    1C        C  565   2.517   3.756   4.854
    1C        C  566   2.539   3.546   4.975
    1C        C  567   2.523   3.685   4.974
    1C        C  568   3.324   4.476   2.039
    1C        C  569   3.394   4.503   2.158
    1C        C  570   3.179   4.475   2.278
    1C        C  571   3.318   4.502   2.278
    1C        C  572   3.111   4.461   2.402
    1C        C  573   3.182   4.481   2.522
    1C        C  574   2.987   4.397   2.643
    1C        C  575   3.114   4.458   2.644
    1C        C  576   2.927   4.362   2.766
    1C        C  577   2.991   4.395   2.888
    1C        C  578   2.827   4.272   3.013
    1C        C  579   2.936   4.363   3.014
    1C        C  580   2.783   4.218   3.136
    1C        C  581   2.832   4.270   3.257
    1C        C  582   2.697   4.113   3.384
    1C        C  583   2.787   4.223   3.382
    1C        C  584   2.653   4.056   3.505
    1C        C  585   2.694   4.116   3.627
    1C        C  586   2.597   3.934   3.753
    1C        C  587   2.660   4.060   3.753
    1C        C  588   2.573   3.867   3.875
    1C        C  589   2.596   3.931   3.999
    1C        C  590   2.532   3.737   4.125
    1C        C  591   2.575   3.871   4.125
    1C        C  592   2.519   3.669   4.249
    1C        C  593   2.531   3.738   4.372
    1C        C  594   2.510   3.531   4.495
    1C        C  595   2.517   3.672   4.496
    1C        C  596   2.509   3.460   4.617
    1C        C  597   2.516   3.534   4.737
    1C        C  598   2.525   3.325   4.859
    1C        C  599   2.531   3.466   4.861
    1C        C  600   2.532   3.248   4.975
    1C        C  601   3.191   4.437   2.042
    1C        C  602   2.976   4.395   2.160
    1C        C  603   3.112   4.441   2.158
    1C        C  604   2.921   4.356   2.285
    1C        C  605   2.986   4.396   2.404
    1C        C  606   2.812   4.269   2.526
    1C        C  607   2.923   4.357   2.524
    1C        C  608   2.772   4.214   2.650
    1C        C  609   2.823   4.267   2.771
    1C        C  610   2.683   4.110   2.896
    1C        C  611   2.772   4.219   2.894
    1C        C  612   2.650   4.053   3.021
    1C        C  613   2.696   4.107   3.143
    1C        C  614   2.593   3.922   3.264
    1C        C  615   2.661   4.046   3.265
    1C        C  616   2.566   3.864   3.390
    1C        C  617   2.593   3.928   3.513
    1C        C  618   2.523   3.728   3.637
    1C        C  619   2.567   3.862   3.635
    1C        C  620   2.512   3.663   3.762
    1C        C  621   2.530   3.733   3.884
    1C        C  622   2.506   3.522   4.009
    1C        C  623   2.516   3.663   4.006
    1C        C  624   2.511   3.454   4.133
    1C        C  625   2.512   3.528   4.254
    1C        C  626   2.534   3.316   4.375
    1C        C  627   2.515   3.456   4.375
    1C        C  628   2.554   3.250   4.499
    1C        C  629   2.533   3.321   4.619
    1C        C  630   2.583   3.114   4.740
    1C        C  631   2.543   3.250   4.741
    1C        C  632   2.611   3.047   4.863
    1C        C  633   2.564   3.112   4.982
    1C        C  634   2.781   4.300   2.052
    1C        C  635   2.888   4.390   2.048
    1C        C  636   2.748   4.226   2.166
    1C        C  637   2.805   4.275   2.286
    1C        C  638   2.673   4.105   2.410
    1C        C  639   2.756   4.219   2.407
    1C        C  640   2.634   4.046   2.533
    1C        C  641   2.683   4.105   2.652
    1C        C  642   2.584   3.920   2.778
    1C        C  643   2.642   4.049   2.775
    1C        C  644   2.562   3.854   2.901
    1C        C  645   2.589   3.925   3.020
    1C        C  646   2.529   3.721   3.148
    1C        C  647   2.565   3.857   3.141
    1C        C  648   2.511   3.655   3.272
    1C        C  649   2.525   3.729   3.392
    1C        C  650   2.508   3.518   3.517
    1C        C  651   2.513   3.660   3.514
    1C        C  652   2.513   3.450   3.641
    1C        C  653   2.511   3.522   3.763
    1C        C  654   2.530   3.313   3.886
    1C        C  655   2.511   3.453   3.886
    1C        C  656   2.549   3.246   4.009
    1C        C  657   2.534   3.315   4.131
    1C        C  658   2.607   3.117   4.255
    1C        C  659   2.550   3.246   4.254
    1C        C  660   2.640   3.056   4.378
    1C        C  661   2.600   3.116   4.499
    1C        C  662   2.711   2.939   4.627
    1C        C  663   2.625   3.050   4.621
    1C        C  664   2.752   2.880   4.749
    1C        C  665   2.692   2.929   4.868
    1C        C  666   2.738   2.868   4.985
    1C        C  667   2.694   4.014   2.057
    1C        C  668   2.685   4.100   2.168
    1C        C  669   2.581   3.912   2.290
    1C        C  670   2.643   4.040   2.288
    1C        C  671   2.551   3.847   2.412
    1C        C  672   2.580   3.916   2.532
    1C        C  673   2.517   3.719   2.660
    1C        C  674   2.554   3.855   2.657
    1C        C  675   2.511   3.644   2.780
    1C        C  676   2.529   3.717   2.900
    1C        C  677   2.505   3.511   3.029
    1C        C  678   2.515   3.652   3.025
    1C        C  679   2.509   3.440   3.151
    1C        C  680   2.502   3.514   3.272
    1C        C  681   2.529   3.307   3.402
    1C        C  682   2.506   3.446   3.395
    1C        C  683   2.548   3.237   3.524
    1C        C  684   2.532   3.310   3.644
    1C        C  685   2.599   3.110   3.770
    1C        C  686   2.546   3.241   3.766
    1C        C  687   2.633   3.046   3.892
    1C        C  688   2.602   3.115   4.011
    1C        C  689   2.706   2.930   4.138
    1C        C  690   2.635   3.052   4.133
    1C        C  691   2.758   2.879   4.259
    1C        C  692   2.717   2.937   4.381
    1C        C  693   2.759   2.885   4.505
    1C        C  694   2.626   3.892   2.054
    1C        C  695   2.524   3.704   2.173
    1C        C  696   2.573   3.836   2.171
    1C        C  697   2.503   3.638   2.296
    1C        C  698   2.520   3.710   2.416
    1C        C  699   2.494   3.504   2.539
    1C        C  700   2.503   3.645   2.540
    1C        C  701   2.498   3.432   2.661
    1C        C  702   2.502   3.504   2.783
    1C        C  703   2.524   3.299   2.912
    1C        C  704   2.503   3.439   2.908
    1C        C  705   2.547   3.227   3.031
    1C        C  706   2.537   3.302   3.151
    1C        C  707   2.595   3.108   3.278
    1C        C  708   2.550   3.242   3.279
    1C        C  709   2.631   3.043   3.398
    1C        C  710   2.601   3.107   3.521
    1C        C  711   2.715   2.936   3.649
    1C        C  712   2.634   3.052   3.647
    1C        C  713   2.763   2.879   3.769
    1C        C  714   2.711   2.928   3.891
    1C        C  715   2.752   2.876   4.016
    1C        C  716   2.450   3.497   2.061
    1C        C  717   2.492   3.631   2.057
    1C        C  718   2.469   3.420   2.180
    1C        C  719   2.484   3.497   2.298
    1C        C  720   2.515   3.288   2.421
    1C        C  721   2.491   3.427   2.421
    1C        C  722   2.533   3.224   2.546
    1C        C  723   2.519   3.292   2.669
    1C        C  724   2.588   3.094   2.788
    1C        C  725   2.538   3.226   2.792
    1C        C  726   2.617   3.034   2.913
    1C        C  727   2.596   3.095   3.038
    1C        C  728   2.709   2.920   3.155
    1C        C  729   2.627   3.035   3.162
    1C        C  730   2.757   2.877   3.280
    1C        C  731   2.714   2.928   3.404
    1C        C  732   2.757   2.875   3.528
    1C        C  733   2.494   3.195   2.067
    1C        C  734   2.488   3.278   2.180
    1C        C  735   2.585   3.084   2.304
    1C        C  736   2.525   3.213   2.301
    1C        C  737   2.614   3.022   2.427
    1C        C  738   2.583   3.092   2.546
    1C        C  739   2.693   2.908   2.670
    1C        C  740   2.616   3.027   2.667
    1C        C  741   2.737   2.854   2.793
    1C        C  742   2.694   2.915   2.914
    1C        C  743   2.748   2.861   3.032
    1C        C  744   2.540   3.064   2.071
    1C        C  745   2.680   2.893   2.183
    1C        C  746   2.602   3.010   2.185
    1C        C  747   2.728   2.838   2.304
    1C        C  748   2.688   2.902   2.424
    1C        C  749   2.732   2.850   2.548
    1C        C  750   2.733   2.834   2.067
    1C        C  751   3.647   2.319   1.965
    1C        O  752   3.628   2.195   1.974
    1C        O  753   3.724   2.362   1.857
    1C        C  754   4.617   3.049   1.967
    1C        O  755   4.580   3.040   1.847
    1C        O  756   4.756   3.041   1.984
    1C        C  757   4.449   4.213   1.955
    1C        O  758   4.548   4.274   2.004
    1C        O  759   4.433   4.218   1.816
    1C        C  760   3.574   4.626   1.919
    1C        O  761   3.614   4.742   1.890
    1C        O  762   3.538   4.552   1.806
    1C        C  763   2.862   4.505   1.957
    1C        O  764   2.854   4.498   1.832
    1C        O  765   2.823   4.630   2.005
    1C        C  766   2.335   3.485   1.970
    1C        O  767   2.342   3.441   1.852
    1C        O  768   2.201   3.521   1.989
    1C        C  769   4.698   3.580   5.047
    1C        O  770   4.689   3.535   5.164
    1C        O  771   4.828   3.581   4.995
    1C        C  772   4.265   4.432   5.052
    1C        O  773   4.244   4.399   5.172
    1C        O  774   4.337   4.552   5.043
    1C        C  775   4.143   2.515   5.068
    1C        O  776   4.153   2.389   5.061
    1C        O  777   4.194   2.559   5.191
    1C        C  778   2.891   4.525   5.077
    1C        O  779   2.826   4.633   5.077
    1C        O  780   2.932   4.484   5.204
    1C        C  781   2.492   3.038   5.088
    1C        O  782   2.379   2.984   5.071
    1C        O  783   2.524   3.048   5.223
    1C        C  784   2.404   3.988   5.050
    1C        O  785   2.294   4.045   5.028
    1C        O  786   2.420   3.956   5.185
    1C        C  787   2.947   2.427   2.005
    1C        O  788   2.916   2.435   1.883
    1C        O  789   2.890   2.313   2.061
    1C        C  790   3.169   2.355   5.038
    1C        O  791   3.139   2.248   4.980
    1C        O  792   3.134   2.349   5.174
    1C        H  793   4.295   3.018   5.061
    1C        H  794   4.147   2.838   5.057
    1C        H  795   4.511   3.132   5.059
    1C        H  796   4.549   3.354   5.066
    1C        H  797   4.561   3.802   5.047
    1C        H  798   4.394   3.962   5.053
    1C        H  799   4.258   4.146   5.044
    1C        H  800   4.030   4.533   5.029
    1C        H  801   3.819   4.632   5.018
    1C        H  802   3.579   4.641   5.028
    1C        H  803   3.388   4.527   5.046
    1C        H  804   3.152   4.492   5.051
    1C        H  805   3.906   2.441   5.041
    1C        H  806   3.679   2.431   5.064
    1C        H  807   3.001   2.558   5.067
    1C        H  808   3.444   2.442   5.072
    1C        H  809   2.877   2.746   5.083
    1C        H  810   2.744   2.925   5.076
    1C        H  811   2.481   3.285   5.062
    1C        H  812   2.533   3.491   5.067
    1C        H  813   2.477   3.722   5.063
    1C        H  814   2.625   4.143   5.047
    1C        H  815   2.798   4.273   5.046
    1C        H  816   2.724   2.884   1.973
    1C        H  817   2.791   2.644   2.001
    1C        H  818   3.220   2.480   1.985
    1C        H  819   3.435   2.486   1.988
    1C        H  820   3.836   2.537   1.971
    1C        H  821   4.064   2.596   1.973
    1C        H  822   4.289   2.695   1.995
    1C        H  823   4.385   2.918   1.968
    1C        H  824   4.563   3.309   1.963
    1C        H  825   4.538   3.519   1.959
    1C        H  826   4.524   3.749   1.959
    1C        H  827   3.803   4.513   1.950
    1C        H  828   3.967   4.385   1.943
    1C        H  829   4.165   4.241   1.948
    1C        H  830   4.516   3.977   1.975
    1C        H  831   2.577   3.868   1.962
    1C        H  832   2.769   4.027   1.982
    1C        H  833   2.732   4.278   1.959
    1C        H  834   3.382   4.443   1.955
    1C        H  835   3.161   4.371   1.964
    1C        H  836   2.523   3.001   1.987
    1C        H  837   2.446   3.231   1.978
    1C        H  838   2.552   3.650   1.971
    2V3OU   H29  839   2.806   3.546   0.701
    2V3OU   C27  840   2.778   3.499   0.799
    2V3OU   H27  841   2.723   3.573   0.863
    2V3OU   H28  842   2.727   3.399   0.798
    2V3OU   O11  843   2.903   3.486   0.867
    2V3OU   C15  844   2.919   3.397   0.971
    2V3OU   C13  845   3.048   3.371   1.022
    2V3OU   C14  846   3.074   3.266   1.110
    2V3OU   C16  847   2.969   3.189   1.157
    2V3OU    H6  848   2.990   3.090   1.200
    2V3OU   C12  849   3.213   3.231   1.149
    2V3OU    O2  850   3.233   3.127   1.215
    2V3OU   C10  851   3.328   3.306   1.098
    2V3OU    C8  852   3.459   3.270   1.129
    2V3OU   O10  853   3.487   3.150   1.185
    2V3OU   H26  854   3.401   3.111   1.206
    2V3OU    C6  855   3.568   3.349   1.078
    2V3OU    C5  856   3.534   3.469   1.016
    2V3OU    C4  857   3.704   3.290   1.071
    2V3OU    H4  858   3.723   3.223   1.160
    2V3OU    H5  859   3.709   3.226   0.977
    2V3OU    C2  860   3.815   3.395   1.067
    2V3OU    O6  861   3.805   3.475   1.185
    2V3OU   H21  862   3.768   3.557   1.149
    2V3OU    C3  863   3.778   3.491   0.955
    2V3OU    H2  864   3.862   3.565   0.951
    2V3OU    H3  865   3.778   3.437   0.857
    2V3OU   C25  866   3.950   3.323   1.053
    2V3OU    O7  867   3.993   3.292   0.942
    2V3OU   C26  868   4.030   3.293   1.178
    2V3OU   H22  869   4.069   3.386   1.227
    2V3OU   H23  870   4.114   3.223   1.155
    2V3OU    O8  871   3.964   3.211   1.273
    2V3OU   H24  872   3.920   3.264   1.341
    2V3OU    C1  873   3.644   3.562   0.974
    2V3OU    H1  874   3.622   3.616   0.878
    2V3OU    O3  875   3.662   3.663   1.073
    2V3OU   C19  876   3.616   3.797   1.048
    2V3OU    H9  877   3.523   3.809   0.985
    2V3OU    O4  878   3.716   3.848   0.963
    2V3OU   C20  879   3.844   3.873   1.020
    2V3OU   H10  880   3.899   3.777   1.043
    2V3OU   C24  881   3.608   3.855   1.190
    2V3OU   H16  882   3.541   3.792   1.254
    2V3OU   H17  883   3.562   3.957   1.193
    2V3OU   C23  884   3.747   3.875   1.249
    2V3OU   H15  885   3.788   3.772   1.272
    2V3OU    N1  886   3.734   3.950   1.373
    2V3OU   H19  887   3.808   3.920   1.433
    2V3OU   H20  888   3.646   3.930   1.416
    2V3OU   C21  889   3.849   3.946   1.155
    2V3OU   H11  890   3.957   3.924   1.182
    2V3OU    O5  891   3.832   4.087   1.159
    2V3OU   H18  892   3.780   4.105   1.239
    2V3OU   C22  893   3.913   3.946   0.906
    2V3OU   H12  894   3.857   4.042   0.888
    2V3OU   H13  895   3.901   3.889   0.811
    2V3OU   H14  896   4.022   3.959   0.930
    2V3OU   C11  897   3.157   3.469   1.006
    2V3OU    O1  898   3.128   3.589   0.986
    2V3OU    C9  899   3.297   3.428   1.032
    2V3OU    C7  900   3.400   3.511   0.992
    2V3OU    O9  901   3.384   3.622   0.911
    2V3OU   H25  902   3.290   3.625   0.885
    2V3OU   C17  903   2.815   3.316   1.021
    2V3OU    H7  904   2.710   3.339   1.005
    2V3OU   C18  905   2.840   3.214   1.112
    2V3OU    H8  906   2.752   3.153   1.141
    3SOL     OW  907   0.841   4.671   1.068
    3SOL    HW1  908   0.749   4.636   1.087
    3SOL    HW2  909   0.853   4.759   1.113
    4SOL     OW  910   6.293   1.698   2.180
    4SOL    HW1  911   6.312   1.782   2.230
    4SOL    HW2  912   6.302   1.716   2.082
    5SOL     OW  913   3.649   2.982   1.000
    5SOL    HW1  914   3.563   2.952   0.958
    5SOL    HW2  915   3.647   3.081   1.012
    6SOL     OW  916   3.214   2.255   0.226
    6SOL    HW1  917   3.138   2.201   0.262
    6SOL    HW2  918   3.293   2.195   0.214
    7SOL     OW  919   5.809   0.980   1.902
    7SOL    HW1  920   5.758   0.923   1.837
    7SOL    HW2  921   5.745   1.036   1.955
    8SOL     OW  922   3.070   2.003   3.315
    8SOL    HW1  923   3.089   2.096   3.285
    8SOL    HW2  924   2.980   2.000   3.358
    9SOL     OW  925   6.316   4.132   6.669
    9SOL    HW1  926   6.230   4.176   6.695
    9SOL    HW2  927   6.362   4.097   6.750
   10SOL     OW  928   0.191   4.401   1.843
   10SOL    HW1  929   0.168   4.462   1.919
   10SOL    HW2  930   0.177   4.448   1.756
   11SOL     OW  931   3.880   6.799   6.911
   11SOL    HW1  932   3.962   6.755   6.949
   11SOL    HW2  933   3.824   6.730   6.864
   12SOL     OW  934   5.547   6.802   2.428
   12SOL    HW1  935   5.593   6.808   2.339
   12SOL    HW2  936   5.448   6.810   2.414
   13SOL     OW  937   2.285   6.790   2.575
   13SOL    HW1  938   2.383   6.797   2.555
   13SOL    HW2  939   2.234   6.850   2.513
   14SOL     OW  940   2.711   0.226   3.241
   14SOL    HW1  941   2.791   0.233   3.301
   14SOL    HW2  942   2.676   0.318   3.222
   15SOL     OW  943   2.745   6.854   6.003
   15SOL    HW1  944   2.663   6.900   6.037
   15SOL    HW2  945   2.760   6.771   6.057
   16SOL     OW  946   6.378   2.177   0.655
   16SOL    HW1  947   6.388   2.248   0.725
   16SOL    HW2  948   6.314   2.209   0.584
   17SOL     OW  949   4.237   5.213   3.623
   17SOL    HW1  950   4.186   5.249   3.545
   17SOL    HW2  951   4.307   5.280   3.651
   18SOL     OW  952   1.583   0.493   6.984
   18SOL    HW1  953   1.652   0.474   0.033
   18SOL    HW2  954   1.503   0.536   0.006
   19SOL     OW  955   0.561   6.588   0.938
   19SOL    HW1  956   0.507   6.625   1.014
   19SOL    HW2  957   0.528   6.628   0.852
   20SOL     OW  958   3.402   0.206   4.444
   20SOL    HW1  959   3.455   0.121   4.436
   20SOL    HW2  960   3.451   0.280   4.399
   21SOL     OW  961   2.775   2.802   1.345
   21SOL    HW1  962   2.721   2.729   1.385
   21SOL    HW2  963   2.871   2.790   1.369
   22SOL     OW  964   1.696   0.872   5.479
   22SOL    HW1  965   1.673   0.806   5.550
   22SOL    HW2  966   1.795   0.875   5.467
   23SOL     OW  967   2.606   6.559   4.557
   23SOL    HW1  968   2.627   6.468   4.592
   23SOL    HW2  969   2.687   6.597   4.512
   24SOL     OW  970   4.906   1.532   4.894
   24SOL    HW1  971   4.857   1.619   4.896
   24SOL    HW2  972   4.902   1.494   4.802
   25SOL     OW  973   2.567   6.101   0.918
   25SOL    HW1  974   2.505   6.126   0.844
   25SOL    HW2  975   2.537   6.145   1.003
   26SOL     OW  976   5.988   1.102   2.870
   26SOL    HW1  977   5.958   1.090   2.964
   26SOL    HW2  978   6.073   1.155   2.868
   27SOL     OW  979   5.911   7.006   2.620
   27SOL    HW1  980   5.903   0.085   2.629
   27SOL    HW2  981   5.979   6.984   2.549
   28SOL     OW  982   2.881   1.126   0.165
   28SOL    HW1  983   2.846   1.039   0.201
   28SOL    HW2  984   2.877   1.196   0.236
   29SOL     OW  985   4.777   2.964   1.702
   29SOL    HW1  986   4.722   2.994   1.780
   29SOL    HW2  987   4.862   2.923   1.734
   30SOL     OW  988   4.086   1.363   6.194
   30SOL    HW1  989   4.041   1.341   6.280
   30SOL    HW2  990   4.125   1.279   6.155
   31SOL     OW  991   0.877   1.851   5.433
   31SOL    HW1  992   0.959   1.819   5.385
   31SOL    HW2  993   0.797   1.834   5.376
   32SOL     OW  994   6.585   1.834   2.130
   32SOL    HW1  995   6.544   1.916   2.088
   32SOL    HW2  996   6.610   1.769   2.058
   33SOL     OW  997   1.487   1.182   4.957
   33SOL    HW1  998   1.450   1.264   4.999
   33SOL    HW2  999   1.587   1.189   4.950
   34SOL     OW 1000   0.710   0.619   5.008
   34SOL    HW1 1001   0.633   0.555   5.005
   34SOL    HW2 1002   0.796   0.569   5.003
   35SOL     OW 1003   4.667   2.607   6.260
   35SOL    HW1 1004   4.750   2.661   6.273
   35SOL    HW2 1005   4.676   2.519   6.306
   36SOL     OW 1006   0.871   2.701   6.015
   36SOL    HW1 1007   0.774   2.677   6.014
   36SOL    HW2 1008   0.881   2.799   5.994
   37SOL     OW 1009   3.304   6.665   1.840
   37SOL    HW1 1010   3.294   6.731   1.915
   37SOL    HW2 1011   3.245   6.586   1.856
   38SOL     OW 1012   6.625   5.803   1.687
   38SOL    HW1 1013   6.529   5.774   1.687
   38SOL    HW2 1014   6.631   5.900   1.664
   39SOL     OW 1015   6.933   2.448   6.390
   39SOL    HW1 1016   6.917   2.427   6.293
   39SOL    HW2 1017   0.011   2.460   6.405
   40SOL     OW 1018   0.194   1.641   1.848
   40SOL    HW1 1019   0.160   1.631   1.754
   40SOL    HW2 1020   0.163   1.563   1.903
   41SOL     OW 1021   0.736   1.419   6.234
   41SOL    HW1 1022   0.755   1.508   6.192
   41SOL    HW2 1023   0.804   1.401   6.305
   42SOL     OW 1024   3.847   6.804   0.564
   42SOL    HW1 1025   3.921   6.756   0.611
   42SOL    HW2 1026   3.879   6.894   0.535
   43SOL     OW 1027   4.545   5.539   5.425
   43SOL    HW1 1028   4.507   5.510   5.337
   43SOL    HW2 1029   4.506   5.628   5.451
   44SOL     OW 1030   0.908   4.417   6.696
   44SOL    HW1 1031   0.815   4.443   6.723
   44SOL    HW2 1032   0.949   4.493   6.644
   45SOL     OW 1033   2.701   6.980   1.050
   45SOL    HW1 1034   2.679   6.890   1.088
   45SOL    HW2 1035   2.725   6.969   0.953
   46SOL     OW 1036   0.540   5.612   3.810
   46SOL    HW1 1037   0.566   5.537   3.872
   46SOL    HW2 1038   0.581   5.596   3.720
   47SOL     OW 1039   6.743   4.345   2.659
   47SOL    HW1 1040   6.752   4.416   2.589
   47SOL    HW2 1041   6.787   4.261   2.628
   48SOL     OW 1042   0.612   1.603   5.355
   48SOL    HW1 1043   0.688   1.582   5.294
   48SOL    HW2 1044   0.596   1.702   5.356
   49SOL     OW 1045   5.550   3.333   0.026
   49SOL    HW1 1046   5.565   3.255   6.986
   49SOL    HW2 1047   5.613   3.328   0.104
   50SOL     OW 1048   0.730   4.112   4.550
   50SOL    HW1 1049   0.751   4.162   4.633
   50SOL    HW2 1050   0.788   4.031   4.544
   51SOL     OW 1051   3.028   6.046   2.004
   51SOL    HW1 1052   3.019   5.951   1.973
   51SOL    HW2 1053   2.946   6.098   1.980
   52SOL     OW 1054   0.495   2.302   2.261
   52SOL    HW1 1055   0.563   2.276   2.192
   52SOL    HW2 1056   0.505   2.400   2.282
   53SOL     OW 1057   4.652   6.747   3.954
   53SOL    HW1 1058   4.650   6.842   3.925
   53SOL    HW2 1059   4.590   6.734   4.031
   54SOL     OW 1060   4.429   4.721   5.566
   54SOL    HW1 1061   4.490   4.799   5.555
   54SOL    HW2 1062   4.421   4.672   5.479
   55SOL     OW 1063   4.046   2.339   1.370
   55SOL    HW1 1064   4.126   2.304   1.322
   55SOL    HW2 1065   4.075   2.399   1.445
   56SOL     OW 1066   0.316   0.677   2.175
   56SOL    HW1 1067   0.252   0.677   2.098
   56SOL    HW2 1068   0.397   0.731   2.151
   57SOL     OW 1069   5.227   0.613   7.019
   57SOL    HW1 1070   5.167   0.686   6.987
   57SOL    HW2 1071   5.322   0.640   7.005
   58SOL     OW 1072   6.896   0.463   6.963
   58SOL    HW1 1073   6.988   0.503   6.969
   58SOL    HW2 1074   6.827   0.534   6.974
   59SOL     OW 1075   0.114   6.711   5.810
   59SOL    HW1 1076   0.019   6.712   5.780
   59SOL    HW2 1077   0.170   6.665   5.742
   60SOL     OW 1078   4.888   6.908   5.090
   60SOL    HW1 1079   4.860   6.990   5.040
   60SOL    HW2 1080   4.862   6.917   5.186
   61SOL     OW 1081   3.488   0.015   5.767
   61SOL    HW1 1082   3.468   0.035   5.671
   61SOL    HW2 1083   3.541   0.090   5.807
   62SOL     OW 1084   2.682   0.021   4.682
   62SOL    HW1 1085   2.715   6.988   4.761
   62SOL    HW2 1086   2.583   0.034   4.690
   63SOL     OW 1087   6.809   3.069   3.898
   63SOL    HW1 1088   6.834   2.974   3.881
   63SOL    HW2 1089   6.884   3.129   3.871
   64SOL     OW 1090   0.137   2.547   5.588
   64SOL    HW1 1091   0.163   2.602   5.509
   64SOL    HW2 1092   0.208   2.552   5.657
   65SOL     OW 1093   1.341   4.349   5.564
   65SOL    HW1 1094   1.375   4.283   5.498
   65SOL    HW2 1095   1.380   4.439   5.544
   66SOL     OW 1096   2.732   0.848   1.431
   66SOL    HW1 1097   2.637   0.834   1.458
   66SOL    HW2 1098   2.736   0.912   1.354
   67SOL     OW 1099   4.471   5.217   4.196
   67SOL    HW1 1100   4.384   5.180   4.228
   67SOL    HW2 1101   4.475   5.209   4.096
   68SOL     OW 1102   5.136   2.918   6.878
   68SOL    HW1 1103   5.126   2.819   6.889
   68SOL    HW2 1104   5.076   2.949   6.803
   69SOL     OW 1105   2.413   3.003   5.685
   69SOL    HW1 1106   2.368   3.019   5.597
   69SOL    HW2 1107   2.452   2.911   5.686
   70SOL     OW 1108   5.896   0.867   2.753
   70SOL    HW1 1109   5.937   0.949   2.793
   70SOL    HW2 1110   5.955   0.789   2.770
   71SOL     OW 1111   1.892   4.666   1.968
   71SOL    HW1 1112   1.922   4.662   2.064
   71SOL    HW2 1113   1.922   4.752   1.927
   72SOL     OW 1114   4.104   5.507   3.879
   72SOL    HW1 1115   4.029   5.530   3.942
   72SOL    HW2 1116   4.079   5.425   3.827
   73SOL     OW 1117   3.250   2.905   6.867
   73SOL    HW1 1118   3.230   2.861   6.955
   73SOL    HW2 1119   3.164   2.937   6.826
   74SOL     OW 1120   4.931   0.177   5.758
   74SOL    HW1 1121   4.901   0.089   5.794
   74SOL    HW2 1122   4.856   0.242   5.763
   75SOL     OW 1123   3.659   5.625   5.803
   75SOL    HW1 1124   3.758   5.614   5.814
   75SOL    HW2 1125   3.640   5.658   5.711
   76SOL     OW 1126   2.726   2.701   0.847
   76SOL    HW1 1127   2.743   2.755   0.929
   76SOL    HW2 1128   2.648   2.640   0.862
   77SOL     OW 1129   5.824   3.812   6.717
   77SOL    HW1 1130   5.886   3.845   6.646
   77SOL    HW2 1131   5.762   3.885   6.744
   78SOL     OW 1132   6.088   0.299   5.597
   78SOL    HW1 1133   6.154   0.253   5.656
   78SOL    HW2 1134   6.045   0.374   5.648
   79SOL     OW 1135   3.413   6.399   0.724
   79SOL    HW1 1136   3.510   6.381   0.707
   79SOL    HW2 1137   3.402   6.485   0.774
   80SOL     OW 1138   0.163   1.210   4.257
   80SOL    HW1 1139   0.158   1.280   4.328
   80SOL    HW2 1140   0.104   1.133   4.280
   81SOL     OW 1141   1.679   5.963   2.488
   81SOL    HW1 1142   1.588   6.005   2.493
   81SOL    HW2 1143   1.735   6.013   2.422
   82SOL     OW 1144   6.493   4.157   5.902
   82SOL    HW1 1145   6.582   4.169   5.858
   82SOL    HW2 1146   6.468   4.061   5.900
   83SOL     OW 1147   5.717   6.927   5.652
   83SOL    HW1 1148   5.756   6.858   5.591
   83SOL    HW2 1149   5.678   7.001   5.597
   84SOL     OW 1150   6.659   3.301   2.040
   84SOL    HW1 1151   6.701   3.247   1.967
   84SOL    HW2 1152   6.609   3.378   2.001
   85SOL     OW 1153   1.088   1.381   5.032
   85SOL    HW1 1154   1.104   1.320   4.955
   85SOL    HW2 1155   1.156   1.362   5.104
   86SOL     OW 1156   2.098   0.776   4.624
   86SOL    HW1 1157   2.166   0.794   4.553
   86SOL    HW2 1158   2.068   0.863   4.664
   87SOL     OW 1159   4.544   6.890   2.148
   87SOL    HW1 1160   4.504   6.885   2.239
   87SOL    HW2 1161   4.545   6.799   2.107
   88SOL     OW 1162   6.040   0.769   1.565
   88SOL    HW1 1163   5.963   0.786   1.504
   88SOL    HW2 1164   6.023   0.687   1.620
   89SOL     OW 1165   2.091   1.890   5.272
   89SOL    HW1 1166   2.044   1.801   5.272
   89SOL    HW2 1167   2.158   1.891   5.198
   90SOL     OW 1168   5.837   5.930   3.717
   90SOL    HW1 1169   5.747   5.947   3.676
   90SOL    HW2 1170   5.908   5.939   3.647
   91SOL     OW 1171   4.995   5.029   4.337
   91SOL    HW1 1172   4.939   5.098   4.383
   91SOL    HW2 1173   4.962   4.938   4.362
   92SOL     OW 1174   3.790   5.672   1.168
   92SOL    HW1 1175   3.691   5.686   1.161
   92SOL    HW2 1176   3.836   5.723   1.096
   93SOL     OW 1177   2.932   5.044   5.927
   93SOL    HW1 1178   3.005   5.060   5.993
   93SOL    HW2 1179   2.889   4.955   5.945
   94SOL     OW 1180   1.891   6.556   2.222
   94SOL    HW1 1181   1.794   6.559   2.247
   94SOL    HW2 1182   1.913   6.466   2.185
   95SOL     OW 1183   0.053   6.913   4.183
   95SOL    HW1 1184   0.044   7.009   4.212
   95SOL    HW2 1185   0.007   6.854   4.250
   96SOL     OW 1186   1.737   6.388   4.400
   96SOL    HW1 1187   1.813   6.372   4.464
   96SOL    HW2 1188   1.742   6.481   4.364
   97SOL     OW 1189   6.378   2.664   4.080
   97SOL    HW1 1190   6.368   2.610   3.997
   97SOL    HW2 1191   6.446   2.622   4.139
   98SOL     OW 1192   4.629   0.964   5.428
   98SOL    HW1 1193   4.562   1.025   5.385
   98SOL    HW2 1194   4.674   0.909   5.357
   99SOL     OW 1195   4.561   0.923   0.752
   99SOL    HW1 1196   4.630   0.874   0.805
   99SOL    HW2 1197   4.477   0.930   0.806
  100SOL     OW 1198   6.593   5.768   0.560
  100SOL    HW1 1199   6.580   5.732   0.467
  100SOL    HW2 1200   6.632   5.696   0.617
  101SOL     OW 1201   1.605   6.834   3.821
  101SOL    HW1 1202   1.561   6.883   3.745
  101SOL    HW2 1203   1.648   6.901   3.883
  102SOL     OW 1204   4.627   0.539   2.712
  102SOL    HW1 1205   4.720   0.518   2.681
  102SOL    HW2 1206   4.602   0.630   2.680
  103SOL     OW 1207   4.236   1.448   2.623
  103SOL    HW1 1208   4.158   1.508   2.641
  103SOL    HW2 1209   4.276   1.418   2.709
  104SOL     OW 1210   5.990   6.208   2.274
  104SOL    HW1 1211   6.022   6.160   2.356
  104SOL    HW2 1212   6.063   6.265   2.238
  105SOL     OW 1213   5.616   1.247   5.943
  105SOL    HW1 1214   5.668   1.241   6.029
  105SOL    HW2 1215   5.632   1.165   5.889
  106SOL     OW 1216   3.606   6.786   1.007
  106SOL    HW1 1217   3.634   6.730   1.085
  106SOL    HW2 1218   3.602   6.882   1.035
  107SOL     OW 1219   2.835   3.682   0.018
  107SOL    HW1 1220   2.873   3.774   0.033
  107SOL    HW2 1221   2.844   3.628   0.101
  108SOL     OW 1222   4.574   4.058   5.335
  108SOL    HW1 1223   4.596   4.144   5.380
  108SOL    HW2 1224   4.476   4.055   5.316
  109SOL     OW 1225   5.881   0.875   2.172
  109SOL    HW1 1226   5.802   0.833   2.218
  109SOL    HW2 1227   5.855   0.899   2.078
  110SOL     OW 1228   3.517   6.578   4.321
  110SOL    HW1 1229   3.497   6.515   4.247
  110SOL    HW2 1230   3.607   6.558   4.360
  111SOL     OW 1231   3.153   1.177   3.285
  111SOL    HW1 1232   3.140   1.206   3.190
  111SOL    HW2 1233   3.159   1.077   3.288
  112SOL     OW 1234   7.016   1.713   6.697
  112SOL    HW1 1235   0.006   1.648   6.622
  112SOL    HW2 1236   6.923   1.752   6.695
  113SOL     OW 1237   6.646   6.591   3.967
  113SOL    HW1 1238   6.567   6.530   3.955
  113SOL    HW2 1239   6.730   6.538   3.966
  114SOL     OW 1240   1.568   6.273   0.494
  114SOL    HW1 1241   1.488   6.318   0.534
  114SOL    HW2 1242   1.546   6.178   0.471
  115SOL     OW 1243   5.381   1.127   5.554
  115SOL    HW1 1244   5.336   1.060   5.496
  115SOL    HW2 1245   5.337   1.128   5.644
  116SOL     OW 1246   6.333   3.985   3.040
  116SOL    HW1 1247   6.354   4.080   3.017
  116SOL    HW2 1248   6.352   3.927   2.961
  117SOL     OW 1249   0.863   6.694   6.195
  117SOL    HW1 1250   0.794   6.720   6.127
  117SOL    HW2 1251   0.919   6.774   6.218
  118SOL     OW 1252   2.475   1.322   3.440
  118SOL    HW1 1253   2.521   1.377   3.510
  118SOL    HW2 1254   2.387   1.291   3.476
  119SOL     OW 1255   6.424   2.304   6.385
  119SOL    HW1 1256   6.393   2.240   6.455
  119SOL    HW2 1257   6.458   2.387   6.428
  120SOL     OW 1258   4.395   6.003   1.603
  120SOL    HW1 1259   4.474   6.063   1.591
  120SOL    HW2 1260   4.357   5.981   1.513
  121SOL     OW 1261   2.620   3.069   6.057
  121SOL    HW1 1262   2.713   3.035   6.073
  121SOL    HW2 1263   2.555   3.013   6.108
  122SOL     OW 1264   1.116   3.200   4.863
  122SOL    HW1 1265   1.095   3.138   4.788
  122SOL    HW2 1266   1.203   3.246   4.844
  123SOL     OW 1267   6.512   1.395   1.894
  123SOL    HW1 1268   6.429   1.343   1.875
  123SOL    HW2 1269   6.590   1.333   1.901
  124SOL     OW 1270   5.207   3.743   1.241
  124SOL    HW1 1271   5.235   3.650   1.216
  124SOL    HW2 1272   5.247   3.767   1.330
  125SOL     OW 1273   2.633   3.488   1.502
  125SOL    HW1 1274   2.604   3.574   1.545
  125SOL    HW2 1275   2.583   3.412   1.543
  126SOL     OW 1276   3.793   4.505   0.396
  126SOL    HW1 1277   3.873   4.449   0.418
  126SOL    HW2 1278   3.807   4.598   0.429
  127SOL     OW 1279   0.599   5.909   5.849
  127SOL    HW1 1280   0.633   5.820   5.819
  127SOL    HW2 1281   0.542   5.949   5.777
  128SOL     OW 1282   4.856   2.192   0.418
  128SOL    HW1 1283   4.764   2.188   0.380
  128SOL    HW2 1284   4.917   2.240   0.354
  129SOL     OW 1285   2.723   3.791   6.760
  129SOL    HW1 1286   2.658   3.784   6.685
  129SOL    HW2 1287   2.809   3.829   6.726
  130SOL     OW 1288   1.654   2.085   4.817
  130SOL    HW1 1289   1.557   2.079   4.790
  130SOL    HW2 1290   1.692   1.992   4.823
  131SOL     OW 1291   6.119   1.437   2.539
  131SOL    HW1 1292   6.074   1.471   2.456
  131SOL    HW2 1293   6.202   1.388   2.514
  132SOL     OW 1294   1.002   1.905   1.923
  132SOL    HW1 1295   0.963   1.989   1.960
  132SOL    HW2 1296   1.002   1.834   1.994
  133SOL     OW 1297   6.956   5.730   2.978
  133SOL    HW1 1298   6.941   5.806   3.041
  133SOL    HW2 1299   6.925   5.755   2.887
  134SOL     OW 1300   1.325   3.628   3.057
  134SOL    HW1 1301   1.353   3.535   3.034
  134SOL    HW2 1302   1.390   3.693   3.017
  135SOL     OW 1303   4.498   0.875   4.440
  135SOL    HW1 1304   4.432   0.850   4.369
  135SOL    HW2 1305   4.590   0.880   4.400
  136SOL     OW 1306   4.905   4.490   6.173
  136SOL    HW1 1307   4.891   4.588   6.160
  136SOL    HW2 1308   4.894   4.468   6.270
  137SOL     OW 1309   4.168   0.849   5.428
  137SOL    HW1 1310   4.092   0.820   5.370
  137SOL    HW2 1311   4.222   0.919   5.380
  138SOL     OW 1312   5.688   4.543   5.391
  138SOL    HW1 1313   5.683   4.586   5.302
  138SOL    HW2 1314   5.600   4.554   5.438
  139SOL     OW 1315   3.510   5.882   5.507
  139SOL    HW1 1316   3.496   5.912   5.413
  139SOL    HW2 1317   3.425   5.840   5.541
  140SOL     OW 1318   6.632   4.128   4.574
  140SOL    HW1 1319   6.564   4.157   4.507
  140SOL    HW2 1320   6.656   4.206   4.632
  141SOL     OW 1321   1.528   2.174   2.629
  141SOL    HW1 1322   1.539   2.263   2.586
  141SOL    HW2 1323   1.589   2.167   2.708
  142SOL     OW 1324   1.107   5.028   1.298
  142SOL    HW1 1325   1.181   5.025   1.231
  142SOL    HW2 1326   1.082   5.123   1.316
  143SOL     OW 1327   5.135   4.440   1.951
  143SOL    HW1 1328   5.131   4.462   1.854
  143SOL    HW2 1329   5.071   4.367   1.972
  144SOL     OW 1330   3.121   6.698   0.658
  144SOL    HW1 1331   3.107   6.601   0.639
  144SOL    HW2 1332   3.108   6.715   0.755
  145SOL     OW 1333   6.286   5.405   0.732
  145SOL    HW1 1334   6.278   5.493   0.778
  145SOL    HW2 1335   6.383   5.384   0.716
  146SOL     OW 1336   0.314   4.344   0.617
  146SOL    HW1 1337   0.353   4.261   0.578
  146SOL    HW2 1338   0.224   4.361   0.577
  147SOL     OW 1339   5.763   2.519   0.761
  147SOL    HW1 1340   5.667   2.495   0.774
  147SOL    HW2 1341   5.794   2.575   0.838
  148SOL     OW 1342   0.736   5.645   5.229
  148SOL    HW1 1343   0.660   5.591   5.192
  148SOL    HW2 1344   0.822   5.598   5.212
  149SOL     OW 1345   3.116   0.719   6.400
  149SOL    HW1 1346   3.039   0.740   6.460
  149SOL    HW2 1347   3.176   0.799   6.392
  150SOL     OW 1348   7.001   5.883   5.180
  150SOL    HW1 1349   7.014   5.784   5.181
  150SOL    HW2 1350   6.915   5.906   5.225
  151SOL     OW 1351   4.696   0.380   2.099
  151SOL    HW1 1352   4.613   0.434   2.116
  151SOL    HW2 1353   4.671   0.294   2.054
  152SOL     OW 1354   2.839   0.754   4.526
  152SOL    HW1 1355   2.811   0.762   4.622
  152SOL    HW2 1356   2.852   0.845   4.487
  153SOL     OW 1357   0.932   0.224   2.457
  153SOL    HW1 1358   0.837   0.195   2.461
  153SOL    HW2 1359   0.966   0.244   2.549
  154SOL     OW 1360   0.568   1.569   3.059
  154SOL    HW1 1361   0.629   1.639   3.096
  154SOL    HW2 1362   0.501   1.612   2.997
  155SOL     OW 1363   1.049   1.309   3.476
  155SOL    HW1 1364   1.011   1.221   3.505
  155SOL    HW2 1365   1.062   1.368   3.556
  156SOL     OW 1366   0.039   2.444   1.301
  156SOL    HW1 1367   7.014   2.524   1.340
  156SOL    HW2 1368   0.068   2.382   1.374
  157SOL     OW 1369   0.356   2.293   2.518
  157SOL    HW1 1370   0.398   2.271   2.431
  157SOL    HW2 1371   0.257   2.275   2.513
  158SOL     OW 1372   2.235   1.203   3.525
  158SOL    HW1 1373   2.252   1.106   3.541
  158SOL    HW2 1374   2.261   1.256   3.605
  159SOL     OW 1375   5.220   3.723   1.723
  159SOL    HW1 1376   5.135   3.686   1.686
  159SOL    HW2 1377   5.275   3.648   1.761
  160SOL     OW 1378   6.386   4.651   6.515
  160SOL    HW1 1379   6.338   4.674   6.430
  160SOL    HW2 1380   6.429   4.561   6.506
  161SOL     OW 1381   2.792   4.396   5.413
  161SOL    HW1 1382   2.839   4.434   5.334
  161SOL    HW2 1383   2.854   4.339   5.466
  162SOL     OW 1384   4.507   5.691   2.547
  162SOL    HW1 1385   4.597   5.674   2.588
  162SOL    HW2 1386   4.516   5.760   2.475
  163SOL     OW 1387   5.905   0.327   1.418
  163SOL    HW1 1388   5.862   0.362   1.335
  163SOL    HW2 1389   6.002   0.352   1.418
  164SOL     OW 1390   6.112   3.283   1.782
  164SOL    HW1 1391   6.187   3.276   1.847
  164SOL    HW2 1392   6.026   3.264   1.829
  165SOL     OW 1393   6.390   3.362   0.059
  165SOL    HW1 1394   6.314   3.298   0.068
  165SOL    HW2 1395   6.470   3.327   0.107
  166SOL     OW 1396   1.531   0.014   0.753
  166SOL    HW1 1397   1.454   6.970   0.757
  166SOL    HW2 1398   1.535   0.055   0.661
  167SOL     OW 1399   6.588   2.563   1.559
  167SOL    HW1 1400   6.506   2.534   1.607
  167SOL    HW2 1401   6.665   2.568   1.623
  168SOL     OW 1402   2.233   5.167   1.407
  168SOL    HW1 1403   2.288   5.104   1.463
  168SOL    HW2 1404   2.173   5.221   1.466
  169SOL     OW 1405   0.734   0.192   1.219
  169SOL    HW1 1406   0.748   0.207   1.317
  169SOL    HW2 1407   0.790   0.115   1.188
  170SOL     OW 1408   0.332   1.627   3.881
  170SOL    HW1 1409   0.395   1.696   3.847
  170SOL    HW2 1410   0.240   1.644   3.845
  171SOL     OW 1411   3.300   3.899   0.823
  171SOL    HW1 1412   3.279   3.888   0.920
  171SOL    HW2 1413   3.386   3.853   0.802
  172SOL     OW 1414   0.218   3.098   1.988
  172SOL    HW1 1415   0.304   3.139   1.957
  172SOL    HW2 1416   0.172   3.160   2.051
  173SOL     OW 1417   6.706   6.924   5.656
  173SOL    HW1 1418   6.758   6.958   5.578
  173SOL    HW2 1419   6.614   6.963   5.653
  174SOL     OW 1420   2.356   5.894   3.514
  174SOL    HW1 1421   2.334   5.984   3.552
  174SOL    HW2 1422   2.439   5.859   3.557
  175SOL     OW 1423   0.367   4.895   3.794
  175SOL    HW1 1424   0.451   4.943   3.817
  175SOL    HW2 1425   0.347   4.907   3.697
  176SOL     OW 1426   2.729   6.023   7.013
  176SOL    HW1 1427   2.755   6.003   6.919
  176SOL    HW2 1428   2.639   5.983   0.012
  177SOL     OW 1429   4.651   1.270   2.617
  177SOL    HW1 1430   4.555   1.248   2.634
  177SOL    HW2 1431   4.705   1.246   2.698
  178SOL     OW 1432   5.525   3.965   6.235
  178SOL    HW1 1433   5.609   3.921   6.203
  178SOL    HW2 1434   5.461   3.895   6.265
  179SOL     OW 1435   3.387   6.725   0.128
  179SOL    HW1 1436   3.475   6.762   0.156
  179SOL    HW2 1437   3.338   6.692   0.209
  180SOL     OW 1438   0.858   2.276   0.022
  180SOL    HW1 1439   0.954   2.295   0.044
  180SOL    HW2 1440   0.850   2.180   7.013
  181SOL     OW 1441   2.975   3.500   4.283
  181SOL    HW1 1442   3.044   3.553   4.233
  181SOL    HW2 1443   2.910   3.462   4.218
  182SOL     OW 1444   5.550   2.328   4.998
  182SOL    HW1 1445   5.546   2.402   4.932
  182SOL    HW2 1446   5.458   2.299   5.023
  183SOL     OW 1447   6.495   1.390   2.996
  183SOL    HW1 1448   6.507   1.468   3.059
  183SOL    HW2 1449   6.412   1.403   2.942
  184SOL     OW 1450   0.086   4.661   2.449
  184SOL    HW1 1451   0.118   4.568   2.430
  184SOL    HW2 1452   0.140   4.699   2.524
  185SOL     OW 1453   3.223   3.412   6.150
  185SOL    HW1 1454   3.222   3.338   6.083
  185SOL    HW2 1455   3.273   3.491   6.112
  186SOL     OW 1456   6.271   6.723   3.348
  186SOL    HW1 1457   6.354   6.749   3.300
  186SOL    HW2 1458   6.273   6.762   3.441
  187SOL     OW 1459   5.642   0.121   4.076
  187SOL    HW1 1460   5.565   0.185   4.071
  187SOL    HW2 1461   5.727   0.171   4.090
  188SOL     OW 1462   5.938   2.398   4.819
  188SOL    HW1 1463   5.879   2.439   4.889
  188SOL    HW2 1464   6.027   2.444   4.820
  189SOL     OW 1465   2.042   4.722   3.440
  189SOL    HW1 1466   2.126   4.735   3.493
  189SOL    HW2 1467   1.972   4.680   3.497
  190SOL     OW 1468   3.482   1.187   0.124
  190SOL    HW1 1469   3.488   1.115   0.055
  190SOL    HW2 1470   3.556   1.176   0.191
  191SOL     OW 1471   5.231   5.861   6.273
  191SOL    HW1 1472   5.307   5.919   6.300
  191SOL    HW2 1473   5.179   5.905   6.200
  192SOL     OW 1474   6.762   0.845   6.641
  192SOL    HW1 1475   6.841   0.811   6.590
  192SOL    HW2 1476   6.714   0.768   6.683
  193SOL     OW 1477   6.083   4.044   0.096
  193SOL    HW1 1478   6.013   3.973   0.092
  193SOL    HW2 1479   6.173   4.003   0.084
  194SOL     OW 1480   4.113   0.159   4.745
  194SOL    HW1 1481   4.065   0.156   4.657
  194SOL    HW2 1482   4.212   0.147   4.729
  195SOL     OW 1483   0.315   5.670   3.412
  195SOL    HW1 1484   0.331   5.598   3.345
  195SOL    HW2 1485   0.316   5.631   3.504
  196SOL     OW 1486   0.514   1.124   0.960
  196SOL    HW1 1487   0.471   1.072   1.034
  196SOL    HW2 1488   0.560   1.061   0.898
  197SOL     OW 1489   2.180   1.066   0.721
  197SOL    HW1 1490   2.232   0.983   0.741
  197SOL    HW2 1491   2.084   1.041   0.703
  198SOL     OW 1492   3.021   1.545   5.172
  198SOL    HW1 1493   3.056   1.479   5.239
  198SOL    HW2 1494   3.036   1.638   5.207
  199SOL     OW 1495   2.233   1.140   4.476
  199SOL    HW1 1496   2.160   1.111   4.413
  199SOL    HW2 1497   2.193   1.190   4.553
  200SOL     OW 1498   6.180   2.224   0.461
  200SOL    HW1 1499   6.098   2.271   0.496
  200SOL    HW2 1500   6.187   2.238   0.363
  201SOL     OW 1501   0.442   1.867   5.995
  201SOL    HW1 1502   0.459   1.797   5.926
  201SOL    HW2 1503   0.448   1.826   6.086
  202SOL     OW 1504   5.538   6.930   0.285
  202SOL    HW1 1505   5.461   6.940   0.222
  202SOL    HW2 1506   5.540   7.009   0.347
  203SOL     OW 1507   6.588   3.923   0.099
  203SOL    HW1 1508   6.648   3.854   0.140
  203SOL    HW2 1509   6.613   3.936   0.003
  204SOL     OW 1510   6.476   0.787   4.967
  204SOL    HW1 1511   6.474   0.858   4.896
  204SOL    HW2 1512   6.571   0.760   4.984
  205SOL     OW 1513   2.229   4.804   3.630
  205SOL    HW1 1514   2.324   4.823   3.653
  205SOL    HW2 1515   2.190   4.742   3.698
  206SOL     OW 1516   0.911   4.182   1.117
  206SOL    HW1 1517   0.882   4.256   1.056
  206SOL    HW2 1518   0.838   4.162   1.183
  207SOL     OW 1519   6.969   2.785   4.162
  207SOL    HW1 1520   6.963   2.791   4.062
  207SOL    HW2 1521   0.017   2.850   4.196
  208SOL     OW 1522   1.171   3.053   5.072
  208SOL    HW1 1523   1.189   3.114   4.995
  208SOL    HW2 1524   1.256   3.037   5.122
  209SOL     OW 1525   6.064   3.796   2.180
  209SOL    HW1 1526   6.106   3.706   2.191
  209SOL    HW2 1527   6.065   3.845   2.267
  210SOL     OW 1528   4.809   3.912   1.103
  210SOL    HW1 1529   4.830   3.815   1.118
  210SOL    HW2 1530   4.825   3.935   1.007
  211SOL     OW 1531   1.841   1.181   1.809
  211SOL    HW1 1532   1.805   1.228   1.889
  211SOL    HW2 1533   1.768   1.129   1.765
  212SOL     OW 1534   2.044   4.421   1.742
  212SOL    HW1 1535   1.958   4.409   1.792
  212SOL    HW2 1536   2.120   4.419   1.807
  213SOL     OW 1537   1.129   5.556   0.928
  213SOL    HW1 1538   1.199   5.538   0.997
  213SOL    HW2 1539   1.107   5.654   0.929
  214SOL     OW 1540   5.987   6.411   2.507
  214SOL    HW1 1541   6.055   6.480   2.531
  214SOL    HW2 1542   6.034   6.330   2.470
  215SOL     OW 1543   2.496   4.652   2.603
  215SOL    HW1 1544   2.489   4.689   2.695
  215SOL    HW2 1545   2.454   4.716   2.538
  216SOL     OW 1546   1.702   6.044   2.852
  216SOL    HW1 1547   1.751   6.000   2.928
  216SOL    HW2 1548   1.619   5.992   2.831
  217SOL     OW 1549   6.865   4.592   4.926
  217SOL    HW1 1550   6.933   4.529   4.965
  217SOL    HW2 1551   6.911   4.659   4.868
  218SOL     OW 1552   3.089   2.348   5.765
  218SOL    HW1 1553   3.052   2.293   5.690
  218SOL    HW2 1554   3.189   2.345   5.762
  219SOL     OW 1555   5.212   2.082   1.504
  219SOL    HW1 1556   5.278   2.021   1.461
  219SOL    HW2 1557   5.120   2.054   1.480
  220SOL     OW 1558   2.301   6.594   0.397
  220SOL    HW1 1559   2.225   6.532   0.379
  220SOL    HW2 1560   2.290   6.678   0.344
  221SOL     OW 1561   4.826   4.687   2.165
  221SOL    HW1 1562   4.774   4.605   2.138
  221SOL    HW2 1563   4.913   4.689   2.116
  222SOL     OW 1564   1.393   4.268   6.484
  222SOL    HW1 1565   1.400   4.305   6.392
  222SOL    HW2 1566   1.300   4.234   6.500
  223SOL     OW 1567   6.522   2.069   5.187
  223SOL    HW1 1568   6.607   2.033   5.227
  223SOL    HW2 1569   6.451   1.999   5.191
  224SOL     OW 1570   3.428   2.751   5.752
  224SOL    HW1 1571   3.350   2.688   5.741
  224SOL    HW2 1572   3.487   2.745   5.671
  225SOL     OW 1573   4.312   6.096   6.101
  225SOL    HW1 1574   4.399   6.142   6.080
  225SOL    HW2 1575   4.270   6.139   6.180
  226SOL     OW 1576   1.813   2.610   0.112
  226SOL    HW1 1577   1.782   2.576   0.201
  226SOL    HW2 1578   1.833   2.708   0.119
  227SOL     OW 1579   1.662   3.755   1.237
  227SOL    HW1 1580   1.679   3.720   1.145
  227SOL    HW2 1581   1.682   3.684   1.304
  228SOL     OW 1582   0.758   0.515   2.408
  228SOL    HW1 1583   0.795   0.491   2.318
  228SOL    HW2 1584   0.818   0.479   2.479
  229SOL     OW 1585   4.226   0.773   6.152
  229SOL    HW1 1586   4.218   0.793   6.250
  229SOL    HW2 1587   4.160   0.830   6.102
  230SOL     OW 1588   5.594   3.736   5.777
  230SOL    HW1 1589   5.602   3.784   5.690
  230SOL    HW2 1590   5.674   3.756   5.833
  231SOL     OW 1591   4.954   1.529   0.417
  231SOL    HW1 1592   5.039   1.565   0.379
  231SOL    HW2 1593   4.966   1.514   0.515
  232SOL     OW 1594   1.135   2.779   5.082
  232SOL    HW1 1595   1.117   2.867   5.040
  232SOL    HW2 1596   1.111   2.783   5.179
  233SOL     OW 1597   3.710   1.734   3.512
  233SOL    HW1 1598   3.670   1.741   3.421
  233SOL    HW2 1599   3.638   1.744   3.581
  234SOL     OW 1600   5.369   6.547   0.348
  234SOL    HW1 1601   5.416   6.547   0.260
  234SOL    HW2 1602   5.316   6.631   0.358
  235SOL     OW 1603   5.192   3.461   2.423
  235SOL    HW1 1604   5.097   3.465   2.391
  235SOL    HW2 1605   5.237   3.548   2.405
  236SOL     OW 1606   3.699   3.185   5.872
  236SOL    HW1 1607   3.709   3.118   5.798
  236SOL    HW2 1608   3.783   3.238   5.880
  237SOL     OW 1609   6.119   3.455   3.067
  237SOL    HW1 1610   6.214   3.429   3.085
  237SOL    HW2 1611   6.106   3.552   3.088
  238SOL     OW 1612   6.388   1.935   0.174
  238SOL    HW1 1613   6.307   1.897   0.218
  238SOL    HW2 1614   6.387   1.913   0.077
  239SOL     OW 1615   2.065   3.163   0.424
  239SOL    HW1 1616   2.035   3.079   0.469
  239SOL    HW2 1617   1.995   3.192   0.359
  240SOL     OW 1618   5.335   3.466   4.278
  240SOL    HW1 1619   5.245   3.434   4.248
  240SOL    HW2 1620   5.393   3.387   4.297
  241SOL     OW 1621   2.028   2.667   3.834
  241SOL    HW1 1622   2.049   2.717   3.918
  241SOL    HW2 1623   1.946   2.611   3.848
  242SOL     OW 1624   3.847   3.499   2.065
  242SOL    HW1 1625   3.917   3.567   2.085
  242SOL    HW2 1626   3.854   3.423   2.129
  243SOL     OW 1627   4.267   3.211   6.493
  243SOL    HW1 1628   4.213   3.157   6.557
  243SOL    HW2 1629   4.348   3.247   6.539
  244SOL     OW 1630   4.944   3.448   4.790
  244SOL    HW1 1631   4.980   3.370   4.841
  244SOL    HW2 1632   4.905   3.514   4.853
  245SOL     OW 1633   3.273   0.947   3.059
  245SOL    HW1 1634   3.284   0.860   3.011
  245SOL    HW2 1635   3.271   1.022   2.992
  246SOL     OW 1636   6.970   1.425   2.346
  246SOL    HW1 1637   6.887   1.458   2.303
  246SOL    HW2 1638   6.996   1.486   2.422
  247SOL     OW 1639   2.599   0.866   2.146
  247SOL    HW1 1640   2.558   0.874   2.237
  247SOL    HW2 1641   2.531   0.831   2.082
  248SOL     OW 1642   3.290   3.707   1.357
  248SOL    HW1 1643   3.235   3.754   1.425
  248SOL    HW2 1644   3.266   3.610   1.354
  249SOL     OW 1645   4.862   6.308   5.576
  249SOL    HW1 1646   4.857   6.323   5.477
  249SOL    HW2 1647   4.933   6.366   5.615
  250SOL     OW 1648   4.387   2.284   0.267
  250SOL    HW1 1649   4.402   2.271   0.169
  250SOL    HW2 1650   4.321   2.359   0.280
  251SOL     OW 1651   4.559   5.228   4.967
  251SOL    HW1 1652   4.514   5.153   5.016
  251SOL    HW2 1653   4.575   5.201   4.872
  252SOL     OW 1654   6.423   6.127   5.263
  252SOL    HW1 1655   6.449   6.038   5.225
  252SOL    HW2 1656   6.434   6.125   5.362
  253SOL     OW 1657   4.463   5.985   5.789
  253SOL    HW1 1658   4.493   5.910   5.848
  253SOL    HW2 1659   4.543   6.025   5.743
  254SOL     OW 1660   6.450   2.544   5.372
  254SOL    HW1 1661   6.390   2.599   5.430
  254SOL    HW2 1662   6.537   2.530   5.418
  255SOL     OW 1663   1.661   4.838   6.437
  255SOL    HW1 1664   1.666   4.815   6.534
  255SOL    HW2 1665   1.616   4.764   6.387
  256SOL     OW 1666   4.836   2.295   5.309
  256SOL    HW1 1667   4.801   2.349   5.232
  256SOL    HW2 1668   4.829   2.348   5.393
  257SOL     OW 1669   5.103   6.575   2.229
  257SOL    HW1 1670   5.147   6.492   2.261
  257SOL    HW2 1671   5.003   6.565   2.234
  258SOL     OW 1672   2.081   3.248   6.311
  258SOL    HW1 1673   2.060   3.151   6.325
  258SOL    HW2 1674   2.110   3.263   6.217
  259SOL     OW 1675   3.247   0.836   4.262
  259SOL    HW1 1676   3.212   0.899   4.192
  259SOL    HW2 1677   3.245   0.742   4.226
  260SOL     OW 1678   3.612   5.830   3.374
  260SOL    HW1 1679   3.687   5.813   3.309
  260SOL    HW2 1680   3.585   5.926   3.369
  261SOL     OW 1681   3.813   4.646   6.841
  261SOL    HW1 1682   3.876   4.718   6.812
  261SOL    HW2 1683   3.839   4.615   6.933
  262SOL     OW 1684   0.892   3.574   6.267
  262SOL    HW1 1685   0.932   3.484   6.280
  262SOL    HW2 1686   0.937   3.620   6.190
  263SOL     OW 1687   2.148   0.285   3.695
  263SOL    HW1 1688   2.122   0.332   3.779
  263SOL    HW2 1689   2.211   0.211   3.717
  264SOL     OW 1690   6.406   2.992   6.148
  264SOL    HW1 1691   6.409   2.992   6.248
  264SOL    HW2 1692   6.348   2.917   6.117
  265SOL     OW 1693   0.179   7.011   3.109
  265SOL    HW1 1694   0.239   6.993   3.188
  265SOL    HW2 1695   0.111   6.938   3.103
  266SOL     OW 1696   3.788   0.506   5.942
  266SOL    HW1 1697   3.837   0.484   6.027
  266SOL    HW2 1698   3.696   0.537   5.964
  267SOL     OW 1699   2.434   0.099   2.483
  267SOL    HW1 1700   2.340   0.070   2.465
  267SOL    HW2 1701   2.497   0.026   2.456
  268SOL     OW 1702   4.304   2.291   0.621
  268SOL    HW1 1703   4.379   2.275   0.685
  268SOL    HW2 1704   4.304   2.387   0.593
  269SOL     OW 1705   5.373   1.933   6.982
  269SOL    HW1 1706   5.456   1.941   6.927
  269SOL    HW2 1707   5.296   1.972   6.932
  270SOL     OW 1708   5.245   1.476   0.424
  270SOL    HW1 1709   5.251   1.406   0.495
  270SOL    HW2 1710   5.220   1.434   0.337
  271SOL     OW 1711   6.985   4.895   5.722
  271SOL    HW1 1712   6.989   4.903   5.822
  271SOL    HW2 1713   0.004   4.808   5.693
  272SOL     OW 1714   3.236   5.897   3.019
  272SOL    HW1 1715   3.138   5.893   3.041
  272SOL    HW2 1716   3.287   5.927   3.099
  273SOL     OW 1717   1.394   5.528   6.306
  273SOL    HW1 1718   1.472   5.546   6.246
  273SOL    HW2 1719   1.389   5.599   6.376
  274SOL     OW 1720   4.567   2.011   3.706
  274SOL    HW1 1721   4.620   1.955   3.642
  274SOL    HW2 1722   4.615   2.097   3.723
  275SOL     OW 1723   5.490   0.824   1.139
  275SOL    HW1 1724   5.486   0.761   1.062
  275SOL    HW2 1725   5.586   0.836   1.167
  276SOL     OW 1726   0.354   6.970   4.211
  276SOL    HW1 1727   0.275   6.975   4.150
  276SOL    HW2 1728   0.422   6.907   4.173
  277SOL     OW 1729   2.415   4.651   1.094
  277SOL    HW1 1730   2.508   4.668   1.062
  277SOL    HW2 1731   2.390   4.719   1.163
  278SOL     OW 1732   0.833   2.626   3.685
  278SOL    HW1 1733   0.751   2.570   3.679
  278SOL    HW2 1734   0.819   2.701   3.749
  279SOL     OW 1735   6.092   1.633   3.483
  279SOL    HW1 1736   6.137   1.610   3.397
  279SOL    HW2 1737   6.147   1.601   3.559
  280SOL     OW 1738   1.882   5.371   2.466
  280SOL    HW1 1739   1.836   5.417   2.390
  280SOL    HW2 1740   1.893   5.436   2.542
  281SOL     OW 1741   2.554   4.158   1.181
  281SOL    HW1 1742   2.479   4.115   1.231
  281SOL    HW2 1743   2.525   4.247   1.147
  282SOL     OW 1744   1.757   1.188   5.007
  282SOL    HW1 1745   1.811   1.167   5.088
  282SOL    HW2 1746   1.754   1.287   4.993
  283SOL     OW 1747   2.917   2.734   6.774
  283SOL    HW1 1748   2.966   2.810   6.730
  283SOL    HW2 1749   2.879   2.674   6.703
  284SOL     OW 1750   0.690   4.074   3.819
  284SOL    HW1 1751   0.727   4.025   3.898
  284SOL    HW2 1752   0.752   4.149   3.794
  285SOL     OW 1753   5.103   3.806   4.055
  285SOL    HW1 1754   5.088   3.868   3.978
  285SOL    HW2 1755   5.015   3.777   4.092
  286SOL     OW 1756   2.654   3.977   1.022
  286SOL    HW1 1757   2.692   4.043   0.957
  286SOL    HW2 1758   2.596   4.025   1.087
  287SOL     OW 1759   0.978   3.155   7.004
  287SOL    HW1 1760   0.958   3.106   6.920
  287SOL    HW2 1761   0.895   3.160   0.040
  288SOL     OW 1762   5.400   3.016   1.781
  288SOL    HW1 1763   5.325   3.052   1.725
  288SOL    HW2 1764   5.479   3.077   1.776
  289SOL     OW 1765   3.767   5.839   6.868
  289SOL    HW1 1766   3.800   5.907   6.934
  289SOL    HW2 1767   3.738   5.886   6.784
  290SOL     OW 1768   1.832   0.926   4.930
  290SOL    HW1 1769   1.827   0.846   4.989
  290SOL    HW2 1770   1.805   1.007   4.981
  291SOL     OW 1771   6.967   1.246   3.032
  291SOL    HW1 1772   6.987   1.165   2.976
  291SOL    HW2 1773   0.014   1.317   3.011
  292SOL     OW 1774   3.499   6.695   3.902
  292SOL    HW1 1775   3.421   6.755   3.922
  292SOL    HW2 1776   3.566   6.703   3.977
  293SOL     OW 1777   3.541   5.199   3.175
  293SOL    HW1 1778   3.598   5.143   3.115
  293SOL    HW2 1779   3.482   5.257   3.119
  294SOL     OW 1780   4.663   0.180   0.545
  294SOL    HW1 1781   4.610   0.204   0.464
  294SOL    HW2 1782   4.744   0.238   0.550
  295SOL     OW 1783   5.944   0.784   4.261
  295SOL    HW1 1784   5.942   0.693   4.302
  295SOL    HW2 1785   5.852   0.810   4.234
  296SOL     OW 1786   2.786   2.067   3.108
  296SOL    HW1 1787   2.745   2.034   3.023
  296SOL    HW2 1788   2.826   1.989   3.158
  297SOL     OW 1789   1.524   5.097   2.003
  297SOL    HW1 1790   1.623   5.097   1.994
  297SOL    HW2 1791   1.486   5.177   1.957
  298SOL     OW 1792   6.374   4.962   0.814
  298SOL    HW1 1793   6.378   5.059   0.790
  298SOL    HW2 1794   6.289   4.944   0.864
  299SOL     OW 1795   5.501   2.889   3.602
  299SOL    HW1 1796   5.521   2.931   3.690
  299SOL    HW2 1797   5.502   2.959   3.530
  300SOL     OW 1798   5.996   6.870   1.654
  300SOL    HW1 1799   5.974   6.831   1.565
  300SOL    HW2 1800   6.036   6.960   1.642
  301SOL     OW 1801   5.206   2.949   5.762
  301SOL    HW1 1802   5.296   2.978   5.731
  301SOL    HW2 1803   5.140   2.959   5.688
  302SOL     OW 1804   1.162   5.507   4.813
  302SOL    HW1 1805   1.119   5.427   4.854
  302SOL    HW2 1806   1.261   5.497   4.815
  303SOL     OW 1807   6.399   0.069   3.548
  303SOL    HW1 1808   6.367   6.995   3.560
  303SOL    HW2 1809   6.375   0.122   3.629
  304SOL     OW 1810   3.720   0.594   4.435
  304SOL    HW1 1811   3.758   0.604   4.526
  304SOL    HW2 1812   3.723   0.681   4.387
  305SOL     OW 1813   1.851   4.059   0.896
  305SOL    HW1 1814   1.906   4.002   0.957
  305SOL    HW2 1815   1.868   4.031   0.801
  306SOL     OW 1816   2.121   0.678   3.295
  306SOL    HW1 1817   2.118   0.777   3.277
  306SOL    HW2 1818   2.033   0.637   3.272
  307SOL     OW 1819   3.292   0.435   1.085
  307SOL    HW1 1820   3.244   0.368   1.141
  307SOL    HW2 1821   3.390   0.415   1.084
  308SOL     OW 1822   0.730   5.033   4.029
  308SOL    HW1 1823   0.687   4.948   4.059
  308SOL    HW2 1824   0.711   5.048   3.932
  309SOL     OW 1825   3.531   4.605   5.276
  309SOL    HW1 1826   3.527   4.629   5.373
  309SOL    HW2 1827   3.590   4.524   5.264
  310SOL     OW 1828   1.354   6.079   6.833
  310SOL    HW1 1829   1.397   6.169   6.829
  310SOL    HW2 1830   1.414   6.011   6.791
  311SOL     OW 1831   6.922   0.517   1.204
  311SOL    HW1 1832   6.974   0.499   1.120
  311SOL    HW2 1833   6.867   0.600   1.191
  312SOL     OW 1834   3.798   1.497   6.340
  312SOL    HW1 1835   3.721   1.533   6.392
  312SOL    HW2 1836   3.855   1.572   6.308
  313SOL     OW 1837   6.813   4.690   1.365
  313SOL    HW1 1838   6.760   4.628   1.308
  313SOL    HW2 1839   6.907   4.656   1.373
  314SOL     OW 1840   3.572   5.816   2.336
  314SOL    HW1 1841   3.549   5.724   2.304
  314SOL    HW2 1842   3.507   5.882   2.298
  315SOL     OW 1843   0.886   4.023   2.981
  315SOL    HW1 1844   0.884   3.925   3.002
  315SOL    HW2 1845   0.981   4.055   2.982
  316SOL     OW 1846   2.132   3.087   3.883
  316SOL    HW1 1847   2.142   3.050   3.791
  316SOL    HW2 1848   2.160   3.019   3.950
  317SOL     OW 1849   0.024   2.127   0.761
  317SOL    HW1 1850   0.078   2.046   0.739
  317SOL    HW2 1851   0.035   2.149   0.858
  318SOL     OW 1852   2.557   4.056   0.655
  318SOL    HW1 1853   2.467   4.101   0.654
  318SOL    HW2 1854   2.546   3.960   0.679
  319SOL     OW 1855   0.453   1.426   6.255
  319SOL    HW1 1856   0.550   1.432   6.227
  319SOL    HW2 1857   0.418   1.335   6.232
  320SOL     OW 1858   5.692   3.300   2.494
  320SOL    HW1 1859   5.778   3.318   2.447
  320SOL    HW2 1860   5.708   3.294   2.592
  321SOL     OW 1861   2.096   1.405   1.988
  321SOL    HW1 1862   2.078   1.441   1.896
  321SOL    HW2 1863   2.188   1.430   2.016
  322SOL     OW 1864   3.643   2.959   5.501
  322SOL    HW1 1865   3.725   3.014   5.516
  322SOL    HW2 1866   3.666   2.862   5.510
  323SOL     OW 1867   1.645   4.265   2.088
  323SOL    HW1 1868   1.649   4.169   2.061
  323SOL    HW2 1869   1.550   4.291   2.103
  324SOL     OW 1870   0.274   2.709   3.842
  324SOL    HW1 1871   0.353   2.716   3.903
  324SOL    HW2 1872   0.218   2.630   3.868
  325SOL     OW 1873   1.955   2.107   2.522
  325SOL    HW1 1874   1.879   2.042   2.522
  325SOL    HW2 1875   2.012   2.092   2.442
  326SOL     OW 1876   2.059   4.446   4.648
  326SOL    HW1 1877   2.158   4.430   4.652
  326SOL    HW2 1878   2.023   4.448   4.741
  327SOL     OW 1879   6.058   3.620   6.237
  327SOL    HW1 1880   5.979   3.676   6.261
  327SOL    HW2 1881   6.114   3.605   6.318
  328SOL     OW 1882   3.335   5.963   3.269
  328SOL    HW1 1883   3.286   5.906   3.336
  328SOL    HW2 1884   3.373   6.043   3.316
  329SOL     OW 1885   3.553   4.116   1.911
  329SOL    HW1 1886   3.621   4.169   1.962
  329SOL    HW2 1887   3.484   4.080   1.975
  330SOL     OW 1888   2.698   2.723   1.652
  330SOL    HW1 1889   2.790   2.695   1.679
  330SOL    HW2 1890   2.677   2.685   1.562
  331SOL     OW 1891   6.749   3.879   5.739
  331SOL    HW1 1892   6.767   3.877   5.641
  331SOL    HW2 1893   6.770   3.790   5.779
  332SOL     OW 1894   4.128   1.935   3.267
  332SOL    HW1 1895   4.120   1.910   3.171
  332SOL    HW2 1896   4.126   1.852   3.323
  333SOL     OW 1897   4.435   6.545   0.952
  333SOL    HW1 1898   4.422   6.639   0.983
  333SOL    HW2 1899   4.506   6.542   0.882
  334SOL     OW 1900   5.103   0.149   2.932
  334SOL    HW1 1901   5.119   0.054   2.958
  334SOL    HW2 1902   5.190   0.199   2.930
  335SOL     OW 1903   3.509   0.625   1.977
  335SOL    HW1 1904   3.531   0.641   2.073
  335SOL    HW2 1905   3.409   0.623   1.965
  336SOL     OW 1906   3.505   1.170   4.979
  336SOL    HW1 1907   3.588   1.217   4.951
  336SOL    HW2 1908   3.525   1.108   5.055
  337SOL     OW 1909   1.298   4.006   2.243
  337SOL    HW1 1910   1.279   4.070   2.317
  337SOL    HW2 1911   1.366   4.045   2.181
  338SOL     OW 1912   2.068   2.828   0.864
  338SOL    HW1 1913   2.034   2.850   0.955
  338SOL    HW2 1914   2.153   2.877   0.847
  339SOL     OW 1915   4.824   0.604   3.209
  339SOL    HW1 1916   4.763   0.683   3.217
  339SOL    HW2 1917   4.784   0.526   3.256
  340SOL     OW 1918   5.382   3.732   4.383
  340SOL    HW1 1919   5.366   3.656   4.320
  340SOL    HW2 1920   5.457   3.709   4.445
  341SOL     OW 1921   4.324   4.342   5.513
  341SOL    HW1 1922   4.339   4.418   5.450
  341SOL    HW2 1923   4.238   4.357   5.562
  342SOL     OW 1924   5.625   2.985   0.740
  342SOL    HW1 1925   5.671   3.018   0.658
  342SOL    HW2 1926   5.570   3.059   0.779
  343SOL     OW 1927   2.371   0.607   2.431
  343SOL    HW1 1928   2.276   0.586   2.453
  343SOL    HW2 1929   2.418   0.638   2.514
  344SOL     OW 1930   3.952   0.063   0.473
  344SOL    HW1 1931   3.930   0.124   0.398
  344SOL    HW2 1932   4.047   0.033   0.466
  345SOL     OW 1933   1.112   0.707   5.437
  345SOL    HW1 1934   1.043   0.728   5.367
  345SOL    HW2 1935   1.194   0.671   5.393
  346SOL     OW 1936   2.384   0.718   5.265
  346SOL    HW1 1937   2.459   0.659   5.235
  346SOL    HW2 1938   2.297   0.677   5.238
  347SOL     OW 1939   5.428   5.977   5.670
  347SOL    HW1 1940   5.502   5.924   5.629
  347SOL    HW2 1941   5.420   5.955   5.767
  348SOL     OW 1942   3.056   6.953   3.866
  348SOL    HW1 1943   3.042   0.006   3.800
  348SOL    HW2 1944   2.979   6.950   3.929
  349SOL     OW 1945   2.466   5.346   1.882
  349SOL    HW1 1946   2.373   5.351   1.845
  349SOL    HW2 1947   2.529   5.320   1.809
  350SOL     OW 1948   5.315   3.408   1.605
  350SOL    HW1 1949   5.350   3.411   1.698
  350SOL    HW2 1950   5.221   3.373   1.605
  351SOL     OW 1951   3.213   1.446   0.520
  351SOL    HW1 1952   3.271   1.514   0.565
  351SOL    HW2 1953   3.203   1.470   0.423
  352SOL     OW 1954   2.839   1.446   6.634
  352SOL    HW1 1955   2.743   1.451   6.605
  352SOL    HW2 1956   2.890   1.390   6.570
  353SOL     OW 1957   2.519   6.634   1.424
  353SOL    HW1 1958   2.574   6.558   1.459
  353SOL    HW2 1959   2.435   6.643   1.477
  354SOL     OW 1960   5.569   0.205   2.271
  354SOL    HW1 1961   5.517   0.168   2.347
  354SOL    HW2 1962   5.564   0.305   2.273
  355SOL     OW 1963   1.148   0.932   2.327
  355SOL    HW1 1964   1.052   0.943   2.354
  355SOL    HW2 1965   1.157   0.852   2.268
  356SOL     OW 1966   3.121   0.414   3.262
  356SOL    HW1 1967   3.052   0.371   3.321
  356SOL    HW2 1968   3.108   0.513   3.262
  357SOL     OW 1969   1.371   4.898   4.391
  357SOL    HW1 1970   1.401   4.895   4.296
  357SOL    HW2 1971   1.336   4.990   4.412
  358SOL     OW 1972   5.017   1.063   3.452
  358SOL    HW1 1973   5.078   1.138   3.430
  358SOL    HW2 1974   5.068   0.977   3.455
  359SOL     OW 1975   0.609   1.710   0.559
  359SOL    HW1 1976   0.513   1.704   0.532
  359SOL    HW2 1977   0.632   1.805   0.580
  360SOL     OW 1978   5.300   0.058   6.629
  360SOL    HW1 1979   5.275   0.010   6.713
  360SOL    HW2 1980   5.312   7.013   6.554
  361SOL     OW 1981   3.013   0.534   2.139
  361SOL    HW1 1982   2.957   0.614   2.161
  361SOL    HW2 1983   3.035   0.485   2.224
  362SOL     OW 1984   2.664   3.260   0.365
  362SOL    HW1 1985   2.599   3.335   0.351
  362SOL    HW2 1986   2.753   3.286   0.327
  363SOL     OW 1987   4.627   4.711   4.275
  363SOL    HW1 1988   4.549   4.662   4.235
  363SOL    HW2 1989   4.647   4.791   4.219
  364SOL     OW 1990   2.729   5.874   6.315
  364SOL    HW1 1991   2.655   5.810   6.297
  364SOL    HW2 1992   2.811   5.824   6.345
  365SOL     OW 1993   5.090   6.421   3.162
  365SOL    HW1 1994   5.115   6.340   3.109
  365SOL    HW2 1995   5.106   6.503   3.106
  366SOL     OW 1996   4.997   1.520   0.686
  366SOL    HW1 1997   5.047   1.448   0.735
  366SOL    HW2 1998   5.055   1.601   0.677
  367SOL     OW 1999   6.651   2.739   2.425
  367SOL    HW1 2000   6.744   2.703   2.431
  367SOL    HW2 2001   6.590   2.668   2.390
  368SOL     OW 2002   6.888   5.364   4.796
  368SOL    HW1 2003   6.878   5.366   4.696
  368SOL    HW2 2004   6.985   5.361   4.819
  369SOL     OW 2005   1.008   4.358   2.016
  369SOL    HW1 2006   0.996   4.442   1.964
  369SOL    HW2 2007   1.040   4.286   1.954
  370SOL     OW 2008   3.880   2.140   6.491
  370SOL    HW1 2009   3.910   2.045   6.482
  370SOL    HW2 2010   3.841   2.171   6.405
  371SOL     OW 2011   3.201   2.414   6.640
  371SOL    HW1 2012   3.228   2.318   6.643
  371SOL    HW2 2013   3.264   2.468   6.697
  372SOL     OW 2014   1.947   5.299   0.377
  372SOL    HW1 2015   1.862   5.272   0.422
  372SOL    HW2 2016   1.930   5.311   0.279
  373SOL     OW 2017   6.195   0.015   6.481
  373SOL    HW1 2018   6.246   0.083   6.533
  373SOL    HW2 2019   6.251   6.953   6.469
  374SOL     OW 2020   4.798   0.815   0.824
  374SOL    HW1 2021   4.882   0.866   0.811
  374SOL    HW2 2022   4.800   0.732   0.768
  375SOL     OW 2023   6.971   3.758   1.928
  375SOL    HW1 2024   6.947   3.668   1.964
  375SOL    HW2 2025   6.928   3.770   1.838
  376SOL     OW 2026   2.352   4.218   5.239
  376SOL    HW1 2027   2.436   4.257   5.277
  376SOL    HW2 2028   2.373   4.129   5.198
  377SOL     OW 2029   4.699   0.967   3.969
  377SOL    HW1 2030   4.701   0.904   3.892
  377SOL    HW2 2031   4.604   0.993   3.989
  378SOL     OW 2032   5.943   1.989   5.498
  378SOL    HW1 2033   5.898   1.983   5.409
  378SOL    HW2 2034   5.897   1.929   5.563
  379SOL     OW 2035   6.219   2.768   0.910
  379SOL    HW1 2036   6.264   2.716   0.983
  379SOL    HW2 2037   6.221   2.865   0.931
  380SOL     OW 2038   0.064   2.176   0.276
  380SOL    HW1 2039   7.010   2.134   0.328
  380SOL    HW2 2040   0.151   2.134   0.302
  381SOL     OW 2041   4.820   4.666   0.130
  381SOL    HW1 2042   4.807   4.620   0.217
  381SOL    HW2 2043   4.736   4.716   0.106
  382SOL     OW 2044   1.809   5.354   6.836
  382SOL    HW1 2045   1.865   5.331   6.756
  382SOL    HW2 2046   1.716   5.376   6.807
  383SOL     OW 2047   5.668   1.648   6.937
  383SOL    HW1 2048   5.681   1.747   6.941
  383SOL    HW2 2049   5.572   1.626   6.948
  384SOL     OW 2050   1.560   5.297   4.543
  384SOL    HW1 2051   1.626   5.277   4.471
  384SOL    HW2 2052   1.589   5.253   4.628
  385SOL     OW 2053   4.682   4.795   1.123
  385SOL    HW1 2054   4.613   4.735   1.083
  385SOL    HW2 2055   4.761   4.741   1.153
  386SOL     OW 2056   2.524   6.136   4.551
  386SOL    HW1 2057   2.545   6.197   4.627
  386SOL    HW2 2058   2.511   6.043   4.585
  387SOL     OW 2059   0.586   0.281   5.389
  387SOL    HW1 2060   0.630   0.364   5.355
  387SOL    HW2 2061   0.575   0.216   5.314
  388SOL     OW 2062   0.189   2.291   4.490
  388SOL    HW1 2063   0.155   2.251   4.405
  388SOL    HW2 2064   0.137   2.255   4.567
  389SOL     OW 2065   4.923   3.654   2.627
  389SOL    HW1 2066   4.907   3.565   2.582
  389SOL    HW2 2067   4.919   3.727   2.558
  390SOL     OW 2068   3.317   2.649   0.274
  390SOL    HW1 2069   3.319   2.588   0.354
  390SOL    HW2 2070   3.410   2.679   0.254
  391SOL     OW 2071   3.826   4.010   3.579
  391SOL    HW1 2072   3.831   3.911   3.572
  391SOL    HW2 2073   3.882   4.052   3.508
  392SOL     OW 2074   1.678   3.123   2.281
  392SOL    HW1 2075   1.665   3.218   2.307
  392SOL    HW2 2076   1.694   3.067   2.362
  393SOL     OW 2077   1.397   6.338   0.995
  393SOL    HW1 2078   1.337   6.364   0.919
  393SOL    HW2 2079   1.359   6.258   1.042
  394SOL     OW 2080   5.850   2.055   6.032
  394SOL    HW1 2081   5.946   2.031   6.015
  394SOL    HW2 2082   5.844   2.150   6.060
  395SOL     OW 2083   6.748   5.009   6.549
  395SOL    HW1 2084   6.797   5.096   6.550
  395SOL    HW2 2085   6.811   4.935   6.571
  396SOL     OW 2086   0.634   1.053   1.364
  396SOL    HW1 2087   0.698   1.117   1.323
  396SOL    HW2 2088   0.567   1.103   1.419
  397SOL     OW 2089   4.989   1.885   4.950
  397SOL    HW1 2090   5.040   1.820   5.006
  397SOL    HW2 2091   5.044   1.968   4.938
  398SOL     OW 2092   0.034   1.436   3.425
  398SOL    HW1 2093   0.014   1.348   3.382
  398SOL    HW2 2094   7.010   1.509   3.374
  399SOL     OW 2095   5.872   5.623   4.720
  399SOL    HW1 2096   5.887   5.701   4.660
  399SOL    HW2 2097   5.872   5.538   4.666
  400SOL     OW 2098   6.672   6.049   3.388
  400SOL    HW1 2099   6.729   6.116   3.341
  400SOL    HW2 2100   6.720   5.961   3.389
  401SOL     OW 2101   1.179   5.830   4.275
  401SOL    HW1 2102   1.104   5.775   4.309
  401SOL    HW2 2103   1.209   5.894   4.346
  402SOL     OW 2104   6.084   1.222   4.512
  402SOL    HW1 2105   6.011   1.288   4.492
  402SOL    HW2 2106   6.083   1.149   4.444
  403SOL     OW 2107   2.550   1.628   5.270
  403SOL    HW1 2108   2.582   1.579   5.351
  403SOL    HW2 2109   2.453   1.647   5.278
  404SOL     OW 2110   3.262   5.629   3.463
  404SOL    HW1 2111   3.322   5.699   3.424
  404SOL    HW2 2112   3.243   5.652   3.559
  405SOL     OW 2113   3.217   4.921   3.758
  405SOL    HW1 2114   3.165   4.867   3.692
  405SOL    HW2 2115   3.158   4.992   3.796
  406SOL     OW 2116   1.044   0.526   0.467
  406SOL    HW1 2117   1.124   0.571   0.428
  406SOL    HW2 2118   1.068   0.433   0.495
  407SOL     OW 2119   2.180   3.888   4.095
  407SOL    HW1 2120   2.122   3.935   4.029
  407SOL    HW2 2121   2.165   3.790   4.090
  408SOL     OW 2122   2.699   2.211   1.531
  408SOL    HW1 2123   2.618   2.252   1.573
  408SOL    HW2 2124   2.777   2.272   1.543
  409SOL     OW 2125   0.393   2.054   2.200
  409SOL    HW1 2126   0.411   2.009   2.287
  409SOL    HW2 2127   0.408   2.152   2.210
  410SOL     OW 2128   1.613   3.372   2.336
  410SOL    HW1 2129   1.611   3.407   2.243
  410SOL    HW2 2130   1.706   3.374   2.371
  411SOL     OW 2131   0.013   1.471   2.009
  411SOL    HW1 2132   6.962   1.470   1.939
  411SOL    HW2 2133   6.993   1.495   2.098
  412SOL     OW 2134   2.603   4.648   3.380
  412SOL    HW1 2135   2.634   4.640   3.285
  412SOL    HW2 2136   2.531   4.581   3.398
  413SOL     OW 2137   6.554   4.720   2.771
  413SOL    HW1 2138   6.611   4.785   2.822
  413SOL    HW2 2139   6.551   4.748   2.675
  414SOL     OW 2140   2.144   6.999   2.471
  414SOL    HW1 2141   2.134   0.021   2.381
  414SOL    HW2 2142   2.057   7.002   2.520
  415SOL     OW 2143   5.869   3.212   1.511
  415SOL    HW1 2144   5.809   3.139   1.480
  415SOL    HW2 2145   5.869   3.216   1.611
  416SOL     OW 2146   6.002   3.460   7.006
  416SOL    HW1 2147   5.984   3.556   6.981
  416SOL    HW2 2148   5.965   3.442   0.077
  417SOL     OW 2149   2.625   1.760   5.905
  417SOL    HW1 2150   2.623   1.769   5.806
  417SOL    HW2 2151   2.657   1.845   5.946
  418SOL     OW 2152   4.511   5.231   6.387
  418SOL    HW1 2153   4.507   5.241   6.288
  418SOL    HW2 2154   4.419   5.244   6.425
  419SOL     OW 2155   5.483   0.141   0.648
  419SOL    HW1 2156   5.544   0.159   0.570
  419SOL    HW2 2157   5.390   0.126   0.615
  420SOL     OW 2158   2.969   6.445   0.675
  420SOL    HW1 2159   3.002   6.400   0.591
  420SOL    HW2 2160   2.885   6.495   0.655
  421SOL     OW 2161   5.207   4.544   3.345
  421SOL    HW1 2162   5.158   4.561   3.259
  421SOL    HW2 2163   5.145   4.557   3.422
  422SOL     OW 2164   3.893   1.424   2.271
  422SOL    HW1 2165   3.931   1.488   2.204
  422SOL    HW2 2166   3.894   1.466   2.361
  423SOL     OW 2167   2.517   0.791   6.344
  423SOL    HW1 2168   2.614   0.816   6.343
  423SOL    HW2 2169   2.462   0.873   6.362
  424SOL     OW 2170   1.814   4.803   4.135
  424SOL    HW1 2171   1.839   4.805   4.039
  424SOL    HW2 2172   1.895   4.816   4.192
  425SOL     OW 2173   3.550   1.633   6.425
  425SOL    HW1 2174   3.481   1.654   6.493
  425SOL    HW2 2175   3.508   1.583   6.349
  426SOL     OW 2176   2.298   2.628   3.133
  426SOL    HW1 2177   2.232   2.602   3.062
  426SOL    HW2 2178   2.274   2.718   3.169
  427SOL     OW 2179   4.607   1.119   4.528
  427SOL    HW1 2180   4.631   1.132   4.625
  427SOL    HW2 2181   4.548   1.039   4.520
  428SOL     OW 2182   2.288   1.572   6.043
  428SOL    HW1 2183   2.276   1.499   5.975
  428SOL    HW2 2184   2.209   1.573   6.104
  429SOL     OW 2185   7.006   6.955   3.430
  429SOL    HW1 2186   0.076   6.986   3.399
  429SOL    HW2 2187   6.995   6.979   3.526
  430SOL     OW 2188   1.644   0.980   3.738
  430SOL    HW1 2189   1.717   0.937   3.792
  430SOL    HW2 2190   1.665   0.968   3.640
  431SOL     OW 2191   2.652   1.124   1.783
  431SOL    HW1 2192   2.677   1.110   1.687
  431SOL    HW2 2193   2.720   1.182   1.828
  432SOL     OW 2194   5.962   1.823   2.137
  432SOL    HW1 2195   5.877   1.855   2.095
  432SOL    HW2 2196   5.949   1.811   2.235
  433SOL     OW 2197   1.613   3.241   0.087
  433SOL    HW1 2198   1.594   3.214   0.181
  433SOL    HW2 2199   1.624   3.340   0.082
  434SOL     OW 2200   3.722   5.756   2.803
  434SOL    HW1 2201   3.798   5.822   2.807
  434SOL    HW2 2202   3.713   5.722   2.709
  435SOL     OW 2203   2.251   2.078   6.609
  435SOL    HW1 2204   2.289   2.025   6.684
  435SOL    HW2 2205   2.320   2.090   6.538
  436SOL     OW 2206   5.705   6.160   2.311
  436SOL    HW1 2207   5.790   6.213   2.314
  436SOL    HW2 2208   5.671   6.159   2.217
  437SOL     OW 2209   6.661   1.653   5.889
  437SOL    HW1 2210   6.680   1.621   5.982
  437SOL    HW2 2211   6.567   1.687   5.884
  438SOL     OW 2212   0.834   3.529   1.586
  438SOL    HW1 2213   0.890   3.513   1.667
  438SOL    HW2 2214   0.849   3.622   1.553
  439SOL     OW 2215   1.008   1.341   6.320
  439SOL    HW1 2216   1.078   1.379   6.381
  439SOL    HW2 2217   0.982   1.250   6.352
  440SOL     OW 2218   3.616   1.573   1.716
  440SOL    HW1 2219   3.559   1.598   1.638
  440SOL    HW2 2220   3.700   1.627   1.716
  441SOL     OW 2221   1.492   4.594   2.804
  441SOL    HW1 2222   1.468   4.498   2.789
  441SOL    HW2 2223   1.578   4.599   2.855
  442SOL     OW 2224   3.064   3.177   4.961
  442SOL    HW1 2225   2.999   3.252   4.972
  442SOL    HW2 2226   3.145   3.210   4.912
  443SOL     OW 2227   5.392   2.784   1.999
  443SOL    HW1 2228   5.375   2.703   1.943
  443SOL    HW2 2229   5.369   2.866   1.947
  444SOL     OW 2230   4.077   2.141   1.687
  444SOL    HW1 2231   4.026   2.227   1.691
  444SOL    HW2 2232   4.032   2.073   1.745
  445SOL     OW 2233   2.340   6.148   3.928
  445SOL    HW1 2234   2.247   6.137   3.961
  445SOL    HW2 2235   2.384   6.059   3.919
  446SOL     OW 2236   6.893   0.315   0.394
  446SOL    HW1 2237   6.952   0.309   0.314
  446SOL    HW2 2238   6.808   0.265   0.377
  447SOL     OW 2239   5.925   3.364   0.227
  447SOL    HW1 2240   5.955   3.271   0.206
  447SOL    HW2 2241   5.829   3.363   0.255
  448SOL     OW 2242   3.366   0.003   4.888
  448SOL    HW1 2243   3.399   6.979   4.805
  448SOL    HW2 2244   3.334   0.095   4.866
  449SOL     OW 2245   0.981   4.433   4.720
  449SOL    HW1 2246   1.065   4.410   4.770
  449SOL    HW2 2247   0.999   4.509   4.658
  450SOL     OW 2248   6.741   3.783   4.114
  450SOL    HW1 2249   6.737   3.776   4.015
  450SOL    HW2 2250   6.648   3.781   4.152
  451SOL     OW 2251   2.704   1.163   6.419
  451SOL    HW1 2252   2.636   1.194   6.486
  451SOL    HW2 2253   2.657   1.132   6.336
  452SOL     OW 2254   4.587   5.056   0.933
  452SOL    HW1 2255   4.638   5.141   0.942
  452SOL    HW2 2256   4.577   5.013   1.023
  453SOL     OW 2257   4.773   0.990   0.163
  453SOL    HW1 2258   4.827   1.022   0.085
  453SOL    HW2 2259   4.829   0.992   0.246
  454SOL     OW 2260   0.267   2.694   3.573
  454SOL    HW1 2261   0.272   2.703   3.673
  454SOL    HW2 2262   0.203   2.762   3.537
  455SOL     OW 2263   6.015   5.737   0.311
  455SOL    HW1 2264   5.996   5.755   0.215
  455SOL    HW2 2265   6.034   5.640   0.325
  456SOL     OW 2266   1.250   1.031   2.943
  456SOL    HW1 2267   1.291   1.070   3.025
  456SOL    HW2 2268   1.150   1.027   2.953
  457SOL     OW 2269   3.085   5.780   0.627
  457SOL    HW1 2270   3.185   5.789   0.620
  457SOL    HW2 2271   3.057   5.792   0.722
  458SOL     OW 2272   3.276   1.248   4.374
  458SOL    HW1 2273   3.186   1.281   4.402
  458SOL    HW2 2274   3.329   1.224   4.455
  459SOL     OW 2275   3.403   1.368   3.878
  459SOL    HW1 2276   3.482   1.404   3.827
  459SOL    HW2 2277   3.416   1.384   3.976
  460SOL     OW 2278   0.883   1.769   6.598
  460SOL    HW1 2279   0.945   1.755   6.521
  460SOL    HW2 2280   0.836   1.683   6.619
  461SOL     OW 2281   0.836   0.046   4.680
  461SOL    HW1 2282   0.819   6.969   4.700
  461SOL    HW2 2283   0.824   0.100   4.764
  462SOL     OW 2284   3.598   4.085   5.365
  462SOL    HW1 2285   3.566   4.023   5.293
  462SOL    HW2 2286   3.536   4.081   5.443
  463SOL     OW 2287   5.819   6.078   3.278
  463SOL    HW1 2288   5.918   6.067   3.271
  463SOL    HW2 2289   5.778   6.055   3.190
  464SOL     OW 2290   4.635   6.050   4.508
  464SOL    HW1 2291   4.725   6.037   4.465
  464SOL    HW2 2292   4.628   5.993   4.590
  465SOL     OW 2293   0.420   5.309   0.824
  465SOL    HW1 2294   0.336   5.286   0.873
  465SOL    HW2 2295   0.440   5.406   0.837
  466SOL     OW 2296   3.889   4.906   3.786
  466SOL    HW1 2297   3.859   4.849   3.863
  466SOL    HW2 2298   3.815   4.968   3.760
  467SOL     OW 2299   6.776   6.957   0.733
  467SOL    HW1 2300   6.688   6.990   0.769
  467SOL    HW2 2301   6.788   6.861   0.758
  468SOL     OW 2302   2.634   6.686   6.387
  468SOL    HW1 2303   2.669   6.660   6.297
  468SOL    HW2 2304   2.545   6.644   6.402
  469SOL     OW 2305   4.181   5.067   5.185
  469SOL    HW1 2306   4.112   4.995   5.195
  469SOL    HW2 2307   4.253   5.054   5.252
  470SOL     OW 2308   2.762   5.034   2.248
  470SOL    HW1 2309   2.735   4.980   2.169
  470SOL    HW2 2310   2.795   4.974   2.320
  471SOL     OW 2311   1.826   2.678   4.255
  471SOL    HW1 2312   1.893   2.643   4.320
  471SOL    HW2 2313   1.785   2.602   4.204
  472SOL     OW 2314   4.355   3.816   6.386
  472SOL    HW1 2315   4.339   3.896   6.328
  472SOL    HW2 2316   4.274   3.798   6.441
  473SOL     OW 2317   5.659   3.793   2.115
  473SOL    HW1 2318   5.640   3.708   2.164
  473SOL    HW2 2319   5.579   3.819   2.061
  474SOL     OW 2320   4.655   5.174   3.877
  474SOL    HW1 2321   4.734   5.133   3.921
  474SOL    HW2 2322   4.626   5.117   3.800
  475SOL     OW 2323   4.695   1.296   0.880
  475SOL    HW1 2324   4.711   1.390   0.909
  475SOL    HW2 2325   4.625   1.295   0.808
  476SOL     OW 2326   1.193   2.852   0.172
  476SOL    HW1 2327   1.269   2.896   0.219
  476SOL    HW2 2328   1.228   2.796   0.097
  477SOL     OW 2329   5.588   6.229   4.509
  477SOL    HW1 2330   5.525   6.152   4.514
  477SOL    HW2 2331   5.557   6.302   4.570
  478SOL     OW 2332   6.540   5.201   1.532
  478SOL    HW1 2333   6.560   5.106   1.555
  478SOL    HW2 2334   6.595   5.262   1.589
  479SOL     OW 2335   3.812   3.521   3.063
  479SOL    HW1 2336   3.900   3.527   3.016
  479SOL    HW2 2337   3.816   3.447   3.130
  480SOL     OW 2338   6.580   0.389   1.299
  480SOL    HW1 2339   6.621   0.329   1.230
  480SOL    HW2 2340   6.649   0.451   1.334
  481SOL     OW 2341   5.742   6.421   0.396
  481SOL    HW1 2342   5.755   6.408   0.495
  481SOL    HW2 2343   5.702   6.338   0.357
  482SOL     OW 2344   4.008   5.209   2.622
  482SOL    HW1 2345   3.940   5.216   2.549
  482SOL    HW2 2346   4.027   5.300   2.658
  483SOL     OW 2347   6.246   2.466   4.917
  483SOL    HW1 2348   6.307   2.425   4.983
  483SOL    HW2 2349   6.220   2.558   4.947
  484SOL     OW 2350   2.573   5.520   4.190
  484SOL    HW1 2351   2.642   5.463   4.144
  484SOL    HW2 2352   2.485   5.472   4.190
  485SOL     OW 2353   5.063   2.720   0.880
  485SOL    HW1 2354   5.025   2.757   0.965
  485SOL    HW2 2355   5.162   2.732   0.879
  486SOL     OW 2356   6.292   6.280   5.519
  486SOL    HW1 2357   6.237   6.342   5.462
  486SOL    HW2 2358   6.244   6.193   5.530
  487SOL     OW 2359   6.250   1.449   0.076
  487SOL    HW1 2360   6.211   1.468   7.006
  487SOL    HW2 2361   6.268   1.535   0.123
  488SOL     OW 2362   1.704   6.221   3.873
  488SOL    HW1 2363   1.724   6.248   3.779
  488SOL    HW2 2364   1.618   6.262   3.902
  489SOL     OW 2365   2.529   4.401   5.348
  489SOL    HW1 2366   2.620   4.388   5.386
  489SOL    HW2 2367   2.472   4.450   5.414
  490SOL     OW 2368   0.680   3.824   4.866
  490SOL    HW1 2369   0.716   3.914   4.842
  490SOL    HW2 2370   0.666   3.818   4.964
  491SOL     OW 2371   6.530   3.351   1.719
  491SOL    HW1 2372   6.494   3.428   1.772
  491SOL    HW2 2373   6.482   3.267   1.745
  492SOL     OW 2374   1.557   1.908   6.097
  492SOL    HW1 2375   1.612   1.960   6.031
  492SOL    HW2 2376   1.534   1.967   6.175
  493SOL     OW 2377   1.797   5.742   3.886
  493SOL    HW1 2378   1.747   5.765   3.969
  493SOL    HW2 2379   1.847   5.656   3.899
  494SOL     OW 2380   2.884   6.892   2.502
  494SOL    HW1 2381   2.951   6.826   2.466
  494SOL    HW2 2382   2.890   6.977   2.451
  495SOL     OW 2383   3.714   4.627   6.224
  495SOL    HW1 2384   3.754   4.589   6.141
  495SOL    HW2 2385   3.614   4.627   6.216
  496SOL     OW 2386   4.866   0.262   2.876
  496SOL    HW1 2387   4.949   0.210   2.895
  496SOL    HW2 2388   4.786   0.206   2.894
  497SOL     OW 2389   4.411   2.956   1.231
  497SOL    HW1 2390   4.419   2.858   1.246
  497SOL    HW2 2391   4.370   2.998   1.312
  498SOL     OW 2392   0.923   6.705   0.806
  498SOL    HW1 2393   0.835   6.697   0.759
  498SOL    HW2 2394   0.964   6.794   0.787
  499SOL     OW 2395   2.729   6.624   6.128
  499SOL    HW1 2396   2.657   6.587   6.070
  499SOL    HW2 2397   2.788   6.550   6.160
  500SOL     OW 2398   6.384   1.496   5.985
  500SOL    HW1 2399   6.480   1.516   6.005
  500SOL    HW2 2400   6.326   1.533   6.057
  501SOL     OW 2401   2.098   2.062   4.858
  501SOL    HW1 2402   2.083   2.022   4.768
  501SOL    HW2 2403   2.190   2.099   4.864
  502SOL     OW 2404   3.181   2.808   0.100
  502SOL    HW1 2405   3.229   2.753   0.167
  502SOL    HW2 2406   3.134   2.883   0.145
  503SOL     OW 2407   3.830   5.642   1.453
  503SOL    HW1 2408   3.795   5.651   1.360
  503SOL    HW2 2409   3.852   5.546   1.472
  504SOL     OW 2410   6.363   0.502   6.728
  504SOL    HW1 2411   6.385   0.420   6.674
  504SOL    HW2 2412   6.384   0.584   6.675
  505SOL     OW 2413   0.339   4.051   5.422
  505SOL    HW1 2414   0.405   4.039   5.495
  505SOL    HW2 2415   0.255   4.091   5.459
  506SOL     OW 2416   2.959   6.029   2.263
  506SOL    HW1 2417   2.987   6.017   2.168
  506SOL    HW2 2418   2.891   5.960   2.288
  507SOL     OW 2419   2.116   0.446   3.927
  507SOL    HW1 2420   2.104   0.543   3.952
  507SOL    HW2 2421   2.213   0.423   3.931
  508SOL     OW 2422   0.491   4.952   2.976
  508SOL    HW1 2423   0.569   4.924   3.032
  508SOL    HW2 2424   0.517   4.952   2.880
  509SOL     OW 2425   4.539   0.630   5.916
  509SOL    HW1 2426   4.546   0.730   5.912
  509SOL    HW2 2427   4.560   0.599   6.008
  510SOL     OW 2428   6.430   4.497   0.314
  510SOL    HW1 2429   6.401   4.573   0.255
  510SOL    HW2 2430   6.423   4.411   0.262
  511SOL     OW 2431   6.761   2.268   0.780
  511SOL    HW1 2432   6.853   2.231   0.767
  511SOL    HW2 2433   6.760   2.365   0.753
  512SOL     OW 2434   1.693   1.514   4.951
  512SOL    HW1 2435   1.762   1.586   4.946
  512SOL    HW2 2436   1.626   1.536   5.022
  513SOL     OW 2437   5.758   5.457   2.204
  513SOL    HW1 2438   5.694   5.519   2.250
  513SOL    HW2 2439   5.723   5.363   2.209
  514SOL     OW 2440   5.179   1.362   4.995
  514SOL    HW1 2441   5.179   1.445   5.049
  514SOL    HW2 2442   5.209   1.285   5.051
  515SOL     OW 2443   2.987   0.373   6.439
  515SOL    HW1 2444   3.064   0.310   6.435
  515SOL    HW2 2445   2.987   0.430   6.357
  516SOL     OW 2446   0.672   5.728   2.723
  516SOL    HW1 2447   0.709   5.685   2.641
  516SOL    HW2 2448   0.585   5.687   2.747
  517SOL     OW 2449   3.214   5.261   0.660
  517SOL    HW1 2450   3.310   5.242   0.677
  517SOL    HW2 2451   3.162   5.255   0.745
  518SOL     OW 2452   1.899   0.199   3.656
  518SOL    HW1 2453   1.843   0.213   3.574
  518SOL    HW2 2454   1.985   0.250   3.648
  519SOL     OW 2455   0.026   6.734   2.818
  519SOL    HW1 2456   0.115   6.737   2.771
  519SOL    HW2 2457   6.974   6.721   2.750
  520SOL     OW 2458   3.566   5.489   0.746
  520SOL    HW1 2459   3.603   5.430   0.674
  520SOL    HW2 2460   3.490   5.542   0.709
  521SOL     OW 2461   0.209   6.923   5.049
  521SOL    HW1 2462   0.214   6.951   5.144
  521SOL    HW2 2463   0.113   6.915   5.021
  522SOL     OW 2464   3.174   5.385   6.092
  522SOL    HW1 2465   3.144   5.348   6.180
  522SOL    HW2 2466   3.175   5.485   6.096
  523SOL     OW 2467   1.681   6.679   6.319
  523SOL    HW1 2468   1.638   6.721   6.239
  523SOL    HW2 2469   1.610   6.646   6.381
  524SOL     OW 2470   6.763   1.915   1.558
  524SOL    HW1 2471   6.712   1.831   1.540
  524SOL    HW2 2472   6.833   1.897   1.627
  525SOL     OW 2473   0.216   3.406   3.244
  525SOL    HW1 2474   0.174   3.359   3.322
  525SOL    HW2 2475   0.261   3.489   3.277
  526SOL     OW 2476   4.248   5.930   4.820
  526SOL    HW1 2477   4.278   5.889   4.734
  526SOL    HW2 2478   4.246   5.860   4.891
  527SOL     OW 2479   6.918   1.773   0.630
  527SOL    HW1 2480   6.956   1.841   0.568
  527SOL    HW2 2481   6.973   1.770   0.714
  528SOL     OW 2482   6.663   1.710   3.542
  528SOL    HW1 2483   6.652   1.646   3.466
  528SOL    HW2 2484   6.758   1.739   3.548
  529SOL     OW 2485   0.775   1.766   5.819
  529SOL    HW1 2486   0.703   1.696   5.824
  529SOL    HW2 2487   0.836   1.746   5.743
  530SOL     OW 2488   3.656   4.312   1.747
  530SOL    HW1 2489   3.627   4.224   1.782
  530SOL    HW2 2490   3.631   4.384   1.811
  531SOL     OW 2491   6.966   1.748   5.853
  531SOL    HW1 2492   6.987   1.843   5.878
  531SOL    HW2 2493   6.886   1.717   5.905
  532SOL     OW 2494   3.415   0.730   6.551
  532SOL    HW1 2495   3.422   0.658   6.481
  532SOL    HW2 2496   3.505   0.746   6.592
  533SOL     OW 2497   3.145   6.948   4.682
  533SOL    HW1 2498   3.163   6.965   4.779
  533SOL    HW2 2499   3.150   0.014   4.631
  534SOL     OW 2500   2.136   4.301   0.761
  534SOL    HW1 2501   2.144   4.320   0.859
  534SOL    HW2 2502   2.227   4.304   0.719
  535SOL     OW 2503   4.775   3.953   3.542
  535SOL    HW1 2504   4.858   3.995   3.506
  535SOL    HW2 2505   4.750   3.998   3.628
  536SOL     OW 2506   6.439   0.576   1.172
  536SOL    HW1 2507   6.353   0.607   1.212
  536SOL    HW2 2508   6.484   0.513   1.235
  537SOL     OW 2509   3.387   2.052   2.552
  537SOL    HW1 2510   3.295   2.029   2.520
  537SOL    HW2 2511   3.431   2.112   2.484
  538SOL     OW 2512   4.204   5.561   6.610
  538SOL    HW1 2513   4.142   5.551   6.688
  538SOL    HW2 2514   4.177   5.640   6.555
  539SOL     OW 2515   3.151   7.007   6.801
  539SOL    HW1 2516   3.223   0.003   6.733
  539SOL    HW2 2517   3.169   6.920   6.848
  540SOL     OW 2518   1.782   1.692   5.409
  540SOL    HW1 2519   1.741   1.778   5.382
  540SOL    HW2 2520   1.761   1.622   5.340
  541SOL     OW 2521   6.124   5.668   1.614
  541SOL    HW1 2522   6.033   5.657   1.654
  541SOL    HW2 2523   6.127   5.751   1.559
  542SOL     OW 2524   3.982   6.015   6.056
  542SOL    HW1 2525   3.930   6.100   6.044
  542SOL    HW2 2526   4.048   6.006   5.981
  543SOL     OW 2527   6.890   1.988   4.909
  543SOL    HW1 2528   6.882   1.972   5.007
  543SOL    HW2 2529   6.800   1.984   4.867
  544SOL     OW 2530   1.193   2.218   1.019
  544SOL    HW1 2531   1.251   2.192   1.096
  544SOL    HW2 2532   1.147   2.137   0.983
  545SOL     OW 2533   0.215   5.043   0.609
  545SOL    HW1 2534   0.219   5.143   0.608
  545SOL    HW2 2535   0.289   5.007   0.666
  546SOL     OW 2536   6.618   5.890   2.555
  546SOL    HW1 2537   6.654   5.981   2.576
  546SOL    HW2 2538   6.693   5.829   2.532
  547SOL     OW 2539   3.598   6.199   0.110
  547SOL    HW1 2540   3.595   6.265   0.185
  547SOL    HW2 2541   3.511   6.203   0.060
  548SOL     OW 2542   4.022   3.204   6.097
  548SOL    HW1 2543   3.942   3.170   6.145
  548SOL    HW2 2544   4.067   3.275   6.152
  549SOL     OW 2545   4.990   2.843   4.115
  549SOL    HW1 2546   5.085   2.811   4.108
  549SOL    HW2 2547   4.933   2.790   4.052
  550SOL     OW 2548   6.930   5.807   4.249
  550SOL    HW1 2549   6.937   5.887   4.190
  550SOL    HW2 2550   7.020   5.764   4.258
  551SOL     OW 2551   5.217   0.861   6.850
  551SOL    HW1 2552   5.306   0.827   6.882
  551SOL    HW2 2553   5.225   0.891   6.755
  552SOL     OW 2554   1.210   0.547   4.056
  552SOL    HW1 2555   1.263   0.617   4.008
  552SOL    HW2 2556   1.252   0.457   4.039
  553SOL     OW 2557   4.203   2.574   5.837
  553SOL    HW1 2558   4.224   2.613   5.748
  553SOL    HW2 2559   4.184   2.476   5.826
  554SOL     OW 2560   6.939   5.013   0.548
  554SOL    HW1 2561   6.891   4.931   0.514
  554SOL    HW2 2562   0.007   4.986   0.587
  555SOL     OW 2563   4.294   5.327   5.723
  555SOL    HW1 2564   4.292   5.405   5.786
  555SOL    HW2 2565   4.237   5.253   5.758
  556SOL     OW 2566   5.526   5.923   3.265
  556SOL    HW1 2567   5.583   5.990   3.311
  556SOL    HW2 2568   5.576   5.836   3.257
  557SOL     OW 2569   6.988   3.700   0.417
  557SOL    HW1 2570   6.964   3.670   0.510
  557SOL    HW2 2571   0.059   3.666   0.394
  558SOL     OW 2572   3.644   3.793   1.875
  558SOL    HW1 2573   3.607   3.739   1.950
  558SOL    HW2 2574   3.575   3.860   1.846
  559SOL     OW 2575   6.039   1.281   6.367
  559SOL    HW1 2576   6.032   1.337   6.285
  559SOL    HW2 2577   5.977   1.203   6.359
  560SOL     OW 2578   1.897   2.287   2.743
  560SOL    HW1 2579   1.974   2.291   2.806
  560SOL    HW2 2580   1.915   2.219   2.673
  561SOL     OW 2581   6.565   3.966   0.603
  561SOL    HW1 2582   6.554   3.867   0.599
  561SOL    HW2 2583   6.568   4.004   0.511
  562SOL     OW 2584   3.186   6.356   2.924
  562SOL    HW1 2585   3.201   6.435   2.983
  562SOL    HW2 2586   3.093   6.320   2.939
  563SOL     OW 2587   0.869   0.775   4.315
  563SOL    HW1 2588   0.871   0.875   4.309
  563SOL    HW2 2589   0.778   0.742   4.290
  564SOL     OW 2590   5.961   2.352   5.842
  564SOL    HW1 2591   5.982   2.324   5.748
  564SOL    HW2 2592   5.898   2.430   5.840
  565SOL     OW 2593   3.137   3.409   3.560
  565SOL    HW1 2594   3.075   3.479   3.527
  565SOL    HW2 2595   3.094   3.319   3.552
  566SOL     OW 2596   0.945   2.660   3.159
  566SOL    HW1 2597   0.989   2.571   3.151
  566SOL    HW2 2598   0.901   2.668   3.248
  567SOL     OW 2599   1.593   2.962   5.453
  567SOL    HW1 2600   1.630   2.897   5.520
  567SOL    HW2 2601   1.658   2.972   5.377
  568SOL     OW 2602   0.946   0.172   6.456
  568SOL    HW1 2603   0.969   0.265   6.486
  568SOL    HW2 2604   0.873   0.176   6.388
  569SOL     OW 2605   5.185   3.312   5.007
  569SOL    HW1 2606   5.087   3.292   5.008
  569SOL    HW2 2607   5.205   3.384   5.074
  570SOL     OW 2608   2.898   0.071   5.351
  570SOL    HW1 2609   2.906   7.009   5.295
  570SOL    HW2 2610   2.823   0.059   5.417
  571SOL     OW 2611   2.211   4.590   2.399
  571SOL    HW1 2612   2.215   4.647   2.482
  571SOL    HW2 2613   2.206   4.494   2.426
  572SOL     OW 2614   2.347   1.785   4.770
  572SOL    HW1 2615   2.361   1.689   4.793
  572SOL    HW2 2616   2.433   1.825   4.738
  573SOL     OW 2617   0.454   6.896   6.121
  573SOL    HW1 2618   0.399   6.822   6.083
  573SOL    HW2 2619   0.404   6.939   6.197
  574SOL     OW 2620   2.637   0.865   6.039
  574SOL    HW1 2621   2.551   0.816   6.020
  574SOL    HW2 2622   2.713   0.801   6.036
  575SOL     OW 2623   3.460   4.081   7.005
  575SOL    HW1 2624   3.411   4.000   0.018
  575SOL    HW2 2625   3.442   4.158   0.046
  576SOL     OW 2626   6.834   0.557   3.962
  576SOL    HW1 2627   6.794   0.640   3.999
  576SOL    HW2 2628   6.904   0.522   4.025
  577SOL     OW 2629   6.347   0.643   2.006
  577SOL    HW1 2630   6.264   0.699   1.997
  577SOL    HW2 2631   6.363   0.624   2.103
  578SOL     OW 2632   4.028   6.731   0.772
  578SOL    HW1 2633   4.116   6.779   0.772
  578SOL    HW2 2634   4.029   6.660   0.843
  579SOL     OW 2635   0.706   3.954   2.224
  579SOL    HW1 2636   0.626   3.961   2.165
  579SOL    HW2 2637   0.781   4.007   2.184
  580SOL     OW 2638   4.807   4.645   4.810
  580SOL    HW1 2639   4.779   4.734   4.845
  580SOL    HW2 2640   4.726   4.588   4.797
  581SOL     OW 2641   2.544   2.189   3.904
  581SOL    HW1 2642   2.514   2.242   3.825
  581SOL    HW2 2643   2.478   2.117   3.924
  582SOL     OW 2644   6.019   4.725   5.278
  582SOL    HW1 2645   6.017   4.645   5.338
  582SOL    HW2 2646   6.028   4.694   5.183
  583SOL     OW 2647   2.905   5.846   5.565
  583SOL    HW1 2648   2.918   5.804   5.655
  583SOL    HW2 2649   2.926   5.943   5.570
  584SOL     OW 2650   3.786   0.458   5.109
  584SOL    HW1 2651   3.785   0.549   5.068
  584SOL    HW2 2652   3.698   0.441   5.154
  585SOL     OW 2653   3.985   6.567   1.628
  585SOL    HW1 2654   3.896   6.611   1.613
  585SOL    HW2 2655   4.014   6.522   1.544
  586SOL     OW 2656   3.696   6.251   0.832
  586SOL    HW1 2657   3.709   6.230   0.929
  586SOL    HW2 2658   3.707   6.349   0.818
  587SOL     OW 2659   5.429   0.754   2.985
  587SOL    HW1 2660   5.430   0.664   3.028
  587SOL    HW2 2661   5.341   0.798   3.001
  588SOL     OW 2662   2.230   4.187   2.666
  588SOL    HW1 2663   2.302   4.236   2.714
  588SOL    HW2 2664   2.191   4.118   2.727
  589SOL     OW 2665   3.786   4.863   5.739
  589SOL    HW1 2666   3.759   4.907   5.825
  589SOL    HW2 2667   3.825   4.773   5.759
  590SOL     OW 2668   2.065   1.170   6.446
  590SOL    HW1 2669   2.016   1.206   6.367
  590SOL    HW2 2670   2.161   1.198   6.441
  591SOL     OW 2671   2.827   0.234   3.909
  591SOL    HW1 2672   2.843   0.323   3.951
  591SOL    HW2 2673   2.822   0.164   3.980
  592SOL     OW 2674   4.693   2.107   4.175
  592SOL    HW1 2675   4.603   2.126   4.135
  592SOL    HW2 2676   4.684   2.097   4.274
  593SOL     OW 2677   1.258   6.669   0.174
  593SOL    HW1 2678   1.300   6.586   0.210
  593SOL    HW2 2679   1.169   6.682   0.219
  594SOL     OW 2680   2.803   0.988   5.246
  594SOL    HW1 2681   2.802   1.074   5.297
  594SOL    HW2 2682   2.748   0.997   5.164
  595SOL     OW 2683   5.874   3.956   2.604
  595SOL    HW1 2684   5.942   4.023   2.575
  595SOL    HW2 2685   5.834   3.912   2.524
  596SOL     OW 2686   6.327   4.970   5.211
  596SOL    HW1 2687   6.366   4.954   5.121
  596SOL    HW2 2688   6.396   4.954   5.281
  597SOL     OW 2689   3.939   1.426   7.019
  597SOL    HW1 2690   3.860   1.411   6.959
  597SOL    HW2 2691   3.996   1.344   7.020
  598SOL     OW 2692   3.170   3.025   1.995
  598SOL    HW1 2693   3.164   3.100   1.928
  598SOL    HW2 2694   3.264   2.989   1.995
  599SOL     OW 2695   1.870   5.322   1.510
  599SOL    HW1 2696   1.779   5.303   1.548
  599SOL    HW2 2697   1.893   5.252   1.442
  600SOL     OW 2698   0.628   3.166   5.645
  600SOL    HW1 2699   0.713   3.132   5.685
  600SOL    HW2 2700   0.553   3.104   5.667
  601SOL     OW 2701   6.785   0.336   5.731
  601SOL    HW1 2702   6.695   0.337   5.775
  601SOL    HW2 2703   6.854   0.307   5.798
  602SOL     OW 2704   0.358   0.432   3.380
  602SOL    HW1 2705   0.263   0.423   3.352
  602SOL    HW2 2706   0.410   0.354   3.345
  603SOL     OW 2707   1.413   1.034   3.887
  603SOL    HW1 2708   1.344   1.090   3.841
  603SOL    HW2 2709   1.482   1.005   3.820
  604SOL     OW 2710   5.689   2.031   1.263
  604SOL    HW1 2711   5.770   2.034   1.203
  604SOL    HW2 2712   5.636   1.949   1.242
  605SOL     OW 2713   5.811   6.494   1.935
  605SOL    HW1 2714   5.749   6.572   1.921
  605SOL    HW2 2715   5.896   6.526   1.977
  606SOL     OW 2716   2.586   6.437   5.490
  606SOL    HW1 2717   2.515   6.374   5.521
  606SOL    HW2 2718   2.619   6.491   5.567
  607SOL     OW 2719   1.778   3.331   6.139
  607SOL    HW1 2720   1.703   3.395   6.156
  607SOL    HW2 2721   1.842   3.335   6.216
  608SOL     OW 2722   2.426   1.014   6.700
  608SOL    HW1 2723   2.423   0.923   6.743
  608SOL    HW2 2724   2.466   1.079   6.765
  609SOL     OW 2725   3.966   3.291   3.034
  609SOL    HW1 2726   3.987   3.197   3.061
  609SOL    HW2 2727   3.908   3.290   2.952
  610SOL     OW 2728   5.604   2.974   2.105
  610SOL    HW1 2729   5.607   3.024   2.191
  610SOL    HW2 2730   5.519   2.923   2.098
  611SOL     OW 2731   4.097   1.283   2.035
  611SOL    HW1 2732   4.126   1.376   2.015
  611SOL    HW2 2733   4.032   1.252   1.965
  612SOL     OW 2734   4.227   5.606   4.167
  612SOL    HW1 2735   4.233   5.698   4.131
  612SOL    HW2 2736   4.164   5.552   4.112
  613SOL     OW 2737   3.686   5.902   6.584
  613SOL    HW1 2738   3.704   5.996   6.612
  613SOL    HW2 2739   3.657   5.900   6.489
  614SOL     OW 2740   3.628   6.201   5.736
  614SOL    HW1 2741   3.583   6.290   5.745
  614SOL    HW2 2742   3.681   6.199   5.651
  615SOL     OW 2743   0.219   5.130   4.136
  615SOL    HW1 2744   0.247   5.037   4.111
  615SOL    HW2 2745   0.292   5.173   4.189
  616SOL     OW 2746   6.386   3.011   3.523
  616SOL    HW1 2747   6.362   3.009   3.426
  616SOL    HW2 2748   6.308   3.047   3.575
  617SOL     OW 2749   2.685   0.343   6.183
  617SOL    HW1 2750   2.665   0.421   6.242
  617SOL    HW2 2751   2.627   0.266   6.209
  618SOL     OW 2752   2.436   0.425   2.821
  618SOL    HW1 2753   2.466   0.495   2.756
  618SOL    HW2 2754   2.387   0.469   2.896
  619SOL     OW 2755   1.501   2.927   6.989
  619SOL    HW1 2756   1.560   2.905   0.046
  619SOL    HW2 2757   1.546   2.994   6.930
  620SOL     OW 2758   5.209   3.437   0.989
  620SOL    HW1 2759   5.131   3.480   0.944
  620SOL    HW2 2760   5.199   3.445   1.088
  621SOL     OW 2761   0.056   5.903   0.957
  621SOL    HW1 2762   7.014   5.848   1.013
  621SOL    HW2 2763   0.082   5.852   0.876
  622SOL     OW 2764   1.016   1.417   6.731
  622SOL    HW1 2765   1.102   1.404   6.682
  622SOL    HW2 2766   1.034   1.434   6.827
  623SOL     OW 2767   6.110   5.711   5.277
  623SOL    HW1 2768   6.108   5.657   5.361
  623SOL    HW2 2769   6.184   5.678   5.218
  624SOL     OW 2770   6.892   1.682   1.351
  624SOL    HW1 2771   6.794   1.687   1.370
  624SOL    HW2 2772   6.919   1.588   1.333
  625SOL     OW 2773   1.732   0.815   1.840
  625SOL    HW1 2774   1.641   0.804   1.881
  625SOL    HW2 2775   1.790   0.739   1.869
  626SOL     OW 2776   4.117   5.615   5.582
  626SOL    HW1 2777   4.052   5.641   5.510
  626SOL    HW2 2778   4.157   5.526   5.560
  627SOL     OW 2779   4.171   5.180   0.112
  627SOL    HW1 2780   4.163   5.082   0.131
  627SOL    HW2 2781   4.266   5.203   0.092
  628SOL     OW 2782   4.932   3.592   3.828
  628SOL    HW1 2783   4.942   3.590   3.927
  628SOL    HW2 2784   5.018   3.563   3.785
  629SOL     OW 2785   0.943   6.890   1.656
  629SOL    HW1 2786   0.904   6.802   1.684
  629SOL    HW2 2787   0.906   6.916   1.566
  630SOL     OW 2788   2.738   1.765   2.138
  630SOL    HW1 2789   2.786   1.717   2.065
  630SOL    HW2 2790   2.798   1.836   2.176
  631SOL     OW 2791   2.489   1.373   4.150
  631SOL    HW1 2792   2.440   1.367   4.237
  631SOL    HW2 2793   2.559   1.444   4.156
  632SOL     OW 2794   3.125   0.907   0.379
  632SOL    HW1 2795   3.128   1.005   0.395
  632SOL    HW2 2796   3.065   0.887   0.302
  633SOL     OW 2797   2.092   0.340   4.466
  633SOL    HW1 2798   2.094   0.397   4.548
  633SOL    HW2 2799   2.075   0.398   4.386
  634SOL     OW 2800   2.591   5.504   2.081
  634SOL    HW1 2801   2.650   5.452   2.142
  634SOL    HW2 2802   2.566   5.448   2.002
  635SOL     OW 2803   3.239   0.506   1.957
  635SOL    HW1 2804   3.228   0.531   1.861
  635SOL    HW2 2805   3.150   0.479   1.994
  636SOL     OW 2806   5.037   4.842   6.478
  636SOL    HW1 2807   5.107   4.770   6.485
  636SOL    HW2 2808   4.973   4.819   6.405
  637SOL     OW 2809   6.045   4.433   6.568
  637SOL    HW1 2810   6.019   4.497   6.496
  637SOL    HW2 2811   6.054   4.341   6.530
  638SOL     OW 2812   5.386   1.851   3.484
  638SOL    HW1 2813   5.479   1.887   3.488
  638SOL    HW2 2814   5.388   1.752   3.490
  639SOL     OW 2815   3.867   3.500   1.478
  639SOL    HW1 2816   3.823   3.568   1.537
  639SOL    HW2 2817   3.800   3.463   1.414
  640SOL     OW 2818   3.161   2.563   5.363
  640SOL    HW1 2819   3.165   2.495   5.289
  640SOL    HW2 2820   3.072   2.558   5.407
  641SOL     OW 2821   0.262   0.426   5.146
  641SOL    HW1 2822   0.216   0.515   5.140
  641SOL    HW2 2823   0.288   0.408   5.241
  642SOL     OW 2824   0.675   5.124   6.073
  642SOL    HW1 2825   0.584   5.117   6.114
  642SOL    HW2 2826   0.666   5.125   5.973
  643SOL     OW 2827   5.340   6.946   4.658
  643SOL    HW1 2828   5.325   6.947   4.559
  643SOL    HW2 2829   5.369   0.016   4.688
  644SOL     OW 2830   3.263   5.612   1.567
  644SOL    HW1 2831   3.338   5.668   1.603
  644SOL    HW2 2832   3.177   5.638   1.613
  645SOL     OW 2833   0.734   3.089   3.002
  645SOL    HW1 2834   0.791   3.008   2.992
  645SOL    HW2 2835   0.735   3.141   2.917
  646SOL     OW 2836   1.791   3.214   4.256
  646SOL    HW1 2837   1.871   3.248   4.206
  646SOL    HW2 2838   1.822   3.169   4.340
  647SOL     OW 2839   5.585   5.277   1.158
  647SOL    HW1 2840   5.638   5.193   1.171
  647SOL    HW2 2841   5.610   5.343   1.229
  648SOL     OW 2842   4.252   2.367   3.849
  648SOL    HW1 2843   4.169   2.333   3.893
  648SOL    HW2 2844   4.242   2.360   3.750
  649SOL     OW 2845   4.197   4.368   1.448
  649SOL    HW1 2846   4.131   4.376   1.523
  649SOL    HW2 2847   4.165   4.298   1.383
  650SOL     OW 2848   5.686   5.523   0.279
  650SOL    HW1 2849   5.696   5.488   0.372
  650SOL    HW2 2850   5.660   5.449   0.217
  651SOL     OW 2851   0.966   5.378   6.685
  651SOL    HW1 2852   0.978   5.400   6.782
  651SOL    HW2 2853   1.053   5.385   6.638
  652SOL     OW 2854   4.974   2.808   1.414
  652SOL    HW1 2855   4.926   2.894   1.430
  652SOL    HW2 2856   4.911   2.731   1.426
  653SOL     OW 2857   3.585   5.358   2.558
  653SOL    HW1 2858   3.543   5.285   2.611
  653SOL    HW2 2859   3.662   5.321   2.506
  654SOL     OW 2860   6.854   4.666   0.059
  654SOL    HW1 2861   6.942   4.625   0.034
  654SOL    HW2 2862   6.793   4.666   7.000
  655SOL     OW 2863   1.794   1.234   0.595
  655SOL    HW1 2864   1.848   1.241   0.512
  655SOL    HW2 2865   1.771   1.326   0.627
  656SOL     OW 2866   1.943   6.184   1.124
  656SOL    HW1 2867   1.878   6.108   1.114
  656SOL    HW2 2868   1.896   6.271   1.110
  657SOL     OW 2869   3.704   0.424   6.430
  657SOL    HW1 2870   3.729   0.421   6.527
  657SOL    HW2 2871   3.665   0.514   6.408
  658SOL     OW 2872   4.199   5.626   0.272
  658SOL    HW1 2873   4.143   5.688   0.328
  658SOL    HW2 2874   4.140   5.572   0.213
  659SOL     OW 2875   3.475   0.522   5.951
  659SOL    HW1 2876   3.426   0.593   5.900
  659SOL    HW2 2877   3.427   0.505   6.038
  660SOL     OW 2878   2.860   6.103   3.490
  660SOL    HW1 2879   2.921   6.062   3.557
  660SOL    HW2 2880   2.843   6.199   3.514
  661SOL     OW 2881   0.362   5.139   3.216
  661SOL    HW1 2882   0.438   5.197   3.190
  661SOL    HW2 2883   0.360   5.058   3.157
  662SOL     OW 2884   4.069   2.314   6.892
  662SOL    HW1 2885   4.039   2.314   6.987
  662SOL    HW2 2886   3.998   2.356   6.835
  663SOL     OW 2887   1.639   3.753   4.729
  663SOL    HW1 2888   1.720   3.811   4.738
  663SOL    HW2 2889   1.639   3.685   4.803
  664SOL     OW 2890   5.440   0.318   5.956
  664SOL    HW1 2891   5.473   0.282   6.043
  664SOL    HW2 2892   5.446   0.246   5.886
  665SOL     OW 2893   1.678   3.986   1.991
  665SOL    HW1 2894   1.774   3.961   1.976
  665SOL    HW2 2895   1.621   3.904   1.985
  666SOL     OW 2896   4.167   0.964   2.808
  666SOL    HW1 2897   4.110   0.902   2.861
  666SOL    HW2 2898   4.161   0.940   2.711
  667SOL     OW 2899   6.651   0.260   0.865
  667SOL    HW1 2900   6.595   0.178   0.859
  667SOL    HW2 2901   6.682   0.274   0.959
  668SOL     OW 2902   4.953   3.510   6.635
  668SOL    HW1 2903   5.007   3.426   6.627
  668SOL    HW2 2904   4.981   3.560   6.716
  669SOL     OW 2905   5.724   1.068   3.354
  669SOL    HW1 2906   5.697   1.127   3.430
  669SOL    HW2 2907   5.777   0.991   3.390
  670SOL     OW 2908   4.154   1.531   1.935
  670SOL    HW1 2909   4.214   1.607   1.911
  670SOL    HW2 2910   4.066   1.567   1.967
  671SOL     OW 2911   1.075   5.763   2.227
  671SOL    HW1 2912   1.068   5.664   2.245
  671SOL    HW2 2913   1.116   5.778   2.137
  672SOL     OW 2914   0.049   0.354   1.369
  672SOL    HW1 2915   0.063   0.394   1.460
  672SOL    HW2 2916   7.010   0.414   1.315
  673SOL     OW 2917   6.221   6.814   6.131
  673SOL    HW1 2918   6.308   6.776   6.165
  673SOL    HW2 2919   6.175   6.863   6.204
  674SOL     OW 2920   4.503   6.831   4.407
  674SOL    HW1 2921   4.586   6.786   4.439
  674SOL    HW2 2922   4.424   6.794   4.456
  675SOL     OW 2923   0.585   5.279   2.219
  675SOL    HW1 2924   0.495   5.243   2.244
  675SOL    HW2 2925   0.580   5.378   2.205
  676SOL     OW 2926   2.232   5.741   6.696
  676SOL    HW1 2927   2.152   5.704   6.649
  676SOL    HW2 2928   2.285   5.666   6.737
  677SOL     OW 2929   5.090   1.001   1.050
  677SOL    HW1 2930   5.009   0.948   1.076
  677SOL    HW2 2931   5.162   0.988   1.119
  678SOL     OW 2932   0.565   5.489   4.353
  678SOL    HW1 2933   0.649   5.495   4.407
  678SOL    HW2 2934   0.488   5.527   4.405
  679SOL     OW 2935   5.440   1.024   6.007
  679SOL    HW1 2936   5.443   0.924   6.002
  679SOL    HW2 2937   5.380   1.059   5.935
  680SOL     OW 2938   6.180   0.182   3.793
  680SOL    HW1 2939   6.271   0.142   3.807
  680SOL    HW2 2940   6.113   0.131   3.846
  681SOL     OW 2941   4.851   4.407   3.055
  681SOL    HW1 2942   4.793   4.451   3.124
  681SOL    HW2 2943   4.806   4.325   3.020
  682SOL     OW 2944   6.376   1.898   3.316
  682SOL    HW1 2945   6.399   1.852   3.402
  682SOL    HW2 2946   6.308   1.969   3.333
  683SOL     OW 2947   3.338   5.703   0.056
  683SOL    HW1 2948   3.436   5.719   0.065
  683SOL    HW2 2949   3.315   5.613   0.093
  684SOL     OW 2950   5.481   2.325   6.166
  684SOL    HW1 2951   5.420   2.250   6.141
  684SOL    HW2 2952   5.446   2.411   6.129
  685SOL     OW 2953   3.335   6.746   3.459
  685SOL    HW1 2954   3.267   6.674   3.471
  685SOL    HW2 2955   3.292   6.827   3.419
  686SOL     OW 2956   2.620   0.183   5.538
  686SOL    HW1 2957   2.527   0.190   5.573
  686SOL    HW2 2958   2.652   0.274   5.510
  687SOL     OW 2959   0.159   1.018   4.521
  687SOL    HW1 2960   0.123   1.045   4.610
  687SOL    HW2 2961   0.244   1.066   4.503
  688SOL     OW 2962   4.683   3.550   6.526
  688SOL    HW1 2963   4.728   3.599   6.452
  688SOL    HW2 2964   4.751   3.527   6.596
  689SOL     OW 2965   2.182   6.036   0.074
  689SOL    HW1 2966   2.211   6.017   7.001
  689SOL    HW2 2967   2.252   6.004   0.138
  690SOL     OW 2968   5.783   3.593   3.857
  690SOL    HW1 2969   5.861   3.605   3.795
  690SOL    HW2 2970   5.814   3.554   3.943
  691SOL     OW 2971   5.616   0.457   2.818
  691SOL    HW1 2972   5.567   0.526   2.764
  691SOL    HW2 2973   5.587   0.366   2.789
  692SOL     OW 2974   1.260   6.902   3.497
  692SOL    HW1 2975   1.322   6.953   3.557
  692SOL    HW2 2976   1.296   6.903   3.403
  693SOL     OW 2977   6.041   4.111   1.941
  693SOL    HW1 2978   6.099   4.029   1.951
  693SOL    HW2 2979   6.016   4.121   1.845
  694SOL     OW 2980   4.040   4.815   4.554
  694SOL    HW1 2981   4.083   4.732   4.587
  694SOL    HW2 2982   3.977   4.851   4.623
  695SOL     OW 2983   4.777   0.159   4.102
  695SOL    HW1 2984   4.791   0.243   4.154
  695SOL    HW2 2985   4.842   0.089   4.134
  696SOL     OW 2986   6.957   4.548   1.858
  696SOL    HW1 2987   7.000   4.602   1.786
  696SOL    HW2 2988   7.006   4.560   1.944
  697SOL     OW 2989   0.444   6.401   3.084
  697SOL    HW1 2990   0.434   6.429   3.180
  697SOL    HW2 2991   0.531   6.352   3.073
  698SOL     OW 2992   6.000   6.402   5.716
  698SOL    HW1 2993   6.084   6.456   5.723
  698SOL    HW2 2994   5.924   6.463   5.693
  699SOL     OW 2995   4.215   2.878   0.844
  699SOL    HW1 2996   4.314   2.875   0.857
  699SOL    HW2 2997   4.172   2.812   0.905
  700SOL     OW 2998   3.581   6.442   5.190
  700SOL    HW1 2999   3.549   6.521   5.243
  700SOL    HW2 3000   3.599   6.366   5.251
  701SOL     OW 3001   4.332   4.436   1.682
  701SOL    HW1 3002   4.302   4.410   1.590
  701SOL    HW2 3003   4.358   4.354   1.733
  702SOL     OW 3004   3.076   0.941   5.160
  702SOL    HW1 3005   2.983   0.964   5.189
  702SOL    HW2 3006   3.100   0.995   5.080
  703SOL     OW 3007   3.788   3.083   0.260
  703SOL    HW1 3008   3.809   3.017   0.188
  703SOL    HW2 3009   3.757   3.169   0.220
  704SOL     OW 3010   3.671   1.437   0.455
  704SOL    HW1 3011   3.605   1.445   0.529
  704SOL    HW2 3012   3.747   1.501   0.470
  705SOL     OW 3013   6.721   6.724   6.047
  705SOL    HW1 3014   6.675   6.650   6.095
  705SOL    HW2 3015   6.659   6.802   6.039
  706SOL     OW 3016   3.393   0.553   4.937
  706SOL    HW1 3017   3.331   0.494   4.988
  706SOL    HW2 3018   3.447   0.497   4.873
  707SOL     OW 3019   3.585   4.934   4.397
  707SOL    HW1 3020   3.676   4.913   4.362
  707SOL    HW2 3021   3.516   4.901   4.332
  708SOL     OW 3022   2.890   6.063   4.159
  708SOL    HW1 3023   2.839   6.051   4.244
  708SOL    HW2 3024   2.987   6.044   4.176
  709SOL     OW 3025   2.033   6.706   1.628
  709SOL    HW1 3026   2.085   6.647   1.566
  709SOL    HW2 3027   1.936   6.703   1.602
  710SOL     OW 3028   4.844   3.095   2.650
  710SOL    HW1 3029   4.908   3.133   2.717
  710SOL    HW2 3030   4.823   3.000   2.673
  711SOL     OW 3031   6.604   1.182   0.558
  711SOL    HW1 3032   6.703   1.178   0.558
  711SOL    HW2 3033   6.573   1.247   0.488
  712SOL     OW 3034   5.023   4.493   6.711
  712SOL    HW1 3035   5.035   4.536   6.801
  712SOL    HW2 3036   4.970   4.409   6.721
  713SOL     OW 3037   2.493   2.759   5.637
  713SOL    HW1 3038   2.583   2.742   5.677
  713SOL    HW2 3039   2.504   2.793   5.544
  714SOL     OW 3040   3.890   6.889   2.937
  714SOL    HW1 3041   3.801   6.874   2.895
  714SOL    HW2 3042   3.910   6.987   2.938
  715SOL     OW 3043   6.173   4.008   6.356
  715SOL    HW1 3044   6.178   3.995   6.257
  715SOL    HW2 3045   6.239   3.948   6.401
  716SOL     OW 3046   3.230   0.926   3.314
  716SOL    HW1 3047   3.250   0.917   3.216
  716SOL    HW2 3048   3.278   0.854   3.364
  717SOL     OW 3049   5.505   4.439   3.714
  717SOL    HW1 3050   5.481   4.349   3.752
  717SOL    HW2 3051   5.572   4.427   3.641
  718SOL     OW 3052   6.860   2.427   5.433
  718SOL    HW1 3053   6.945   2.423   5.487
  718SOL    HW2 3054   6.830   2.522   5.426
  719SOL     OW 3055   4.741   5.496   2.385
  719SOL    HW1 3056   4.764   5.439   2.307
  719SOL    HW2 3057   4.646   5.479   2.413
  720SOL     OW 3058   2.958   1.482   0.983
  720SOL    HW1 3059   2.949   1.581   0.972
  720SOL    HW2 3060   2.967   1.461   1.080
  721SOL     OW 3061   7.004   2.785   2.706
  721SOL    HW1 3062   0.011   2.690   2.720
  721SOL    HW2 3063   6.954   2.818   2.786
  722SOL     OW 3064   5.611   5.580   2.426
  722SOL    HW1 3065   5.555   5.627   2.494
  722SOL    HW2 3066   5.571   5.490   2.406
  723SOL     OW 3067   2.279   0.407   4.940
  723SOL    HW1 3068   2.225   0.443   5.016
  723SOL    HW2 3069   2.318   0.482   4.887
  724SOL     OW 3070   1.407   2.518   4.762
  724SOL    HW1 3071   1.473   2.444   4.747
  724SOL    HW2 3072   1.433   2.570   4.843
  725SOL     OW 3073   1.669   3.770   3.660
  725SOL    HW1 3074   1.646   3.782   3.563
  725SOL    HW2 3075   1.639   3.679   3.690
  726SOL     OW 3076   2.334   3.027   0.316
  726SOL    HW1 3077   2.264   3.082   0.359
  726SOL    HW2 3078   2.294   2.941   0.285
  727SOL     OW 3079   3.958   5.143   5.415
  727SOL    HW1 3080   3.900   5.062   5.420
  727SOL    HW2 3081   3.936   5.205   5.491
  728SOL     OW 3082   6.467   3.682   3.197
  728SOL    HW1 3083   6.529   3.609   3.226
  728SOL    HW2 3084   6.412   3.651   3.120
  729SOL     OW 3085   0.226   5.020   0.327
  729SOL    HW1 3086   0.325   5.005   0.316
  729SOL    HW2 3087   0.202   5.007   0.423
  730SOL     OW 3088   3.638   0.974   3.639
  730SOL    HW1 3089   3.601   1.022   3.559
  730SOL    HW2 3090   3.626   1.032   3.720
  731SOL     OW 3091   5.032   4.386   4.872
  731SOL    HW1 3092   5.078   4.307   4.831
  731SOL    HW2 3093   4.957   4.354   4.930
  732SOL     OW 3094   4.981   0.489   4.409
  732SOL    HW1 3095   4.935   0.460   4.326
  732SOL    HW2 3096   4.914   0.528   4.473
  733SOL     OW 3097   0.672   4.961   4.492
  733SOL    HW1 3098   0.643   4.932   4.584
  733SOL    HW2 3099   0.592   4.963   4.432
  734SOL     OW 3100   6.405   5.667   3.063
  734SOL    HW1 3101   6.312   5.638   3.042
  734SOL    HW2 3102   6.459   5.588   3.091
  735SOL     OW 3103   4.883   0.500   2.690
  735SOL    HW1 3104   4.884   0.415   2.741
  735SOL    HW2 3105   4.974   0.516   2.651
  736SOL     OW 3106   1.946   1.083   3.297
  736SOL    HW1 3107   2.040   1.096   3.327
  736SOL    HW2 3108   1.942   1.008   3.231
  737SOL     OW 3109   3.414   1.493   6.219
  737SOL    HW1 3110   3.393   1.526   6.127
  737SOL    HW2 3111   3.331   1.496   6.275
  738SOL     OW 3112   1.169   5.245   0.503
  738SOL    HW1 3113   1.070   5.252   0.494
  738SOL    HW2 3114   1.197   5.286   0.590
  739SOL     OW 3115   1.615   1.045   2.659
  739SOL    HW1 3116   1.700   1.048   2.711
  739SOL    HW2 3117   1.554   0.976   2.699
  740SOL     OW 3118   4.629   2.646   2.640
  740SOL    HW1 3119   4.664   2.733   2.674
  740SOL    HW2 3120   4.672   2.624   2.553
  741SOL     OW 3121   3.291   0.841   2.679
  741SOL    HW1 3122   3.240   0.829   2.594
  741SOL    HW2 3123   3.276   0.933   2.715
  742SOL     OW 3124   2.250   0.311   2.461
  742SOL    HW1 3125   2.191   0.298   2.382
  742SOL    HW2 3126   2.340   0.344   2.431
  743SOL     OW 3127   0.119   6.469   2.970
  743SOL    HW1 3128   0.171   6.492   3.053
  743SOL    HW2 3129   0.064   6.547   2.943
  744SOL     OW 3130   5.705   1.219   0.862
  744SOL    HW1 3131   5.770   1.288   0.831
  744SOL    HW2 3132   5.639   1.199   0.790
  745SOL     OW 3133   0.728   6.699   5.661
  745SOL    HW1 3134   0.680   6.614   5.685
  745SOL    HW2 3135   0.824   6.691   5.687
  746SOL     OW 3136   6.393   5.333   5.783
  746SOL    HW1 3137   6.446   5.260   5.741
  746SOL    HW2 3138   6.441   5.420   5.773
  747SOL     OW 3139   3.462   4.933   2.304
  747SOL    HW1 3140   3.384   4.924   2.366
  747SOL    HW2 3141   3.482   5.029   2.289
  748SOL     OW 3142   6.499   5.412   3.146
  748SOL    HW1 3143   6.411   5.389   3.105
  748SOL    HW2 3144   6.496   5.391   3.244
  749SOL     OW 3145   4.835   4.303   5.062
  749SOL    HW1 3146   4.743   4.332   5.090
  749SOL    HW2 3147   4.898   4.316   5.138
  750SOL     OW 3148   2.890   1.866   2.738
  750SOL    HW1 3149   2.875   1.796   2.668
  750SOL    HW2 3150   2.985   1.896   2.735
  751SOL     OW 3151   4.529   0.307   0.333
  751SOL    HW1 3152   4.582   0.377   0.285
  751SOL    HW2 3153   4.434   0.338   0.343
  752SOL     OW 3154   2.998   3.169   3.972
  752SOL    HW1 3155   2.987   3.163   4.071
  752SOL    HW2 3156   3.052   3.091   3.940
  753SOL     OW 3157   3.218   3.767   3.814
  753SOL    HW1 3158   3.211   3.840   3.746
  753SOL    HW2 3159   3.309   3.767   3.853
  754SOL     OW 3160   4.081   0.945   5.979
  754SOL    HW1 3161   4.152   0.991   5.926
  754SOL    HW2 3162   4.026   0.888   5.918
  755SOL     OW 3163   5.117   4.477   5.165
  755SOL    HW1 3164   5.196   4.538   5.158
  755SOL    HW2 3165   5.072   4.472   5.075
  756SOL     OW 3166   3.165   5.671   6.029
  756SOL    HW1 3167   3.260   5.664   5.998
  756SOL    HW2 3168   3.140   5.768   6.039
  757SOL     OW 3169   0.568   0.046   1.417
  757SOL    HW1 3170   0.563   0.034   1.317
  757SOL    HW2 3171   0.484   0.011   1.459
  758SOL     OW 3172   3.725   1.260   5.808
  758SOL    HW1 3173   3.702   1.198   5.882
  758SOL    HW2 3174   3.656   1.253   5.736
  759SOL     OW 3175   6.999   2.444   3.471
  759SOL    HW1 3176   6.980   2.510   3.398
  759SOL    HW2 3177   0.063   2.394   3.450
  760SOL     OW 3178   6.845   5.772   4.498
  760SOL    HW1 3179   6.830   5.868   4.524
  760SOL    HW2 3180   6.852   5.766   4.399
  761SOL     OW 3181   4.636   4.412   5.903
  761SOL    HW1 3182   4.568   4.448   5.838
  761SOL    HW2 3183   4.606   4.433   5.996
  762SOL     OW 3184   4.055   6.003   3.428
  762SOL    HW1 3185   4.029   5.951   3.509
  762SOL    HW2 3186   3.973   6.035   3.381
  763SOL     OW 3187   5.859   1.418   0.466
  763SOL    HW1 3188   5.890   1.458   0.380
  763SOL    HW2 3189   5.768   1.452   0.488
  764SOL     OW 3190   4.940   6.127   4.509
  764SOL    HW1 3191   4.896   6.120   4.599
  764SOL    HW2 3192   4.991   6.213   4.504
  765SOL     OW 3193   5.306   6.448   6.621
  765SOL    HW1 3194   5.323   6.546   6.627
  765SOL    HW2 3195   5.230   6.423   6.681
  766SOL     OW 3196   2.938   1.633   4.050
  766SOL    HW1 3197   2.950   1.728   4.023
  766SOL    HW2 3198   2.939   1.574   3.969
  767SOL     OW 3199   6.449   6.427   3.592
  767SOL    HW1 3200   6.364   6.479   3.597
  767SOL    HW2 3201   6.441   6.356   3.522
  768SOL     OW 3202   2.834   5.684   1.389
  768SOL    HW1 3203   2.869   5.616   1.324
  768SOL    HW2 3204   2.801   5.638   1.471
  769SOL     OW 3205   3.561   1.872   5.406
  769SOL    HW1 3206   3.637   1.913   5.456
  769SOL    HW2 3207   3.479   1.928   5.418
  770SOL     OW 3208   0.465   4.379   5.739
  770SOL    HW1 3209   0.491   4.434   5.659
  770SOL    HW2 3210   0.541   4.374   5.803
  771SOL     OW 3211   1.725   5.123   2.401
  771SOL    HW1 3212   1.627   5.139   2.412
  771SOL    HW2 3213   1.773   5.211   2.397
  772SOL     OW 3214   6.273   4.738   0.262
  772SOL    HW1 3215   6.182   4.702   0.242
  772SOL    HW2 3216   6.264   4.828   0.305
  773SOL     OW 3217   1.277   4.816   3.669
  773SOL    HW1 3218   1.186   4.855   3.682
  773SOL    HW2 3219   1.334   4.881   3.619
  774SOL     OW 3220   1.891   2.720   3.341
  774SOL    HW1 3221   1.809   2.720   3.398
  774SOL    HW2 3222   1.916   2.625   3.320
  775SOL     OW 3223   0.766   5.119   2.355
  775SOL    HW1 3224   0.689   5.155   2.303
  775SOL    HW2 3225   0.826   5.194   2.382
  776SOL     OW 3226   2.188   4.616   0.412
  776SOL    HW1 3227   2.152   4.554   0.342
  776SOL    HW2 3228   2.206   4.705   0.371
  777SOL     OW 3229   1.559   3.212   6.709
  777SOL    HW1 3230   1.466   3.190   6.739
  777SOL    HW2 3231   1.623   3.194   6.784
  778SOL     OW 3232   3.826   6.069   0.004
  778SOL    HW1 3233   3.755   6.112   0.060
  778SOL    HW2 3234   3.898   6.136   7.005
  779SOL     OW 3235   6.002   2.399   3.468
  779SOL    HW1 3236   6.056   2.374   3.549
  779SOL    HW2 3237   5.907   2.417   3.496
  780SOL     OW 3238   6.323   1.673   5.165
  780SOL    HW1 3239   6.303   1.741   5.235
  780SOL    HW2 3240   6.417   1.683   5.133
  781SOL     OW 3241   0.013   5.072   6.904
  781SOL    HW1 3242   6.993   4.991   6.861
  781SOL    HW2 3243   7.016   5.152   6.846
  782SOL     OW 3244   2.233   3.667   5.571
  782SOL    HW1 3245   2.276   3.714   5.494
  782SOL    HW2 3246   2.136   3.652   5.552
  783SOL     OW 3247   0.032   5.122   5.541
  783SOL    HW1 3248   7.006   5.185   5.479
  783SOL    HW2 3249   6.985   5.069   5.592
  784SOL     OW 3250   1.178   6.054   5.935
  784SOL    HW1 3251   1.096   6.011   5.899
  784SOL    HW2 3252   1.235   6.085   5.859
  785SOL     OW 3253   0.790   0.143   3.945
  785SOL    HW1 3254   0.782   0.207   3.868
  785SOL    HW2 3255   0.734   0.176   4.021
  786SOL     OW 3256   6.368   1.995   4.845
  786SOL    HW1 3257   6.325   1.937   4.914
  786SOL    HW2 3258   6.325   2.085   4.846
  787SOL     OW 3259   2.145   6.442   0.906
  787SOL    HW1 3260   2.233   6.415   0.945
  787SOL    HW2 3261   2.137   6.542   0.905
  788SOL     OW 3262   2.086   3.203   2.309
  788SOL    HW1 3263   2.122   3.188   2.217
  788SOL    HW2 3264   2.098   3.120   2.363
  789SOL     OW 3265   3.442   5.418   1.949
  789SOL    HW1 3266   3.351   5.454   1.968
  789SOL    HW2 3267   3.434   5.333   1.897
  790SOL     OW 3268   0.066   3.545   2.890
  790SOL    HW1 3269   7.008   3.560   2.951
  790SOL    HW2 3270   0.077   3.447   2.874
  791SOL     OW 3271   3.822   0.403   3.993
  791SOL    HW1 3272   3.917   0.398   4.023
  791SOL    HW2 3273   3.795   0.498   3.984
  792SOL     OW 3274   3.217   0.648   0.504
  792SOL    HW1 3275   3.264   0.633   0.591
  792SOL    HW2 3276   3.282   0.684   0.437
  793SOL     OW 3277   2.158   5.564   4.844
  793SOL    HW1 3278   2.170   5.661   4.824
  793SOL    HW2 3279   2.105   5.521   4.770
  794SOL     OW 3280   3.808   3.174   2.077
  794SOL    HW1 3281   3.733   3.132   2.127
  794SOL    HW2 3282   3.772   3.222   1.997
  795SOL     OW 3283   3.716   6.637   6.054
  795SOL    HW1 3284   3.783   6.633   5.980
  795SOL    HW2 3285   3.627   6.606   6.021
  796SOL     OW 3286   1.047   2.195   6.522
  796SOL    HW1 3287   1.076   2.291   6.530
  796SOL    HW2 3288   0.947   2.190   6.518
  797SOL     OW 3289   2.908   6.822   0.243
  797SOL    HW1 3290   2.957   6.735   0.256
  797SOL    HW2 3291   2.852   6.816   0.161
  798SOL     OW 3292   5.536   4.517   1.878
  798SOL    HW1 3293   5.438   4.507   1.863
  798SOL    HW2 3294   5.584   4.436   1.845
  799SOL     OW 3295   3.223   3.334   4.784
  799SOL    HW1 3296   3.298   3.359   4.723
  799SOL    HW2 3297   3.141   3.317   4.729
  800SOL     OW 3298   5.278   2.922   3.289
  800SOL    HW1 3299   5.248   2.989   3.358
  800SOL    HW2 3300   5.288   2.833   3.332
  801SOL     OW 3301   1.973   4.752   0.015
  801SOL    HW1 3302   1.952   4.818   6.963
  801SOL    HW2 3303   1.897   4.688   0.026
  802SOL     OW 3304   3.670   2.476   5.714
  802SOL    HW1 3305   3.662   2.555   5.653
  802SOL    HW2 3306   3.714   2.504   5.799
  803SOL     OW 3307   3.466   2.017   3.513
  803SOL    HW1 3308   3.385   1.978   3.469
  803SOL    HW2 3309   3.536   2.035   3.443
  804SOL     OW 3310   4.337   0.097   3.046
  804SOL    HW1 3311   4.240   0.116   3.056
  804SOL    HW2 3312   4.390   0.180   3.064
  805SOL     OW 3313   3.333   1.696   3.632
  805SOL    HW1 3314   3.256   1.665   3.576
  805SOL    HW2 3315   3.409   1.631   3.624
  806SOL     OW 3316   4.464   6.278   5.812
  806SOL    HW1 3317   4.409   6.324   5.743
  806SOL    HW2 3318   4.446   6.180   5.810
  807SOL     OW 3319   1.220   6.484   5.936
  807SOL    HW1 3320   1.219   6.573   5.982
  807SOL    HW2 3321   1.274   6.419   5.989
  808SOL     OW 3322   5.264   1.978   5.696
  808SOL    HW1 3323   5.273   1.879   5.687
  808SOL    HW2 3324   5.207   2.000   5.774
  809SOL     OW 3325   2.560   6.183   5.025
  809SOL    HW1 3326   2.567   6.274   5.068
  809SOL    HW2 3327   2.496   6.127   5.077
  810SOL     OW 3328   3.814   3.844   6.410
  810SOL    HW1 3329   3.752   3.766   6.417
  810SOL    HW2 3330   3.870   3.834   6.327
  811SOL     OW 3331   5.559   4.889   5.465
  811SOL    HW1 3332   5.640   4.913   5.411
  811SOL    HW2 3333   5.479   4.883   5.406
  812SOL     OW 3334   1.571   2.084   0.226
  812SOL    HW1 3335   1.494   2.101   0.287
  812SOL    HW2 3336   1.556   2.132   0.140
  813SOL     OW 3337   2.665   1.666   4.980
  813SOL    HW1 3338   2.620   1.622   5.057
  813SOL    HW2 3339   2.691   1.759   5.005
  814SOL     OW 3340   0.638   4.762   1.345
  814SOL    HW1 3341   0.693   4.834   1.303
  814SOL    HW2 3342   0.690   4.721   1.420
  815SOL     OW 3343   4.133   0.585   4.232
  815SOL    HW1 3344   4.092   0.505   4.188
  815SOL    HW2 3345   4.176   0.643   4.163
  816SOL     OW 3346   4.474   3.734   6.671
  816SOL    HW1 3347   4.555   3.698   6.626
  816SOL    HW2 3348   4.501   3.784   6.753
  817SOL     OW 3349   6.843   5.412   0.519
  817SOL    HW1 3350   6.865   5.336   0.458
  817SOL    HW2 3351   6.748   5.440   0.504
  818SOL     OW 3352   6.740   1.149   5.168
  818SOL    HW1 3353   6.689   1.085   5.224
  818SOL    HW2 3354   6.676   1.213   5.124
  819SOL     OW 3355   5.554   3.755   1.752
  819SOL    HW1 3356   5.507   3.797   1.830
  819SOL    HW2 3357   5.652   3.777   1.756
  820SOL     OW 3358   2.318   1.910   5.136
  820SOL    HW1 3359   2.396   1.969   5.116
  820SOL    HW2 3360   2.301   1.849   5.059
  821SOL     OW 3361   4.589   3.964   6.444
  821SOL    HW1 3362   4.530   3.883   6.437
  821SOL    HW2 3363   4.586   4.000   6.537
  822SOL     OW 3364   6.977   4.150   3.081
  822SOL    HW1 3365   6.913   4.225   3.065
  822SOL    HW2 3366   6.984   4.093   3.000
  823SOL     OW 3367   1.615   2.853   4.382
  823SOL    HW1 3368   1.688   2.799   4.340
  823SOL    HW2 3369   1.538   2.793   4.405
  824SOL     OW 3370   5.242   0.806   5.983
  824SOL    HW1 3371   5.180   0.863   6.037
  824SOL    HW2 3372   5.193   0.772   5.902
  825SOL     OW 3373   6.402   6.378   1.561
  825SOL    HW1 3374   6.405   6.432   1.644
  825SOL    HW2 3375   6.347   6.295   1.577
  826SOL     OW 3376   3.420   2.094   0.163
  826SOL    HW1 3377   3.485   2.169   0.153
  826SOL    HW2 3378   3.470   2.009   0.177
  827SOL     OW 3379   3.475   3.312   5.052
  827SOL    HW1 3380   3.498   3.313   4.954
  827SOL    HW2 3381   3.376   3.311   5.063
  828SOL     OW 3382   0.596   6.579   6.211
  828SOL    HW1 3383   0.652   6.624   6.280
  828SOL    HW2 3384   0.499   6.595   6.231
  829SOL     OW 3385   3.740   3.131   1.524
  829SOL    HW1 3386   3.658   3.165   1.478
  829SOL    HW2 3387   3.734   3.032   1.535
  830SOL     OW 3388   0.631   3.461   5.642
  830SOL    HW1 3389   0.631   3.375   5.590
  830SOL    HW2 3390   0.539   3.500   5.642
  831SOL     OW 3391   5.656   2.195   3.435
  831SOL    HW1 3392   5.724   2.253   3.480
  831SOL    HW2 3393   5.622   2.242   3.353
  832SOL     OW 3394   3.026   2.247   4.726
  832SOL    HW1 3395   3.079   2.277   4.806
  832SOL    HW2 3396   3.080   2.263   4.643
  833SOL     OW 3397   3.443   2.959   6.625
  833SOL    HW1 3398   3.401   2.935   6.713
  833SOL    HW2 3399   3.499   3.041   6.636
  834SOL     OW 3400   6.112   3.589   1.382
  834SOL    HW1 3401   6.180   3.559   1.315
  834SOL    HW2 3402   6.023   3.597   1.338
  835SOL     OW 3403   6.597   6.505   4.982
  835SOL    HW1 3404   6.637   6.429   4.931
  835SOL    HW2 3405   6.550   6.469   5.063
  836SOL     OW 3406   6.504   0.360   3.676
  836SOL    HW1 3407   6.535   0.371   3.770
  836SOL    HW2 3408   6.554   0.284   3.634
  837SOL     OW 3409   0.563   7.014   6.556
  837SOL    HW1 3410   0.540   6.949   6.629
  837SOL    HW2 3411   0.656   6.997   6.524
  838SOL     OW 3412   1.063   6.379   2.980
  838SOL    HW1 3413   1.000   6.410   3.052
  838SOL    HW2 3414   1.040   6.423   2.894
  839SOL     OW 3415   1.783   1.786   0.023
  839SOL    HW1 3416   1.811   1.850   0.095
  839SOL    HW2 3417   1.855   1.781   6.974
  840SOL     OW 3418   5.182   5.393   0.295
  840SOL    HW1 3419   5.233   5.320   0.341
  840SOL    HW2 3420   5.084   5.375   0.303
  841SOL     OW 3421   2.918   4.572   6.826
  841SOL    HW1 3422   2.961   4.642   6.882
  841SOL    HW2 3423   2.961   4.571   6.736
  842SOL     OW 3424   3.954   5.805   0.968
  842SOL    HW1 3425   4.037   5.861   0.964
  842SOL    HW2 3426   3.955   5.739   0.892
  843SOL     OW 3427   1.982   6.774   2.057
  843SOL    HW1 3428   1.951   6.688   2.016
  843SOL    HW2 3429   1.907   6.817   2.107
  844SOL     OW 3430   6.952   0.138   1.226
  844SOL    HW1 3431   6.916   0.064   1.283
  844SOL    HW2 3432   7.002   0.203   1.284
  845SOL     OW 3433   4.174   1.495   1.505
  845SOL    HW1 3434   4.247   1.446   1.457
  845SOL    HW2 3435   4.189   1.594   1.497
  846SOL     OW 3436   1.391   0.512   1.215
  846SOL    HW1 3437   1.478   0.489   1.260
  846SOL    HW2 3438   1.403   0.506   1.116
  847SOL     OW 3439   2.991   3.046   1.630
  847SOL    HW1 3440   2.989   2.985   1.550
  847SOL    HW2 3441   3.080   3.091   1.636
  848SOL     OW 3442   6.642   5.929   0.922
  848SOL    HW1 3443   6.566   5.891   0.868
  848SOL    HW2 3444   6.725   5.878   0.903
  849SOL     OW 3445   5.349   3.300   6.176
  849SOL    HW1 3446   5.415   3.247   6.123
  849SOL    HW2 3447   5.296   3.359   6.115
  850SOL     OW 3448   2.453   0.997   4.538
  850SOL    HW1 3449   2.381   1.065   4.525
  850SOL    HW2 3450   2.430   0.913   4.490
  851SOL     OW 3451   4.387   2.848   6.099
  851SOL    HW1 3452   4.445   2.877   6.023
  851SOL    HW2 3453   4.331   2.926   6.129
  852SOL     OW 3454   0.421   4.829   1.186
  852SOL    HW1 3455   0.474   4.791   1.263
  852SOL    HW2 3456   0.477   4.897   1.139
  853SOL     OW 3457   3.747   2.621   0.780
  853SOL    HW1 3458   3.652   2.627   0.810
  853SOL    HW2 3459   3.805   2.599   0.859
  854SOL     OW 3460   6.766   1.011   6.416
  854SOL    HW1 3461   6.754   0.962   6.502
  854SOL    HW2 3462   6.837   0.967   6.362
  855SOL     OW 3463   4.416   2.124   6.717
  855SOL    HW1 3464   4.504   2.079   6.701
  855SOL    HW2 3465   4.424   2.221   6.695
  856SOL     OW 3466   1.259   5.820   1.445
  856SOL    HW1 3467   1.341   5.849   1.495
  856SOL    HW2 3468   1.287   5.784   1.355
  857SOL     OW 3469   6.830   6.453   5.318
  857SOL    HW1 3470   6.753   6.502   5.359
  857SOL    HW2 3471   6.894   6.426   5.390
  858SOL     OW 3472   2.924   4.224   0.520
  858SOL    HW1 3473   2.865   4.149   0.489
  858SOL    HW2 3474   2.870   4.289   0.573
  859SOL     OW 3475   4.679   6.104   5.668
  859SOL    HW1 3476   4.706   6.200   5.661
  859SOL    HW2 3477   4.748   6.047   5.623
  860SOL     OW 3478   4.332   2.741   0.378
  860SOL    HW1 3479   4.301   2.786   0.462
  860SOL    HW2 3480   4.296   2.789   0.298
  861SOL     OW 3481   0.791   5.687   2.449
  861SOL    HW1 3482   0.867   5.647   2.500
  861SOL    HW2 3483   0.796   5.659   2.353
  862SOL     OW 3484   0.617   4.779   4.159
  862SOL    HW1 3485   0.552   4.835   4.212
  862SOL    HW2 3486   0.666   4.718   4.221
  863SOL     OW 3487   5.138   0.208   1.288
  863SOL    HW1 3488   5.038   0.211   1.286
  863SOL    HW2 3489   5.168   0.180   1.379
  864SOL     OW 3490   6.090   3.649   3.437
  864SOL    HW1 3491   6.084   3.726   3.500
  864SOL    HW2 3492   6.001   3.604   3.431
  865SOL     OW 3493   2.177   4.879   4.861
  865SOL    HW1 3494   2.138   4.788   4.874
  865SOL    HW2 3495   2.244   4.897   4.933
  866SOL     OW 3496   3.417   6.642   0.859
  866SOL    HW1 3497   3.348   6.714   0.871
  866SOL    HW2 3498   3.486   6.649   0.931
  867SOL     OW 3499   5.941   3.667   4.712
  867SOL    HW1 3500   5.875   3.593   4.701
  867SOL    HW2 3501   5.970   3.673   4.807
  868SOL     OW 3502   0.457   1.696   1.900
  868SOL    HW1 3503   0.516   1.638   1.843
  868SOL    HW2 3504   0.374   1.718   1.850
  869SOL     OW 3505   0.828   3.004   1.993
  869SOL    HW1 3506   0.824   3.008   1.893
  869SOL    HW2 3507   0.783   2.920   2.024
  870SOL     OW 3508   3.872   4.812   1.818
  870SOL    HW1 3509   3.781   4.787   1.850
  870SOL    HW2 3510   3.918   4.730   1.783
  871SOL     OW 3511   4.854   1.971   3.618
  871SOL    HW1 3512   4.892   2.006   3.533
  871SOL    HW2 3513   4.900   1.886   3.643
  872SOL     OW 3514   1.847   2.436   5.862
  872SOL    HW1 3515   1.832   2.346   5.822
  872SOL    HW2 3516   1.880   2.426   5.956
  873SOL     OW 3517   3.913   1.140   6.054
  873SOL    HW1 3518   3.978   1.066   6.038
  873SOL    HW2 3519   3.883   1.178   5.966
  874SOL     OW 3520   5.456   3.842   3.027
  874SOL    HW1 3521   5.487   3.750   3.053
  874SOL    HW2 3522   5.360   3.837   2.998
  875SOL     OW 3523   5.240   5.070   2.158
  875SOL    HW1 3524   5.263   5.160   2.196
  875SOL    HW2 3525   5.162   5.031   2.207
  876SOL     OW 3526   6.279   1.628   6.193
  876SOL    HW1 3527   6.298   1.718   6.231
  876SOL    HW2 3528   6.288   1.559   6.265
  877SOL     OW 3529   0.874   3.223   6.298
  877SOL    HW1 3530   0.870   3.250   6.202
  877SOL    HW2 3531   0.898   3.126   6.304
  878SOL     OW 3532   4.488   6.605   4.722
  878SOL    HW1 3533   4.553   6.626   4.794
  878SOL    HW2 3534   4.529   6.542   4.657
  879SOL     OW 3535   5.816   7.018   6.158
  879SOL    HW1 3536   5.772   6.943   6.109
  879SOL    HW2 3537   5.863   0.058   6.093
  880SOL     OW 3538   3.494   2.882   3.215
  880SOL    HW1 3539   3.433   2.850   3.143
  880SOL    HW2 3540   3.555   2.952   3.178
  881SOL     OW 3541   4.987   2.049   0.590
  881SOL    HW1 3542   4.923   2.084   0.521
  881SOL    HW2 3543   4.938   2.035   0.676
  882SOL     OW 3544   1.705   2.452   4.159
  882SOL    HW1 3545   1.779   2.394   4.194
  882SOL    HW2 3546   1.617   2.411   4.181
  883SOL     OW 3547   2.386   6.558   3.208
  883SOL    HW1 3548   2.452   6.620   3.253
  883SOL    HW2 3549   2.435   6.498   3.145
  884SOL     OW 3550   2.616   3.377   6.058
  884SOL    HW1 3551   2.550   3.404   5.988
  884SOL    HW2 3552   2.596   3.283   6.087
  885SOL     OW 3553   4.137   3.463   6.767
  885SOL    HW1 3554   4.124   3.364   6.775
  885SOL    HW2 3555   4.204   3.493   6.835
  886SOL     OW 3556   3.598   1.293   6.170
  886SOL    HW1 3557   3.689   1.327   6.195
  886SOL    HW2 3558   3.531   1.366   6.180
  887SOL     OW 3559   3.965   1.163   5.654
  887SOL    HW1 3560   3.868   1.188   5.661
  887SOL    HW2 3561   4.000   1.191   5.565
  888SOL     OW 3562   0.178   6.920   1.923
  888SOL    HW1 3563   0.156   7.015   1.905
  888SOL    HW2 3564   0.178   6.904   2.022
  889SOL     OW 3565   0.692   4.119   1.288
  889SOL    HW1 3566   0.635   4.049   1.244
  889SOL    HW2 3567   0.661   4.133   1.382
  890SOL     OW 3568   2.870   6.390   4.907
  890SOL    HW1 3569   2.893   6.335   4.987
  890SOL    HW2 3570   2.952   6.441   4.877
  891SOL     OW 3571   4.585   4.525   2.384
  891SOL    HW1 3572   4.599   4.613   2.340
  891SOL    HW2 3573   4.498   4.526   2.434
  892SOL     OW 3574   2.331   4.033   1.283
  892SOL    HW1 3575   2.323   4.036   1.383
  892SOL    HW2 3576   2.248   4.070   1.242
  893SOL     OW 3577   1.570   5.421   2.334
  893SOL    HW1 3578   1.491   5.362   2.346
  893SOL    HW2 3579   1.544   5.516   2.351
  894SOL     OW 3580   1.680   4.277   0.875
  894SOL    HW1 3581   1.720   4.186   0.873
  894SOL    HW2 3582   1.595   4.277   0.822
  895SOL     OW 3583   6.439   5.849   5.227
  895SOL    HW1 3584   6.390   5.876   5.145
  895SOL    HW2 3585   6.535   5.831   5.204
  896SOL     OW 3586   6.902   0.830   6.243
  896SOL    HW1 3587   6.812   0.812   6.204
  896SOL    HW2 3588   6.954   0.744   6.249
  897SOL     OW 3589   6.053   1.203   0.532
  897SOL    HW1 3590   5.986   1.273   0.506
  897SOL    HW2 3591   6.019   1.113   0.506
  898SOL     OW 3592   4.093   1.474   3.698
  898SOL    HW1 3593   4.137   1.498   3.784
  898SOL    HW2 3594   4.084   1.555   3.640
  899SOL     OW 3595   6.321   0.139   6.711
  899SOL    HW1 3596   6.397   0.075   6.717
  899SOL    HW2 3597   6.267   0.134   6.795
  900SOL     OW 3598   4.970   4.622   5.888
  900SOL    HW1 3599   5.003   4.606   5.982
  900SOL    HW2 3600   5.042   4.596   5.823
  901SOL     OW 3601   1.210   0.552   2.362
  901SOL    HW1 3602   1.260   0.502   2.291
  901SOL    HW2 3603   1.124   0.585   2.325
  902SOL     OW 3604   0.169   3.005   2.741
  902SOL    HW1 3605   0.190   2.946   2.819
  902SOL    HW2 3606   0.104   2.958   2.681
  903SOL     OW 3607   6.106   1.640   0.502
  903SOL    HW1 3608   6.102   1.547   0.466
  903SOL    HW2 3609   6.185   1.649   0.563
  904SOL     OW 3610   3.091   1.087   3.620
  904SOL    HW1 3611   3.121   1.165   3.676
  904SOL    HW2 3612   3.024   1.119   3.553
  905SOL     OW 3613   4.961   2.462   6.477
  905SOL    HW1 3614   4.965   2.365   6.502
  905SOL    HW2 3615   5.007   2.517   6.547
  906SOL     OW 3616   6.011   3.116   1.302
  906SOL    HW1 3617   5.960   3.174   1.365
  906SOL    HW2 3618   5.952   3.043   1.269
  907SOL     OW 3619   5.849   4.797   0.349
  907SOL    HW1 3620   5.799   4.799   0.263
  907SOL    HW2 3621   5.894   4.885   0.364
  908SOL     OW 3622   1.045   3.983   3.243
  908SOL    HW1 3623   1.014   4.053   3.308
  908SOL    HW2 3624   1.010   3.894   3.270
  909SOL     OW 3625   4.954   4.346   5.682
  909SOL    HW1 3626   5.016   4.411   5.725
  909SOL    HW2 3627   4.892   4.310   5.752
  910SOL     OW 3628   3.399   4.946   0.594
  910SOL    HW1 3629   3.382   5.044   0.601
  910SOL    HW2 3630   3.465   4.928   0.521
  911SOL     OW 3631   1.119   4.322   5.998
  911SOL    HW1 3632   1.183   4.361   6.064
  911SOL    HW2 3633   1.150   4.342   5.905
  912SOL     OW 3634   5.584   1.511   5.138
  912SOL    HW1 3635   5.679   1.483   5.128
  912SOL    HW2 3636   5.565   1.535   5.233
  913SOL     OW 3637   5.805   5.664   3.750
  913SOL    HW1 3638   5.886   5.617   3.716
  913SOL    HW2 3639   5.821   5.763   3.748
  914SOL     OW 3640   2.437   6.324   5.262
  914SOL    HW1 3641   2.429   6.286   5.354
  914SOL    HW2 3642   2.515   6.386   5.258
  915SOL     OW 3643   5.390   4.828   2.125
  915SOL    HW1 3644   5.364   4.769   2.202
  915SOL    HW2 3645   5.369   4.923   2.147
  916SOL     OW 3646   1.158   4.115   2.881
  916SOL    HW1 3647   1.206   4.073   2.958
  916SOL    HW2 3648   1.177   4.064   2.797
  917SOL     OW 3649   0.555   6.929   0.115
  917SOL    HW1 3650   0.542   6.830   0.120
  917SOL    HW2 3651   0.471   6.975   0.144
  918SOL     OW 3652   3.444   5.707   6.204
  918SOL    HW1 3653   3.423   5.804   6.220
  918SOL    HW2 3654   3.450   5.691   6.106
  919SOL     OW 3655   4.234   6.998   5.795
  919SOL    HW1 3656   4.161   0.044   5.808
  919SOL    HW2 3657   4.278   6.979   5.883
  920SOL     OW 3658   3.211   4.457   1.464
  920SOL    HW1 3659   3.200   4.358   1.473
  920SOL    HW2 3660   3.273   4.477   1.388
  921SOL     OW 3661   5.162   5.768   5.461
  921SOL    HW1 3662   5.224   5.733   5.531
  921SOL    HW2 3663   5.188   5.862   5.437
  922SOL     OW 3664   3.067   3.987   2.781
  922SOL    HW1 3665   3.037   4.061   2.842
  922SOL    HW2 3666   3.046   3.899   2.823
  923SOL     OW 3667   2.623   4.001   5.546
  923SOL    HW1 3668   2.548   4.067   5.550
  923SOL    HW2 3669   2.645   3.981   5.451
  924SOL     OW 3670   0.949   2.589   0.752
  924SOL    HW1 3671   0.972   2.521   0.822
  924SOL    HW2 3672   0.865   2.637   0.778
  925SOL     OW 3673   0.913   1.608   0.074
  925SOL    HW1 3674   0.998   1.625   0.024
  925SOL    HW2 3675   0.856   1.545   0.022
  926SOL     OW 3676   1.843   2.570   1.030
  926SOL    HW1 3677   1.862   2.491   1.088
  926SOL    HW2 3678   1.803   2.539   0.943
  927SOL     OW 3679   0.539   3.561   5.326
  927SOL    HW1 3680   0.467   3.631   5.321
  927SOL    HW2 3681   0.615   3.595   5.382
  928SOL     OW 3682   2.845   5.267   6.213
  928SOL    HW1 3683   2.935   5.273   6.256
  928SOL    HW2 3684   2.851   5.301   6.119
  929SOL     OW 3685   1.652   2.363   4.733
  929SOL    HW1 3686   1.678   2.271   4.762
  929SOL    HW2 3687   1.679   2.429   4.803
  930SOL     OW 3688   5.961   5.475   5.455
  930SOL    HW1 3689   5.892   5.467   5.527
  930SOL    HW2 3690   6.040   5.418   5.477
  931SOL     OW 3691   6.239   0.494   3.023
  931SOL    HW1 3692   6.150   0.475   3.064
  931SOL    HW2 3693   6.309   0.494   3.094
  932SOL     OW 3694   4.387   6.895   3.424
  932SOL    HW1 3695   4.445   6.832   3.475
  932SOL    HW2 3696   4.420   6.988   3.437
  933SOL     OW 3697   0.998   5.804   1.767
  933SOL    HW1 3698   0.970   5.709   1.751
  933SOL    HW2 3699   0.967   5.861   1.691
  934SOL     OW 3700   1.809   2.837   1.023
  934SOL    HW1 3701   1.806   2.740   1.001
  934SOL    HW2 3702   1.832   2.850   1.119
  935SOL     OW 3703   5.458   3.075   5.646
  935SOL    HW1 3704   5.490   3.170   5.642
  935SOL    HW2 3705   5.459   3.035   5.555
  936SOL     OW 3706   1.278   1.150   6.168
  936SOL    HW1 3707   1.204   1.095   6.207
  936SOL    HW2 3708   1.274   1.145   6.068
  937SOL     OW 3709   3.403   1.787   6.082
  937SOL    HW1 3710   3.428   1.737   5.999
  937SOL    HW2 3711   3.472   1.857   6.101
  938SOL     OW 3712   5.018   6.666   4.755
  938SOL    HW1 3713   5.115   6.692   4.759
  938SOL    HW2 3714   4.990   6.631   4.844
  939SOL     OW 3715   1.627   0.256   4.763
  939SOL    HW1 3716   1.695   0.190   4.794
  939SOL    HW2 3717   1.639   0.271   4.665
  940SOL     OW 3718   1.948   4.996   0.628
  940SOL    HW1 3719   1.937   4.898   0.647
  940SOL    HW2 3720   2.026   5.032   0.680
  941SOL     OW 3721   3.970   6.712   1.268
  941SOL    HW1 3722   3.937   6.803   1.242
  941SOL    HW2 3723   4.069   6.708   1.258
  942SOL     OW 3724   0.233   5.068   0.057
  942SOL    HW1 3725   0.148   5.054   0.006
  942SOL    HW2 3726   0.212   5.077   0.155
  943SOL     OW 3727   3.063   6.743   1.357
  943SOL    HW1 3728   3.058   6.659   1.410
  943SOL    HW2 3729   2.981   6.797   1.372
  944SOL     OW 3730   6.360   5.741   3.804
  944SOL    HW1 3731   6.375   5.839   3.819
  944SOL    HW2 3732   6.318   5.701   3.886
  945SOL     OW 3733   0.156   4.956   6.342
  945SOL    HW1 3734   0.136   5.046   6.303
  945SOL    HW2 3735   0.227   4.911   6.288
  946SOL     OW 3736   6.179   1.978   4.128
  946SOL    HW1 3737   6.108   2.014   4.189
  946SOL    HW2 3738   6.268   2.018   4.153
  947SOL     OW 3739   3.351   4.044   2.881
  947SOL    HW1 3740   3.295   4.049   2.964
  947SOL    HW2 3741   3.292   4.040   2.801
  948SOL     OW 3742   3.737   2.163   3.672
  948SOL    HW1 3743   3.688   2.142   3.587
  948SOL    HW2 3744   3.830   2.127   3.666
  949SOL     OW 3745   1.794   0.278   5.452
  949SOL    HW1 3746   1.739   0.360   5.439
  949SOL    HW2 3747   1.801   0.257   5.550
  950SOL     OW 3748   6.614   0.597   1.487
  950SOL    HW1 3749   6.576   0.680   1.528
  950SOL    HW2 3750   6.550   0.521   1.499
  951SOL     OW 3751   1.394   0.302   2.594
  951SOL    HW1 3752   1.447   0.243   2.534
  951SOL    HW2 3753   1.361   0.248   2.672
  952SOL     OW 3754   3.267   1.713   2.772
  952SOL    HW1 3755   3.311   1.632   2.734
  952SOL    HW2 3756   3.246   1.697   2.868
  953SOL     OW 3757   0.482   6.032   5.284
  953SOL    HW1 3758   0.523   6.116   5.320
  953SOL    HW2 3759   0.383   6.044   5.278
  954SOL     OW 3760   4.372   6.483   2.613
  954SOL    HW1 3761   4.367   6.395   2.660
  954SOL    HW2 3762   4.291   6.495   2.556
  955SOL     OW 3763   3.306   4.086   1.281
  955SOL    HW1 3764   3.315   4.132   1.193
  955SOL    HW2 3765   3.377   4.119   1.343
  956SOL     OW 3766   3.376   7.019   0.740
  956SOL    HW1 3767   3.461   6.967   0.735
  956SOL    HW2 3768   3.370   0.061   0.662
  957SOL     OW 3769   6.216   0.181   2.805
  957SOL    HW1 3770   6.169   0.265   2.777
  957SOL    HW2 3771   6.306   0.204   2.842
  958SOL     OW 3772   5.676   5.151   1.960
  958SOL    HW1 3773   5.695   5.090   1.883
  958SOL    HW2 3774   5.652   5.242   1.926
  959SOL     OW 3775   5.351   5.967   1.972
  959SOL    HW1 3776   5.448   5.988   1.965
  959SOL    HW2 3777   5.331   5.885   1.919
  960SOL     OW 3778   1.026   6.930   6.253
  960SOL    HW1 3779   1.029   6.888   6.343
  960SOL    HW2 3780   1.083   7.013   6.253
  961SOL     OW 3781   4.265   1.230   4.045
  961SOL    HW1 3782   4.310   1.278   3.971
  961SOL    HW2 3783   4.192   1.287   4.082
  962SOL     OW 3784   0.143   1.020   5.034
  962SOL    HW1 3785   0.054   1.023   5.080
  962SOL    HW2 3786   0.210   1.070   5.088
  963SOL     OW 3787   5.964   2.478   1.334
  963SOL    HW1 3788   6.012   2.552   1.382
  963SOL    HW2 3789   5.887   2.516   1.283
  964SOL     OW 3790   4.023   6.296   4.803
  964SOL    HW1 3791   4.045   6.198   4.805
  964SOL    HW2 3792   4.055   6.335   4.717
  965SOL     OW 3793   4.879   1.669   4.229
  965SOL    HW1 3794   4.884   1.728   4.148
  965SOL    HW2 3795   4.938   1.705   4.301
  966SOL     OW 3796   5.109   1.157   3.096
  966SOL    HW1 3797   5.152   1.163   3.187
  966SOL    HW2 3798   5.075   1.247   3.070
  967SOL     OW 3799   4.813   5.646   5.817
  967SOL    HW1 3800   4.909   5.632   5.839
  967SOL    HW2 3801   4.797   5.743   5.799
  968SOL     OW 3802   4.344   6.927   1.546
  968SOL    HW1 3803   4.411   7.001   1.535
  968SOL    HW2 3804   4.383   6.841   1.511
  969SOL     OW 3805   3.292   3.272   6.749
  969SOL    HW1 3806   3.292   3.370   6.727
  969SOL    HW2 3807   3.320   3.220   6.668
  970SOL     OW 3808   4.449   6.151   5.436
  970SOL    HW1 3809   4.478   6.057   5.455
  970SOL    HW2 3810   4.519   6.197   5.381
  971SOL     OW 3811   4.877   3.198   3.766
  971SOL    HW1 3812   4.870   3.285   3.813
  971SOL    HW2 3813   4.837   3.125   3.822
  972SOL     OW 3814   0.989   1.648   1.119
  972SOL    HW1 3815   1.001   1.579   1.047
  972SOL    HW2 3816   0.928   1.612   1.189
  973SOL     OW 3817   6.760   2.714   5.118
  973SOL    HW1 3818   6.842   2.755   5.077
  973SOL    HW2 3819   6.678   2.752   5.075
  974SOL     OW 3820   1.665   3.301   1.739
  974SOL    HW1 3821   1.610   3.243   1.679
  974SOL    HW2 3822   1.701   3.247   1.815
  975SOL     OW 3823   3.237   0.655   2.267
  975SOL    HW1 3824   3.208   0.636   2.174
  975SOL    HW2 3825   3.337   0.658   2.272
  976SOL     OW 3826   0.398   3.091   3.601
  976SOL    HW1 3827   0.455   3.172   3.618
  976SOL    HW2 3828   0.324   3.087   3.668
  977SOL     OW 3829   6.799   1.567   2.202
  977SOL    HW1 3830   6.841   1.656   2.221
  977SOL    HW2 3831   6.710   1.581   2.158
  978SOL     OW 3832   5.599   2.054   0.585
  978SOL    HW1 3833   5.683   2.007   0.556
  978SOL    HW2 3834   5.607   2.079   0.681
  979SOL     OW 3835   0.023   5.212   6.529
  979SOL    HW1 3836   0.001   5.234   6.624
  979SOL    HW2 3837   0.120   5.190   6.521
  980SOL     OW 3838   5.300   1.791   4.219
  980SOL    HW1 3839   5.259   1.785   4.129
  980SOL    HW2 3840   5.337   1.883   4.233
  981SOL     OW 3841   0.531   6.059   6.064
  981SOL    HW1 3842   0.571   6.016   5.983
  981SOL    HW2 3843   0.461   5.999   6.103
  982SOL     OW 3844   6.958   0.352   6.407
  982SOL    HW1 3845   6.877   0.295   6.394
  982SOL    HW2 3846   0.020   0.296   6.398
  983SOL     OW 3847   7.009   3.873   2.211
  983SOL    HW1 3848   6.959   3.848   2.127
  983SOL    HW2 3849   0.086   3.854   2.198
  984SOL     OW 3850   0.189   3.936   4.609
  984SOL    HW1 3851   0.263   3.964   4.548
  984SOL    HW2 3852   0.225   3.871   4.677
  985SOL     OW 3853   5.430   4.800   5.963
  985SOL    HW1 3854   5.530   4.805   5.968
  985SOL    HW2 3855   5.400   4.707   5.987
  986SOL     OW 3856   3.783   5.535   1.822
  986SOL    HW1 3857   3.722   5.578   1.889
  986SOL    HW2 3858   3.731   5.503   1.744
  987SOL     OW 3859   4.237   4.897   4.365
  987SOL    HW1 3860   4.196   4.833   4.430
  987SOL    HW2 3861   4.166   4.931   4.302
  988SOL     OW 3862   3.115   4.803   1.631
  988SOL    HW1 3863   3.177   4.733   1.667
  988SOL    HW2 3864   3.021   4.783   1.661
  989SOL     OW 3865   0.705   2.125   1.320
  989SOL    HW1 3866   0.793   2.133   1.273
  989SOL    HW2 3867   0.676   2.030   1.321
  990SOL     OW 3868   3.226   6.957   5.118
  990SOL    HW1 3869   3.270   6.978   5.030
  990SOL    HW2 3870   3.199   0.022   5.162
  991SOL     OW 3871   1.238   6.397   4.179
  991SOL    HW1 3872   1.172   6.335   4.221
  991SOL    HW2 3873   1.324   6.394   4.232
  992SOL     OW 3874   6.425   3.425   1.479
  992SOL    HW1 3875   6.330   3.394   1.473
  992SOL    HW2 3876   6.455   3.423   1.574
  993SOL     OW 3877   2.019   5.082   0.023
  993SOL    HW1 3878   1.995   4.986   0.041
  993SOL    HW2 3879   2.115   5.087   7.018
  994SOL     OW 3880   2.686   6.598   1.742
  994SOL    HW1 3881   2.597   6.642   1.757
  994SOL    HW2 3882   2.680   6.535   1.665
  995SOL     OW 3883   5.425   4.306   4.859
  995SOL    HW1 3884   5.409   4.236   4.928
  995SOL    HW2 3885   5.420   4.265   4.768
  996SOL     OW 3886   3.937   6.499   5.314
  996SOL    HW1 3887   3.947   6.468   5.220
  996SOL    HW2 3888   3.918   6.597   5.315
  997SOL     OW 3889   1.316   6.530   3.244
  997SOL    HW1 3890   1.295   6.499   3.337
  997SOL    HW2 3891   1.237   6.579   3.206
  998SOL     OW 3892   4.577   7.018   6.697
  998SOL    HW1 3893   4.603   0.092   6.675
  998SOL    HW2 3894   4.485   7.017   6.737
  999SOL     OW 3895   6.003   3.133   2.221
  999SOL    HW1 3896   6.056   3.218   2.216
  999SOL    HW2 3897   6.029   3.073   2.145
 1000SOL     OW 3898   6.061   1.555   2.256
 1000SOL    HW1 3899   6.155   1.589   2.247
 1000SOL    HW2 3900   6.027   1.528   2.166
 1001SOL     OW 3901   2.580   7.004   3.308
 1001SOL    HW1 3902   2.539   7.019   3.398
 1001SOL    HW2 3903   2.654   0.049   3.294
 1002SOL     OW 3904   4.630   2.456   0.402
 1002SOL    HW1 3905   4.658   2.429   0.494
 1002SOL    HW2 3906   4.564   2.390   0.366
 1003SOL     OW 3907   1.177   2.002   3.970
 1003SOL    HW1 3908   1.190   1.971   3.876
 1003SOL    HW2 3909   1.100   1.953   4.011
 1004SOL     OW 3910   4.329   1.596   4.946
 1004SOL    HW1 3911   4.260   1.606   4.875
 1004SOL    HW2 3912   4.351   1.500   4.959
 1005SOL     OW 3913   0.578   5.666   1.797
 1005SOL    HW1 3914   0.628   5.583   1.773
 1005SOL    HW2 3915   0.481   5.645   1.804
 1006SOL     OW 3916   1.666   4.122   1.754
 1006SOL    HW1 3917   1.662   4.063   1.835
 1006SOL    HW2 3918   1.594   4.190   1.759
 1007SOL     OW 3919   4.812   0.841   6.058
 1007SOL    HW1 3920   4.848   0.748   6.061
 1007SOL    HW2 3921   4.717   0.840   6.091
 1008SOL     OW 3922   0.378   4.509   4.320
 1008SOL    HW1 3923   0.410   4.532   4.229
 1008SOL    HW2 3924   0.302   4.445   4.314
 1009SOL     OW 3925   6.518   5.978   6.577
 1009SOL    HW1 3926   6.587   6.023   6.633
 1009SOL    HW2 3927   6.497   6.035   6.497
 1010SOL     OW 3928   3.333   3.856   0.082
 1010SOL    HW1 3929   3.364   3.813   7.017
 1010SOL    HW2 3930   3.236   3.878   0.075
 1011SOL     OW 3931   6.812   5.346   2.531
 1011SOL    HW1 3932   6.785   5.374   2.623
 1011SOL    HW2 3933   6.748   5.385   2.465
 1012SOL     OW 3934   5.124   6.172   3.031
 1012SOL    HW1 3935   5.114   6.100   3.100
 1012SOL    HW2 3936   5.184   6.140   2.958
 1013SOL     OW 3937   0.440   1.259   5.908
 1013SOL    HW1 3938   0.380   1.339   5.898
 1013SOL    HW2 3939   0.410   1.205   5.986
 1014SOL     OW 3940   0.710   4.624   4.373
 1014SOL    HW1 3941   0.744   4.530   4.370
 1014SOL    HW2 3942   0.638   4.631   4.442
 1015SOL     OW 3943   3.028   6.239   6.722
 1015SOL    HW1 3944   2.948   6.299   6.725
 1015SOL    HW2 3945   3.076   6.251   6.636
 1016SOL     OW 3946   6.793   4.691   0.607
 1016SOL    HW1 3947   6.772   4.759   0.678
 1016SOL    HW2 3948   6.892   4.690   0.590
 1017SOL     OW 3949   1.328   0.331   1.805
 1017SOL    HW1 3950   1.290   0.317   1.714
 1017SOL    HW2 3951   1.254   0.340   1.871
 1018SOL     OW 3952   5.782   5.796   6.516
 1018SOL    HW1 3953   5.751   5.890   6.531
 1018SOL    HW2 3954   5.703   5.734   6.520
 1019SOL     OW 3955   6.667   3.680   2.062
 1019SOL    HW1 3956   6.674   3.780   2.057
 1019SOL    HW2 3957   6.757   3.640   2.047
 1020SOL     OW 3958   5.207   1.397   1.303
 1020SOL    HW1 3959   5.173   1.371   1.212
 1020SOL    HW2 3960   5.147   1.357   1.373
 1021SOL     OW 3961   1.341   6.831   0.748
 1021SOL    HW1 3962   1.277   6.893   0.793
 1021SOL    HW2 3963   1.297   6.743   0.732
 1022SOL     OW 3964   1.904   5.118   6.241
 1022SOL    HW1 3965   1.849   5.044   6.202
 1022SOL    HW2 3966   1.913   5.105   6.340
 1023SOL     OW 3967   0.819   2.279   2.412
 1023SOL    HW1 3968   0.750   2.338   2.454
 1023SOL    HW2 3969   0.825   2.300   2.314
 1024SOL     OW 3970   1.663   2.972   4.835
 1024SOL    HW1 3971   1.728   2.954   4.761
 1024SOL    HW2 3972   1.713   2.985   4.921
 1025SOL     OW 3973   4.355   4.624   0.820
 1025SOL    HW1 3974   4.274   4.611   0.877
 1025SOL    HW2 3975   4.434   4.583   0.866
 1026SOL     OW 3976   3.509   2.764   1.607
 1026SOL    HW1 3977   3.477   2.739   1.515
 1026SOL    HW2 3978   3.606   2.787   1.603
 1027SOL     OW 3979   6.122   0.667   0.268
 1027SOL    HW1 3980   6.028   0.680   0.303
 1027SOL    HW2 3981   6.157   0.580   0.300
 1028SOL     OW 3982   0.705   5.581   3.590
 1028SOL    HW1 3983   0.706   5.514   3.516
 1028SOL    HW2 3984   0.798   5.603   3.618
 1029SOL     OW 3985   0.944   0.479   4.947
 1029SOL    HW1 3986   0.980   0.466   4.855
 1029SOL    HW2 3987   0.873   0.412   4.965
 1030SOL     OW 3988   4.319   3.523   0.849
 1030SOL    HW1 3989   4.363   3.445   0.893
 1030SOL    HW2 3990   4.249   3.492   0.786
 1031SOL     OW 3991   4.209   2.503   0.330
 1031SOL    HW1 3992   4.272   2.581   0.332
 1031SOL    HW2 3993   4.158   2.500   0.416
 1032SOL     OW 3994   1.295   1.257   1.159
 1032SOL    HW1 3995   1.393   1.247   1.176
 1032SOL    HW2 3996   1.270   1.353   1.164
 1033SOL     OW 3997   6.160   0.186   1.826
 1033SOL    HW1 3998   6.121   0.270   1.864
 1033SOL    HW2 3999   6.259   0.189   1.834
 1034SOL     OW 4000   2.021   0.185   5.007
 1034SOL    HW1 4001   2.109   0.200   4.962
 1034SOL    HW2 4002   2.032   0.120   5.082
 1035SOL     OW 4003   1.545   7.008   0.068
 1035SOL    HW1 4004   1.601   7.015   0.150
 1035SOL    HW2 4005   1.601   6.971   7.013
 1036SOL     OW 4006   5.573   1.360   2.667
 1036SOL    HW1 4007   5.638   1.284   2.665
 1036SOL    HW2 4008   5.616   1.440   2.707
 1037SOL     OW 4009   0.532   4.258   2.743
 1037SOL    HW1 4010   0.606   4.285   2.682
 1037SOL    HW2 4011   0.565   4.189   2.808
 1038SOL     OW 4012   1.297   6.296   6.504
 1038SOL    HW1 4013   1.369   6.307   6.573
 1038SOL    HW2 4014   1.334   6.247   6.425
 1039SOL     OW 4015   3.046   3.778   3.024
 1039SOL    HW1 4016   3.081   3.690   2.993
 1039SOL    HW2 4017   2.973   3.762   3.092
 1040SOL     OW 4018   4.174   1.725   2.875
 1040SOL    HW1 4019   4.186   1.650   2.941
 1040SOL    HW2 4020   4.177   1.812   2.923
 1041SOL     OW 4021   0.139   0.052   6.728
 1041SOL    HW1 4022   0.179   6.994   6.682
 1041SOL    HW2 4023   0.201   0.085   6.799
 1042SOL     OW 4024   5.616   3.380   4.120
 1042SOL    HW1 4025   5.570   3.312   4.063
 1042SOL    HW2 4026   5.553   3.455   4.139
 1043SOL     OW 4027   1.968   2.356   3.650
 1043SOL    HW1 4028   2.013   2.391   3.569
 1043SOL    HW2 4029   1.942   2.432   3.710
 1044SOL     OW 4030   4.929   4.260   2.106
 1044SOL    HW1 4031   4.859   4.326   2.133
 1044SOL    HW2 4032   4.896   4.168   2.123
 1045SOL     OW 4033   1.918   0.246   2.523
 1045SOL    HW1 4034   1.934   0.154   2.558
 1045SOL    HW2 4035   1.999   0.303   2.541
 1046SOL     OW 4036   3.648   2.350   0.735
 1046SOL    HW1 4037   3.707   2.404   0.675
 1046SOL    HW2 4038   3.612   2.408   0.808
 1047SOL     OW 4039   3.887   0.865   3.952
 1047SOL    HW1 4040   3.846   0.779   3.982
 1047SOL    HW2 4041   3.889   0.868   3.852
 1048SOL     OW 4042   6.656   0.122   1.998
 1048SOL    HW1 4043   6.627   0.136   2.093
 1048SOL    HW2 4044   6.755   0.116   1.993
 1049SOL     OW 4045   3.342   6.795   0.507
 1049SOL    HW1 4046   3.275   6.791   0.580
 1049SOL    HW2 4047   3.324   6.874   0.449
 1050SOL     OW 4048   2.631   1.647   4.627
 1050SOL    HW1 4049   2.663   1.605   4.541
 1050SOL    HW2 4050   2.647   1.583   4.703
 1051SOL     OW 4051   1.672   2.188   5.628
 1051SOL    HW1 4052   1.653   2.242   5.545
 1051SOL    HW2 4053   1.588   2.141   5.656
 1052SOL     OW 4054   4.409   2.580   6.205
 1052SOL    HW1 4055   4.500   2.577   6.246
 1052SOL    HW2 4056   4.403   2.659   6.144
 1053SOL     OW 4057   4.571   2.691   4.939
 1053SOL    HW1 4058   4.518   2.656   4.861
 1053SOL    HW2 4059   4.516   2.758   4.989
 1054SOL     OW 4060   5.127   5.263   6.653
 1054SOL    HW1 4061   5.049   5.213   6.617
 1054SOL    HW2 4062   5.178   5.305   6.578
 1055SOL     OW 4063   5.505   5.684   6.055
 1055SOL    HW1 4064   5.476   5.593   6.025
 1055SOL    HW2 4065   5.545   5.679   6.146
 1056SOL     OW 4066   3.578   3.518   0.000
 1056SOL    HW1 4067   3.649   3.561   0.056
 1056SOL    HW2 4068   3.495   3.507   0.055
 1057SOL     OW 4069   2.912   3.962   6.647
 1057SOL    HW1 4070   2.958   4.041   6.687
 1057SOL    HW2 4071   2.980   3.906   6.599
 1058SOL     OW 4072   2.744   1.948   1.492
 1058SOL    HW1 4073   2.837   1.921   1.469
 1058SOL    HW2 4074   2.734   2.047   1.485
 1059SOL     OW 4075   2.076   6.285   2.694
 1059SOL    HW1 4076   2.088   6.370   2.746
 1059SOL    HW2 4077   2.148   6.220   2.720
 1060SOL     OW 4078   6.569   6.728   4.823
 1060SOL    HW1 4079   6.472   6.739   4.844
 1060SOL    HW2 4080   6.604   6.646   4.868
 1061SOL     OW 4081   0.380   4.137   6.056
 1061SOL    HW1 4082   0.306   4.201   6.074
 1061SOL    HW2 4083   0.379   4.111   5.959
 1062SOL     OW 4084   4.115   4.988   5.801
 1062SOL    HW1 4085   4.056   5.068   5.805
 1062SOL    HW2 4086   4.070   4.910   5.844
 1063SOL     OW 4087   2.925   5.966   3.717
 1063SOL    HW1 4088   2.867   5.996   3.793
 1063SOL    HW2 4089   2.904   5.871   3.696
 1064SOL     OW 4090   1.027   3.867   0.146
 1064SOL    HW1 4091   0.955   3.933   0.125
 1064SOL    HW2 4092   0.986   3.784   0.185
 1065SOL     OW 4093   5.907   1.257   5.647
 1065SOL    HW1 4094   5.807   1.253   5.644
 1065SOL    HW2 4095   5.940   1.328   5.584
 1066SOL     OW 4096   4.736   6.159   0.923
 1066SOL    HW1 4097   4.774   6.164   1.015
 1066SOL    HW2 4098   4.640   6.130   0.929
 1067SOL     OW 4099   4.043   1.202   0.631
 1067SOL    HW1 4100   4.014   1.106   0.636
 1067SOL    HW2 4101   3.970   1.260   0.666
 1068SOL     OW 4102   5.998   2.732   2.473
 1068SOL    HW1 4103   5.988   2.633   2.469
 1068SOL    HW2 4104   6.077   2.756   2.530
 1069SOL     OW 4105   0.734   1.350   2.991
 1069SOL    HW1 4106   0.681   1.433   3.011
 1069SOL    HW2 4107   0.672   1.274   2.972
 1070SOL     OW 4108   1.127   0.420   1.947
 1070SOL    HW1 4109   1.191   0.496   1.962
 1070SOL    HW2 4110   1.077   0.402   2.032
 1071SOL     OW 4111   1.207   3.041   5.682
 1071SOL    HW1 4112   1.255   3.043   5.770
 1071SOL    HW2 4113   1.133   2.973   5.686
 1072SOL     OW 4114   2.269   1.516   1.608
 1072SOL    HW1 4115   2.292   1.420   1.622
 1072SOL    HW2 4116   2.352   1.571   1.618
 1073SOL     OW 4117   5.033   1.831   2.540
 1073SOL    HW1 4118   4.963   1.766   2.510
 1073SOL    HW2 4119   5.103   1.839   2.469
 1074SOL     OW 4120   3.413   6.254   1.594
 1074SOL    HW1 4121   3.436   6.351   1.586
 1074SOL    HW2 4122   3.349   6.229   1.521
 1075SOL     OW 4123   6.924   4.023   4.688
 1075SOL    HW1 4124   7.007   3.991   4.733
 1075SOL    HW2 4125   6.861   3.946   4.677
 1076SOL     OW 4126   2.677   4.402   5.804
 1076SOL    HW1 4127   2.579   4.412   5.791
 1076SOL    HW2 4128   2.705   4.309   5.781
 1077SOL     OW 4129   6.773   6.721   0.832
 1077SOL    HW1 4130   6.680   6.718   0.796
 1077SOL    HW2 4131   6.774   6.689   0.926
 1078SOL     OW 4132   6.002   0.014   3.907
 1078SOL    HW1 4133   5.949   0.026   3.823
 1078SOL    HW2 4134   5.977   6.947   3.950
 1079SOL     OW 4135   1.083   5.553   1.291
 1079SOL    HW1 4136   1.000   5.606   1.305
 1079SOL    HW2 4137   1.158   5.613   1.262
 1080SOL     OW 4138   5.223   6.059   0.511
 1080SOL    HW1 4139   5.287   6.045   0.435
 1080SOL    HW2 4140   5.146   6.114   0.481
 1081SOL     OW 4141   6.922   6.700   3.306
 1081SOL    HW1 4142   6.966   6.771   3.251
 1081SOL    HW2 4143   6.968   6.692   3.394
 1082SOL     OW 4144   4.803   6.649   6.976
 1082SOL    HW1 4145   4.833   6.559   6.946
 1082SOL    HW2 4146   4.774   6.703   6.897
 1083SOL     OW 4147   6.338   3.839   2.468
 1083SOL    HW1 4148   6.267   3.770   2.453
 1083SOL    HW2 4149   6.423   3.808   2.424
 1084SOL     OW 4150   3.903   0.060   5.185
 1084SOL    HW1 4151   3.922   0.123   5.261
 1084SOL    HW2 4152   3.892   0.112   5.100
 1085SOL     OW 4153   2.162   3.203   4.478
 1085SOL    HW1 4154   2.182   3.279   4.538
 1085SOL    HW2 4155   2.239   3.188   4.415
 1086SOL     OW 4156   5.122   4.192   2.821
 1086SOL    HW1 4157   5.213   4.159   2.799
 1086SOL    HW2 4158   5.053   4.140   2.770
 1087SOL     OW 4159   3.559   0.370   5.723
 1087SOL    HW1 4160   3.618   0.289   5.720
 1087SOL    HW2 4161   3.573   0.418   5.809
 1088SOL     OW 4162   6.238   5.856   4.271
 1088SOL    HW1 4163   6.327   5.903   4.267
 1088SOL    HW2 4164   6.246   5.773   4.326
 1089SOL     OW 4165   6.136   5.034   4.547
 1089SOL    HW1 4166   6.139   4.934   4.547
 1089SOL    HW2 4167   6.065   5.065   4.610
 1090SOL     OW 4168   6.096   2.732   4.946
 1090SOL    HW1 4169   6.158   2.788   5.002
 1090SOL    HW2 4170   6.090   2.773   4.854
 1091SOL     OW 4171   1.839   3.475   3.860
 1091SOL    HW1 4172   1.857   3.553   3.920
 1091SOL    HW2 4173   1.809   3.507   3.770
 1092SOL     OW 4174   0.923   5.779   0.278
 1092SOL    HW1 4175   0.928   5.827   0.190
 1092SOL    HW2 4176   0.832   5.737   0.288
 1093SOL     OW 4177   2.045   0.272   3.214
 1093SOL    HW1 4178   2.121   0.208   3.200
 1093SOL    HW2 4179   1.970   0.250   3.151
 1094SOL     OW 4180   0.312   0.098   3.589
 1094SOL    HW1 4181   0.252   0.171   3.556
 1094SOL    HW2 4182   0.369   0.133   3.664
 1095SOL     OW 4183   6.563   5.042   1.034
 1095SOL    HW1 4184   6.489   5.004   0.978
 1095SOL    HW2 4185   6.567   4.994   1.121
 1096SOL     OW 4186   2.102   6.181   2.304
 1096SOL    HW1 4187   2.115   6.086   2.334
 1096SOL    HW2 4188   2.128   6.243   2.378
 1097SOL     OW 4189   3.068   5.380   4.759
 1097SOL    HW1 4190   3.077   5.453   4.691
 1097SOL    HW2 4191   3.050   5.293   4.712
 1098SOL     OW 4192   0.237   4.019   0.337
 1098SOL    HW1 4193   0.270   3.943   0.280
 1098SOL    HW2 4194   0.194   3.982   0.419
 1099SOL     OW 4195   5.525   0.178   6.844
 1099SOL    HW1 4196   5.557   0.259   6.795
 1099SOL    HW2 4197   5.571   0.097   6.807
 1100SOL     OW 4198   4.969   0.703   4.042
 1100SOL    HW1 4199   4.936   0.735   3.953
 1100SOL    HW2 4200   5.021   0.776   4.087
 1101SOL     OW 4201   4.607   2.529   0.005
 1101SOL    HW1 4202   4.575   2.435   0.009
 1101SOL    HW2 4203   4.529   2.591   0.004
 1102SOL     OW 4204   4.042   1.346   4.622
 1102SOL    HW1 4205   4.031   1.298   4.535
 1102SOL    HW2 4206   4.090   1.287   4.687
 1103SOL     OW 4207   2.972   6.148   0.567
 1103SOL    HW1 4208   2.990   6.050   0.574
 1103SOL    HW2 4209   2.947   6.184   0.657
 1104SOL     OW 4210   6.261   1.181   3.767
 1104SOL    HW1 4211   6.183   1.226   3.723
 1104SOL    HW2 4212   6.339   1.243   3.766
 1105SOL     OW 4213   4.867   0.450   5.355
 1105SOL    HW1 4214   4.895   0.484   5.265
 1105SOL    HW2 4215   4.774   0.479   5.374
 1106SOL     OW 4216   6.333   1.426   2.333
 1106SOL    HW1 4217   6.320   1.458   2.239
 1106SOL    HW2 4218   6.427   1.442   2.361
 1107SOL     OW 4219   1.198   2.463   6.625
 1107SOL    HW1 4220   1.169   2.485   6.532
 1107SOL    HW2 4221   1.279   2.517   6.648
 1108SOL     OW 4222   2.653   1.662   2.375
 1108SOL    HW1 4223   2.669   1.704   2.286
 1108SOL    HW2 4224   2.571   1.605   2.370
 1109SOL     OW 4225   5.161   1.668   5.455
 1109SOL    HW1 4226   5.093   1.711   5.514
 1109SOL    HW2 4227   5.221   1.609   5.509
 1110SOL     OW 4228   1.443   0.383   2.225
 1110SOL    HW1 4229   1.451   0.467   2.170
 1110SOL    HW2 4230   1.528   0.368   2.274
 1111SOL     OW 4231   4.833   3.462   6.078
 1111SOL    HW1 4232   4.923   3.504   6.071
 1111SOL    HW2 4233   4.779   3.511   6.147
 1112SOL     OW 4234   6.205   0.678   2.767
 1112SOL    HW1 4235   6.288   0.668   2.822
 1112SOL    HW2 4236   6.135   0.723   2.822
 1113SOL     OW 4237   0.835   1.367   2.645
 1113SOL    HW1 4238   0.837   1.277   2.689
 1113SOL    HW2 4239   0.927   1.405   2.643
 1114SOL     OW 4240   3.655   3.240   4.500
 1114SOL    HW1 4241   3.673   3.254   4.403
 1114SOL    HW2 4242   3.706   3.160   4.532
 1115SOL     OW 4243   2.019   5.425   6.031
 1115SOL    HW1 4244   1.923   5.399   6.039
 1115SOL    HW2 4245   2.076   5.343   6.039
 1116SOL     OW 4246   4.427   6.813   0.322
 1116SOL    HW1 4247   4.484   6.865   0.258
 1116SOL    HW2 4248   4.395   6.730   0.277
 1117SOL     OW 4249   1.975   2.560   1.523
 1117SOL    HW1 4250   2.070   2.585   1.539
 1117SOL    HW2 4251   1.970   2.493   1.449
 1118SOL     OW 4252   4.364   6.836   6.886
 1118SOL    HW1 4253   4.379   6.928   6.923
 1118SOL    HW2 4254   4.446   6.781   6.899
 1119SOL     OW 4255   3.121   6.310   4.107
 1119SOL    HW1 4256   3.026   6.331   4.129
 1119SOL    HW2 4257   3.176   6.317   4.190
 1120SOL     OW 4258   0.439   3.266   1.612
 1120SOL    HW1 4259   0.534   3.286   1.588
 1120SOL    HW2 4260   0.402   3.197   1.549
 1121SOL     OW 4261   5.723   4.237   5.910
 1121SOL    HW1 4262   5.636   4.191   5.929
 1121SOL    HW2 4263   5.799   4.179   5.939
 1122SOL     OW 4264   5.861   0.696   2.538
 1122SOL    HW1 4265   5.836   0.757   2.614
 1122SOL    HW2 4266   5.790   0.626   2.526
 1123SOL     OW 4267   3.472   2.065   4.939
 1123SOL    HW1 4268   3.382   2.023   4.944
 1123SOL    HW2 4269   3.477   2.122   4.856
 1124SOL     OW 4270   2.640   2.376   3.432
 1124SOL    HW1 4271   2.630   2.367   3.531
 1124SOL    HW2 4272   2.598   2.462   3.402
 1125SOL     OW 4273   1.090   3.143   3.849
 1125SOL    HW1 4274   1.162   3.122   3.915
 1125SOL    HW2 4275   1.131   3.168   3.761
 1126SOL     OW 4276   4.804   4.609   3.592
 1126SOL    HW1 4277   4.713   4.572   3.611
 1126SOL    HW2 4278   4.798   4.709   3.583
 1127SOL     OW 4279   5.644   0.050   0.875
 1127SOL    HW1 4280   5.611   0.112   0.803
 1127SOL    HW2 4281   5.661   6.980   0.835
 1128SOL     OW 4282   3.182   1.793   4.727
 1128SOL    HW1 4283   3.088   1.765   4.745
 1128SOL    HW2 4284   3.237   1.714   4.702
 1129SOL     OW 4285   1.365   0.632   0.096
 1129SOL    HW1 4286   1.292   0.664   0.035
 1129SOL    HW2 4287   1.436   0.702   0.102
 1130SOL     OW 4288   2.184   5.794   0.974
 1130SOL    HW1 4289   2.245   5.725   1.012
 1130SOL    HW2 4290   2.212   5.815   0.880
 1131SOL     OW 4291   1.266   5.673   3.569
 1131SOL    HW1 4292   1.281   5.577   3.594
 1131SOL    HW2 4293   1.346   5.727   3.595
 1132SOL     OW 4294   1.329   2.440   3.178
 1132SOL    HW1 4295   1.373   2.495   3.107
 1132SOL    HW2 4296   1.269   2.372   3.136
 1133SOL     OW 4297   1.202   6.039   0.041
 1133SOL    HW1 4298   1.235   6.056   6.969
 1133SOL    HW2 4299   1.238   6.108   0.103
 1134SOL     OW 4300   3.930   5.423   0.991
 1134SOL    HW1 4301   3.991   5.491   1.033
 1134SOL    HW2 4302   3.968   5.395   0.903
 1135SOL     OW 4303   1.886   6.694   3.130
 1135SOL    HW1 4304   1.970   6.658   3.169
 1135SOL    HW2 4305   1.856   6.635   3.055
 1136SOL     OW 4306   1.749   5.113   2.864
 1136SOL    HW1 4307   1.800   5.198   2.856
 1136SOL    HW2 4308   1.808   5.041   2.900
 1137SOL     OW 4309   1.076   5.003   4.279
 1137SOL    HW1 4310   1.054   4.906   4.273
 1137SOL    HW2 4311   1.028   5.044   4.357
 1138SOL     OW 4312   2.524   4.563   4.271
 1138SOL    HW1 4313   2.523   4.647   4.217
 1138SOL    HW2 4314   2.564   4.582   4.361
 1139SOL     OW 4315   3.661   5.811   4.942
 1139SOL    HW1 4316   3.610   5.857   5.015
 1139SOL    HW2 4317   3.687   5.719   4.973
 1140SOL     OW 4318   2.032   3.079   1.093
 1140SOL    HW1 4319   1.950   3.086   1.150
 1140SOL    HW2 4320   2.106   3.039   1.147
 1141SOL     OW 4321   6.039   4.672   5.836
 1141SOL    HW1 4322   6.024   4.688   5.738
 1141SOL    HW2 4323   5.975   4.602   5.868
 1142SOL     OW 4324   0.369   5.923   2.702
 1142SOL    HW1 4325   0.356   5.960   2.795
 1142SOL    HW2 4326   0.286   5.877   2.673
 1143SOL     OW 4327   0.085   4.182   1.947
 1143SOL    HW1 4328   0.141   4.255   1.907
 1143SOL    HW2 4329   7.011   4.214   1.956
 1144SOL     OW 4330   5.267   4.898   6.882
 1144SOL    HW1 4331   5.275   4.879   6.784
 1144SOL    HW2 4332   5.214   4.825   6.926
 1145SOL     OW 4333   5.706   0.421   1.188
 1145SOL    HW1 4334   5.623   0.413   1.244
 1145SOL    HW2 4335   5.684   0.399   1.093
 1146SOL     OW 4336   1.518   0.183   1.400
 1146SOL    HW1 4337   1.549   0.277   1.410
 1146SOL    HW2 4338   1.483   0.149   1.487
 1147SOL     OW 4339   1.536   6.008   0.393
 1147SOL    HW1 4340   1.563   5.960   0.476
 1147SOL    HW2 4341   1.489   5.945   0.332
 1148SOL     OW 4342   3.783   5.930   1.863
 1148SOL    HW1 4343   3.857   5.862   1.860
 1148SOL    HW2 4344   3.711   5.903   1.800
 1149SOL     OW 4345   6.131   2.005   2.011
 1149SOL    HW1 4346   6.084   1.937   2.067
 1149SOL    HW2 4347   6.065   2.047   1.948
 1150SOL     OW 4348   1.269   1.719   0.901
 1150SOL    HW1 4349   1.240   1.696   0.808
 1150SOL    HW2 4350   1.354   1.671   0.923
 1151SOL     OW 4351   5.656   5.865   4.539
 1151SOL    HW1 4352   5.641   5.905   4.448
 1151SOL    HW2 4353   5.751   5.880   4.566
 1152SOL     OW 4354   3.195   6.251   5.807
 1152SOL    HW1 4355   3.236   6.185   5.871
 1152SOL    HW2 4356   3.120   6.300   5.852
 1153SOL     OW 4357   5.532   7.015   1.123
 1153SOL    HW1 4358   5.590   0.008   1.043
 1153SOL    HW2 4359   5.589   7.019   1.206
 1154SOL     OW 4360   1.827   3.144   1.278
 1154SOL    HW1 4361   1.757   3.101   1.334
 1154SOL    HW2 4362   1.791   3.227   1.237
 1155SOL     OW 4363   3.793   5.646   3.692
 1155SOL    HW1 4364   3.729   5.707   3.738
 1155SOL    HW2 4365   3.886   5.681   3.704
 1156SOL     OW 4366   2.793   0.594   1.110
 1156SOL    HW1 4367   2.787   0.686   1.072
 1156SOL    HW2 4368   2.857   0.539   1.056
 1157SOL     OW 4369   2.033   2.188   0.827
 1157SOL    HW1 4370   2.032   2.288   0.826
 1157SOL    HW2 4371   2.127   2.155   0.819
 1158SOL     OW 4372   5.580   4.510   4.019
 1158SOL    HW1 4373   5.540   4.601   4.007
 1158SOL    HW2 4374   5.558   4.454   3.939
 1159SOL     OW 4375   5.172   4.935   0.476
 1159SOL    HW1 4376   5.095   4.965   0.532
 1159SOL    HW2 4377   5.139   4.897   0.390
 1160SOL     OW 4378   4.165   1.946   1.149
 1160SOL    HW1 4379   4.163   1.847   1.162
 1160SOL    HW2 4380   4.149   1.992   1.236
 1161SOL     OW 4381   0.490   4.561   0.708
 1161SOL    HW1 4382   0.450   4.604   0.789
 1161SOL    HW2 4383   0.433   4.484   0.679
 1162SOL     OW 4384   2.194   2.996   4.845
 1162SOL    HW1 4385   2.233   2.992   4.753
 1162SOL    HW2 4386   2.267   2.983   4.912
 1163SOL     OW 4387   4.416   1.390   2.191
 1163SOL    HW1 4388   4.430   1.480   2.148
 1163SOL    HW2 4389   4.340   1.396   2.256
 1164SOL     OW 4390   3.859   1.936   5.973
 1164SOL    HW1 4391   3.913   1.860   6.008
 1164SOL    HW2 4392   3.920   2.006   5.936
 1165SOL     OW 4393   4.072   0.317   2.711
 1165SOL    HW1 4394   4.022   0.326   2.625
 1165SOL    HW2 4395   4.170   0.315   2.692
 1166SOL     OW 4396   3.763   4.071   6.932
 1166SOL    HW1 4397   3.749   4.058   6.834
 1166SOL    HW2 4398   3.674   4.079   6.977
 1167SOL     OW 4399   5.233   3.869   3.708
 1167SOL    HW1 4400   5.157   3.927   3.738
 1167SOL    HW2 4401   5.262   3.896   3.617
 1168SOL     OW 4402   0.187   6.985   0.454
 1168SOL    HW1 4403   0.272   6.994   0.505
 1168SOL    HW2 4404   0.132   0.047   0.466
 1169SOL     OW 4405   4.965   1.985   5.492
 1169SOL    HW1 4406   4.970   2.027   5.401
 1169SOL    HW2 4407   4.913   2.045   5.553
 1170SOL     OW 4408   5.357   4.199   3.207
 1170SOL    HW1 4409   5.430   4.155   3.154
 1170SOL    HW2 4410   5.268   4.173   3.169
 1171SOL     OW 4411   0.020   6.150   0.726
 1171SOL    HW1 4412   0.107   6.144   0.678
 1171SOL    HW2 4413   7.011   6.058   0.754
 1172SOL     OW 4414   5.778   2.883   6.825
 1172SOL    HW1 4415   5.848   2.812   6.833
 1172SOL    HW2 4416   5.688   2.840   6.818
 1173SOL     OW 4417   4.752   2.697   1.490
 1173SOL    HW1 4418   4.699   2.781   1.499
 1173SOL    HW2 4419   4.764   2.655   1.580
 1174SOL     OW 4420   2.618   5.322   6.975
 1174SOL    HW1 4421   2.608   5.322   6.876
 1174SOL    HW2 4422   2.579   5.405   7.013
 1175SOL     OW 4423   3.031   3.850   4.033
 1175SOL    HW1 4424   3.060   3.890   3.945
 1175SOL    HW2 4425   3.093   3.776   4.058
 1176SOL     OW 4426   5.477   3.556   0.392
 1176SOL    HW1 4427   5.555   3.600   0.348
 1176SOL    HW2 4428   5.394   3.577   0.342
 1177SOL     OW 4429   1.191   0.666   4.666
 1177SOL    HW1 4430   1.274   0.616   4.643
 1177SOL    HW2 4431   1.113   0.626   4.618
 1178SOL     OW 4432   4.182   6.585   6.665
 1178SOL    HW1 4433   4.176   6.681   6.693
 1178SOL    HW2 4434   4.275   6.565   6.635
 1179SOL     OW 4435   0.172   5.915   1.325
 1179SOL    HW1 4436   0.200   5.845   1.391
 1179SOL    HW2 4437   0.184   5.881   1.232
 1180SOL     OW 4438   3.680   6.465   0.522
 1180SOL    HW1 4439   3.665   6.554   0.564
 1180SOL    HW2 4440   3.779   6.448   0.513
 1181SOL     OW 4441   6.207   6.221   6.374
 1181SOL    HW1 4442   6.220   6.249   6.469
 1181SOL    HW2 4443   6.188   6.301   6.318
 1182SOL     OW 4444   4.935   3.615   4.413
 1182SOL    HW1 4445   4.907   3.533   4.463
 1182SOL    HW2 4446   5.022   3.648   4.449
 1183SOL     OW 4447   1.704   4.337   0.186
 1183SOL    HW1 4448   1.656   4.414   0.227
 1183SOL    HW2 4449   1.720   4.266   0.255
 1184SOL     OW 4450   0.557   1.390   5.222
 1184SOL    HW1 4451   0.623   1.336   5.274
 1184SOL    HW2 4452   0.553   1.483   5.259
 1185SOL     OW 4453   6.629   1.930   6.525
 1185SOL    HW1 4454   6.625   1.888   6.434
 1185SOL    HW2 4455   6.703   1.888   6.577
 1186SOL     OW 4456   4.806   6.359   3.752
 1186SOL    HW1 4457   4.767   6.267   3.762
 1186SOL    HW2 4458   4.905   6.353   3.751
 1187SOL     OW 4459   5.917   2.038   6.784
 1187SOL    HW1 4460   5.915   1.948   6.828
 1187SOL    HW2 4461   5.959   2.105   6.846
 1188SOL     OW 4462   4.200   1.944   6.053
 1188SOL    HW1 4463   4.165   2.002   6.127
 1188SOL    HW2 4464   4.256   1.871   6.093
 1189SOL     OW 4465   5.973   3.938   3.592
 1189SOL    HW1 4466   5.880   3.952   3.627
 1189SOL    HW2 4467   6.039   3.969   3.661
 1190SOL     OW 4468   2.592   1.033   3.833
 1190SOL    HW1 4469   2.562   1.126   3.854
 1190SOL    HW2 4470   2.569   0.973   3.910
 1191SOL     OW 4471   3.331   0.439   2.853
 1191SOL    HW1 4472   3.314   0.354   2.903
 1191SOL    HW2 4473   3.384   0.420   2.771
 1192SOL     OW 4474   5.581   5.704   4.189
 1192SOL    HW1 4475   5.625   5.790   4.215
 1192SOL    HW2 4476   5.636   5.659   4.118
 1193SOL     OW 4477   6.842   6.061   4.530
 1193SOL    HW1 4478   6.817   6.128   4.600
 1193SOL    HW2 4479   6.935   6.080   4.498
 1194SOL     OW 4480   3.573   0.436   1.142
 1194SOL    HW1 4481   3.566   0.490   1.225
 1194SOL    HW2 4482   3.636   0.359   1.157
 1195SOL     OW 4483   5.160   3.290   3.014
 1195SOL    HW1 4484   5.188   3.202   3.053
 1195SOL    HW2 4485   5.232   3.324   2.954
 1196SOL     OW 4486   0.020   6.304   5.196
 1196SOL    HW1 4487   0.100   6.357   5.169
 1196SOL    HW2 4488   6.968   6.366   5.227
 1197SOL     OW 4489   2.717   6.318   6.565
 1197SOL    HW1 4490   2.645   6.367   6.515
 1197SOL    HW2 4491   2.749   6.375   6.640
 1198SOL     OW 4492   1.364   2.808   0.485
 1198SOL    HW1 4493   1.369   2.846   0.393
 1198SOL    HW2 4494   1.269   2.814   0.518
 1199SOL     OW 4495   5.752   4.526   2.943
 1199SOL    HW1 4496   5.799   4.453   2.894
 1199SOL    HW2 4497   5.716   4.490   3.030
 1200SOL     OW 4498   3.380   4.015   2.105
 1200SOL    HW1 4499   3.387   3.925   2.149
 1200SOL    HW2 4500   3.295   4.020   2.052
 1201SOL     OW 4501   1.646   2.380   5.165
 1201SOL    HW1 4502   1.660   2.465   5.217
 1201SOL    HW2 4503   1.549   2.355   5.169
 1202SOL     OW 4504   0.893   6.433   4.881
 1202SOL    HW1 4505   0.867   6.363   4.814
 1202SOL    HW2 4506   0.992   6.441   4.885
 1203SOL     OW 4507   4.403   5.479   5.172
 1203SOL    HW1 4508   4.436   5.418   5.100
 1203SOL    HW2 4509   4.371   5.564   5.131
 1204SOL     OW 4510   2.127   0.320   2.706
 1204SOL    HW1 4511   2.169   0.316   2.615
 1204SOL    HW2 4512   2.199   0.315   2.775
 1205SOL     OW 4513   5.893   3.546   2.403
 1205SOL    HW1 4514   5.806   3.575   2.443
 1205SOL    HW2 4515   5.885   3.542   2.304
 1206SOL     OW 4516   3.025   3.197   4.235
 1206SOL    HW1 4517   3.027   3.296   4.247
 1206SOL    HW2 4518   3.077   3.153   4.308
 1207SOL     OW 4519   0.873   5.994   3.418
 1207SOL    HW1 4520   0.873   6.025   3.323
 1207SOL    HW2 4521   0.929   6.055   3.473
 1208SOL     OW 4522   3.566   2.411   6.625
 1208SOL    HW1 4523   3.502   2.365   6.687
 1208SOL    HW2 4524   3.522   2.425   6.536
 1209SOL     OW 4525   4.126   6.961   5.120
 1209SOL    HW1 4526   4.200   7.020   5.089
 1209SOL    HW2 4527   4.044   7.016   5.136
 1210SOL     OW 4528   2.339   1.161   3.194
 1210SOL    HW1 4529   2.436   1.175   3.172
 1210SOL    HW2 4530   2.314   1.217   3.273
 1211SOL     OW 4531   1.042   3.012   0.826
 1211SOL    HW1 4532   1.138   3.029   0.802
 1211SOL    HW2 4533   1.032   2.919   0.859
 1212SOL     OW 4534   0.710   6.678   0.378
 1212SOL    HW1 4535   0.659   6.597   0.348
 1212SOL    HW2 4536   0.768   6.711   0.303
 1213SOL     OW 4537   6.186   3.015   2.449
 1213SOL    HW1 4538   6.191   2.930   2.502
 1213SOL    HW2 4539   6.108   3.069   2.481
 1214SOL     OW 4540   0.487   2.581   2.230
 1214SOL    HW1 4541   0.559   2.636   2.273
 1214SOL    HW2 4542   0.400   2.630   2.235
 1215SOL     OW 4543   2.415   5.508   2.865
 1215SOL    HW1 4544   2.493   5.562   2.832
 1215SOL    HW2 4545   2.425   5.491   2.963
 1216SOL     OW 4546   4.049   6.830   1.998
 1216SOL    HW1 4547   4.090   6.873   1.918
 1216SOL    HW2 4548   4.073   6.733   2.000
 1217SOL     OW 4549   2.600   4.161   0.245
 1217SOL    HW1 4550   2.521   4.157   0.183
 1217SOL    HW2 4551   2.595   4.245   0.300
 1218SOL     OW 4552   2.301   5.414   4.213
 1218SOL    HW1 4553   2.323   5.325   4.172
 1218SOL    HW2 4554   2.203   5.430   4.208
 1219SOL     OW 4555   3.403   5.197   1.827
 1219SOL    HW1 4556   3.379   5.123   1.890
 1219SOL    HW2 4557   3.404   5.162   1.733
 1220SOL     OW 4558   0.875   5.212   1.747
 1220SOL    HW1 4559   0.961   5.165   1.766
 1220SOL    HW2 4560   0.829   5.231   1.833
 1221SOL     OW 4561   4.677   4.433   6.985
 1221SOL    HW1 4562   4.702   4.394   6.897
 1221SOL    HW2 4563   4.724   4.521   6.997
 1222SOL     OW 4564   6.802   1.483   6.813
 1222SOL    HW1 4565   6.900   1.473   6.796
 1222SOL    HW2 4566   6.769   1.405   6.866
 1223SOL     OW 4567   4.272   5.644   0.936
 1223SOL    HW1 4568   4.218   5.622   0.856
 1223SOL    HW2 4569   4.219   5.626   1.019
 1224SOL     OW 4570   2.675   1.496   1.302
 1224SOL    HW1 4571   2.728   1.578   1.325
 1224SOL    HW2 4572   2.738   1.419   1.287
 1225SOL     OW 4573   3.827   4.626   5.956
 1225SOL    HW1 4574   3.736   4.595   5.930
 1225SOL    HW2 4575   3.890   4.611   5.880
 1226SOL     OW 4576   2.296   5.186   0.917
 1226SOL    HW1 4577   2.256   5.152   1.003
 1226SOL    HW2 4578   2.387   5.224   0.935
 1227SOL     OW 4579   1.215   4.452   5.788
 1227SOL    HW1 4580   1.243   4.391   5.714
 1227SOL    HW2 4581   1.286   4.519   5.805
 1228SOL     OW 4582   3.646   2.249   0.118
 1228SOL    HW1 4583   3.738   2.210   0.124
 1228SOL    HW2 4584   3.651   2.348   0.132
 1229SOL     OW 4585   2.900   3.939   0.039
 1229SOL    HW1 4586   2.969   3.936   0.111
 1229SOL    HW2 4587   2.852   4.027   0.041
 1230SOL     OW 4588   4.380   0.165   3.436
 1230SOL    HW1 4589   4.322   0.242   3.410
 1230SOL    HW2 4590   4.456   0.157   3.372
 1231SOL     OW 4591   0.683   3.191   3.236
 1231SOL    HW1 4592   0.590   3.228   3.240
 1231SOL    HW2 4593   0.705   3.168   3.141
 1232SOL     OW 4594   2.012   1.790   2.779
 1232SOL    HW1 4595   1.934   1.751   2.730
 1232SOL    HW2 4596   2.000   1.775   2.877
 1233SOL     OW 4597   0.934   2.208   4.548
 1233SOL    HW1 4598   1.018   2.223   4.600
 1233SOL    HW2 4599   0.855   2.222   4.607
 1234SOL     OW 4600   6.503   4.496   4.518
 1234SOL    HW1 4601   6.435   4.539   4.578
 1234SOL    HW2 4602   6.574   4.454   4.574
 1235SOL     OW 4603   0.250   4.893   3.548
 1235SOL    HW1 4604   0.231   4.991   3.540
 1235SOL    HW2 4605   0.213   4.845   3.468
 1236SOL     OW 4606   5.797   0.523   6.955
 1236SOL    HW1 4607   5.763   0.615   6.970
 1236SOL    HW2 4608   5.796   0.472   0.021
 1237SOL     OW 4609   2.271   4.255   6.591
 1237SOL    HW1 4610   2.290   4.345   6.551
 1237SOL    HW2 4611   2.281   4.261   6.691
 1238SOL     OW 4612   2.138   1.438   1.338
 1238SOL    HW1 4613   2.188   1.523   1.324
 1238SOL    HW2 4614   2.109   1.431   1.433
 1239SOL     OW 4615   0.875   0.439   5.605
 1239SOL    HW1 4616   0.952   0.413   5.547
 1239SOL    HW2 4617   0.860   0.538   5.598
 1240SOL     OW 4618   6.137   4.886   0.906
 1240SOL    HW1 4619   6.169   4.798   0.873
 1240SOL    HW2 4620   6.059   4.916   0.851
 1241SOL     OW 4621   0.592   1.921   4.513
 1241SOL    HW1 4622   0.505   1.969   4.507
 1241SOL    HW2 4623   0.606   1.868   4.429
 1242SOL     OW 4624   1.821   2.287   6.642
 1242SOL    HW1 4625   1.801   2.360   6.706
 1242SOL    HW2 4626   1.910   2.304   6.598
 1243SOL     OW 4627   3.504   4.981   5.352
 1243SOL    HW1 4628   3.447   4.921   5.295
 1243SOL    HW2 4629   3.473   4.977   5.446
 1244SOL     OW 4630   1.339   1.581   3.290
 1244SOL    HW1 4631   1.289   1.663   3.318
 1244SOL    HW2 4632   1.322   1.564   3.192
 1245SOL     OW 4633   3.423   2.818   5.119
 1245SOL    HW1 4634   3.425   2.877   5.200
 1245SOL    HW2 4635   3.355   2.854   5.054
 1246SOL     OW 4636   1.440   6.490   1.752
 1246SOL    HW1 4637   1.425   6.431   1.672
 1246SOL    HW2 4638   1.416   6.584   1.728
 1247SOL     OW 4639   0.800   6.579   6.726
 1247SOL    HW1 4640   0.851   6.495   6.742
 1247SOL    HW2 4641   0.774   6.586   6.630
 1248SOL     OW 4642   2.205   6.964   4.203
 1248SOL    HW1 4643   2.282   6.902   4.220
 1248SOL    HW2 4644   2.239   0.038   4.200
 1249SOL     OW 4645   6.277   2.996   3.292
 1249SOL    HW1 4646   6.191   3.043   3.313
 1249SOL    HW2 4647   6.260   2.924   3.224
 1250SOL     OW 4648   6.592   3.604   4.559
 1250SOL    HW1 4649   6.609   3.536   4.488
 1250SOL    HW2 4650   6.659   3.678   4.551
 1251SOL     OW 4651   3.291   1.031   6.782
 1251SOL    HW1 4652   3.311   1.106   6.719
 1251SOL    HW2 4653   3.234   1.064   6.857
 1252SOL     OW 4654   3.771   3.949   0.328
 1252SOL    HW1 4655   3.722   3.870   0.290
 1252SOL    HW2 4656   3.729   3.975   0.415
 1253SOL     OW 4657   4.608   1.494   3.128
 1253SOL    HW1 4658   4.535   1.523   3.067
 1253SOL    HW2 4659   4.661   1.573   3.158
 1254SOL     OW 4660   5.556   1.044   3.677
 1254SOL    HW1 4661   5.511   1.097   3.605
 1254SOL    HW2 4662   5.515   1.065   3.765
 1255SOL     OW 4663   5.722   0.789   1.502
 1255SOL    HW1 4664   5.778   0.713   1.534
 1255SOL    HW2 4665   5.656   0.756   1.435
 1256SOL     OW 4666   5.451   3.285   3.553
 1256SOL    HW1 4667   5.383   3.351   3.522
 1256SOL    HW2 4668   5.526   3.334   3.599
 1257SOL     OW 4669   6.142   1.529   4.368
 1257SOL    HW1 4670   6.116   1.625   4.378
 1257SOL    HW2 4671   6.061   1.471   4.378
 1258SOL     OW 4672   0.067   4.641   3.940
 1258SOL    HW1 4673   0.163   4.630   3.969
 1258SOL    HW2 4674   0.014   4.563   3.972
 1259SOL     OW 4675   5.535   2.227   4.633
 1259SOL    HW1 4676   5.562   2.301   4.571
 1259SOL    HW2 4677   5.467   2.261   4.699
 1260SOL     OW 4678   0.738   1.673   4.603
 1260SOL    HW1 4679   0.668   1.699   4.670
 1260SOL    HW2 4680   0.804   1.612   4.646
 1261SOL     OW 4681   6.801   2.968   1.466
 1261SOL    HW1 4682   6.784   3.064   1.487
 1261SOL    HW2 4683   6.714   2.919   1.465
 1262SOL     OW 4684   5.140   5.881   1.765
 1262SOL    HW1 4685   5.137   5.952   1.836
 1262SOL    HW2 4686   5.154   5.924   1.676
 1263SOL     OW 4687   1.330   2.214   2.857
 1263SOL    HW1 4688   1.311   2.248   2.765
 1263SOL    HW2 4689   1.322   2.115   2.859
 1264SOL     OW 4690   1.327   2.974   5.394
 1264SOL    HW1 4691   1.263   2.945   5.466
 1264SOL    HW2 4692   1.421   2.966   5.427
 1265SOL     OW 4693   6.540   1.060   6.235
 1265SOL    HW1 4694   6.583   1.047   6.324
 1265SOL    HW2 4695   6.510   0.971   6.200
 1266SOL     OW 4696   3.634   1.866   5.860
 1266SOL    HW1 4697   3.728   1.877   5.893
 1266SOL    HW2 4698   3.634   1.803   5.782
 1267SOL     OW 4699   3.135   1.229   2.081
 1267SOL    HW1 4700   3.160   1.253   1.987
 1267SOL    HW2 4701   3.107   1.133   2.084
 1268SOL     OW 4702   4.325   2.121   5.219
 1268SOL    HW1 4703   4.310   2.066   5.301
 1268SOL    HW2 4704   4.357   2.062   5.145
 1269SOL     OW 4705   5.123   1.905   3.187
 1269SOL    HW1 4706   5.174   1.847   3.123
 1269SOL    HW2 4707   5.183   1.978   3.220
 1270SOL     OW 4708   6.037   5.558   3.619
 1270SOL    HW1 4709   6.089   5.504   3.685
 1270SOL    HW2 4710   6.094   5.633   3.586
 1271SOL     OW 4711   1.404   6.901   2.115
 1271SOL    HW1 4712   1.329   6.840   2.143
 1271SOL    HW2 4713   1.383   6.995   2.144
 1272SOL     OW 4714   6.200   2.168   1.118
 1272SOL    HW1 4715   6.163   2.222   1.043
 1272SOL    HW2 4716   6.288   2.128   1.091
 1273SOL     OW 4717   2.148   4.398   5.252
 1273SOL    HW1 4718   2.128   4.420   5.347
 1273SOL    HW2 4719   2.229   4.339   5.248
 1274SOL     OW 4720   6.933   4.627   4.472
 1274SOL    HW1 4721   6.918   4.556   4.403
 1274SOL    HW2 4722   7.014   4.604   4.526
 1275SOL     OW 4723   1.830   1.102   2.847
 1275SOL    HW1 4724   1.777   1.057   2.919
 1275SOL    HW2 4725   1.839   1.199   2.868
 1276SOL     OW 4726   5.816   4.193   3.910
 1276SOL    HW1 4727   5.756   4.154   3.980
 1276SOL    HW2 4728   5.892   4.241   3.955
 1277SOL     OW 4729   1.451   6.191   6.307
 1277SOL    HW1 4730   1.475   6.096   6.328
 1277SOL    HW2 4731   1.385   6.193   6.232
 1278SOL     OW 4732   0.071   6.422   2.576
 1278SOL    HW1 4733   0.020   6.486   2.518
 1278SOL    HW2 4734   0.094   6.340   2.524
 1279SOL     OW 4735   3.211   2.577   0.959
 1279SOL    HW1 4736   3.157   2.648   0.914
 1279SOL    HW2 4737   3.195   2.490   0.913
 1280SOL     OW 4738   2.988   2.231   3.164
 1280SOL    HW1 4739   3.041   2.260   3.085
 1280SOL    HW2 4740   2.929   2.154   3.138
 1281SOL     OW 4741   5.790   5.529   5.665
 1281SOL    HW1 4742   5.814   5.578   5.749
 1281SOL    HW2 4743   5.705   5.478   5.679
 1282SOL     OW 4744   0.789   2.579   1.222
 1282SOL    HW1 4745   0.873   2.551   1.176
 1282SOL    HW2 4746   0.758   2.505   1.282
 1283SOL     OW 4747   1.469   0.472   4.882
 1283SOL    HW1 4748   1.542   0.421   4.835
 1283SOL    HW2 4749   1.444   0.424   4.966
 1284SOL     OW 4750   3.966   2.378   1.774
 1284SOL    HW1 4751   3.868   2.369   1.795
 1284SOL    HW2 4752   4.020   2.345   1.851
 1285SOL     OW 4753   3.681   1.578   4.407
 1285SOL    HW1 4754   3.717   1.564   4.499
 1285SOL    HW2 4755   3.599   1.635   4.411
 1286SOL     OW 4756   5.212   0.950   2.249
 1286SOL    HW1 4757   5.191   0.890   2.326
 1286SOL    HW2 4758   5.178   0.910   2.164
 1287SOL     OW 4759   5.840   5.143   6.687
 1287SOL    HW1 4760   5.789   5.229   6.695
 1287SOL    HW2 4761   5.860   5.108   6.779
 1288SOL     OW 4762   4.707   4.655   5.758
 1288SOL    HW1 4763   4.681   4.562   5.781
 1288SOL    HW2 4764   4.786   4.682   5.813
 1289SOL     OW 4765   1.494   6.862   1.066
 1289SOL    HW1 4766   1.527   6.955   1.053
 1289SOL    HW2 4767   1.569   6.803   1.096
 1290SOL     OW 4768   1.330   6.848   4.318
 1290SOL    HW1 4769   1.358   6.912   4.389
 1290SOL    HW2 4770   1.409   6.795   4.288
 1291SOL     OW 4771   4.974   6.085   3.470
 1291SOL    HW1 4772   4.911   6.015   3.503
 1291SOL    HW2 4773   4.924   6.149   3.411
 1292SOL     OW 4774   0.115   6.828   2.517
 1292SOL    HW1 4775   0.022   6.863   2.511
 1292SOL    HW2 4776   0.165   6.877   2.590
 1293SOL     OW 4777   4.653   6.810   1.242
 1293SOL    HW1 4778   4.635   6.816   1.340
 1293SOL    HW2 4779   4.750   6.790   1.227
 1294SOL     OW 4780   2.434   4.530   5.592
 1294SOL    HW1 4781   2.519   4.582   5.593
 1294SOL    HW2 4782   2.412   4.501   5.685
 1295SOL     OW 4783   0.018   4.617   0.537
 1295SOL    HW1 4784   0.056   4.650   0.451
 1295SOL    HW2 4785   0.032   4.518   0.544
 1296SOL     OW 4786   3.790   0.795   6.136
 1296SOL    HW1 4787   3.739   0.831   6.058
 1296SOL    HW2 4788   3.883   0.771   6.107
 1297SOL     OW 4789   5.910   6.628   0.336
 1297SOL    HW1 4790   5.856   6.700   0.291
 1297SOL    HW2 4791   5.848   6.556   0.367
 1298SOL     OW 4792   5.058   0.252   3.264
 1298SOL    HW1 4793   5.007   0.223   3.183
 1298SOL    HW2 4794   4.995   0.264   3.340
 1299SOL     OW 4795   1.245   5.042   4.899
 1299SOL    HW1 4796   1.216   5.062   4.806
 1299SOL    HW2 4797   1.250   4.943   4.912
 1300SOL     OW 4798   1.225   5.262   0.150
 1300SOL    HW1 4799   1.154   5.324   0.182
 1300SOL    HW2 4800   1.257   5.290   0.060
 1301SOL     OW 4801   6.285   1.913   6.861
 1301SOL    HW1 4802   6.375   1.875   6.840
 1301SOL    HW2 4803   6.216   1.842   6.851
 1302SOL     OW 4804   6.984   6.872   4.962
 1302SOL    HW1 4805   6.897   6.884   5.010
 1302SOL    HW2 4806   7.005   6.775   4.955
 1303SOL     OW 4807   2.632   6.428   1.564
 1303SOL    HW1 4808   2.545   6.409   1.609
 1303SOL    HW2 4809   2.640   6.371   1.482
 1304SOL     OW 4810   0.001   1.072   0.187
 1304SOL    HW1 4811   0.062   0.996   0.210
 1304SOL    HW2 4812   0.056   1.151   0.159
 1305SOL     OW 4813   3.622   4.177   6.120
 1305SOL    HW1 4814   3.629   4.092   6.172
 1305SOL    HW2 4815   3.684   4.245   6.160
 1306SOL     OW 4816   2.245   6.493   4.282
 1306SOL    HW1 4817   2.236   6.501   4.183
 1306SOL    HW2 4818   2.192   6.415   4.314
 1307SOL     OW 4819   1.988   3.852   3.476
 1307SOL    HW1 4820   1.898   3.859   3.520
 1307SOL    HW2 4821   1.996   3.922   3.406
 1308SOL     OW 4822   1.265   3.672   5.585
 1308SOL    HW1 4823   1.182   3.619   5.602
 1308SOL    HW2 4824   1.272   3.693   5.487
 1309SOL     OW 4825   5.837   3.891   0.120
 1309SOL    HW1 4826   5.742   3.875   0.093
 1309SOL    HW2 4827   5.840   3.925   0.214
 1310SOL     OW 4828   2.286   2.233   3.516
 1310SOL    HW1 4829   2.235   2.318   3.498
 1310SOL    HW2 4830   2.338   2.208   3.434
 1311SOL     OW 4831   6.196   5.316   0.153
 1311SOL    HW1 4832   6.191   5.348   0.247
 1311SOL    HW2 4833   6.260   5.373   0.101
 1312SOL     OW 4834   2.477   1.410   6.788
 1312SOL    HW1 4835   2.448   1.500   6.757
 1312SOL    HW2 4836   2.528   1.419   6.874
 1313SOL     OW 4837   5.083   5.073   2.940
 1313SOL    HW1 4838   5.005   5.077   2.878
 1313SOL    HW2 4839   5.053   5.039   3.029
 1314SOL     OW 4840   2.789   1.658   3.722
 1314SOL    HW1 4841   2.846   1.593   3.771
 1314SOL    HW2 4842   2.745   1.720   3.788
 1315SOL     OW 4843   5.548   0.417   3.529
 1315SOL    HW1 4844   5.479   0.394   3.598
 1315SOL    HW2 4845   5.555   0.516   3.521
 1316SOL     OW 4846   5.066   0.363   6.303
 1316SOL    HW1 4847   5.084   0.357   6.205
 1316SOL    HW2 4848   5.022   0.279   6.334
 1317SOL     OW 4849   3.807   3.012   4.289
 1317SOL    HW1 4850   3.743   3.088   4.280
 1317SOL    HW2 4851   3.819   2.990   4.385
 1318SOL     OW 4852   1.699   1.122   7.013
 1318SOL    HW1 4853   1.666   1.132   6.919
 1318SOL    HW2 4854   1.771   1.189   0.010
 1319SOL     OW 4855   6.646   1.898   0.250
 1319SOL    HW1 4856   6.556   1.903   0.208
 1319SOL    HW2 4857   6.636   1.882   0.349
 1320SOL     OW 4858   2.734   2.766   5.753
 1320SOL    HW1 4859   2.823   2.742   5.791
 1320SOL    HW2 4860   2.742   2.851   5.700
 1321SOL     OW 4861   0.247   2.363   1.626
 1321SOL    HW1 4862   0.275   2.459   1.634
 1321SOL    HW2 4863   0.302   2.318   1.555
 1322SOL     OW 4864   2.129   2.855   0.196
 1322SOL    HW1 4865   2.077   2.832   0.278
 1322SOL    HW2 4866   2.144   2.773   0.142
 1323SOL     OW 4867   4.527   0.791   1.061
 1323SOL    HW1 4868   4.491   0.825   1.147
 1323SOL    HW2 4869   4.598   0.723   1.079
 1324SOL     OW 4870   2.465   3.851   6.137
 1324SOL    HW1 4871   2.496   3.798   6.058
 1324SOL    HW2 4872   2.497   3.945   6.129
 1325SOL     OW 4873   4.375   5.042   4.561
 1325SOL    HW1 4874   4.329   5.006   4.480
 1325SOL    HW2 4875   4.307   5.077   4.625
 1326SOL     OW 4876   4.170   1.711   5.123
 1326SOL    HW1 4877   4.249   1.691   5.064
 1326SOL    HW2 4878   4.159   1.810   5.131
 1327SOL     OW 4879   4.734   5.855   1.788
 1327SOL    HW1 4880   4.651   5.803   1.768
 1327SOL    HW2 4881   4.793   5.800   1.847
 1328SOL     OW 4882   1.094   2.535   5.321
 1328SOL    HW1 4883   1.118   2.505   5.229
 1328SOL    HW2 4884   0.995   2.527   5.335
 1329SOL     OW 4885   1.484   2.625   4.485
 1329SOL    HW1 4886   1.517   2.535   4.512
 1329SOL    HW2 4887   1.412   2.616   4.417
 1330SOL     OW 4888   6.347   3.224   2.380
 1330SOL    HW1 4889   6.447   3.225   2.378
 1330SOL    HW2 4890   6.316   3.137   2.418
 1331SOL     OW 4891   3.670   1.552   2.743
 1331SOL    HW1 4892   3.706   1.525   2.832
 1331SOL    HW2 4893   3.639   1.647   2.746
 1332SOL     OW 4894   2.337   6.553   6.914
 1332SOL    HW1 4895   2.286   6.527   6.832
 1332SOL    HW2 4896   2.322   6.485   6.985
 1333SOL     OW 4897   3.729   3.400   2.559
 1333SOL    HW1 4898   3.731   3.493   2.596
 1333SOL    HW2 4899   3.710   3.404   2.461
 1334SOL     OW 4900   0.581   4.136   1.532
 1334SOL    HW1 4901   0.639   4.088   1.597
 1334SOL    HW2 4902   0.540   4.216   1.576
 1335SOL     OW 4903   0.023   3.321   3.064
 1335SOL    HW1 4904   0.055   3.279   2.979
 1335SOL    HW2 4905   0.101   3.360   3.113
 1336SOL     OW 4906   2.100   6.212   5.714
 1336SOL    HW1 4907   2.062   6.231   5.805
 1336SOL    HW2 4908   2.071   6.121   5.684
 1337SOL     OW 4909   6.950   6.966   1.668
 1337SOL    HW1 4910   0.005   6.907   1.639
 1337SOL    HW2 4911   6.946   6.969   1.767
 1338SOL     OW 4912   0.796   4.250   4.778
 1338SOL    HW1 4913   0.852   4.328   4.751
 1338SOL    HW2 4914   0.769   4.259   4.873
 1339SOL     OW 4915   5.166   1.192   6.536
 1339SOL    HW1 4916   5.207   1.281   6.519
 1339SOL    HW2 4917   5.235   1.120   6.527
 1340SOL     OW 4918   2.294   2.676   0.930
 1340SOL    HW1 4919   2.226   2.668   1.002
 1340SOL    HW2 4920   2.314   2.772   0.914
 1341SOL     OW 4921   6.090   5.950   6.666
 1341SOL    HW1 4922   6.122   6.042   6.687
 1341SOL    HW2 4923   6.020   5.923   6.733
 1342SOL     OW 4924   1.522   5.855   1.582
 1342SOL    HW1 4925   1.559   5.763   1.572
 1342SOL    HW2 4926   1.592   5.916   1.618
 1343SOL     OW 4927   5.018   5.816   2.959
 1343SOL    HW1 4928   4.952   5.859   2.898
 1343SOL    HW2 4929   5.015   5.861   3.048
 1344SOL     OW 4930   1.598   0.590   3.511
 1344SOL    HW1 4931   1.527   0.539   3.461
 1344SOL    HW2 4932   1.630   0.666   3.454
 1345SOL     OW 4933   1.130   6.540   5.266
 1345SOL    HW1 4934   1.042   6.568   5.228
 1345SOL    HW2 4935   1.176   6.620   5.305
 1346SOL     OW 4936   3.590   5.814   3.810
 1346SOL    HW1 4937   3.607   5.913   3.816
 1346SOL    HW2 4938   3.518   5.797   3.743
 1347SOL     OW 4939   0.068   1.036   6.299
 1347SOL    HW1 4940   0.036   1.122   6.260
 1347SOL    HW2 4941   0.020   0.960   6.254
 1348SOL     OW 4942   1.751   6.863   4.585
 1348SOL    HW1 4943   1.678   6.925   4.613
 1348SOL    HW2 4944   1.760   6.790   4.654
 1349SOL     OW 4945   4.870   3.768   4.195
 1349SOL    HW1 4946   4.834   3.859   4.216
 1349SOL    HW2 4947   4.861   3.709   4.276
 1350SOL     OW 4948   5.492   4.621   6.743
 1350SOL    HW1 4949   5.502   4.720   6.738
 1350SOL    HW2 4950   5.443   4.596   6.826
 1351SOL     OW 4951   6.698   3.493   0.114
 1351SOL    HW1 4952   6.780   3.529   0.070
 1351SOL    HW2 4953   6.723   3.417   0.174
 1352SOL     OW 4954   0.279   1.387   3.972
 1352SOL    HW1 4955   0.182   1.382   3.993
 1352SOL    HW2 4956   0.305   1.482   3.954
 1353SOL     OW 4957   6.886   3.343   6.013
 1353SOL    HW1 4958   6.929   3.404   5.947
 1353SOL    HW2 4959   6.786   3.351   6.006
 1354SOL     OW 4960   4.942   4.711   3.166
 1354SOL    HW1 4961   4.883   4.716   3.086
 1354SOL    HW2 4962   4.897   4.658   3.238
 1355SOL     OW 4963   3.501   3.476   4.188
 1355SOL    HW1 4964   3.551   3.389   4.188
 1355SOL    HW2 4965   3.560   3.550   4.157
 1356SOL     OW 4966   3.010   3.251   6.569
 1356SOL    HW1 4967   2.940   3.229   6.502
 1356SOL    HW2 4968   3.100   3.249   6.526
 1357SOL     OW 4969   0.130   3.277   4.849
 1357SOL    HW1 4970   0.196   3.241   4.784
 1357SOL    HW2 4971   0.064   3.206   4.873
 1358SOL     OW 4972   2.053   6.394   6.367
 1358SOL    HW1 4973   1.983   6.419   6.301
 1358SOL    HW2 4974   2.118   6.469   6.378
 1359SOL     OW 4975   5.857   5.132   0.108
 1359SOL    HW1 4976   5.789   5.120   0.181
 1359SOL    HW2 4977   5.865   5.229   0.086
 1360SOL     OW 4978   2.194   1.785   5.839
 1360SOL    HW1 4979   2.236   1.718   5.901
 1360SOL    HW2 4980   2.247   1.789   5.754
 1361SOL     OW 4981   5.975   5.167   4.760
 1361SOL    HW1 4982   5.883   5.179   4.795
 1361SOL    HW2 4983   6.023   5.098   4.815
 1362SOL     OW 4984   3.065   3.954   4.295
 1362SOL    HW1 4985   3.047   3.935   4.198
 1362SOL    HW2 4986   3.027   3.880   4.351
 1363SOL     OW 4987   6.983   6.462   3.747
 1363SOL    HW1 4988   7.007   6.511   3.663
 1363SOL    HW2 4989   6.983   6.364   3.729
 1364SOL     OW 4990   3.427   4.258   0.219
 1364SOL    HW1 4991   3.432   4.262   0.319
 1364SOL    HW2 4992   3.507   4.306   0.181
 1365SOL     OW 4993   5.165   2.241   5.816
 1365SOL    HW1 4994   5.102   2.217   5.742
 1365SOL    HW2 4995   5.209   2.328   5.795
 1366SOL     OW 4996   1.436   1.020   4.763
 1366SOL    HW1 4997   1.410   0.938   4.813
 1366SOL    HW2 4998   1.471   1.089   4.827
 1367SOL     OW 4999   2.551   1.465   1.920
 1367SOL    HW1 5000   2.598   1.423   1.842
 1367SOL    HW2 5001   2.555   1.564   1.912
 1368SOL     OW 5002   6.822   0.850   3.266
 1368SOL    HW1 5003   6.851   0.914   3.337
 1368SOL    HW2 5004   6.763   0.780   3.306
 1369SOL     OW 5005   0.257   6.999   2.707
 1369SOL    HW1 5006   0.282   6.974   2.800
 1369SOL    HW2 5007   0.339   7.002   2.650
 1370SOL     OW 5008   0.878   1.112   2.731
 1370SOL    HW1 5009   0.968   1.088   2.768
 1370SOL    HW2 5010   0.813   1.040   2.753
 1371SOL     OW 5011   2.041   0.001   5.280
 1371SOL    HW1 5012   2.058   6.930   5.243
 1371SOL    HW2 5013   2.127   0.048   5.295
 1372SOL     OW 5014   2.998   1.929   1.390
 1372SOL    HW1 5015   3.059   1.897   1.463
 1372SOL    HW2 5016   3.042   2.002   1.339
 1373SOL     OW 5017   1.179   5.362   6.385
 1373SOL    HW1 5018   1.265   5.409   6.368
 1373SOL    HW2 5019   1.193   5.289   6.452
 1374SOL     OW 5020   5.590   3.510   4.454
 1374SOL    HW1 5021   5.558   3.420   4.422
 1374SOL    HW2 5022   5.523   3.548   4.517
 1375SOL     OW 5023   0.814   4.342   3.824
 1375SOL    HW1 5024   0.797   4.346   3.725
 1375SOL    HW2 5025   0.862   4.425   3.852
 1376SOL     OW 5026   5.194   0.252   2.586
 1376SOL    HW1 5027   5.200   0.281   2.682
 1376SOL    HW2 5028   5.210   0.154   2.580
 1377SOL     OW 5029   0.225   4.125   5.130
 1377SOL    HW1 5030   0.130   4.093   5.132
 1377SOL    HW2 5031   0.267   4.111   5.219
 1378SOL     OW 5032   1.645   1.808   0.433
 1378SOL    HW1 5033   1.633   1.884   0.498
 1378SOL    HW2 5034   1.588   1.731   0.462
 1379SOL     OW 5035   4.423   5.206   1.647
 1379SOL    HW1 5036   4.353   5.263   1.605
 1379SOL    HW2 5037   4.411   5.205   1.746
 1380SOL     OW 5038   6.247   5.261   3.029
 1380SOL    HW1 5039   6.284   5.181   2.983
 1380SOL    HW2 5040   6.153   5.243   3.058
 1381SOL     OW 5041   3.785   6.936   2.464
 1381SOL    HW1 5042   3.848   6.980   2.529
 1381SOL    HW2 5043   3.787   6.837   2.478
 1382SOL     OW 5044   6.776   4.241   0.618
 1382SOL    HW1 5045   6.797   4.184   0.538
 1382SOL    HW2 5046   6.742   4.330   0.588
 1383SOL     OW 5047   3.562   0.081   0.387
 1383SOL    HW1 5048   3.637   0.019   0.411
 1383SOL    HW2 5049   3.526   0.055   0.297
 1384SOL     OW 5050   1.002   1.278   2.342
 1384SOL    HW1 5051   1.021   1.349   2.409
 1384SOL    HW2 5052   0.974   1.194   2.390
 1385SOL     OW 5053   4.888   3.368   4.540
 1385SOL    HW1 5054   4.911   3.398   4.632
 1385SOL    HW2 5055   4.884   3.268   4.537
 1386SOL     OW 5056   2.531   2.475   3.002
 1386SOL    HW1 5057   2.581   2.408   3.058
 1386SOL    HW2 5058   2.466   2.524   3.060
 1387SOL     OW 5059   3.469   0.901   4.411
 1387SOL    HW1 5060   3.462   0.995   4.443
 1387SOL    HW2 5061   3.413   0.889   4.330
 1388SOL     OW 5062   5.004   2.482   3.783
 1388SOL    HW1 5063   5.002   2.425   3.701
 1388SOL    HW2 5064   5.044   2.571   3.761
 1389SOL     OW 5065   6.680   1.089   4.604
 1389SOL    HW1 5066   6.598   1.046   4.566
 1389SOL    HW2 5067   6.661   1.118   4.698
 1390SOL     OW 5068   5.710   2.332   2.617
 1390SOL    HW1 5069   5.751   2.332   2.709
 1390SOL    HW2 5070   5.777   2.361   2.550
 1391SOL     OW 5071   5.859   0.941   5.392
 1391SOL    HW1 5072   5.855   0.846   5.424
 1391SOL    HW2 5073   5.766   0.976   5.383
 1392SOL     OW 5074   2.881   6.789   4.726
 1392SOL    HW1 5075   2.973   6.827   4.721
 1392SOL    HW2 5076   2.852   6.785   4.822
 1393SOL     OW 5077   4.739   6.807   6.759
 1393SOL    HW1 5078   4.779   6.768   6.675
 1393SOL    HW2 5079   4.669   6.874   6.735
 1394SOL     OW 5080   4.054   1.254   4.981
 1394SOL    HW1 5081   3.973   1.297   4.940
 1394SOL    HW2 5082   4.098   1.319   5.044
 1395SOL     OW 5083   0.851   4.980   2.565
 1395SOL    HW1 5084   0.946   5.010   2.552
 1395SOL    HW2 5085   0.795   5.015   2.490
 1396SOL     OW 5086   1.670   1.525   3.077
 1396SOL    HW1 5087   1.674   1.624   3.065
 1396SOL    HW2 5088   1.711   1.500   3.165
 1397SOL     OW 5089   2.215   4.883   5.901
 1397SOL    HW1 5090   2.144   4.895   5.832
 1397SOL    HW2 5091   2.304   4.875   5.857
 1398SOL     OW 5092   3.082   6.781   6.169
 1398SOL    HW1 5093   3.084   6.726   6.252
 1398SOL    HW2 5094   3.014   6.854   6.179
 1399SOL     OW 5095   3.647   6.969   6.940
 1399SOL    HW1 5096   3.744   6.950   6.926
 1399SOL    HW2 5097   3.616   6.925   0.004
 1400SOL     OW 5098   0.358   2.247   5.701
 1400SOL    HW1 5099   0.452   2.215   5.710
 1400SOL    HW2 5100   0.324   2.226   5.609
 1401SOL     OW 5101   4.199   6.849   2.757
 1401SOL    HW1 5102   4.166   6.828   2.849
 1401SOL    HW2 5103   4.287   6.804   2.742
 1402SOL     OW 5104   5.342   3.880   2.583
 1402SOL    HW1 5105   5.247   3.881   2.553
 1402SOL    HW2 5106   5.358   3.958   2.644
 1403SOL     OW 5107   2.816   2.523   6.596
 1403SOL    HW1 5108   2.798   2.446   6.656
 1403SOL    HW2 5109   2.863   2.491   6.514
 1404SOL     OW 5110   4.000   5.737   6.799
 1404SOL    HW1 5111   4.049   5.822   6.782
 1404SOL    HW2 5112   3.904   5.756   6.817
 1405SOL     OW 5113   0.885   4.863   6.828
 1405SOL    HW1 5114   0.878   4.789   6.896
 1405SOL    HW2 5115   0.950   4.932   6.861
 1406SOL     OW 5116   1.907   2.476   0.370
 1406SOL    HW1 5117   1.830   2.452   0.429
 1406SOL    HW2 5118   1.982   2.411   0.383
 1407SOL     OW 5119   6.531   2.830   1.457
 1407SOL    HW1 5120   6.438   2.860   1.478
 1407SOL    HW2 5121   6.541   2.734   1.482
 1408SOL     OW 5122   5.707   6.117   1.459
 1408SOL    HW1 5123   5.803   6.114   1.487
 1408SOL    HW2 5124   5.683   6.211   1.435
 1409SOL     OW 5125   5.628   2.340   5.867
 1409SOL    HW1 5126   5.574   2.256   5.871
 1409SOL    HW2 5127   5.700   2.336   5.936
 1410SOL     OW 5128   3.628   0.515   0.666
 1410SOL    HW1 5129   3.567   0.532   0.588
 1410SOL    HW2 5130   3.576   0.470   0.738
 1411SOL     OW 5131   3.173   0.069   0.090
 1411SOL    HW1 5132   3.098   0.119   0.134
 1411SOL    HW2 5133   3.175   0.091   7.013
 1412SOL     OW 5134   1.524   0.995   6.251
 1412SOL    HW1 5135   1.608   1.041   6.220
 1412SOL    HW2 5136   1.448   1.022   6.192
 1413SOL     OW 5137   1.593   1.457   4.720
 1413SOL    HW1 5138   1.615   1.487   4.813
 1413SOL    HW2 5139   1.677   1.432   4.672
 1414SOL     OW 5140   0.461   5.483   2.654
 1414SOL    HW1 5141   0.519   5.439   2.722
 1414SOL    HW2 5142   0.366   5.483   2.687
 1415SOL     OW 5143   3.222   1.902   5.250
 1415SOL    HW1 5144   3.137   1.857   5.279
 1415SOL    HW2 5145   3.214   1.930   5.154
 1416SOL     OW 5146   4.039   0.481   5.169
 1416SOL    HW1 5147   3.945   0.447   5.167
 1416SOL    HW2 5148   4.043   0.571   5.125
 1417SOL     OW 5149   3.847   4.049   4.385
 1417SOL    HW1 5150   3.864   4.044   4.287
 1417SOL    HW2 5151   3.758   4.092   4.401
 1418SOL     OW 5152   3.452   3.766   5.523
 1418SOL    HW1 5153   3.378   3.805   5.467
 1418SOL    HW2 5154   3.414   3.728   5.607
 1419SOL     OW 5155   0.350   5.418   1.873
 1419SOL    HW1 5156   0.259   5.387   1.898
 1419SOL    HW2 5157   0.417   5.348   1.898
 1420SOL     OW 5158   2.265   6.713   3.833
 1420SOL    HW1 5159   2.183   6.758   3.868
 1420SOL    HW2 5160   2.343   6.737   3.891
 1421SOL     OW 5161   1.521   5.053   0.969
 1421SOL    HW1 5162   1.459   5.127   0.943
 1421SOL    HW2 5163   1.613   5.074   0.936
 1422SOL     OW 5164   1.430   3.441   6.853
 1422SOL    HW1 5165   1.477   3.481   6.774
 1422SOL    HW2 5166   1.496   3.425   6.926
 1423SOL     OW 5167   4.961   0.937   4.906
 1423SOL    HW1 5168   4.964   1.037   4.914
 1423SOL    HW2 5169   4.928   0.913   4.815
 1424SOL     OW 5170   6.132   4.152   1.460
 1424SOL    HW1 5171   6.149   4.245   1.493
 1424SOL    HW2 5172   6.186   4.136   1.377
 1425SOL     OW 5173   5.889   0.427   2.871
 1425SOL    HW1 5174   5.910   0.374   2.953
 1425SOL    HW2 5175   5.791   0.427   2.854
 1426SOL     OW 5176   3.668   0.680   0.881
 1426SOL    HW1 5177   3.592   0.726   0.927
 1426SOL    HW2 5178   3.634   0.634   0.798
 1427SOL     OW 5179   1.381   0.654   3.700
 1427SOL    HW1 5180   1.293   0.618   3.667
 1427SOL    HW2 5181   1.456   0.604   3.657
 1428SOL     OW 5182   2.258   4.155   4.163
 1428SOL    HW1 5183   2.258   4.055   4.160
 1428SOL    HW2 5184   2.249   4.185   4.258
 1429SOL     OW 5185   5.850   0.744   0.919
 1429SOL    HW1 5186   5.925   0.679   0.931
 1429SOL    HW2 5187   5.876   0.813   0.852
 1430SOL     OW 5188   2.169   4.095   4.652
 1430SOL    HW1 5189   2.181   4.032   4.729
 1430SOL    HW2 5190   2.235   4.073   4.580
 1431SOL     OW 5191   3.574   1.736   0.774
 1431SOL    HW1 5192   3.489   1.729   0.827
 1431SOL    HW2 5193   3.551   1.750   0.677
 1432SOL     OW 5194   2.840   0.097   2.375
 1432SOL    HW1 5195   2.760   0.148   2.407
 1432SOL    HW2 5196   2.916   0.160   2.358
 1433SOL     OW 5197   3.978   1.754   3.444
 1433SOL    HW1 5198   3.878   1.749   3.444
 1433SOL    HW2 5199   4.012   1.753   3.538
 1434SOL     OW 5200   6.283   3.456   1.137
 1434SOL    HW1 5201   6.356   3.395   1.168
 1434SOL    HW2 5202   6.207   3.401   1.102
 1435SOL     OW 5203   6.745   6.198   4.118
 1435SOL    HW1 5204   6.751   6.269   4.048
 1435SOL    HW2 5205   6.672   6.134   4.094
 1436SOL     OW 5206   6.098   0.314   6.761
 1436SOL    HW1 5207   6.180   0.283   6.714
 1436SOL    HW2 5208   6.098   0.414   6.767
 1437SOL     OW 5209   4.011   0.824   0.432
 1437SOL    HW1 5210   4.100   0.856   0.465
 1437SOL    HW2 5211   3.986   0.740   0.480
 1438SOL     OW 5212   2.700   6.788   3.724
 1438SOL    HW1 5213   2.788   6.741   3.714
 1438SOL    HW2 5214   2.715   6.887   3.722
 1439SOL     OW 5215   6.887   5.385   4.523
 1439SOL    HW1 5216   6.896   5.350   4.430
 1439SOL    HW2 5217   6.798   5.429   4.534
 1440SOL     OW 5218   3.680   3.033   2.270
 1440SOL    HW1 5219   3.649   2.953   2.321
 1440SOL    HW2 5220   3.756   3.076   2.318
 1441SOL     OW 5221   0.037   2.112   6.613
 1441SOL    HW1 5222   6.992   2.119   6.538
 1441SOL    HW2 5223   0.113   2.176   6.596
 1442SOL     OW 5224   5.404   6.088   6.974
 1442SOL    HW1 5225   5.349   6.138   0.019
 1442SOL    HW2 5226   5.501   6.106   6.991
 1443SOL     OW 5227   1.935   3.064   4.437
 1443SOL    HW1 5228   2.014   3.105   4.482
 1443SOL    HW2 5229   1.963   3.023   4.350
 1444SOL     OW 5230   4.366   6.840   4.835
 1444SOL    HW1 5231   4.338   6.847   4.931
 1444SOL    HW2 5232   4.420   6.758   4.822
 1445SOL     OW 5233   6.466   2.841   6.691
 1445SOL    HW1 5234   6.513   2.895   6.760
 1445SOL    HW2 5235   6.402   2.778   6.735
 1446SOL     OW 5236   2.801   6.341   2.589
 1446SOL    HW1 5237   2.799   6.440   2.578
 1446SOL    HW2 5238   2.882   6.315   2.643
 1447SOL     OW 5239   6.434   0.991   4.784
 1447SOL    HW1 5240   6.406   1.062   4.849
 1447SOL    HW2 5241   6.418   1.023   4.691
 1448SOL     OW 5242   5.413   1.640   0.994
 1448SOL    HW1 5243   5.402   1.560   1.053
 1448SOL    HW2 5244   5.417   1.612   0.898
 1449SOL     OW 5245   4.989   6.169   0.108
 1449SOL    HW1 5246   5.024   6.077   0.123
 1449SOL    HW2 5247   4.941   6.173   0.021
 1450SOL     OW 5248   5.637   1.442   4.343
 1450SOL    HW1 5249   5.584   1.494   4.276
 1450SOL    HW2 5250   5.578   1.374   4.387
 1451SOL     OW 5251   0.220   6.631   2.329
 1451SOL    HW1 5252   0.170   6.700   2.381
 1451SOL    HW2 5253   0.307   6.612   2.374
 1452SOL     OW 5254   1.786   0.069   6.561
 1452SOL    HW1 5255   1.881   0.094   6.542
 1452SOL    HW2 5256   1.777   6.990   6.564
 1453SOL     OW 5257   6.209   4.451   3.904
 1453SOL    HW1 5258   6.287   4.478   3.961
 1453SOL    HW2 5259   6.160   4.534   3.874
 1454SOL     OW 5260   6.120   4.417   1.591
 1454SOL    HW1 5261   6.025   4.445   1.605
 1454SOL    HW2 5262   6.159   4.468   1.514
 1455SOL     OW 5263   2.198   1.871   1.819
 1455SOL    HW1 5264   2.172   1.808   1.746
 1455SOL    HW2 5265   2.292   1.853   1.848
 1456SOL     OW 5266   5.329   4.963   5.024
 1456SOL    HW1 5267   5.363   5.000   4.937
 1456SOL    HW2 5268   5.405   4.924   5.076
 1457SOL     OW 5269   2.164   1.694   4.586
 1457SOL    HW1 5270   2.167   1.594   4.577
 1457SOL    HW2 5271   2.252   1.727   4.618
 1458SOL     OW 5272   6.313   5.499   6.733
 1458SOL    HW1 5273   6.287   5.592   6.705
 1458SOL    HW2 5274   6.402   5.476   6.693
 1459SOL     OW 5275   3.231   6.859   1.173
 1459SOL    HW1 5276   3.302   6.895   1.234
 1459SOL    HW2 5277   3.171   6.799   1.225
 1460SOL     OW 5278   0.731   1.512   6.614
 1460SOL    HW1 5279   0.671   1.447   6.660
 1460SOL    HW2 5280   0.827   1.487   6.631
 1461SOL     OW 5281   5.024   3.976   2.694
 1461SOL    HW1 5282   4.951   3.961   2.760
 1461SOL    HW2 5283   4.989   3.963   2.602
 1462SOL     OW 5284   5.711   0.480   5.313
 1462SOL    HW1 5285   5.750   0.409   5.372
 1462SOL    HW2 5286   5.774   0.501   5.238
 1463SOL     OW 5287   0.845   2.628   5.624
 1463SOL    HW1 5288   0.787   2.566   5.677
 1463SOL    HW2 5289   0.849   2.598   5.529
 1464SOL     OW 5290   0.715   0.803   1.215
 1464SOL    HW1 5291   0.654   0.877   1.241
 1464SOL    HW2 5292   0.752   0.760   1.298
 1465SOL     OW 5293   1.932   1.122   3.963
 1465SOL    HW1 5294   1.855   1.115   4.027
 1465SOL    HW2 5295   1.979   1.034   3.958
 1466SOL     OW 5296   5.937   6.113   5.036
 1466SOL    HW1 5297   5.867   6.103   5.107
 1466SOL    HW2 5298   5.971   6.023   5.009
 1467SOL     OW 5299   0.663   4.362   4.031
 1467SOL    HW1 5300   0.714   4.320   4.106
 1467SOL    HW2 5301   0.698   4.329   3.944
 1468SOL     OW 5302   4.820   6.999   2.642
 1468SOL    HW1 5303   4.905   6.990   2.590
 1468SOL    HW2 5304   4.793   0.076   2.645
 1469SOL     OW 5305   6.721   0.235   2.294
 1469SOL    HW1 5306   6.656   0.305   2.321
 1469SOL    HW2 5307   6.814   0.271   2.301
 1470SOL     OW 5308   6.814   0.663   1.822
 1470SOL    HW1 5309   6.807   0.762   1.831
 1470SOL    HW2 5310   6.908   0.639   1.798
 1471SOL     OW 5311   6.579   1.252   1.047
 1471SOL    HW1 5312   6.584   1.250   1.147
 1471SOL    HW2 5313   6.513   1.183   1.015
 1472SOL     OW 5314   4.847   4.818   4.422
 1472SOL    HW1 5315   4.776   4.796   4.355
 1472SOL    HW2 5316   4.807   4.822   4.514
 1473SOL     OW 5317   0.716   3.255   3.921
 1473SOL    HW1 5318   0.760   3.344   3.931
 1473SOL    HW2 5319   0.745   3.213   3.834
 1474SOL     OW 5320   4.830   6.271   2.433
 1474SOL    HW1 5321   4.754   6.335   2.434
 1474SOL    HW2 5322   4.875   6.273   2.344
 1475SOL     OW 5323   6.742   6.959   3.006
 1475SOL    HW1 5324   6.791   7.014   2.939
 1475SOL    HW2 5325   6.666   7.012   3.045
 1476SOL     OW 5326   0.751   2.130   0.784
 1476SOL    HW1 5327   0.758   2.179   0.871
 1476SOL    HW2 5328   0.834   2.076   0.770
 1477SOL     OW 5329   2.494   6.579   4.321
 1477SOL    HW1 5330   2.523   6.562   4.415
 1477SOL    HW2 5331   2.403   6.541   4.307
 1478SOL     OW 5332   0.138   4.307   1.154
 1478SOL    HW1 5333   0.094   4.393   1.129
 1478SOL    HW2 5334   0.079   4.230   1.131
 1479SOL     OW 5335   1.120   4.694   0.061
 1479SOL    HW1 5336   1.092   4.620   0.000
 1479SOL    HW2 5337   1.218   4.709   0.051
 1480SOL     OW 5338   3.572   0.524   6.851
 1480SOL    HW1 5339   3.504   0.468   6.804
 1480SOL    HW2 5340   3.541   0.543   6.944
 1481SOL     OW 5341   0.127   2.766   1.050
 1481SOL    HW1 5342   0.156   2.830   1.121
 1481SOL    HW2 5343   0.034   2.789   1.021
 1482SOL     OW 5344   5.948   0.489   5.789
 1482SOL    HW1 5345   5.966   0.456   5.882
 1482SOL    HW2 5346   5.946   0.589   5.789
 1483SOL     OW 5347   0.281   2.097   1.199
 1483SOL    HW1 5348   0.187   2.084   1.232
 1483SOL    HW2 5349   0.296   2.193   1.179
 1484SOL     OW 5350   5.477   6.983   3.100
 1484SOL    HW1 5351   5.493   7.008   3.005
 1484SOL    HW2 5352   5.415   0.029   3.142
 1485SOL     OW 5353   5.425   4.164   4.590
 1485SOL    HW1 5354   5.375   4.193   4.509
 1485SOL    HW2 5355   5.522   4.189   4.580
 1486SOL     OW 5356   5.057   2.874   1.868
 1486SOL    HW1 5357   5.122   2.921   1.928
 1486SOL    HW2 5358   5.106   2.812   1.808
 1487SOL     OW 5359   0.583   6.992   5.606
 1487SOL    HW1 5360   0.660   0.035   5.618
 1487SOL    HW2 5361   0.613   6.899   5.625
 1488SOL     OW 5362   4.603   2.305   3.716
 1488SOL    HW1 5363   4.687   2.296   3.768
 1488SOL    HW2 5364   4.561   2.394   3.736
 1489SOL     OW 5365   3.665   5.544   4.991
 1489SOL    HW1 5366   3.662   5.470   4.923
 1489SOL    HW2 5367   3.597   5.526   5.062
 1490SOL     OW 5368   2.956   2.883   0.658
 1490SOL    HW1 5369   2.869   2.840   0.635
 1490SOL    HW2 5370   2.990   2.934   0.578
 1491SOL     OW 5371   1.493   1.681   3.829
 1491SOL    HW1 5372   1.580   1.643   3.862
 1491SOL    HW2 5373   1.469   1.761   3.884
 1492SOL     OW 5374   6.931   2.442   1.658
 1492SOL    HW1 5375   6.910   2.383   1.736
 1492SOL    HW2 5376   6.942   2.537   1.690
 1493SOL     OW 5377   6.655   3.327   4.776
 1493SOL    HW1 5378   6.618   3.416   4.748
 1493SOL    HW2 5379   6.582   3.273   4.818
 1494SOL     OW 5380   5.637   2.139   3.922
 1494SOL    HW1 5381   5.588   2.052   3.921
 1494SOL    HW2 5382   5.734   2.123   3.906
 1495SOL     OW 5383   1.453   3.880   1.373
 1495SOL    HW1 5384   1.512   3.804   1.343
 1495SOL    HW2 5385   1.477   3.905   1.467
 1496SOL     OW 5386   6.887   0.099   2.837
 1496SOL    HW1 5387   6.971   0.136   2.796
 1496SOL    HW2 5388   6.809   0.122   2.778
 1497SOL     OW 5389   5.449   4.146   5.835
 1497SOL    HW1 5390   5.390   4.121   5.911
 1497SOL    HW2 5391   5.416   4.230   5.792
 1498SOL     OW 5392   2.900   5.695   6.411
 1498SOL    HW1 5393   2.986   5.683   6.361
 1498SOL    HW2 5394   2.873   5.608   6.453
 1499SOL     OW 5395   1.743   4.259   4.042
 1499SOL    HW1 5396   1.682   4.338   4.051
 1499SOL    HW2 5397   1.691   4.180   4.009
 1500SOL     OW 5398   4.192   6.049   5.542
 1500SOL    HW1 5399   4.268   6.099   5.501
 1500SOL    HW2 5400   4.169   5.970   5.485
 1501SOL     OW 5401   3.664   1.189   1.558
 1501SOL    HW1 5402   3.729   1.115   1.537
 1501SOL    HW2 5403   3.635   1.233   1.473
 1502SOL     OW 5404   6.830   0.537   6.573
 1502SOL    HW1 5405   6.850   0.461   6.510
 1502SOL    HW2 5406   6.909   0.598   6.578
 1503SOL     OW 5407   3.586   3.505   5.215
 1503SOL    HW1 5408   3.534   3.433   5.167
 1503SOL    HW2 5409   3.633   3.465   5.294
 1504SOL     OW 5410   2.908   0.582   3.677
 1504SOL    HW1 5411   2.874   0.643   3.606
 1504SOL    HW2 5412   2.859   0.495   3.672
 1505SOL     OW 5413   5.868   6.382   3.282
 1505SOL    HW1 5414   5.954   6.426   3.307
 1505SOL    HW2 5415   5.868   6.287   3.314
 1506SOL     OW 5416   0.021   0.170   4.141
 1506SOL    HW1 5417   0.114   0.158   4.105
 1506SOL    HW2 5418   0.001   0.268   4.149
 1507SOL     OW 5419   2.276   1.641   6.747
 1507SOL    HW1 5420   2.357   1.697   6.732
 1507SOL    HW2 5421   2.213   1.652   6.670
 1508SOL     OW 5422   4.185   6.403   0.780
 1508SOL    HW1 5423   4.194   6.409   0.879
 1508SOL    HW2 5424   4.267   6.360   0.742
 1509SOL     OW 5425   5.168   2.135   6.267
 1509SOL    HW1 5426   5.224   2.093   6.195
 1509SOL    HW2 5427   5.072   2.127   6.243
 1510SOL     OW 5428   6.954   1.797   2.248
 1510SOL    HW1 5429   6.945   1.896   2.235
 1510SOL    HW2 5430   6.967   1.777   2.345
 1511SOL     OW 5431   0.150   2.410   0.486
 1511SOL    HW1 5432   0.206   2.482   0.444
 1511SOL    HW2 5433   0.144   2.332   0.423
 1512SOL     OW 5434   0.456   0.470   3.070
 1512SOL    HW1 5435   0.362   0.451   3.096
 1512SOL    HW2 5436   0.488   0.402   3.005
 1513SOL     OW 5437   2.494   0.659   2.677
 1513SOL    HW1 5438   2.437   0.740   2.687
 1513SOL    HW2 5439   2.568   0.662   2.744
 1514SOL     OW 5440   4.435   0.453   5.748
 1514SOL    HW1 5441   4.454   0.526   5.814
 1514SOL    HW2 5442   4.413   0.369   5.796
 1515SOL     OW 5443   5.405   5.498   5.587
 1515SOL    HW1 5444   5.437   5.404   5.588
 1515SOL    HW2 5445   5.436   5.543   5.504
 1516SOL     OW 5446   6.325   2.154   2.368
 1516SOL    HW1 5447   6.256   2.178   2.299
 1516SOL    HW2 5448   6.307   2.061   2.401
 1517SOL     OW 5449   3.201   5.189   1.477
 1517SOL    HW1 5450   3.282   5.195   1.535
 1517SOL    HW2 5451   3.192   5.095   1.443
 1518SOL     OW 5452   1.034   4.924   0.798
 1518SOL    HW1 5453   1.035   4.944   0.700
 1518SOL    HW2 5454   0.940   4.905   0.827
 1519SOL     OW 5455   1.181   4.262   1.208
 1519SOL    HW1 5456   1.102   4.221   1.162
 1519SOL    HW2 5457   1.214   4.200   1.279
 1520SOL     OW 5458   1.808   4.220   2.712
 1520SOL    HW1 5459   1.712   4.213   2.687
 1520SOL    HW2 5460   1.865   4.193   2.634
 1521SOL     OW 5461   2.131   5.456   5.654
 1521SOL    HW1 5462   2.138   5.498   5.744
 1521SOL    HW2 5463   2.035   5.453   5.626
 1522SOL     OW 5464   1.475   1.777   5.836
 1522SOL    HW1 5465   1.376   1.770   5.822
 1522SOL    HW2 5466   1.495   1.839   5.912
 1523SOL     OW 5467   5.267   1.246   0.625
 1523SOL    HW1 5468   5.271   1.322   0.690
 1523SOL    HW2 5469   5.245   1.161   0.674
 1524SOL     OW 5470   1.246   1.904   1.502
 1524SOL    HW1 5471   1.223   1.985   1.557
 1524SOL    HW2 5472   1.334   1.867   1.532
 1525SOL     OW 5473   4.702   2.028   5.293
 1525SOL    HW1 5474   4.787   1.987   5.261
 1525SOL    HW2 5475   4.714   2.126   5.307
 1526SOL     OW 5476   5.609   2.570   0.977
 1526SOL    HW1 5477   5.555   2.494   0.942
 1526SOL    HW2 5478   5.560   2.656   0.961
 1527SOL     OW 5479   1.801   0.037   4.829
 1527SOL    HW1 5480   1.776   6.998   4.906
 1527SOL    HW2 5481   1.883   0.001   4.785
 1528SOL     OW 5482   5.049   5.930   3.207
 1528SOL    HW1 5483   5.137   5.882   3.203
 1528SOL    HW2 5484   5.015   5.931   3.301
 1529SOL     OW 5485   0.996   6.410   5.493
 1529SOL    HW1 5486   1.030   6.362   5.574
 1529SOL    HW2 5487   1.073   6.435   5.435
 1530SOL     OW 5488   3.475   6.937   1.324
 1530SOL    HW1 5489   3.549   6.970   1.266
 1530SOL    HW2 5490   3.478   6.984   1.412
 1531SOL     OW 5491   5.382   1.425   6.536
 1531SOL    HW1 5492   5.388   1.494   6.464
 1531SOL    HW2 5493   5.473   1.403   6.569
 1532SOL     OW 5494   2.907   1.166   4.984
 1532SOL    HW1 5495   2.961   1.154   4.901
 1532SOL    HW2 5496   2.816   1.125   4.971
 1533SOL     OW 5497   4.124   2.693   1.000
 1533SOL    HW1 5498   4.152   2.702   1.096
 1533SOL    HW2 5499   4.194   2.643   0.949
 1534SOL     OW 5500   5.849   0.479   0.483
 1534SOL    HW1 5501   5.859   0.464   0.581
 1534SOL    HW2 5502   5.853   0.391   0.435
 1535SOL     OW 5503   4.550   4.647   4.519
 1535SOL    HW1 5504   4.556   4.548   4.526
 1535SOL    HW2 5505   4.604   4.678   4.440
 1536SOL     OW 5506   2.965   6.193   3.037
 1536SOL    HW1 5507   2.923   6.135   3.107
 1536SOL    HW2 5508   2.899   6.259   3.003
 1537SOL     OW 5509   1.390   5.718   4.714
 1537SOL    HW1 5510   1.373   5.663   4.632
 1537SOL    HW2 5511   1.488   5.719   4.733
 1538SOL     OW 5512   3.518   6.304   0.349
 1538SOL    HW1 5513   3.591   6.351   0.398
 1538SOL    HW2 5514   3.435   6.304   0.406
 1539SOL     OW 5515   2.213   6.556   1.433
 1539SOL    HW1 5516   2.176   6.475   1.477
 1539SOL    HW2 5517   2.179   6.562   1.339
 1540SOL     OW 5518   6.393   0.819   6.062
 1540SOL    HW1 5519   6.493   0.820   6.062
 1540SOL    HW2 5520   6.358   0.913   6.055
 1541SOL     OW 5521   5.188   1.840   2.326
 1541SOL    HW1 5522   5.274   1.881   2.296
 1541SOL    HW2 5523   5.117   1.858   2.257
 1542SOL     OW 5524   6.919   4.832   1.039
 1542SOL    HW1 5525   6.977   4.912   1.026
 1542SOL    HW2 5526   6.882   4.833   1.132
 1543SOL     OW 5527   3.553   2.895   2.715
 1543SOL    HW1 5528   3.594   2.975   2.672
 1543SOL    HW2 5529   3.459   2.885   2.682
 1544SOL     OW 5530   3.221   3.395   1.434
 1544SOL    HW1 5531   3.126   3.367   1.442
 1544SOL    HW2 5532   3.256   3.420   1.524
 1545SOL     OW 5533   0.659   6.319   5.906
 1545SOL    HW1 5534   0.742   6.368   5.933
 1545SOL    HW2 5535   0.643   6.243   5.969
 1546SOL     OW 5536   0.236   6.347   1.029
 1546SOL    HW1 5537   0.180   6.352   1.112
 1546SOL    HW2 5538   0.226   6.432   0.976
 1547SOL     OW 5539   2.551   6.490   0.329
 1547SOL    HW1 5540   2.601   6.542   0.261
 1547SOL    HW2 5541   2.458   6.525   0.336
 1548SOL     OW 5542   6.199   4.271   3.391
 1548SOL    HW1 5543   6.170   4.323   3.472
 1548SOL    HW2 5544   6.126   4.273   3.323
 1549SOL     OW 5545   5.998   2.014   1.540
 1549SOL    HW1 5546   5.949   2.077   1.480
 1549SOL    HW2 5547   5.948   1.928   1.547
 1550SOL     OW 5548   2.898   4.783   2.323
 1550SOL    HW1 5549   2.995   4.796   2.302
 1550SOL    HW2 5550   2.867   4.696   2.283
 1551SOL     OW 5551   1.353   1.930   1.957
 1551SOL    HW1 5552   1.441   1.889   1.935
 1551SOL    HW2 5553   1.280   1.866   1.935
 1552SOL     OW 5554   1.651   6.369   2.270
 1552SOL    HW1 5555   1.583   6.351   2.342
 1552SOL    HW2 5556   1.716   6.294   2.265
 1553SOL     OW 5557   6.089   1.725   5.436
 1553SOL    HW1 5558   6.097   1.818   5.402
 1553SOL    HW2 5559   6.180   1.687   5.452
 1554SOL     OW 5560   2.859   3.220   0.007
 1554SOL    HW1 5561   2.902   3.228   0.096
 1554SOL    HW2 5562   2.880   3.131   6.987
 1555SOL     OW 5563   4.272   1.123   1.262
 1555SOL    HW1 5564   4.217   1.090   1.338
 1555SOL    HW2 5565   4.240   1.082   1.177
 1556SOL     OW 5566   2.449   2.066   0.225
 1556SOL    HW1 5567   2.533   2.120   0.219
 1556SOL    HW2 5568   2.381   2.104   0.164
 1557SOL     OW 5569   2.678   2.347   1.042
 1557SOL    HW1 5570   2.700   2.308   0.952
 1557SOL    HW2 5571   2.759   2.392   1.079
 1558SOL     OW 5572   4.893   1.805   0.108
 1558SOL    HW1 5573   4.918   1.890   0.061
 1558SOL    HW2 5574   4.959   1.787   0.180
 1559SOL     OW 5575   2.474   5.917   3.868
 1559SOL    HW1 5576   2.542   5.902   3.796
 1559SOL    HW2 5577   2.409   5.841   3.869
 1560SOL     OW 5578   5.020   3.195   1.617
 1560SOL    HW1 5579   5.000   3.224   1.711
 1560SOL    HW2 5580   4.943   3.143   1.581
 1561SOL     OW 5581   5.946   6.654   1.188
 1561SOL    HW1 5582   5.979   6.682   1.097
 1561SOL    HW2 5583   5.859   6.605   1.179
 1562SOL     OW 5584   2.757   6.889   3.114
 1562SOL    HW1 5585   2.728   6.910   3.020
 1562SOL    HW2 5586   2.678   6.893   3.175
 1563SOL     OW 5587   2.176   4.620   3.835
 1563SOL    HW1 5588   2.100   4.581   3.888
 1563SOL    HW2 5589   2.247   4.551   3.822
 1564SOL     OW 5590   2.549   1.951   3.224
 1564SOL    HW1 5591   2.497   1.935   3.140
 1564SOL    HW2 5592   2.636   1.993   3.201
 1565SOL     OW 5593   5.781   1.954   5.264
 1565SOL    HW1 5594   5.812   1.860   5.251
 1565SOL    HW2 5595   5.760   1.995   5.175
 1566SOL     OW 5596   1.217   3.518   3.277
 1566SOL    HW1 5597   1.263   3.583   3.217
 1566SOL    HW2 5598   1.172   3.448   3.221
 1567SOL     OW 5599   5.534   1.223   4.034
 1567SOL    HW1 5600   5.624   1.196   4.069
 1567SOL    HW2 5601   5.481   1.141   4.010
 1568SOL     OW 5602   2.189   5.015   0.753
 1568SOL    HW1 5603   2.197   4.923   0.793
 1568SOL    HW2 5604   2.228   5.082   0.815
 1569SOL     OW 5605   2.138   1.110   2.223
 1569SOL    HW1 5606   2.194   1.187   2.192
 1569SOL    HW2 5607   2.107   1.058   2.143
 1570SOL     OW 5608   2.449   5.899   5.823
 1570SOL    HW1 5609   2.435   5.941   5.912
 1570SOL    HW2 5610   2.545   5.911   5.795
 1571SOL     OW 5611   1.450   1.601   4.398
 1571SOL    HW1 5612   1.469   1.503   4.392
 1571SOL    HW2 5613   1.358   1.615   4.433
 1572SOL     OW 5614   2.694   5.455   3.818
 1572SOL    HW1 5615   2.736   5.416   3.900
 1572SOL    HW2 5616   2.595   5.459   3.830
 1573SOL     OW 5617   5.807   5.923   6.804
 1573SOL    HW1 5618   5.765   5.832   6.813
 1573SOL    HW2 5619   5.765   5.971   6.726
 1574SOL     OW 5620   0.402   2.418   3.281
 1574SOL    HW1 5621   0.455   2.391   3.201
 1574SOL    HW2 5622   0.462   2.424   3.360
 1575SOL     OW 5623   6.824   2.079   0.339
 1575SOL    HW1 5624   6.758   2.025   0.287
 1575SOL    HW2 5625   6.795   2.175   0.339
 1576SOL     OW 5626   1.057   6.326   2.526
 1576SOL    HW1 5627   1.016   6.277   2.603
 1576SOL    HW2 5628   1.049   6.271   2.443
 1577SOL     OW 5629   4.741   5.583   4.255
 1577SOL    HW1 5630   4.657   5.558   4.206
 1577SOL    HW2 5631   4.813   5.604   4.189
 1578SOL     OW 5632   5.560   1.606   2.010
 1578SOL    HW1 5633   5.623   1.680   2.034
 1578SOL    HW2 5634   5.518   1.569   2.092
 1579SOL     OW 5635   1.939   4.110   2.499
 1579SOL    HW1 5636   1.985   4.022   2.512
 1579SOL    HW2 5637   1.970   4.151   2.414
 1580SOL     OW 5638   3.392   3.262   4.487
 1580SOL    HW1 5639   3.380   3.341   4.427
 1580SOL    HW2 5640   3.489   3.240   4.494
 1581SOL     OW 5641   5.388   3.643   5.291
 1581SOL    HW1 5642   5.482   3.675   5.283
 1581SOL    HW2 5643   5.326   3.712   5.254
 1582SOL     OW 5644   3.993   6.534   3.999
 1582SOL    HW1 5645   3.982   6.626   4.035
 1582SOL    HW2 5646   4.062   6.534   3.926
 1583SOL     OW 5647   0.368   4.967   4.723
 1583SOL    HW1 5648   0.354   5.035   4.652
 1583SOL    HW2 5649   0.288   4.963   4.782
 1584SOL     OW 5650   0.358   4.569   0.347
 1584SOL    HW1 5651   0.408   4.513   0.281
 1584SOL    HW2 5652   0.386   4.546   0.440
 1585SOL     OW 5653   4.149   6.565   4.396
 1585SOL    HW1 5654   4.215   6.524   4.334
 1585SOL    HW2 5655   4.120   6.498   4.464
 1586SOL     OW 5656   2.838   6.035   3.246
 1586SOL    HW1 5657   2.841   6.070   3.340
 1586SOL    HW2 5658   2.750   5.990   3.230
 1587SOL     OW 5659   4.305   0.819   6.812
 1587SOL    HW1 5660   4.399   0.785   6.815
 1587SOL    HW2 5661   4.251   0.760   6.752
 1588SOL     OW 5662   6.295   1.467   3.930
 1588SOL    HW1 5663   6.308   1.393   3.996
 1588SOL    HW2 5664   6.224   1.529   3.964
 1589SOL     OW 5665   6.917   0.784   3.670
 1589SOL    HW1 5666   6.864   0.835   3.738
 1589SOL    HW2 5667   6.882   0.691   3.663
 1590SOL     OW 5668   5.601   6.904   3.951
 1590SOL    HW1 5669   5.681   6.844   3.952
 1590SOL    HW2 5670   5.630   6.998   3.971
 1591SOL     OW 5671   6.673   4.803   0.841
 1591SOL    HW1 5672   6.759   4.808   0.892
 1591SOL    HW2 5673   6.632   4.894   0.836
 1592SOL     OW 5674   6.708   4.596   4.022
 1592SOL    HW1 5675   6.782   4.545   4.065
 1592SOL    HW2 5676   6.697   4.565   3.927
 1593SOL     OW 5677   4.114   5.204   1.117
 1593SOL    HW1 5678   4.178   5.197   1.040
 1593SOL    HW2 5679   4.072   5.294   1.117
 1594SOL     OW 5680   5.478   1.050   2.908
 1594SOL    HW1 5681   5.386   1.013   2.922
 1594SOL    HW2 5682   5.546   0.982   2.934
 1595SOL     OW 5683   6.835   3.941   0.691
 1595SOL    HW1 5684   6.757   3.956   0.630
 1595SOL    HW2 5685   6.834   4.009   0.764
 1596SOL     OW 5686   5.411   4.462   4.454
 1596SOL    HW1 5687   5.477   4.533   4.478
 1596SOL    HW2 5688   5.319   4.495   4.474
 1597SOL     OW 5689   3.961   6.533   1.017
 1597SOL    HW1 5690   3.955   6.605   1.086
 1597SOL    HW2 5691   4.048   6.484   1.027
 1598SOL     OW 5692   0.889   6.063   5.841
 1598SOL    HW1 5693   0.940   6.016   5.769
 1598SOL    HW2 5694   0.792   6.040   5.833
 1599SOL     OW 5695   5.134   5.316   3.991
 1599SOL    HW1 5696   5.126   5.315   4.091
 1599SOL    HW2 5697   5.176   5.403   3.963
 1600SOL     OW 5698   5.031   1.294   1.501
 1600SOL    HW1 5699   5.072   1.252   1.582
 1600SOL    HW2 5700   4.978   1.225   1.451
 1601SOL     OW 5701   6.019   0.581   5.190
 1601SOL    HW1 5702   6.112   0.562   5.159
 1601SOL    HW2 5703   5.958   0.584   5.111
 1602SOL     OW 5704   3.533   6.092   3.418
 1602SOL    HW1 5705   3.460   6.119   3.480
 1602SOL    HW2 5706   3.559   6.171   3.361
 1603SOL     OW 5707   3.436   5.564   1.318
 1603SOL    HW1 5708   3.371   5.488   1.307
 1603SOL    HW2 5709   3.385   5.648   1.335
 1604SOL     OW 5710   4.418   5.546   1.557
 1604SOL    HW1 5711   4.495   5.485   1.539
 1604SOL    HW2 5712   4.445   5.618   1.621
 1605SOL     OW 5713   3.837   4.765   0.463
 1605SOL    HW1 5714   3.837   4.825   0.384
 1605SOL    HW2 5715   3.776   4.802   0.533
 1606SOL     OW 5716   5.091   5.676   4.883
 1606SOL    HW1 5717   4.994   5.687   4.903
 1606SOL    HW2 5718   5.143   5.748   4.930
 1607SOL     OW 5719   4.584   4.417   4.323
 1607SOL    HW1 5720   4.572   4.394   4.419
 1607SOL    HW2 5721   4.620   4.337   4.274
 1608SOL     OW 5722   6.348   3.254   2.782
 1608SOL    HW1 5723   6.336   3.206   2.869
 1608SOL    HW2 5724   6.296   3.206   2.711
 1609SOL     OW 5725   1.209   0.237   0.931
 1609SOL    HW1 5726   1.190   0.139   0.939
 1609SOL    HW2 5727   1.307   0.251   0.922
 1610SOL     OW 5728   5.233   5.289   1.071
 1610SOL    HW1 5729   5.303   5.347   1.113
 1610SOL    HW2 5730   5.186   5.238   1.143
 1611SOL     OW 5731   0.443   4.578   6.995
 1611SOL    HW1 5732   0.378   4.651   7.016
 1611SOL    HW2 5733   0.528   4.593   0.024
 1612SOL     OW 5734   5.372   0.654   2.190
 1612SOL    HW1 5735   5.289   0.600   2.206
 1612SOL    HW2 5736   5.375   0.684   2.095
 1613SOL     OW 5737   6.897   6.359   2.789
 1613SOL    HW1 5738   6.917   6.295   2.863
 1613SOL    HW2 5739   6.982   6.385   2.743
 1614SOL     OW 5740   6.332   1.103   5.977
 1614SOL    HW1 5741   6.342   1.141   5.885
 1614SOL    HW2 5742   6.241   1.126   6.012
 1615SOL     OW 5743   6.375   3.431   5.794
 1615SOL    HW1 5744   6.280   3.420   5.765
 1615SOL    HW2 5745   6.403   3.349   5.844
 1616SOL     OW 5746   1.692   1.039   3.458
 1616SOL    HW1 5747   1.650   1.125   3.485
 1616SOL    HW2 5748   1.771   1.058   3.399
 1617SOL     OW 5749   0.275   6.306   4.169
 1617SOL    HW1 5750   0.265   6.210   4.192
 1617SOL    HW2 5751   0.367   6.323   4.133
 1618SOL     OW 5752   3.347   5.291   2.994
 1618SOL    HW1 5753   3.273   5.232   3.026
 1618SOL    HW2 5754   3.311   5.381   2.972
 1619SOL     OW 5755   1.369   4.061   6.124
 1619SOL    HW1 5756   1.425   3.993   6.077
 1619SOL    HW2 5757   1.326   4.019   6.204
 1620SOL     OW 5758   2.895   6.987   4.495
 1620SOL    HW1 5759   2.806   7.009   4.533
 1620SOL    HW2 5760   2.955   6.951   4.567
 1621SOL     OW 5761   5.193   5.173   0.827
 1621SOL    HW1 5762   5.126   5.227   0.776
 1621SOL    HW2 5763   5.217   5.221   0.911
 1622SOL     OW 5764   6.653   3.244   3.765
 1622SOL    HW1 5765   6.668   3.153   3.804
 1622SOL    HW2 5766   6.616   3.305   3.835
 1623SOL     OW 5767   0.548   2.463   3.807
 1623SOL    HW1 5768   0.577   2.426   3.895
 1623SOL    HW2 5769   0.458   2.427   3.784
 1624SOL     OW 5770   4.255   2.888   0.159
 1624SOL    HW1 5771   4.164   2.925   0.137
 1624SOL    HW2 5772   4.314   2.962   0.191
 1625SOL     OW 5773   1.125   6.329   0.334
 1625SOL    HW1 5774   1.039   6.378   0.335
 1625SOL    HW2 5775   1.201   6.394   0.338
 1626SOL     OW 5776   3.003   1.580   1.731
 1626SOL    HW1 5777   3.012   1.481   1.723
 1626SOL    HW2 5778   3.006   1.607   1.827
 1627SOL     OW 5779   4.258   1.110   5.801
 1627SOL    HW1 5780   4.296   1.167   5.874
 1627SOL    HW2 5781   4.171   1.148   5.771
 1628SOL     OW 5782   5.575   5.702   1.089
 1628SOL    HW1 5783   5.662   5.652   1.095
 1628SOL    HW2 5784   5.584   5.774   1.020
 1629SOL     OW 5785   1.791   6.240   2.039
 1629SOL    HW1 5786   1.767   6.332   2.008
 1629SOL    HW2 5787   1.889   6.225   2.025
 1630SOL     OW 5788   0.493   4.887   6.005
 1630SOL    HW1 5789   0.403   4.883   5.962
 1630SOL    HW2 5790   0.491   4.953   6.080
 1631SOL     OW 5791   4.835   4.302   6.725
 1631SOL    HW1 5792   4.831   4.205   6.701
 1631SOL    HW2 5793   4.752   4.348   6.692
 1632SOL     OW 5794   6.424   5.312   2.252
 1632SOL    HW1 5795   6.404   5.214   2.253
 1632SOL    HW2 5796   6.392   5.352   2.166
 1633SOL     OW 5797   6.851   4.202   4.918
 1633SOL    HW1 5798   6.838   4.156   4.830
 1633SOL    HW2 5799   6.761   4.226   4.956
 1634SOL     OW 5800   1.155   4.061   5.913
 1634SOL    HW1 5801   1.115   4.150   5.932
 1634SOL    HW2 5802   1.214   4.033   5.988
 1635SOL     OW 5803   2.732   1.330   3.750
 1635SOL    HW1 5804   2.643   1.329   3.796
 1635SOL    HW2 5805   2.722   1.295   3.657
 1636SOL     OW 5806   0.055   6.246   1.973
 1636SOL    HW1 5807   0.122   6.247   1.900
 1636SOL    HW2 5808   0.042   6.152   2.006
 1637SOL     OW 5809   1.444   0.960   1.452
 1637SOL    HW1 5810   1.360   0.982   1.402
 1637SOL    HW2 5811   1.431   0.980   1.549
 1638SOL     OW 5812   5.440   1.906   3.936
 1638SOL    HW1 5813   5.402   1.993   3.967
 1638SOL    HW2 5814   5.366   1.838   3.932
 1639SOL     OW 5815   5.022   1.954   1.342
 1639SOL    HW1 5816   5.075   1.960   1.257
 1639SOL    HW2 5817   4.934   2.001   1.330
 1640SOL     OW 5818   6.553   1.373   6.418
 1640SOL    HW1 5819   6.578   1.357   6.323
 1640SOL    HW2 5820   6.453   1.372   6.427
 1641SOL     OW 5821   6.372   1.272   2.577
 1641SOL    HW1 5822   6.420   1.282   2.489
 1641SOL    HW2 5823   6.324   1.185   2.579
 1642SOL     OW 5824   0.160   3.661   6.911
 1642SOL    HW1 5825   0.225   3.607   6.857
 1642SOL    HW2 5826   0.192   3.756   6.916
 1643SOL     OW 5827   2.287   5.718   4.525
 1643SOL    HW1 5828   2.218   5.706   4.454
 1643SOL    HW2 5829   2.373   5.747   4.482
 1644SOL     OW 5830   5.855   1.731   1.509
 1644SOL    HW1 5831   5.844   1.700   1.415
 1644SOL    HW2 5832   5.868   1.651   1.568
 1645SOL     OW 5833   2.500   1.289   3.892
 1645SOL    HW1 5834   2.498   1.302   3.991
 1645SOL    HW2 5835   2.416   1.323   3.851
 1646SOL     OW 5836   7.014   5.691   1.881
 1646SOL    HW1 5837   7.009   5.782   1.923
 1646SOL    HW2 5838   6.926   5.644   1.894
 1647SOL     OW 5839   6.904   3.794   5.246
 1647SOL    HW1 5840   6.845   3.792   5.327
 1647SOL    HW2 5841   6.891   3.711   5.193
 1648SOL     OW 5842   5.865   5.714   1.781
 1648SOL    HW1 5843   5.845   5.717   1.879
 1648SOL    HW2 5844   5.792   5.760   1.731
 1649SOL     OW 5845   3.731   0.724   3.449
 1649SOL    HW1 5846   3.790   0.791   3.494
 1649SOL    HW2 5847   3.654   0.702   3.508
 1650SOL     OW 5848   2.750   2.980   5.569
 1650SOL    HW1 5849   2.724   3.019   5.481
 1650SOL    HW2 5850   2.750   3.052   5.639
 1651SOL     OW 5851   1.718   2.035   4.135
 1651SOL    HW1 5852   1.734   2.044   4.036
 1651SOL    HW2 5853   1.642   2.094   4.162
 1652SOL     OW 5854   0.455   4.312   1.724
 1652SOL    HW1 5855   0.498   4.266   1.803
 1652SOL    HW2 5856   0.382   4.371   1.755
 1653SOL     OW 5857   5.776   4.089   1.386
 1653SOL    HW1 5858   5.753   4.085   1.288
 1653SOL    HW2 5859   5.829   4.008   1.411
 1654SOL     OW 5860   0.128   3.032   1.732
 1654SOL    HW1 5861   0.180   3.049   1.815
 1654SOL    HW2 5862   0.071   3.112   1.712
 1655SOL     OW 5863   6.396   0.561   5.725
 1655SOL    HW1 5864   6.480   0.588   5.771
 1655SOL    HW2 5865   6.355   0.641   5.681
 1656SOL     OW 5866   2.017   4.459   2.899
 1656SOL    HW1 5867   2.044   4.533   2.959
 1656SOL    HW2 5868   1.925   4.428   2.923
 1657SOL     OW 5869   0.315   1.629   6.128
 1657SOL    HW1 5870   0.335   1.713   6.179
 1657SOL    HW2 5871   0.358   1.552   6.174
 1658SOL     OW 5872   4.750   0.141   5.196
 1658SOL    HW1 5873   4.789   0.147   5.288
 1658SOL    HW2 5874   4.658   0.179   5.197
 1659SOL     OW 5875   2.760   0.879   6.379
 1659SOL    HW1 5876   2.845   0.877   6.327
 1659SOL    HW2 5877   2.743   0.972   6.412
 1660SOL     OW 5878   2.449   0.825   1.471
 1660SOL    HW1 5879   2.352   0.803   1.459
 1660SOL    HW2 5880   2.459   0.923   1.490
 1661SOL     OW 5881   4.574   5.057   3.636
 1661SOL    HW1 5882   4.485   5.021   3.662
 1661SOL    HW2 5883   4.568   5.100   3.546
 1662SOL     OW 5884   0.640   2.349   4.049
 1662SOL    HW1 5885   0.737   2.332   4.032
 1662SOL    HW2 5886   0.627   2.375   4.145
 1663SOL     OW 5887   6.757   3.819   1.134
 1663SOL    HW1 5888   6.687   3.830   1.204
 1663SOL    HW2 5889   6.825   3.891   1.144
 1664SOL     OW 5890   1.162   0.734   6.944
 1664SOL    HW1 5891   1.103   0.665   6.902
 1664SOL    HW2 5892   1.120   0.824   6.934
 1665SOL     OW 5893   1.635   3.784   0.362
 1665SOL    HW1 5894   1.729   3.792   0.328
 1665SOL    HW2 5895   1.632   3.718   0.437
 1666SOL     OW 5896   5.723   6.142   5.382
 1666SOL    HW1 5897   5.809   6.091   5.383
 1666SOL    HW2 5898   5.677   6.131   5.470
 1667SOL     OW 5899   6.229   5.225   0.969
 1667SOL    HW1 5900   6.306   5.258   1.024
 1667SOL    HW2 5901   6.227   5.274   0.882
 1668SOL     OW 5902   6.952   2.735   2.190
 1668SOL    HW1 5903   6.890   2.777   2.124
 1668SOL    HW2 5904   6.977   2.644   2.159
 1669SOL     OW 5905   6.510   3.134   5.403
 1669SOL    HW1 5906   6.448   3.211   5.386
 1669SOL    HW2 5907   6.528   3.127   5.501
 1670SOL     OW 5908   3.068   4.273   5.314
 1670SOL    HW1 5909   3.094   4.205   5.246
 1670SOL    HW2 5910   3.030   4.353   5.269
 1671SOL     OW 5911   5.778   2.617   0.499
 1671SOL    HW1 5912   5.794   2.608   0.598
 1671SOL    HW2 5913   5.692   2.664   0.484
 1672SOL     OW 5914   1.015   1.825   1.662
 1672SOL    HW1 5915   1.009   1.866   1.753
 1672SOL    HW2 5916   1.084   1.874   1.608
 1673SOL     OW 5917   0.967   0.843   6.057
 1673SOL    HW1 5918   1.033   0.772   6.035
 1673SOL    HW2 5919   0.888   0.802   6.103
 1674SOL     OW 5920   4.760   2.848   3.106
 1674SOL    HW1 5921   4.840   2.793   3.085
 1674SOL    HW2 5922   4.722   2.819   3.194
 1675SOL     OW 5923   5.092   0.836   2.032
 1675SOL    HW1 5924   5.023   0.764   2.033
 1675SOL    HW2 5925   5.167   0.808   1.972
 1676SOL     OW 5926   1.876   1.650   3.787
 1676SOL    HW1 5927   1.817   1.689   3.716
 1676SOL    HW2 5928   1.959   1.705   3.796
 1677SOL     OW 5929   2.955   3.373   1.599
 1677SOL    HW1 5930   2.899   3.391   1.680
 1677SOL    HW2 5931   2.930   3.437   1.526
 1678SOL     OW 5932   6.608   0.229   0.580
 1678SOL    HW1 5933   6.618   0.306   0.518
 1678SOL    HW2 5934   6.671   0.239   0.657
 1679SOL     OW 5935   6.377   2.165   6.804
 1679SOL    HW1 5936   6.401   2.216   6.886
 1679SOL    HW2 5937   6.334   2.078   6.829
 1680SOL     OW 5938   5.274   2.084   3.374
 1680SOL    HW1 5939   5.330   2.165   3.357
 1680SOL    HW2 5940   5.333   2.008   3.401
 1681SOL     OW 5941   4.480   6.741   4.160
 1681SOL    HW1 5942   4.498   6.774   4.252
 1681SOL    HW2 5943   4.382   6.732   4.145
 1682SOL     OW 5944   4.619   1.753   5.167
 1682SOL    HW1 5945   4.679   1.739   5.246
 1682SOL    HW2 5946   4.666   1.722   5.084
 1683SOL     OW 5947   1.106   4.055   3.633
 1683SOL    HW1 5948   1.085   4.142   3.590
 1683SOL    HW2 5949   1.130   4.070   3.729
 1684SOL     OW 5950   3.598   5.926   1.289
 1684SOL    HW1 5951   3.624   5.996   1.222
 1684SOL    HW2 5952   3.528   5.867   1.250
 1685SOL     OW 5953   6.923   2.215   5.711
 1685SOL    HW1 5954   6.985   2.161   5.769
 1685SOL    HW2 5955   6.952   2.207   5.616
 1686SOL     OW 5956   3.076   6.170   1.394
 1686SOL    HW1 5957   3.175   6.162   1.401
 1686SOL    HW2 5958   3.033   6.088   1.432
 1687SOL     OW 5959   4.409   4.048   0.168
 1687SOL    HW1 5960   4.406   4.120   0.099
 1687SOL    HW2 5961   4.502   4.040   0.204
 1688SOL     OW 5962   2.672   0.527   2.927
 1688SOL    HW1 5963   2.636   0.492   3.014
 1688SOL    HW2 5964   2.666   0.455   2.857
 1689SOL     OW 5965   4.394   1.065   2.285
 1689SOL    HW1 5966   4.333   1.112   2.349
 1689SOL    HW2 5967   4.392   1.112   2.197
 1690SOL     OW 5968   0.323   4.610   4.025
 1690SOL    HW1 5969   0.413   4.651   4.007
 1690SOL    HW2 5970   0.332   4.510   4.027
 1691SOL     OW 5971   4.513   3.080   5.423
 1691SOL    HW1 5972   4.507   3.179   5.435
 1691SOL    HW2 5973   4.540   3.038   5.509
 1692SOL     OW 5974   5.608   5.544   2.911
 1692SOL    HW1 5975   5.601   5.477   2.837
 1692SOL    HW2 5976   5.581   5.500   2.997
 1693SOL     OW 5977   5.553   0.611   5.902
 1693SOL    HW1 5978   5.507   0.523   5.891
 1693SOL    HW2 5979   5.527   0.671   5.827
 1694SOL     OW 5980   4.677   1.373   6.691
 1694SOL    HW1 5981   4.648   1.468   6.704
 1694SOL    HW2 5982   4.639   1.317   6.764
 1695SOL     OW 5983   5.579   1.038   5.353
 1695SOL    HW1 5984   5.507   1.083   5.405
 1695SOL    HW2 5985   5.601   1.093   5.272
 1696SOL     OW 5986   5.227   6.929   1.077
 1696SOL    HW1 5987   5.297   6.980   1.127
 1696SOL    HW2 5988   5.244   6.937   0.979
 1697SOL     OW 5989   4.003   4.131   1.772
 1697SOL    HW1 5990   3.952   4.213   1.749
 1697SOL    HW2 5991   3.949   4.074   1.835
 1698SOL     OW 5992   4.769   2.064   1.332
 1698SOL    HW1 5993   4.683   2.030   1.369
 1698SOL    HW2 5994   4.770   2.050   1.233
 1699SOL     OW 5995   1.805   0.274   1.017
 1699SOL    HW1 5996   1.891   0.244   1.058
 1699SOL    HW2 5997   1.728   0.228   1.061
 1700SOL     OW 5998   5.970   3.239   2.994
 1700SOL    HW1 5999   6.028   3.319   3.008
 1700SOL    HW2 6000   6.027   3.158   2.980
 1701SOL     OW 6001   1.089   5.755   5.187
 1701SOL    HW1 6002   1.056   5.706   5.106
 1701SOL    HW2 6003   1.018   5.819   5.218
 1702SOL     OW 6004   2.202   2.281   6.778
 1702SOL    HW1 6005   2.129   2.294   6.845
 1702SOL    HW2 6006   2.204   2.186   6.748
 1703SOL     OW 6007   1.600   1.807   1.940
 1703SOL    HW1 6008   1.631   1.838   2.030
 1703SOL    HW2 6009   1.668   1.745   1.901
 1704SOL     OW 6010   3.043   3.011   6.696
 1704SOL    HW1 6011   3.053   3.100   6.652
 1704SOL    HW2 6012   3.088   2.941   6.640
 1705SOL     OW 6013   5.814   3.220   1.076
 1705SOL    HW1 6014   5.771   3.303   1.043
 1705SOL    HW2 6015   5.759   3.180   1.150
 1706SOL     OW 6016   6.016   0.737   5.793
 1706SOL    HW1 6017   6.009   0.824   5.744
 1706SOL    HW2 6018   6.103   0.694   5.772
 1707SOL     OW 6019   2.802   1.204   2.215
 1707SOL    HW1 6020   2.829   1.200   2.119
 1707SOL    HW2 6021   2.706   1.231   2.221
 1708SOL     OW 6022   2.470   4.697   1.604
 1708SOL    HW1 6023   2.376   4.702   1.571
 1708SOL    HW2 6024   2.501   4.602   1.601
 1709SOL     OW 6025   6.022   5.259   2.443
 1709SOL    HW1 6026   5.982   5.168   2.458
 1709SOL    HW2 6027   6.046   5.269   2.347
 1710SOL     OW 6028   4.856   2.805   2.042
 1710SOL    HW1 6029   4.816   2.896   2.059
 1710SOL    HW2 6030   4.915   2.809   1.962
 1711SOL     OW 6031   3.960   5.203   0.398
 1711SOL    HW1 6032   3.975   5.285   0.344
 1711SOL    HW2 6033   4.034   5.192   0.464
 1712SOL     OW 6034   0.091   2.489   2.347
 1712SOL    HW1 6035   0.134   2.402   2.369
 1712SOL    HW2 6036   0.067   2.537   2.432
 1713SOL     OW 6037   2.831   1.406   2.815
 1713SOL    HW1 6038   2.789   1.344   2.749
 1713SOL    HW2 6039   2.774   1.412   2.897
 1714SOL     OW 6040   3.200   4.884   0.956
 1714SOL    HW1 6041   3.188   4.914   0.861
 1714SOL    HW2 6042   3.251   4.954   1.006
 1715SOL     OW 6043   1.241   5.479   0.698
 1715SOL    HW1 6044   1.319   5.539   0.716
 1715SOL    HW2 6045   1.169   5.495   0.766
 1716SOL     OW 6046   5.139   1.390   2.498
 1716SOL    HW1 6047   5.113   1.415   2.404
 1716SOL    HW2 6048   5.086   1.310   2.527
 1717SOL     OW 6049   3.548   7.008   4.464
 1717SOL    HW1 6050   3.491   6.940   4.418
 1717SOL    HW2 6051   3.634   7.018   4.414
 1718SOL     OW 6052   1.357   3.967   1.783
 1718SOL    HW1 6053   1.420   3.944   1.709
 1718SOL    HW2 6054   1.345   4.066   1.788
 1719SOL     OW 6055   1.473   5.164   3.307
 1719SOL    HW1 6056   1.493   5.111   3.224
 1719SOL    HW2 6057   1.558   5.179   3.358
 1720SOL     OW 6058   1.351   2.507   5.647
 1720SOL    HW1 6059   1.423   2.564   5.685
 1720SOL    HW2 6060   1.375   2.481   5.553
 1721SOL     OW 6061   2.010   2.331   6.980
 1721SOL    HW1 6062   2.002   2.267   0.036
 1721SOL    HW2 6063   1.919   2.356   6.948
 1722SOL     OW 6064   3.659   2.079   3.042
 1722SOL    HW1 6065   3.658   1.983   3.014
 1722SOL    HW2 6066   3.628   2.136   2.965
 1723SOL     OW 6067   6.438   5.471   1.034
 1723SOL    HW1 6068   6.402   5.462   0.941
 1723SOL    HW2 6069   6.530   5.509   1.031
 1724SOL     OW 6070   6.110   3.899   1.278
 1724SOL    HW1 6071   6.186   3.867   1.334
 1724SOL    HW2 6072   6.031   3.919   1.336
 1725SOL     OW 6073   1.838   6.620   4.255
 1725SOL    HW1 6074   1.880   6.631   4.165
 1725SOL    HW2 6075   1.828   6.710   4.298
 1726SOL     OW 6076   5.466   5.209   3.241
 1726SOL    HW1 6077   5.541   5.181   3.181
 1726SOL    HW2 6078   5.501   5.272   3.311
 1727SOL     OW 6079   2.872   3.440   3.948
 1727SOL    HW1 6080   2.774   3.421   3.955
 1727SOL    HW2 6081   2.922   3.354   3.939
 1728SOL     OW 6082   5.400   2.014   4.497
 1728SOL    HW1 6083   5.456   1.932   4.493
 1728SOL    HW2 6084   5.454   2.090   4.534
 1729SOL     OW 6085   1.553   3.448   2.747
 1729SOL    HW1 6086   1.522   3.429   2.840
 1729SOL    HW2 6087   1.521   3.376   2.685
 1730SOL     OW 6088   2.909   0.440   4.506
 1730SOL    HW1 6089   2.854   0.522   4.525
 1730SOL    HW2 6090   2.891   0.371   4.576
 1731SOL     OW 6091   6.586   5.155   2.757
 1731SOL    HW1 6092   6.495   5.127   2.788
 1731SOL    HW2 6093   6.609   5.244   2.797
 1732SOL     OW 6094   3.984   3.118   4.739
 1732SOL    HW1 6095   4.021   3.180   4.669
 1732SOL    HW2 6096   4.052   3.106   4.812
 1733SOL     OW 6097   1.134   1.957   6.946
 1733SOL    HW1 6098   1.119   1.946   6.847
 1733SOL    HW2 6099   1.171   2.049   6.963
 1734SOL     OW 6100   0.787   4.773   2.352
 1734SOL    HW1 6101   0.875   4.802   2.389
 1734SOL    HW2 6102   0.741   4.714   2.419
 1735SOL     OW 6103   3.427   5.667   5.936
 1735SOL    HW1 6104   3.522   5.639   5.923
 1735SOL    HW2 6105   3.384   5.679   5.846
 1736SOL     OW 6106   4.464   1.964   5.026
 1736SOL    HW1 6107   4.525   1.926   5.096
 1736SOL    HW2 6108   4.475   1.913   4.941
 1737SOL     OW 6109   1.965   0.471   0.291
 1737SOL    HW1 6110   1.955   0.404   0.365
 1737SOL    HW2 6111   1.968   0.563   0.330
 1738SOL     OW 6112   1.287   3.785   1.974
 1738SOL    HW1 6113   1.317   3.858   1.913
 1738SOL    HW2 6114   1.348   3.781   2.054
 1739SOL     OW 6115   4.325   5.964   3.051
 1739SOL    HW1 6116   4.258   6.027   3.091
 1739SOL    HW2 6117   4.345   5.992   2.957
 1740SOL     OW 6118   6.970   2.363   4.733
 1740SOL    HW1 6119   6.944   2.289   4.670
 1740SOL    HW2 6120   6.890   2.395   4.782
 1741SOL     OW 6121   1.524   2.321   4.478
 1741SOL    HW1 6122   1.553   2.245   4.420
 1741SOL    HW2 6123   1.569   2.314   4.567
 1742SOL     OW 6124   5.911   0.487   6.270
 1742SOL    HW1 6125   5.973   0.444   6.204
 1742SOL    HW2 6126   5.936   0.458   6.363
 1743SOL     OW 6127   0.765   1.801   2.272
 1743SOL    HW1 6128   0.734   1.799   2.177
 1743SOL    HW2 6129   0.728   1.882   2.317
 1744SOL     OW 6130   2.752   2.133   5.255
 1744SOL    HW1 6131   2.844   2.105   5.228
 1744SOL    HW2 6132   2.755   2.184   5.341
 1745SOL     OW 6133   5.847   0.074   1.050
 1745SOL    HW1 6134   5.790   0.056   1.130
 1745SOL    HW2 6135   5.789   0.091   0.970
 1746SOL     OW 6136   2.796   5.322   2.221
 1746SOL    HW1 6137   2.773   5.229   2.252
 1746SOL    HW2 6138   2.821   5.378   2.300
 1747SOL     OW 6139   2.942   6.726   2.019
 1747SOL    HW1 6140   3.007   6.769   2.083
 1747SOL    HW2 6141   2.948   6.772   1.930
 1748SOL     OW 6142   6.814   1.176   3.786
 1748SOL    HW1 6143   6.861   1.171   3.697
 1748SOL    HW2 6144   6.879   1.205   3.856
 1749SOL     OW 6145   6.254   5.609   2.346
 1749SOL    HW1 6146   6.247   5.513   2.375
 1749SOL    HW2 6147   6.253   5.613   2.246
 1750SOL     OW 6148   2.644   2.123   0.530
 1750SOL    HW1 6149   2.545   2.125   0.549
 1750SOL    HW2 6150   2.659   2.082   0.440
 1751SOL     OW 6151   6.737   4.277   4.084
 1751SOL    HW1 6152   6.645   4.308   4.059
 1751SOL    HW2 6153   6.764   4.202   4.024
 1752SOL     OW 6154   6.056   0.359   3.181
 1752SOL    HW1 6155   5.968   0.402   3.202
 1752SOL    HW2 6156   6.088   0.308   3.261
 1753SOL     OW 6157   0.073   1.441   1.022
 1753SOL    HW1 6158   0.109   1.472   1.110
 1753SOL    HW2 6159   7.017   1.500   0.995
 1754SOL     OW 6160   1.636   4.556   3.942
 1754SOL    HW1 6161   1.730   4.586   3.926
 1754SOL    HW2 6162   1.582   4.632   3.978
 1755SOL     OW 6163   5.185   6.916   5.269
 1755SOL    HW1 6164   5.141   6.893   5.182
 1755SOL    HW2 6165   5.283   6.898   5.262
 1756SOL     OW 6166   4.480   5.417   1.146
 1756SOL    HW1 6167   4.478   5.354   1.223
 1756SOL    HW2 6168   4.424   5.381   1.072
 1757SOL     OW 6169   3.093   5.095   5.355
 1757SOL    HW1 6170   3.054   5.013   5.395
 1757SOL    HW2 6171   3.091   5.088   5.255
 1758SOL     OW 6172   0.157   6.438   3.974
 1758SOL    HW1 6173   0.188   6.372   4.043
 1758SOL    HW2 6174   0.187   6.408   3.883
 1759SOL     OW 6175   1.590   5.549   6.093
 1759SOL    HW1 6176   1.643   5.629   6.065
 1759SOL    HW2 6177   1.648   5.468   6.089
 1760SOL     OW 6178   5.884   1.419   4.473
 1760SOL    HW1 6179   5.794   1.436   4.435
 1760SOL    HW2 6180   5.883   1.437   4.572
 1761SOL     OW 6181   4.638   2.534   4.050
 1761SOL    HW1 6182   4.616   2.562   4.144
 1761SOL    HW2 6183   4.714   2.468   4.052
 1762SOL     OW 6184   0.825   1.556   5.192
 1762SOL    HW1 6185   0.860   1.590   5.105
 1762SOL    HW2 6186   0.847   1.458   5.201
 1763SOL     OW 6187   1.353   5.156   4.443
 1763SOL    HW1 6188   1.288   5.212   4.392
 1763SOL    HW2 6189   1.421   5.215   4.487
 1764SOL     OW 6190   0.586   5.315   3.118
 1764SOL    HW1 6191   0.635   5.351   3.197
 1764SOL    HW2 6192   0.634   5.235   3.082
 1765SOL     OW 6193   5.494   4.066   2.400
 1765SOL    HW1 6194   5.409   4.101   2.361
 1765SOL    HW2 6195   5.473   3.995   2.468
 1766SOL     OW 6196   4.056   4.869   3.594
 1766SOL    HW1 6197   3.999   4.862   3.675
 1766SOL    HW2 6198   3.999   4.862   3.512
 1767SOL     OW 6199   2.226   4.832   1.760
 1767SOL    HW1 6200   2.268   4.777   1.832
 1767SOL    HW2 6201   2.199   4.773   1.684
 1768SOL     OW 6202   3.801   5.206   2.422
 1768SOL    HW1 6203   3.800   5.250   2.332
 1768SOL    HW2 6204   3.774   5.111   2.412
 1769SOL     OW 6205   5.180   0.174   0.331
 1769SOL    HW1 6206   5.185   0.256   0.274
 1769SOL    HW2 6207   5.103   0.182   0.394
 1770SOL     OW 6208   2.182   3.403   0.497
 1770SOL    HW1 6209   2.168   3.314   0.454
 1770SOL    HW2 6210   2.159   3.475   0.433
 1771SOL     OW 6211   1.736   2.921   6.266
 1771SOL    HW1 6212   1.803   2.980   6.312
 1771SOL    HW2 6213   1.740   2.829   6.305
 1772SOL     OW 6214   2.415   5.297   1.597
 1772SOL    HW1 6215   2.422   5.197   1.587
 1772SOL    HW2 6216   2.318   5.323   1.601
 1773SOL     OW 6217   1.925   5.927   4.796
 1773SOL    HW1 6218   1.949   5.985   4.874
 1773SOL    HW2 6219   2.006   5.878   4.764
 1774SOL     OW 6220   5.728   4.826   1.540
 1774SOL    HW1 6221   5.711   4.875   1.626
 1774SOL    HW2 6222   5.646   4.773   1.516
 1775SOL     OW 6223   1.721   6.643   1.021
 1775SOL    HW1 6224   1.719   6.702   0.941
 1775SOL    HW2 6225   1.791   6.573   1.009
 1776SOL     OW 6226   4.385   3.154   5.882
 1776SOL    HW1 6227   4.296   3.108   5.884
 1776SOL    HW2 6228   4.390   3.219   5.958
 1777SOL     OW 6229   4.849   4.853   6.273
 1777SOL    HW1 6230   4.795   4.900   6.343
 1777SOL    HW2 6231   4.793   4.783   6.229
 1778SOL     OW 6232   0.090   0.215   2.688
 1778SOL    HW1 6233   0.139   0.128   2.692
 1778SOL    HW2 6234   0.145   0.282   2.638
 1779SOL     OW 6235   6.899   6.586   5.104
 1779SOL    HW1 6236   6.836   6.663   5.117
 1779SOL    HW2 6237   6.871   6.510   5.162
 1780SOL     OW 6238   2.652   6.785   5.098
 1780SOL    HW1 6239   2.557   6.812   5.113
 1780SOL    HW2 6240   2.658   6.730   5.014
 1781SOL     OW 6241   3.979   1.260   5.379
 1781SOL    HW1 6242   3.909   1.266   5.308
 1781SOL    HW2 6243   3.999   1.352   5.413
 1782SOL     OW 6244   5.917   0.269   2.579
 1782SOL    HW1 6245   5.831   0.320   2.570
 1782SOL    HW2 6246   5.976   0.315   2.645
 1783SOL     OW 6247   1.116   3.221   6.598
 1783SOL    HW1 6248   1.188   3.224   6.667
 1783SOL    HW2 6249   1.137   3.287   6.525
 1784SOL     OW 6250   1.766   6.158   1.471
 1784SOL    HW1 6251   1.834   6.224   1.437
 1784SOL    HW2 6252   1.739   6.184   1.564
 1785SOL     OW 6253   2.413   5.004   5.604
 1785SOL    HW1 6254   2.432   4.942   5.680
 1785SOL    HW2 6255   2.395   5.096   5.640
 1786SOL     OW 6256   0.514   5.640   2.447
 1786SOL    HW1 6257   0.586   5.704   2.474
 1786SOL    HW2 6258   0.505   5.567   2.515
 1787SOL     OW 6259   2.656   1.581   6.357
 1787SOL    HW1 6260   2.584   1.534   6.409
 1787SOL    HW2 6261   2.615   1.644   6.292
 1788SOL     OW 6262   3.683   4.072   0.548
 1788SOL    HW1 6263   3.772   4.112   0.569
 1788SOL    HW2 6264   3.612   4.141   0.556
 1789SOL     OW 6265   6.219   3.371   3.466
 1789SOL    HW1 6266   6.147   3.302   3.460
 1789SOL    HW2 6267   6.179   3.462   3.451
 1790SOL     OW 6268   2.461   2.501   4.547
 1790SOL    HW1 6269   2.384   2.500   4.483
 1790SOL    HW2 6270   2.544   2.528   4.497
 1791SOL     OW 6271   6.413   0.485   3.294
 1791SOL    HW1 6272   6.352   0.412   3.322
 1791SOL    HW2 6273   6.428   0.548   3.370
 1792SOL     OW 6274   0.165   3.688   5.896
 1792SOL    HW1 6275   0.254   3.728   5.875
 1792SOL    HW2 6276   0.170   3.643   5.986
 1793SOL     OW 6277   0.584   2.113   5.027
 1793SOL    HW1 6278   0.488   2.118   5.057
 1793SOL    HW2 6279   0.588   2.080   4.933
 1794SOL     OW 6280   6.601   2.109   6.294
 1794SOL    HW1 6281   6.641   2.054   6.367
 1794SOL    HW2 6282   6.551   2.186   6.334
 1795SOL     OW 6283   5.939   3.554   0.841
 1795SOL    HW1 6284   5.914   3.635   0.788
 1795SOL    HW2 6285   6.038   3.546   0.844
 1796SOL     OW 6286   6.362   6.838   6.400
 1796SOL    HW1 6287   6.427   6.862   6.471
 1796SOL    HW2 6288   6.317   6.752   6.423
 1797SOL     OW 6289   2.741   6.196   5.717
 1797SOL    HW1 6290   2.664   6.166   5.660
 1797SOL    HW2 6291   2.802   6.253   5.663
 1798SOL     OW 6292   2.504   4.635   0.043
 1798SOL    HW1 6293   2.503   4.733   0.060
 1798SOL    HW2 6294   2.566   4.591   0.108
 1799SOL     OW 6295   3.824   1.716   1.587
 1799SOL    HW1 6296   3.915   1.714   1.629
 1799SOL    HW2 6297   3.790   1.810   1.588
 1800SOL     OW 6298   5.544   2.607   5.806
 1800SOL    HW1 6299   5.566   2.515   5.839
 1800SOL    HW2 6300   5.447   2.610   5.780
 1801SOL     OW 6301   0.724   2.029   2.460
 1801SOL    HW1 6302   0.740   1.999   2.554
 1801SOL    HW2 6303   0.757   2.123   2.449
 1802SOL     OW 6304   6.226   4.313   4.924
 1802SOL    HW1 6305   6.247   4.338   4.829
 1802SOL    HW2 6306   6.131   4.285   4.931
 1803SOL     OW 6307   6.016   6.484   3.593
 1803SOL    HW1 6308   6.055   6.497   3.501
 1803SOL    HW2 6309   5.980   6.391   3.601
 1804SOL     OW 6310   1.275   3.057   6.130
 1804SOL    HW1 6311   1.365   3.014   6.134
 1804SOL    HW2 6312   1.205   2.990   6.156
 1805SOL     OW 6313   6.652   4.940   5.634
 1805SOL    HW1 6314   6.749   4.918   5.635
 1805SOL    HW2 6315   6.600   4.861   5.602
 1806SOL     OW 6316   0.289   1.390   2.028
 1806SOL    HW1 6317   0.197   1.426   2.043
 1806SOL    HW2 6318   0.333   1.371   2.116
 1807SOL     OW 6319   6.642   2.961   2.228
 1807SOL    HW1 6320   6.679   2.929   2.141
 1807SOL    HW2 6321   6.643   2.886   2.295
 1808SOL     OW 6322   6.258   1.175   0.175
 1808SOL    HW1 6323   6.240   1.109   0.102
 1808SOL    HW2 6324   6.259   1.268   0.137
 1809SOL     OW 6325   4.345   0.609   4.927
 1809SOL    HW1 6326   4.350   0.698   4.972
 1809SOL    HW2 6327   4.412   0.605   4.853
 1810SOL     OW 6328   1.311   1.082   4.159
 1810SOL    HW1 6329   1.364   1.042   4.234
 1810SOL    HW2 6330   1.356   1.062   4.072
 1811SOL     OW 6331   2.926   5.299   1.461
 1811SOL    HW1 6332   3.016   5.271   1.495
 1811SOL    HW2 6333   2.870   5.218   1.445
 1812SOL     OW 6334   3.735   0.806   6.556
 1812SOL    HW1 6335   3.831   0.814   6.531
 1812SOL    HW2 6336   3.684   0.769   6.478
 1813SOL     OW 6337   5.459   3.687   1.485
 1813SOL    HW1 6338   5.479   3.739   1.568
 1813SOL    HW2 6339   5.410   3.603   1.509
 1814SOL     OW 6340   6.470   5.915   1.454
 1814SOL    HW1 6341   6.564   5.900   1.423
 1814SOL    HW2 6342   6.408   5.904   1.377
 1815SOL     OW 6343   6.275   5.936   1.269
 1815SOL    HW1 6344   6.220   5.920   1.351
 1815SOL    HW2 6345   6.305   5.849   1.230
 1816SOL     OW 6346   3.893   4.922   4.758
 1816SOL    HW1 6347   3.804   4.883   4.777
 1816SOL    HW2 6348   3.882   5.018   4.730
 1817SOL     OW 6349   6.210   3.034   4.448
 1817SOL    HW1 6350   6.285   3.035   4.514
 1817SOL    HW2 6351   6.245   3.060   4.358
 1818SOL     OW 6352   2.226   2.512   0.295
 1818SOL    HW1 6353   2.158   2.539   0.227
 1818SOL    HW2 6354   2.181   2.461   0.369
 1819SOL     OW 6355   0.701   3.366   0.719
 1819SOL    HW1 6356   0.703   3.446   0.780
 1819SOL    HW2 6357   0.789   3.319   0.723
 1820SOL     OW 6358   3.779   6.391   4.840
 1820SOL    HW1 6359   3.761   6.462   4.772
 1820SOL    HW2 6360   3.868   6.350   4.822
 1821SOL     OW 6361   4.226   1.138   2.494
 1821SOL    HW1 6362   4.148   1.171   2.440
 1821SOL    HW2 6363   4.202   1.051   2.537
 1822SOL     OW 6364   2.581   4.547   5.119
 1822SOL    HW1 6365   2.679   4.565   5.118
 1822SOL    HW2 6366   2.560   4.483   5.193
 1823SOL     OW 6367   4.821   0.172   4.499
 1823SOL    HW1 6368   4.732   0.131   4.481
 1823SOL    HW2 6369   4.885   0.100   4.526
 1824SOL     OW 6370   4.496   2.788   1.757
 1824SOL    HW1 6371   4.533   2.880   1.767
 1824SOL    HW2 6372   4.396   2.792   1.752
 1825SOL     OW 6373   1.423   3.776   0.210
 1825SOL    HW1 6374   1.498   3.779   0.276
 1825SOL    HW2 6375   1.382   3.867   0.202
 1826SOL     OW 6376   4.011   3.227   6.809
 1826SOL    HW1 6377   3.932   3.180   6.769
 1826SOL    HW2 6378   3.990   3.253   6.903
 1827SOL     OW 6379   5.003   4.481   0.725
 1827SOL    HW1 6380   5.035   4.566   0.766
 1827SOL    HW2 6381   4.982   4.415   0.797
 1828SOL     OW 6382   2.717   5.835   5.305
 1828SOL    HW1 6383   2.635   5.778   5.317
 1828SOL    HW2 6384   2.797   5.787   5.341
 1829SOL     OW 6385   2.102   6.607   2.618
 1829SOL    HW1 6386   2.128   6.565   2.705
 1829SOL    HW2 6387   2.158   6.688   2.601
 1830SOL     OW 6388   4.776   1.603   6.987
 1830SOL    HW1 6389   4.831   1.675   0.010
 1830SOL    HW2 6390   4.798   1.514   0.009
 1831SOL     OW 6391   3.421   4.188   6.421
 1831SOL    HW1 6392   3.511   4.151   6.444
 1831SOL    HW2 6393   3.377   4.131   6.352
 1832SOL     OW 6394   2.127   1.910   5.567
 1832SOL    HW1 6395   2.133   1.902   5.467
 1832SOL    HW2 6396   2.184   1.986   5.597
 1833SOL     OW 6397   5.626   1.501   0.211
 1833SOL    HW1 6398   5.724   1.506   0.189
 1833SOL    HW2 6399   5.587   1.419   0.170
 1834SOL     OW 6400   1.515   3.478   6.596
 1834SOL    HW1 6401   1.538   3.381   6.592
 1834SOL    HW2 6402   1.421   3.492   6.565
 1835SOL     OW 6403   6.024   0.415   6.504
 1835SOL    HW1 6404   6.041   0.504   6.546
 1835SOL    HW2 6405   6.024   0.344   6.574
 1836SOL     OW 6406   5.704   0.906   4.667
 1836SOL    HW1 6407   5.653   0.978   4.620
 1836SOL    HW2 6408   5.701   0.921   4.766
 1837SOL     OW 6409   1.517   1.700   1.210
 1837SOL    HW1 6410   1.601   1.654   1.179
 1837SOL    HW2 6411   1.533   1.739   1.300
 1838SOL     OW 6412   4.762   0.423   0.176
 1838SOL    HW1 6413   4.834   0.445   0.242
 1838SOL    HW2 6414   4.784   0.336   0.131
 1839SOL     OW 6415   0.115   2.220   6.926
 1839SOL    HW1 6416   0.075   2.138   6.968
 1839SOL    HW2 6417   0.115   2.294   6.992
 1840SOL     OW 6418   1.887   6.675   5.386
 1840SOL    HW1 6419   1.949   6.736   5.435
 1840SOL    HW2 6420   1.915   6.670   5.289
 1841SOL     OW 6421   2.122   0.094   1.658
 1841SOL    HW1 6422   2.131   0.008   1.709
 1841SOL    HW2 6423   2.179   0.090   1.576
 1842SOL     OW 6424   0.149   4.702   1.656
 1842SOL    HW1 6425   0.158   4.758   1.739
 1842SOL    HW2 6426   0.156   4.761   1.575
 1843SOL     OW 6427   3.758   0.741   6.835
 1843SOL    HW1 6428   3.752   0.777   6.742
 1843SOL    HW2 6429   3.699   0.661   6.844
 1844SOL     OW 6430   5.225   3.022   1.528
 1844SOL    HW1 6431   5.152   3.078   1.567
 1844SOL    HW2 6432   5.200   2.994   1.436
 1845SOL     OW 6433   0.198   2.632   4.480
 1845SOL    HW1 6434   0.128   2.640   4.552
 1845SOL    HW2 6435   0.173   2.558   4.418
 1846SOL     OW 6436   3.724   1.196   2.236
 1846SOL    HW1 6437   3.767   1.286   2.237
 1846SOL    HW2 6438   3.717   1.162   2.142
 1847SOL     OW 6439   2.782   5.809   6.640
 1847SOL    HW1 6440   2.784   5.907   6.664
 1847SOL    HW2 6441   2.857   5.789   6.577
 1848SOL     OW 6442   2.916   5.923   4.702
 1848SOL    HW1 6443   2.996   5.879   4.662
 1848SOL    HW2 6444   2.833   5.880   4.666
 1849SOL     OW 6445   5.034   2.800   2.303
 1849SOL    HW1 6446   5.121   2.750   2.306
 1849SOL    HW2 6447   4.990   2.786   2.215
 1850SOL     OW 6448   4.716   1.005   0.517
 1850SOL    HW1 6449   4.672   0.963   0.596
 1850SOL    HW2 6450   4.725   1.104   0.533
 1851SOL     OW 6451   1.848   4.935   3.645
 1851SOL    HW1 6452   1.936   4.980   3.629
 1851SOL    HW2 6453   1.820   4.887   3.562
 1852SOL     OW 6454   0.097   0.674   4.547
 1852SOL    HW1 6455   0.150   0.742   4.598
 1852SOL    HW2 6456   0.008   0.662   4.591
 1853SOL     OW 6457   0.904   1.970   5.151
 1853SOL    HW1 6458   0.926   1.977   5.053
 1853SOL    HW2 6459   0.960   1.898   5.192
 1854SOL     OW 6460   1.081   6.820   3.762
 1854SOL    HW1 6461   1.163   6.876   3.764
 1854SOL    HW2 6462   1.014   6.855   3.827
 1855SOL     OW 6463   6.601   1.430   5.029
 1855SOL    HW1 6464   6.574   1.480   4.947
 1855SOL    HW2 6465   6.679   1.476   5.072
 1856SOL     OW 6466   4.264   3.840   6.953
 1856SOL    HW1 6467   4.246   3.936   6.932
 1856SOL    HW2 6468   4.178   3.792   6.967
 1857SOL     OW 6469   4.853   1.118   6.930
 1857SOL    HW1 6470   4.898   1.108   6.842
 1857SOL    HW2 6471   4.754   1.126   6.916
 1858SOL     OW 6472   4.395   2.168   4.639
 1858SOL    HW1 6473   4.383   2.130   4.731
 1858SOL    HW2 6474   4.319   2.228   4.617
 1859SOL     OW 6475   6.472   5.739   3.344
 1859SOL    HW1 6476   6.394   5.736   3.282
 1859SOL    HW2 6477   6.549   5.784   3.298
 1860SOL     OW 6478   1.825   0.036   0.552
 1860SOL    HW1 6479   1.875   6.974   0.577
 1860SOL    HW2 6480   1.728   0.024   0.573
 1861SOL     OW 6481   6.340   0.041   5.103
 1861SOL    HW1 6482   6.420   0.101   5.112
 1861SOL    HW2 6483   6.366   6.968   5.128
 1862SOL     OW 6484   4.298   4.771   4.920
 1862SOL    HW1 6485   4.308   4.680   4.961
 1862SOL    HW2 6486   4.211   4.811   4.949
 1863SOL     OW 6487   7.013   0.897   1.048
 1863SOL    HW1 6488   6.924   0.867   1.013
 1863SOL    HW2 6489   7.015   0.997   1.053
 1864SOL     OW 6490   3.202   5.487   2.894
 1864SOL    HW1 6491   3.126   5.464   2.955
 1864SOL    HW2 6492   3.200   5.426   2.814
 1865SOL     OW 6493   6.130   2.476   6.064
 1865SOL    HW1 6494   6.108   2.418   5.986
 1865SOL    HW2 6495   6.046   2.507   6.108
 1866SOL     OW 6496   0.027   4.360   5.020
 1866SOL    HW1 6497   6.978   4.304   4.975
 1866SOL    HW2 6498   0.067   4.308   5.096
 1867SOL     OW 6499   1.490   0.164   0.528
 1867SOL    HW1 6500   1.494   0.263   0.536
 1867SOL    HW2 6501   1.407   0.137   0.479
 1868SOL     OW 6502   5.836   3.756   5.884
 1868SOL    HW1 6503   5.876   3.678   5.932
 1868SOL    HW2 6504   5.901   3.792   5.817
 1869SOL     OW 6505   4.723   1.030   5.093
 1869SOL    HW1 6506   4.771   1.115   5.072
 1869SOL    HW2 6507   4.768   0.985   5.170
 1870SOL     OW 6508   5.940   1.442   6.133
 1870SOL    HW1 6509   5.942   1.536   6.099
 1870SOL    HW2 6510   5.970   1.380   6.060
 1871SOL     OW 6511   2.841   4.310   6.875
 1871SOL    HW1 6512   2.854   4.409   6.884
 1871SOL    HW2 6513   2.830   4.269   6.965
 1872SOL     OW 6514   2.074   3.820   6.513
 1872SOL    HW1 6515   2.144   3.803   6.444
 1872SOL    HW2 6516   2.068   3.918   6.532
 1873SOL     OW 6517   5.649   0.804   2.314
 1873SOL    HW1 6518   5.664   0.884   2.371
 1873SOL    HW2 6519   5.562   0.761   2.339
 1874SOL     OW 6520   2.222   5.166   6.754
 1874SOL    HW1 6521   2.262   5.100   6.689
 1874SOL    HW2 6522   2.285   5.178   6.831
 1875SOL     OW 6523   1.068   6.258   1.991
 1875SOL    HW1 6524   1.157   6.296   1.965
 1875SOL    HW2 6525   1.042   6.187   1.925
 1876SOL     OW 6526   1.491   4.983   5.386
 1876SOL    HW1 6527   1.542   5.067   5.404
 1876SOL    HW2 6528   1.555   4.909   5.364
 1877SOL     OW 6529   0.210   1.304   3.718
 1877SOL    HW1 6530   0.118   1.266   3.726
 1877SOL    HW2 6531   0.244   1.329   3.809
 1878SOL     OW 6532   5.726   3.995   3.693
 1878SOL    HW1 6533   5.679   3.920   3.739
 1878SOL    HW2 6534   5.687   4.082   3.723
 1879SOL     OW 6535   4.040   6.402   5.052
 1879SOL    HW1 6536   4.013   6.321   5.103
 1879SOL    HW2 6537   4.057   6.377   4.957
 1880SOL     OW 6538   2.170   3.880   4.388
 1880SOL    HW1 6539   2.095   3.816   4.406
 1880SOL    HW2 6540   2.189   3.881   4.289
 1881SOL     OW 6541   3.088   2.138   2.890
 1881SOL    HW1 6542   3.099   2.062   2.828
 1881SOL    HW2 6543   3.038   2.212   2.845
 1882SOL     OW 6544   4.373   0.491   6.634
 1882SOL    HW1 6545   4.310   0.569   6.642
 1882SOL    HW2 6546   4.429   0.484   6.716
 1883SOL     OW 6547   1.998   3.762   2.897
 1883SOL    HW1 6548   2.021   3.853   2.930
 1883SOL    HW2 6549   1.982   3.765   2.798
 1884SOL     OW 6550   4.984   0.933   0.486
 1884SOL    HW1 6551   5.003   0.971   0.395
 1884SOL    HW2 6552   4.892   0.960   0.514
 1885SOL     OW 6553   0.065   2.047   1.396
 1885SOL    HW1 6554   0.147   2.102   1.408
 1885SOL    HW2 6555   0.035   2.011   1.484
 1886SOL     OW 6556   3.655   2.837   4.952
 1886SOL    HW1 6557   3.582   2.811   5.015
 1886SOL    HW2 6558   3.744   2.830   4.999
 1887SOL     OW 6559   0.486   5.995   5.600
 1887SOL    HW1 6560   0.495   6.093   5.615
 1887SOL    HW2 6561   0.457   5.977   5.506
 1888SOL     OW 6562   2.369   1.348   5.473
 1888SOL    HW1 6563   2.382   1.250   5.489
 1888SOL    HW2 6564   2.275   1.374   5.497
 1889SOL     OW 6565   3.441   3.776   6.870
 1889SOL    HW1 6566   3.512   3.810   6.807
 1889SOL    HW2 6567   3.475   3.695   6.918
 1890SOL     OW 6568   5.903   6.517   6.113
 1890SOL    HW1 6569   5.958   6.571   6.049
 1890SOL    HW2 6570   5.903   6.421   6.084
 1891SOL     OW 6571   4.835   3.143   0.058
 1891SOL    HW1 6572   4.921   3.157   0.009
 1891SOL    HW2 6573   4.824   3.214   0.127
 1892SOL     OW 6574   3.461   0.670   3.341
 1892SOL    HW1 6575   3.453   0.737   3.415
 1892SOL    HW2 6576   3.547   0.684   3.293
 1893SOL     OW 6577   2.768   2.379   6.847
 1893SOL    HW1 6578   2.858   2.408   6.879
 1893SOL    HW2 6579   2.765   2.280   6.837
 1894SOL     OW 6580   5.428   2.985   1.084
 1894SOL    HW1 6581   5.377   3.061   1.044
 1894SOL    HW2 6582   5.523   3.011   1.097
 1895SOL     OW 6583   4.102   6.112   3.089
 1895SOL    HW1 6584   4.077   6.146   2.999
 1895SOL    HW2 6585   4.023   6.119   3.151
 1896SOL     OW 6586   0.267   1.911   4.282
 1896SOL    HW1 6587   0.341   1.954   4.229
 1896SOL    HW2 6588   0.271   1.942   4.377
 1897SOL     OW 6589   5.181   5.720   3.495
 1897SOL    HW1 6590   5.221   5.765   3.415
 1897SOL    HW2 6591   5.223   5.630   3.507
 1898SOL     OW 6592   5.381   5.982   0.300
 1898SOL    HW1 6593   5.361   6.004   0.204
 1898SOL    HW2 6594   5.408   5.886   0.307
 1899SOL     OW 6595   2.095   3.257   4.157
 1899SOL    HW1 6596   2.088   3.157   4.161
 1899SOL    HW2 6597   2.164   3.283   4.089
 1900SOL     OW 6598   2.514   5.524   1.462
 1900SOL    HW1 6599   2.491   5.427   1.474
 1900SOL    HW2 6600   2.430   5.577   1.450
 1901SOL     OW 6601   0.517   1.644   6.908
 1901SOL    HW1 6602   0.457   1.649   6.987
 1901SOL    HW2 6603   0.478   1.583   6.840
 1902SOL     OW 6604   1.577   2.746   5.028
 1902SOL    HW1 6605   1.635   2.681   4.980
 1902SOL    HW2 6606   1.487   2.706   5.045
 1903SOL     OW 6607   6.948   6.004   4.079
 1903SOL    HW1 6608   6.864   6.059   4.078
 1903SOL    HW2 6609   6.971   5.976   3.986
 1904SOL     OW 6610   0.686   1.147   3.903
 1904SOL    HW1 6611   0.720   1.069   3.956
 1904SOL    HW2 6612   0.695   1.230   3.958
 1905SOL     OW 6613   5.702   2.947   6.293
 1905SOL    HW1 6614   5.798   2.971   6.279
 1905SOL    HW2 6615   5.695   2.868   6.354
 1906SOL     OW 6616   2.520   5.346   5.831
 1906SOL    HW1 6617   2.554   5.418   5.890
 1906SOL    HW2 6618   2.512   5.261   5.884
 1907SOL     OW 6619   4.533   0.791   2.882
 1907SOL    HW1 6620   4.604   0.839   2.933
 1907SOL    HW2 6621   4.554   0.794   2.784
 1908SOL     OW 6622   5.483   4.104   0.431
 1908SOL    HW1 6623   5.540   4.134   0.507
 1908SOL    HW2 6624   5.387   4.125   0.452
 1909SOL     OW 6625   4.732   5.160   4.191
 1909SOL    HW1 6626   4.639   5.197   4.198
 1909SOL    HW2 6627   4.779   5.172   4.279
 1910SOL     OW 6628   5.229   3.966   4.272
 1910SOL    HW1 6629   5.198   3.955   4.177
 1910SOL    HW2 6630   5.273   3.882   4.303
 1911SOL     OW 6631   0.644   2.472   5.704
 1911SOL    HW1 6632   0.656   2.375   5.724
 1911SOL    HW2 6633   0.623   2.521   5.789
 1912SOL     OW 6634   3.561   0.654   2.248
 1912SOL    HW1 6635   3.641   0.603   2.218
 1912SOL    HW2 6636   3.591   0.739   2.292
 1913SOL     OW 6637   3.094   3.847   6.908
 1913SOL    HW1 6638   3.067   3.794   6.827
 1913SOL    HW2 6639   3.012   3.884   6.952
 1914SOL     OW 6640   4.788   1.433   5.135
 1914SOL    HW1 6641   4.843   1.431   5.218
 1914SOL    HW2 6642   4.846   1.461   5.058
 1915SOL     OW 6643   2.624   6.532   5.215
 1915SOL    HW1 6644   2.643   6.614   5.160
 1915SOL    HW2 6645   2.618   6.557   5.312
 1916SOL     OW 6646   3.865   6.566   2.923
 1916SOL    HW1 6647   3.789   6.609   2.875
 1916SOL    HW2 6648   3.943   6.629   2.925
 1917SOL     OW 6649   3.587   4.133   3.517
 1917SOL    HW1 6650   3.538   4.176   3.592
 1917SOL    HW2 6651   3.680   4.110   3.546
 1918SOL     OW 6652   0.861   6.535   6.428
 1918SOL    HW1 6653   0.871   6.589   6.344
 1918SOL    HW2 6654   0.951   6.517   6.467
 1919SOL     OW 6655   5.354   0.984   1.782
 1919SOL    HW1 6656   5.393   1.017   1.868
 1919SOL    HW2 6657   5.329   0.887   1.792
 1920SOL     OW 6658   5.832   6.651   4.579
 1920SOL    HW1 6659   5.846   6.580   4.510
 1920SOL    HW2 6660   5.744   6.695   4.564
 1921SOL     OW 6661   2.396   6.841   0.018
 1921SOL    HW1 6662   2.383   6.759   6.984
 1921SOL    HW2 6663   2.451   6.908   6.987
 1922SOL     OW 6664   3.531   4.940   6.574
 1922SOL    HW1 6665   3.621   4.897   6.572
 1922SOL    HW2 6666   3.536   5.023   6.629
 1923SOL     OW 6667   1.365   2.826   1.597
 1923SOL    HW1 6668   1.430   2.788   1.531
 1923SOL    HW2 6669   1.279   2.848   1.549
 1924SOL     OW 6670   0.917   3.846   1.732
 1924SOL    HW1 6671   0.905   3.866   1.635
 1924SOL    HW2 6672   0.976   3.766   1.743
 1925SOL     OW 6673   3.042   4.917   0.227
 1925SOL    HW1 6674   3.100   4.991   0.261
 1925SOL    HW2 6675   3.023   4.852   0.301
 1926SOL     OW 6676   0.322   0.214   3.028
 1926SOL    HW1 6677   0.344   0.237   2.933
 1926SOL    HW2 6678   0.262   0.133   3.029
 1927SOL     OW 6679   5.390   3.230   1.393
 1927SOL    HW1 6680   5.335   3.159   1.437
 1927SOL    HW2 6681   5.414   3.300   1.460
 1928SOL     OW 6682   0.139   4.900   4.910
 1928SOL    HW1 6683   0.138   4.973   4.977
 1928SOL    HW2 6684   0.055   4.903   4.856
 1929SOL     OW 6685   1.663   4.653   3.143
 1929SOL    HW1 6686   1.699   4.704   3.065
 1929SOL    HW2 6687   1.726   4.580   3.168
 1930SOL     OW 6688   6.587   5.945   6.268
 1930SOL    HW1 6689   6.544   5.859   6.298
 1930SOL    HW2 6690   6.550   5.970   6.178
 1931SOL     OW 6691   2.519   2.612   3.341
 1931SOL    HW1 6692   2.549   2.707   3.339
 1931SOL    HW2 6693   2.430   2.604   3.296
 1932SOL     OW 6694   5.926   3.116   2.485
 1932SOL    HW1 6695   5.828   3.098   2.496
 1932SOL    HW2 6696   5.951   3.106   2.388
 1933SOL     OW 6697   2.212   5.151   0.322
 1933SOL    HW1 6698   2.119   5.130   0.351
 1933SOL    HW2 6699   2.267   5.180   0.400
 1934SOL     OW 6700   0.271   6.541   2.719
 1934SOL    HW1 6701   0.282   6.519   2.816
 1934SOL    HW2 6702   0.211   6.472   2.677
 1935SOL     OW 6703   0.896   1.536   2.241
 1935SOL    HW1 6704   0.904   1.439   2.264
 1935SOL    HW2 6705   0.827   1.578   2.300
 1936SOL     OW 6706   0.289   6.031   4.886
 1936SOL    HW1 6707   0.245   6.059   4.972
 1936SOL    HW2 6708   0.235   5.959   4.843
 1937SOL     OW 6709   5.005   2.121   3.387
 1937SOL    HW1 6710   4.957   2.096   3.303
 1937SOL    HW2 6711   5.104   2.117   3.372
 1938SOL     OW 6712   4.508   0.127   3.680
 1938SOL    HW1 6713   4.517   0.207   3.740
 1938SOL    HW2 6714   4.445   0.149   3.605
 1939SOL     OW 6715   2.507   1.083   4.213
 1939SOL    HW1 6716   2.510   1.181   4.191
 1939SOL    HW2 6717   2.538   1.069   4.307
 1940SOL     OW 6718   6.612   0.622   6.704
 1940SOL    HW1 6719   6.603   0.553   6.776
 1940SOL    HW2 6720   6.674   0.588   6.633
 1941SOL     OW 6721   4.759   4.889   2.696
 1941SOL    HW1 6722   4.823   4.824   2.656
 1941SOL    HW2 6723   4.666   4.867   2.665
 1942SOL     OW 6724   0.066   3.533   2.566
 1942SOL    HW1 6725   0.099   3.620   2.603
 1942SOL    HW2 6726   0.130   3.460   2.589
 1943SOL     OW 6727   3.569   5.348   3.650
 1943SOL    HW1 6728   3.556   5.419   3.580
 1943SOL    HW2 6729   3.508   5.271   3.630
 1944SOL     OW 6730   6.422   6.500   1.803
 1944SOL    HW1 6731   6.501   6.496   1.864
 1944SOL    HW2 6732   6.396   6.596   1.787
 1945SOL     OW 6733   3.404   5.203   2.208
 1945SOL    HW1 6734   3.464   5.236   2.135
 1945SOL    HW2 6735   3.310   5.199   2.175
 1946SOL     OW 6736   1.110   6.179   6.698
 1946SOL    HW1 6737   1.180   6.175   6.626
 1946SOL    HW2 6738   1.140   6.125   6.776
 1947SOL     OW 6739   4.437   1.355   3.857
 1947SOL    HW1 6740   4.448   1.451   3.833
 1947SOL    HW2 6741   4.478   1.298   3.785
 1948SOL     OW 6742   6.235   2.913   5.105
 1948SOL    HW1 6743   6.150   2.959   5.132
 1948SOL    HW2 6744   6.287   2.889   5.187
 1949SOL     OW 6745   4.688   3.749   0.066
 1949SOL    HW1 6746   4.690   3.671   0.004
 1949SOL    HW2 6747   4.631   3.727   0.145
 1950SOL     OW 6748   2.454   4.636   0.760
 1950SOL    HW1 6749   2.490   4.716   0.808
 1950SOL    HW2 6750   2.512   4.557   0.781
 1951SOL     OW 6751   5.369   3.123   6.395
 1951SOL    HW1 6752   5.348   3.187   6.321
 1951SOL    HW2 6753   5.403   3.037   6.355
 1952SOL     OW 6754   3.021   3.249   3.236
 1952SOL    HW1 6755   3.093   3.317   3.251
 1952SOL    HW2 6756   3.051   3.160   3.271
 1953SOL     OW 6757   0.626   1.971   4.800
 1953SOL    HW1 6758   0.642   1.884   4.848
 1953SOL    HW2 6759   0.633   1.956   4.701
 1954SOL     OW 6760   2.118   1.972   4.292
 1954SOL    HW1 6761   2.195   2.016   4.338
 1954SOL    HW2 6762   2.153   1.903   4.229
 1955SOL     OW 6763   6.194   5.518   2.939
 1955SOL    HW1 6764   6.212   5.542   2.843
 1955SOL    HW2 6765   6.234   5.428   2.958
 1956SOL     OW 6766   4.016   6.301   3.556
 1956SOL    HW1 6767   3.936   6.243   3.576
 1956SOL    HW2 6768   4.092   6.243   3.527
 1957SOL     OW 6769   2.250   5.852   5.622
 1957SOL    HW1 6770   2.316   5.866   5.696
 1957SOL    HW2 6771   2.211   5.760   5.629
 1958SOL     OW 6772   3.927   3.376   5.887
 1958SOL    HW1 6773   3.967   3.356   5.976
 1958SOL    HW2 6774   3.920   3.475   5.875
 1959SOL     OW 6775   3.387   0.156   0.966
 1959SOL    HW1 6776   3.345   0.114   1.047
 1959SOL    HW2 6777   3.371   0.098   0.886
 1960SOL     OW 6778   4.379   5.701   3.048
 1960SOL    HW1 6779   4.361   5.799   3.052
 1960SOL    HW2 6780   4.397   5.674   2.954
 1961SOL     OW 6781   5.810   4.913   5.286
 1961SOL    HW1 6782   5.865   4.829   5.288
 1961SOL    HW2 6783   5.868   4.990   5.262
 1962SOL     OW 6784   0.749   6.429   4.102
 1962SOL    HW1 6785   0.811   6.497   4.064
 1962SOL    HW2 6786   0.767   6.418   4.200
 1963SOL     OW 6787   2.263   1.352   3.763
 1963SOL    HW1 6788   2.186   1.347   3.826
 1963SOL    HW2 6789   2.310   1.439   3.775
 1964SOL     OW 6790   6.500   2.483   2.074
 1964SOL    HW1 6791   6.498   2.408   2.140
 1964SOL    HW2 6792   6.592   2.490   2.034
 1965SOL     OW 6793   1.658   6.680   3.358
 1965SOL    HW1 6794   1.621   6.646   3.272
 1965SOL    HW2 6795   1.718   6.758   3.340
 1966SOL     OW 6796   6.461   6.190   0.213
 1966SOL    HW1 6797   6.521   6.171   0.291
 1966SOL    HW2 6798   6.495   6.142   0.132
 1967SOL     OW 6799   6.672   2.780   4.788
 1967SOL    HW1 6800   6.636   2.851   4.726
 1967SOL    HW2 6801   6.629   2.790   4.878
 1968SOL     OW 6802   4.558   5.645   4.451
 1968SOL    HW1 6803   4.628   5.617   4.385
 1968SOL    HW2 6804   4.520   5.564   4.496
 1969SOL     OW 6805   5.868   0.615   1.287
 1969SOL    HW1 6806   5.816   0.537   1.250
 1969SOL    HW2 6807   5.959   0.616   1.247
 1970SOL     OW 6808   2.402   1.539   4.843
 1970SOL    HW1 6809   2.400   1.511   4.939
 1970SOL    HW2 6810   2.481   1.499   4.798
 1971SOL     OW 6811   0.079   1.554   5.718
 1971SOL    HW1 6812   0.016   1.616   5.765
 1971SOL    HW2 6813   0.079   1.573   5.620
 1972SOL     OW 6814   1.203   6.627   3.915
 1972SOL    HW1 6815   1.160   6.696   3.857
 1972SOL    HW2 6816   1.184   6.647   4.011
 1973SOL     OW 6817   3.874   2.729   0.329
 1973SOL    HW1 6818   3.906   2.820   0.306
 1973SOL    HW2 6819   3.904   2.706   0.422
 1974SOL     OW 6820   6.096   6.337   4.401
 1974SOL    HW1 6821   6.107   6.328   4.302
 1974SOL    HW2 6822   6.160   6.406   4.435
 1975SOL     OW 6823   2.369   0.122   3.807
 1975SOL    HW1 6824   2.424   0.206   3.812
 1975SOL    HW2 6825   2.360   0.083   3.898
 1976SOL     OW 6826   6.435   4.359   6.501
 1976SOL    HW1 6827   6.366   4.313   6.445
 1976SOL    HW2 6828   6.441   4.313   6.590
 1977SOL     OW 6829   3.019   2.101   5.193
 1977SOL    HW1 6830   3.061   2.171   5.136
 1977SOL    HW2 6831   3.087   2.065   5.257
 1978SOL     OW 6832   0.179   2.680   4.976
 1978SOL    HW1 6833   0.272   2.717   4.971
 1978SOL    HW2 6834   0.145   2.661   4.884
 1979SOL     OW 6835   6.697   4.222   2.400
 1979SOL    HW1 6836   6.694   4.142   2.460
 1979SOL    HW2 6837   6.757   4.204   2.322
 1980SOL     OW 6838   2.806   0.540   3.282
 1980SOL    HW1 6839   2.863   0.616   3.250
 1980SOL    HW2 6840   2.820   0.528   3.381
 1981SOL     OW 6841   5.385   3.421   2.598
 1981SOL    HW1 6842   5.474   3.431   2.553
 1981SOL    HW2 6843   5.314   3.457   2.538
 1982SOL     OW 6844   0.159   6.908   5.330
 1982SOL    HW1 6845   0.257   6.909   5.347
 1982SOL    HW2 6846   0.129   6.814   5.311
 1983SOL     OW 6847   0.923   4.846   1.447
 1983SOL    HW1 6848   0.985   4.911   1.401
 1983SOL    HW2 6849   0.974   4.766   1.476
 1984SOL     OW 6850   3.742   0.185   5.731
 1984SOL    HW1 6851   3.819   0.245   5.751
 1984SOL    HW2 6852   3.736   0.170   5.632
 1985SOL     OW 6853   1.007   5.491   2.142
 1985SOL    HW1 6854   0.912   5.523   2.139
 1985SOL    HW2 6855   1.027   5.442   2.058
 1986SOL     OW 6856   5.896   2.039   1.093
 1986SOL    HW1 6857   5.912   2.023   0.995
 1986SOL    HW2 6858   5.979   2.073   1.136
 1987SOL     OW 6859   1.877   3.303   0.602
 1987SOL    HW1 6860   1.956   3.324   0.545
 1987SOL    HW2 6861   1.907   3.261   0.687
 1988SOL     OW 6862   5.160   2.607   1.420
 1988SOL    HW1 6863   5.119   2.516   1.429
 1988SOL    HW2 6864   5.087   2.675   1.415
 1989SOL     OW 6865   2.652   2.299   3.165
 1989SOL    HW1 6866   2.703   2.216   3.140
 1989SOL    HW2 6867   2.684   2.332   3.253
 1990SOL     OW 6868   1.363   6.986   2.893
 1990SOL    HW1 6869   1.415   0.007   2.818
 1990SOL    HW2 6870   1.416   6.911   2.933
 1991SOL     OW 6871   5.144   5.745   2.518
 1991SOL    HW1 6872   5.220   5.809   2.524
 1991SOL    HW2 6873   5.169   5.658   2.561
 1992SOL     OW 6874   1.842   5.798   5.232
 1992SOL    HW1 6875   1.748   5.790   5.199
 1992SOL    HW2 6876   1.891   5.712   5.214
 1993SOL     OW 6877   3.376   3.178   4.173
 1993SOL    HW1 6878   3.314   3.243   4.216
 1993SOL    HW2 6879   3.347   3.085   4.195
 1994SOL     OW 6880   6.463   1.828   1.179
 1994SOL    HW1 6881   6.468   1.919   1.219
 1994SOL    HW2 6882   6.376   1.817   1.130
 1995SOL     OW 6883   4.270   2.781   1.608
 1995SOL    HW1 6884   4.226   2.832   1.682
 1995SOL    HW2 6885   4.205   2.715   1.571
 1996SOL     OW 6886   2.108   5.169   6.061
 1996SOL    HW1 6887   2.164   5.093   6.093
 1996SOL    HW2 6888   2.025   5.176   6.116
 1997SOL     OW 6889   5.567   6.082   4.862
 1997SOL    HW1 6890   5.599   6.122   4.948
 1997SOL    HW2 6891   5.623   6.002   4.840
 1998SOL     OW 6892   3.234   5.321   4.954
 1998SOL    HW1 6893   3.196   5.231   4.975
 1998SOL    HW2 6894   3.164   5.376   4.908
 1999SOL     OW 6895   3.490   1.321   2.106
 1999SOL    HW1 6896   3.559   1.316   2.034
 1999SOL    HW2 6897   3.509   1.400   2.165
 2000SOL     OW 6898   3.190   0.695   6.036
 2000SOL    HW1 6899   3.150   0.651   5.956
 2000SOL    HW2 6900   3.195   0.794   6.022
 2001SOL     OW 6901   2.097   3.210   7.018
 2001SOL    HW1 6902   2.072   3.136   6.956
 2001SOL    HW2 6903   2.197   3.212   0.010
 2002SOL     OW 6904   2.028   4.778   5.190
 2002SOL    HW1 6905   1.975   4.734   5.117
 2002SOL    HW2 6906   2.005   4.736   5.278
 2003SOL     OW 6907   6.353   4.058   3.496
 2003SOL    HW1 6908   6.303   4.130   3.448
 2003SOL    HW2 6909   6.399   3.999   3.430
 2004SOL     OW 6910   3.195   0.149   6.421
 2004SOL    HW1 6911   3.248   0.075   6.463
 2004SOL    HW2 6912   3.179   0.128   6.325
 2005SOL     OW 6913   2.540   6.801   5.490
 2005SOL    HW1 6914   2.595   6.745   5.551
 2005SOL    HW2 6915   2.446   6.806   5.524
 2006SOL     OW 6916   5.137   0.520   2.556
 2006SOL    HW1 6917   5.172   0.487   2.644
 2006SOL    HW2 6918   5.126   0.443   2.494
 2007SOL     OW 6919   6.689   5.221   0.097
 2007SOL    HW1 6920   6.725   5.133   0.065
 2007SOL    HW2 6921   6.635   5.264   0.025
 2008SOL     OW 6922   0.229   5.674   5.812
 2008SOL    HW1 6923   0.314   5.636   5.847
 2008SOL    HW2 6924   0.176   5.712   5.888
 2009SOL     OW 6925   1.233   0.373   0.078
 2009SOL    HW1 6926   1.314   0.424   0.109
 2009SOL    HW2 6927   1.151   0.427   0.097
 2010SOL     OW 6928   2.777   0.827   0.889
 2010SOL    HW1 6929   2.811   0.901   0.830
 2010SOL    HW2 6930   2.694   0.789   0.851
 2011SOL     OW 6931   0.201   1.589   4.853
 2011SOL    HW1 6932   0.260   1.620   4.778
 2011SOL    HW2 6933   0.250   1.521   4.907
 2012SOL     OW 6934   0.050   3.556   2.271
 2012SOL    HW1 6935   7.005   3.588   2.202
 2012SOL    HW2 6936   0.001   3.533   2.355
 2013SOL     OW 6937   3.597   2.260   1.637
 2013SOL    HW1 6938   3.628   2.311   1.718
 2013SOL    HW2 6939   3.676   2.238   1.580
 2014SOL     OW 6940   3.648   4.992   3.434
 2014SOL    HW1 6941   3.550   5.000   3.413
 2014SOL    HW2 6942   3.699   4.984   3.348
 2015SOL     OW 6943   2.903   5.374   0.056
 2015SOL    HW1 6944   2.897   5.350   0.152
 2015SOL    HW2 6945   2.811   5.381   0.018
 2016SOL     OW 6946   6.844   5.228   5.042
 2016SOL    HW1 6947   6.758   5.240   5.092
 2016SOL    HW2 6948   6.838   5.278   4.955
 2017SOL     OW 6949   2.166   4.792   1.284
 2017SOL    HW1 6950   2.166   4.875   1.229
 2017SOL    HW2 6951   2.098   4.800   1.357
 2018SOL     OW 6952   0.610   4.841   4.725
 2018SOL    HW1 6953   0.578   4.757   4.682
 2018SOL    HW2 6954   0.533   4.903   4.741
 2019SOL     OW 6955   5.514   0.276   2.639
 2019SOL    HW1 6956   5.531   0.196   2.582
 2019SOL    HW2 6957   5.418   0.302   2.632
 2020SOL     OW 6958   2.284   5.153   3.451
 2020SOL    HW1 6959   2.245   5.172   3.360
 2020SOL    HW2 6960   2.348   5.076   3.444
 2021SOL     OW 6961   1.692   6.231   1.737
 2021SOL    HW1 6962   1.701   6.142   1.781
 2021SOL    HW2 6963   1.669   6.300   1.806
 2022SOL     OW 6964   4.102   5.258   1.564
 2022SOL    HW1 6965   4.037   5.318   1.516
 2022SOL    HW2 6966   4.051   5.195   1.623
 2023SOL     OW 6967   0.099   2.731   6.188
 2023SOL    HW1 6968   0.133   2.788   6.114
 2023SOL    HW2 6969   0.002   2.710   6.172
 2024SOL     OW 6970   5.830   6.892   3.464
 2024SOL    HW1 6971   5.756   6.872   3.399
 2024SOL    HW2 6972   5.917   6.863   3.424
 2025SOL     OW 6973   6.221   1.163   1.340
 2025SOL    HW1 6974   6.248   1.252   1.378
 2025SOL    HW2 6975   6.184   1.176   1.248
 2026SOL     OW 6976   2.347   2.165   4.851
 2026SOL    HW1 6977   2.446   2.180   4.851
 2026SOL    HW2 6978   2.314   2.157   4.757
 2027SOL     OW 6979   6.255   6.771   2.131
 2027SOL    HW1 6980   6.266   6.712   2.212
 2027SOL    HW2 6981   6.159   6.792   2.118
 2028SOL     OW 6982   3.808   4.300   5.787
 2028SOL    HW1 6983   3.818   4.207   5.752
 2028SOL    HW2 6984   3.770   4.359   5.715
 2029SOL     OW 6985   2.109   0.391   0.071
 2029SOL    HW1 6986   2.053   0.411   7.010
 2029SOL    HW2 6987   2.060   0.421   0.153
 2030SOL     OW 6988   2.118   2.977   2.459
 2030SOL    HW1 6989   2.114   2.928   2.372
 2030SOL    HW2 6990   2.204   2.957   2.505
 2031SOL     OW 6991   6.080   6.918   2.426
 2031SOL    HW1 6992   6.045   6.908   2.333
 2031SOL    HW2 6993   6.152   6.988   2.428
 2032SOL     OW 6994   4.335   6.246   2.776
 2032SOL    HW1 6995   4.249   6.268   2.822
 2032SOL    HW2 6996   4.350   6.147   2.781
 2033SOL     OW 6997   0.290   4.809   7.002
 2033SOL    HW1 6998   0.292   4.828   6.903
 2033SOL    HW2 6999   0.240   4.882   0.028
 2034SOL     OW 7000   1.953   5.520   3.896
 2034SOL    HW1 7001   2.010   5.488   3.972
 2034SOL    HW2 7002   1.965   5.460   3.817
 2035SOL     OW 7003   0.707   0.908   2.805
 2035SOL    HW1 7004   0.625   0.910   2.862
 2035SOL    HW2 7005   0.729   0.813   2.783
 2036SOL     OW 7006   1.043   4.174   1.577
 2036SOL    HW1 7007   1.045   4.261   1.528
 2036SOL    HW2 7008   1.100   4.107   1.529
 2037SOL     OW 7009   0.903   2.987   5.997
 2037SOL    HW1 7010   0.963   2.963   5.921
 2037SOL    HW2 7011   0.810   3.001   5.964
 2038SOL     OW 7012   1.721   6.919   5.039
 2038SOL    HW1 7013   1.744   6.959   5.128
 2038SOL    HW2 7014   1.751   6.823   5.037
 2039SOL     OW 7015   1.104   5.336   1.942
 2039SOL    HW1 7016   1.119   5.269   2.014
 2039SOL    HW2 7017   1.121   5.294   1.852
 2040SOL     OW 7018   3.803   3.015   4.562
 2040SOL    HW1 7019   3.721   2.982   4.609
 2040SOL    HW2 7020   3.874   3.036   4.630
 2041SOL     OW 7021   4.858   3.175   0.448
 2041SOL    HW1 7022   4.864   3.105   0.376
 2041SOL    HW2 7023   4.901   3.142   0.531
 2042SOL     OW 7024   3.255   6.615   0.334
 2042SOL    HW1 7025   3.299   6.694   0.376
 2042SOL    HW2 7026   3.267   6.535   0.392
 2043SOL     OW 7027   4.912   5.116   2.396
 2043SOL    HW1 7028   4.903   5.188   2.466
 2043SOL    HW2 7029   4.992   5.060   2.416
 2044SOL     OW 7030   6.484   0.838   1.845
 2044SOL    HW1 7031   6.451   0.922   1.887
 2044SOL    HW2 7032   6.455   0.760   1.901
 2045SOL     OW 7033   3.561   6.657   5.355
 2045SOL    HW1 7034   3.489   6.727   5.355
 2045SOL    HW2 7035   3.562   6.610   5.443
 2046SOL     OW 7036   6.245   0.758   5.592
 2046SOL    HW1 7037   6.170   0.731   5.532
 2046SOL    HW2 7038   6.252   0.858   5.593
 2047SOL     OW 7039   4.846   3.396   0.235
 2047SOL    HW1 7040   4.897   3.480   0.252
 2047SOL    HW2 7041   4.830   3.349   0.321
 2048SOL     OW 7042   4.425   6.560   5.152
 2048SOL    HW1 7043   4.449   6.565   5.249
 2048SOL    HW2 7044   4.330   6.590   5.140
 2049SOL     OW 7045   5.499   5.709   6.509
 2049SOL    HW1 7046   5.512   5.676   6.416
 2049SOL    HW2 7047   5.403   5.733   6.523
 2050SOL     OW 7048   5.870   1.048   3.689
 2050SOL    HW1 7049   5.776   1.049   3.657
 2050SOL    HW2 7050   5.872   1.056   3.789
 2051SOL     OW 7051   3.327   5.875   1.157
 2051SOL    HW1 7052   3.292   5.952   1.104
 2051SOL    HW2 7053   3.263   5.799   1.153
 2052SOL     OW 7054   1.261   2.491   1.028
 2052SOL    HW1 7055   1.225   2.398   1.017
 2052SOL    HW2 7056   1.349   2.487   1.075
 2053SOL     OW 7057   5.020   0.776   0.230
 2053SOL    HW1 7058   5.084   0.852   0.234
 2053SOL    HW2 7059   4.972   0.776   0.142
 2054SOL     OW 7060   0.694   2.866   0.610
 2054SOL    HW1 7061   0.772   2.848   0.549
 2054SOL    HW2 7062   0.689   2.796   0.680
 2055SOL     OW 7063   6.330   0.955   3.893
 2055SOL    HW1 7064   6.320   1.035   3.833
 2055SOL    HW2 7065   6.245   0.902   3.891
 2056SOL     OW 7066   6.924   6.733   2.165
 2056SOL    HW1 7067   6.997   6.797   2.189
 2056SOL    HW2 7068   6.885   6.760   2.077
 2057SOL     OW 7069   4.975   3.135   4.144
 2057SOL    HW1 7070   5.001   3.045   4.181
 2057SOL    HW2 7071   4.889   3.126   4.094
 2058SOL     OW 7072   1.300   1.531   1.213
 2058SOL    HW1 7073   1.374   1.597   1.223
 2058SOL    HW2 7074   1.228   1.570   1.155
 2059SOL     OW 7075   1.702   0.406   0.191
 2059SOL    HW1 7076   1.797   0.434   0.208
 2059SOL    HW2 7077   1.698   0.307   0.183
 2060SOL     OW 7078   0.716   4.959   3.539
 2060SOL    HW1 7079   0.625   4.948   3.498
 2060SOL    HW2 7080   0.770   5.022   3.483
 2061SOL     OW 7081   1.571   0.604   0.349
 2061SOL    HW1 7082   1.579   0.697   0.313
 2061SOL    HW2 7083   1.612   0.540   0.284
 2062SOL     OW 7084   4.012   0.121   4.223
 2062SOL    HW1 7085   4.089   0.063   4.251
 2062SOL    HW2 7086   3.969   0.081   4.141
 2063SOL     OW 7087   2.372   3.063   1.128
 2063SOL    HW1 7088   2.302   3.009   1.174
 2063SOL    HW2 7089   2.457   3.060   1.180
 2064SOL     OW 7090   0.900   1.861   0.952
 2064SOL    HW1 7091   0.917   1.822   0.861
 2064SOL    HW2 7092   0.887   1.787   1.018
 2065SOL     OW 7093   0.411   3.139   2.970
 2065SOL    HW1 7094   0.336   3.095   3.020
 2065SOL    HW2 7095   0.448   3.214   3.026
 2066SOL     OW 7096   0.849   6.471   3.161
 2066SOL    HW1 7097   0.825   6.558   3.205
 2066SOL    HW2 7098   0.792   6.458   3.080
 2067SOL     OW 7099   0.021   0.482   0.919
 2067SOL    HW1 7100   0.116   0.504   0.942
 2067SOL    HW2 7101   0.009   0.383   0.917
 2068SOL     OW 7102   2.460   2.351   5.220
 2068SOL    HW1 7103   2.539   2.396   5.178
 2068SOL    HW2 7104   2.459   2.254   5.194
 2069SOL     OW 7105   1.915   2.061   1.811
 2069SOL    HW1 7106   1.927   2.084   1.714
 2069SOL    HW2 7107   1.945   2.138   1.867
 2070SOL     OW 7108   0.453   1.935   2.436
 2070SOL    HW1 7109   0.481   1.839   2.442
 2070SOL    HW2 7110   0.533   1.994   2.444
 2071SOL     OW 7111   2.736   6.016   5.919
 2071SOL    HW1 7112   2.743   6.069   5.835
 2071SOL    HW2 7113   2.656   6.046   5.971
 2072SOL     OW 7114   5.303   4.439   2.754
 2072SOL    HW1 7115   5.206   4.449   2.729
 2072SOL    HW2 7116   5.313   4.450   2.853
 2073SOL     OW 7117   3.390   6.652   5.015
 2073SOL    HW1 7118   3.486   6.630   5.033
 2073SOL    HW2 7119   3.332   6.598   5.075
 2074SOL     OW 7120   4.710   1.732   3.178
 2074SOL    HW1 7121   4.720   1.790   3.259
 2074SOL    HW2 7122   4.676   1.786   3.101
 2075SOL     OW 7123   3.518   2.743   6.477
 2075SOL    HW1 7124   3.599   2.707   6.524
 2075SOL    HW2 7125   3.458   2.787   6.544
 2076SOL     OW 7126   5.014   6.804   0.813
 2076SOL    HW1 7127   4.986   6.808   0.717
 2076SOL    HW2 7128   5.082   6.731   0.825
 2077SOL     OW 7129   3.786   1.235   5.198
 2077SOL    HW1 7130   3.735   1.150   5.191
 2077SOL    HW2 7131   3.822   1.261   5.108
 2078SOL     OW 7132   4.109   6.269   4.000
 2078SOL    HW1 7133   4.146   6.245   4.090
 2078SOL    HW2 7134   4.040   6.340   4.010
 2079SOL     OW 7135   5.315   6.958   3.987
 2079SOL    HW1 7136   5.414   6.955   4.003
 2079SOL    HW2 7137   5.269   6.900   4.054
 2080SOL     OW 7138   3.229   1.659   3.062
 2080SOL    HW1 7139   3.140   1.620   3.038
 2080SOL    HW2 7140   3.225   1.695   3.156
 2081SOL     OW 7141   1.115   5.778   3.381
 2081SOL    HW1 7142   1.173   5.733   3.449
 2081SOL    HW2 7143   1.022   5.787   3.417
 2082SOL     OW 7144   4.734   0.871   3.238
 2082SOL    HW1 7145   4.638   0.880   3.265
 2082SOL    HW2 7146   4.744   0.900   3.143
 2083SOL     OW 7147   3.964   4.826   6.054
 2083SOL    HW1 7148   3.927   4.903   6.107
 2083SOL    HW2 7149   3.893   4.758   6.039
 2084SOL     OW 7150   0.327   2.034   2.880
 2084SOL    HW1 7151   0.399   2.063   2.816
 2084SOL    HW2 7152   0.369   1.983   2.955
 2085SOL     OW 7153   5.848   6.896   0.617
 2085SOL    HW1 7154   5.920   6.827   0.623
 2085SOL    HW2 7155   5.886   6.986   0.640
 2086SOL     OW 7156   3.613   5.623   6.642
 2086SOL    HW1 7157   3.638   5.718   6.621
 2086SOL    HW2 7158   3.522   5.622   6.686
 2087SOL     OW 7159   5.968   5.769   2.908
 2087SOL    HW1 7160   5.969   5.697   2.977
 2087SOL    HW2 7161   5.908   5.743   2.833
 2088SOL     OW 7162   2.454   6.166   1.176
 2088SOL    HW1 7163   2.393   6.204   1.106
 2088SOL    HW2 7164   2.436   6.210   1.264
 2089SOL     OW 7165   2.247   0.753   6.602
 2089SOL    HW1 7166   2.340   0.742   6.635
 2089SOL    HW2 7167   2.186   0.771   6.679
 2090SOL     OW 7168   2.954   3.651   3.537
 2090SOL    HW1 7169   2.876   3.596   3.507
 2090SOL    HW2 7170   2.951   3.663   3.636
 2091SOL     OW 7171   2.295   4.030   1.544
 2091SOL    HW1 7172   2.359   4.065   1.612
 2091SOL    HW2 7173   2.212   4.085   1.545
 2092SOL     OW 7174   5.898   0.191   0.389
 2092SOL    HW1 7175   5.911   0.198   0.488
 2092SOL    HW2 7176   5.987   0.187   0.344
 2093SOL     OW 7177   1.566   1.387   1.542
 2093SOL    HW1 7178   1.528   1.411   1.453
 2093SOL    HW2 7179   1.505   1.323   1.589
 2094SOL     OW 7180   0.045   0.881   2.597
 2094SOL    HW1 7181   0.086   0.792   2.618
 2094SOL    HW2 7182   0.032   0.889   2.498
 2095SOL     OW 7183   6.305   4.392   5.310
 2095SOL    HW1 7184   6.394   4.403   5.266
 2095SOL    HW2 7185   6.244   4.466   5.280
 2096SOL     OW 7186   4.938   4.321   3.775
 2096SOL    HW1 7187   4.890   4.401   3.809
 2096SOL    HW2 7188   4.872   4.255   3.739
 2097SOL     OW 7189   6.862   3.406   5.291
 2097SOL    HW1 7190   6.872   3.463   5.210
 2097SOL    HW2 7191   6.918   3.324   5.282
 2098SOL     OW 7192   4.471   0.292   4.356
 2098SOL    HW1 7193   4.406   0.326   4.423
 2098SOL    HW2 7194   4.509   0.205   4.388
 2099SOL     OW 7195   2.671   1.590   4.135
 2099SOL    HW1 7196   2.766   1.614   4.117
 2099SOL    HW2 7197   2.611   1.645   4.076
 2100SOL     OW 7198   4.436   4.517   5.768
 2100SOL    HW1 7199   4.347   4.480   5.742
 2100SOL    HW2 7200   4.430   4.617   5.777
 2101SOL     OW 7201   5.517   0.051   2.056
 2101SOL    HW1 7202   5.470   0.080   1.973
 2101SOL    HW2 7203   5.540   0.131   2.112
 2102SOL     OW 7204   7.004   5.127   1.100
 2102SOL    HW1 7205   6.921   5.131   1.043
 2102SOL    HW2 7206   6.986   5.173   1.187
 2103SOL     OW 7207   3.458   3.479   6.574
 2103SOL    HW1 7208   3.539   3.465   6.631
 2103SOL    HW2 7209   3.385   3.519   6.629
 2104SOL     OW 7210   0.524   4.967   6.427
 2104SOL    HW1 7211   0.541   4.987   6.524
 2104SOL    HW2 7212   0.595   4.906   6.393
 2105SOL     OW 7213   5.240   6.345   2.300
 2105SOL    HW1 7214   5.331   6.383   2.315
 2105SOL    HW2 7215   5.248   6.247   2.282
 2106SOL     OW 7216   6.452   6.363   6.455
 2106SOL    HW1 7217   6.408   6.304   6.387
 2106SOL    HW2 7218   6.551   6.362   6.441
 2107SOL     OW 7219   2.620   5.044   0.004
 2107SOL    HW1 7220   2.652   4.999   6.941
 2107SOL    HW2 7221   2.621   5.143   7.012
 2108SOL     OW 7222   5.701   4.481   6.557
 2108SOL    HW1 7223   5.645   4.531   6.623
 2108SOL    HW2 7224   5.680   4.511   6.465
 2109SOL     OW 7225   5.609   5.860   2.894
 2109SOL    HW1 7226   5.603   5.852   2.795
 2109SOL    HW2 7227   5.615   5.769   2.935
 2110SOL     OW 7228   1.338   5.062   5.591
 2110SOL    HW1 7229   1.399   5.021   5.523
 2110SOL    HW2 7230   1.269   4.994   5.618
 2111SOL     OW 7231   1.686   1.778   6.562
 2111SOL    HW1 7232   1.774   1.731   6.559
 2111SOL    HW2 7233   1.693   1.858   6.622
 2112SOL     OW 7234   5.078   3.657   0.499
 2112SOL    HW1 7235   5.047   3.620   0.411
 2112SOL    HW2 7236   5.155   3.719   0.484
 2113SOL     OW 7237   6.573   1.212   3.668
 2113SOL    HW1 7238   6.635   1.202   3.745
 2113SOL    HW2 7239   6.545   1.122   3.636
 2114SOL     OW 7240   1.319   3.566   6.212
 2114SOL    HW1 7241   1.374   3.484   6.198
 2114SOL    HW2 7242   1.364   3.625   6.279
 2115SOL     OW 7243   4.024   5.007   1.667
 2115SOL    HW1 7244   4.119   4.979   1.662
 2115SOL    HW2 7245   3.971   4.942   1.721
 2116SOL     OW 7246   0.403   4.042   4.342
 2116SOL    HW1 7247   0.372   4.042   4.247
 2116SOL    HW2 7248   0.415   4.137   4.374
 2117SOL     OW 7249   5.863   5.767   5.815
 2117SOL    HW1 7250   5.941   5.758   5.877
 2117SOL    HW2 7251   5.785   5.806   5.865
 2118SOL     OW 7252   6.969   2.979   2.363
 2118SOL    HW1 7253   0.038   3.024   2.361
 2118SOL    HW2 7254   6.969   2.903   2.297
 2119SOL     OW 7255   4.142   6.680   6.956
 2119SOL    HW1 7256   4.224   6.737   6.949
 2119SOL    HW2 7257   4.151   6.601   6.896
 2120SOL     OW 7258   6.267   4.076   2.228
 2120SOL    HW1 7259   6.312   4.158   2.191
 2120SOL    HW2 7260   6.313   4.049   2.313
 2121SOL     OW 7261   0.418   3.784   4.444
 2121SOL    HW1 7262   0.502   3.742   4.410
 2121SOL    HW2 7263   0.423   3.883   4.433
 2122SOL     OW 7264   3.886   5.204   5.160
 2122SOL    HW1 7265   3.875   5.201   5.259
 2122SOL    HW2 7266   3.983   5.210   5.138
 2123SOL     OW 7267   3.837   6.084   3.226
 2123SOL    HW1 7268   3.771   6.148   3.186
 2123SOL    HW2 7269   3.801   5.990   3.218
 2124SOL     OW 7270   2.264   2.608   1.547
 2124SOL    HW1 7271   2.296   2.518   1.516
 2124SOL    HW2 7272   2.297   2.625   1.639
 2125SOL     OW 7273   4.928   6.100   6.779
 2125SOL    HW1 7274   4.964   6.142   6.696
 2125SOL    HW2 7275   4.971   6.011   6.793
 2126SOL     OW 7276   2.875   1.961   0.916
 2126SOL    HW1 7277   2.835   1.902   0.986
 2126SOL    HW2 7278   2.868   1.916   0.827
 2127SOL     OW 7279   5.809   2.616   4.214
 2127SOL    HW1 7280   5.780   2.569   4.130
 2127SOL    HW2 7281   5.728   2.647   4.265
 2128SOL     OW 7282   0.690   3.474   4.323
 2128SOL    HW1 7283   0.704   3.567   4.290
 2128SOL    HW2 7284   0.742   3.410   4.266
 2129SOL     OW 7285   4.548   2.251   4.994
 2129SOL    HW1 7286   4.467   2.257   4.935
 2129SOL    HW2 7287   4.556   2.159   5.031
 2130SOL     OW 7288   4.847   6.600   2.786
 2130SOL    HW1 7289   4.874   6.619   2.880
 2130SOL    HW2 7290   4.828   6.503   2.775
 2131SOL     OW 7291   4.982   1.822   6.630
 2131SOL    HW1 7292   5.038   1.794   6.552
 2131SOL    HW2 7293   5.036   1.819   6.713
 2132SOL     OW 7294   1.012   3.262   1.402
 2132SOL    HW1 7295   1.048   3.258   1.495
 2132SOL    HW2 7296   0.934   3.200   1.393
 2133SOL     OW 7297   2.314   4.271   6.206
 2133SOL    HW1 7298   2.315   4.370   6.223
 2133SOL    HW2 7299   2.281   4.253   6.113
 2134SOL     OW 7300   0.181   6.687   0.364
 2134SOL    HW1 7301   0.175   6.782   0.393
 2134SOL    HW2 7302   0.184   6.683   0.264
 2135SOL     OW 7303   6.312   5.151   5.534
 2135SOL    HW1 7304   6.243   5.110   5.474
 2135SOL    HW2 7305   6.401   5.149   5.489
 2136SOL     OW 7306   1.667   5.153   0.058
 2136SOL    HW1 7307   1.729   5.224   0.026
 2136SOL    HW2 7308   1.605   5.127   7.004
 2137SOL     OW 7309   1.611   6.460   3.545
 2137SOL    HW1 7310   1.621   6.517   3.464
 2137SOL    HW2 7311   1.526   6.486   3.593
 2138SOL     OW 7312   4.764   2.127   1.701
 2138SOL    HW1 7313   4.683   2.176   1.670
 2138SOL    HW2 7314   4.775   2.043   1.648
 2139SOL     OW 7315   2.634   5.893   5.615
 2139SOL    HW1 7316   2.573   5.814   5.618
 2139SOL    HW2 7317   2.719   5.867   5.568
 2140SOL     OW 7318   2.425   2.190   3.267
 2140SOL    HW1 7319   2.507   2.244   3.252
 2140SOL    HW2 7320   2.446   2.093   3.255
 2141SOL     OW 7321   6.764   3.230   2.840
 2141SOL    HW1 7322   6.762   3.169   2.919
 2141SOL    HW2 7323   6.800   3.180   2.760
 2142SOL     OW 7324   2.030   1.512   1.751
 2142SOL    HW1 7325   2.098   1.527   1.680
 2142SOL    HW2 7326   1.979   1.428   1.733
 2143SOL     OW 7327   6.785   5.406   5.600
 2143SOL    HW1 7328   6.691   5.435   5.579
 2143SOL    HW2 7329   6.783   5.340   5.675
 2144SOL     OW 7330   5.890   4.234   2.869
 2144SOL    HW1 7331   5.968   4.255   2.810
 2144SOL    HW2 7332   5.920   4.228   2.964
 2145SOL     OW 7333   3.502   1.108   3.449
 2145SOL    HW1 7334   3.519   1.061   3.362
 2145SOL    HW2 7335   3.407   1.094   3.476
 2146SOL     OW 7336   1.996   1.437   6.705
 2146SOL    HW1 7337   2.064   1.441   6.632
 2146SOL    HW2 7338   1.906   1.459   6.667
 2147SOL     OW 7339   6.035   0.282   5.356
 2147SOL    HW1 7340   6.053   0.299   5.453
 2147SOL    HW2 7341   6.005   0.367   5.312
 2148SOL     OW 7342   1.871   2.684   5.394
 2148SOL    HW1 7343   1.936   2.609   5.382
 2148SOL    HW2 7344   1.919   2.772   5.386
 2149SOL     OW 7345   0.186   6.652   0.094
 2149SOL    HW1 7346   0.150   6.690   0.009
 2149SOL    HW2 7347   0.285   6.664   0.096
 2150SOL     OW 7348   1.537   2.584   0.276
 2150SOL    HW1 7349   1.468   2.529   0.229
 2150SOL    HW2 7350   1.546   2.673   0.230
 2151SOL     OW 7351   0.825   5.640   6.655
 2151SOL    HW1 7352   0.726   5.631   6.651
 2151SOL    HW2 7353   0.868   5.564   6.606
 2152SOL     OW 7354   5.326   6.527   4.015
 2152SOL    HW1 7355   5.370   6.607   4.054
 2152SOL    HW2 7356   5.380   6.494   3.937
 2153SOL     OW 7357   4.965   0.015   3.747
 2153SOL    HW1 7358   4.895   0.084   3.767
 2153SOL    HW2 7359   4.943   6.950   3.795
 2154SOL     OW 7360   2.409   6.461   2.092
 2154SOL    HW1 7361   2.451   6.548   2.064
 2154SOL    HW2 7362   2.421   6.449   2.190
 2155SOL     OW 7363   4.952   0.585   0.448
 2155SOL    HW1 7364   4.949   0.650   0.372
 2155SOL    HW2 7365   5.046   0.578   0.482
 2156SOL     OW 7366   6.603   1.729   4.224
 2156SOL    HW1 7367   6.620   1.800   4.155
 2156SOL    HW2 7368   6.622   1.765   4.315
 2157SOL     OW 7369   4.211   5.819   3.269
 2157SOL    HW1 7370   4.245   5.862   3.185
 2157SOL    HW2 7371   4.154   5.883   3.319
 2158SOL     OW 7372   2.908   0.071   0.176
 2158SOL    HW1 7373   2.875   0.124   0.254
 2158SOL    HW2 7374   2.898   6.994   0.194
 2159SOL     OW 7375   0.698   2.114   5.462
 2159SOL    HW1 7376   0.758   2.037   5.487
 2159SOL    HW2 7377   0.746   2.173   5.397
 2160SOL     OW 7378   5.272   6.919   6.843
 2160SOL    HW1 7379   5.235   6.855   6.910
 2160SOL    HW2 7380   5.341   6.976   6.886
 2161SOL     OW 7381   1.322   3.555   0.115
 2161SOL    HW1 7382   1.371   3.641   0.130
 2161SOL    HW2 7383   1.349   3.516   0.027
 2162SOL     OW 7384   2.000   6.739   0.365
 2162SOL    HW1 7385   2.093   6.773   0.352
 2162SOL    HW2 7386   1.947   6.757   0.282
 2163SOL     OW 7387   0.733   2.957   4.221
 2163SOL    HW1 7388   0.691   2.900   4.291
 2163SOL    HW2 7389   0.744   3.050   4.256
 2164SOL     OW 7390   1.963   4.875   1.824
 2164SOL    HW1 7391   1.938   4.968   1.795
 2164SOL    HW2 7392   2.063   4.865   1.821
 2165SOL     OW 7393   6.196   2.078   5.515
 2165SOL    HW1 7394   6.100   2.050   5.511
 2165SOL    HW2 7395   6.250   2.008   5.560
 2166SOL     OW 7396   6.546   2.246   2.212
 2166SOL    HW1 7397   6.471   2.200   2.261
 2166SOL    HW2 7398   6.628   2.244   2.268
 2167SOL     OW 7399   1.600   2.193   2.896
 2167SOL    HW1 7400   1.644   2.278   2.923
 2167SOL    HW2 7401   1.501   2.207   2.893
 2168SOL     OW 7402   1.374   2.261   3.607
 2168SOL    HW1 7403   1.276   2.252   3.628
 2168SOL    HW2 7404   1.404   2.353   3.632
 2169SOL     OW 7405   6.489   0.048   0.801
 2169SOL    HW1 7406   6.452   6.990   0.851
 2169SOL    HW2 7407   6.419   0.085   0.739
 2170SOL     OW 7408   2.134   2.730   6.317
 2170SOL    HW1 7409   2.058   2.675   6.351
 2170SOL    HW2 7410   2.220   2.686   6.340
 2171SOL     OW 7411   6.441   6.706   1.380
 2171SOL    HW1 7412   6.539   6.706   1.399
 2171SOL    HW2 7413   6.410   6.614   1.358
 2172SOL     OW 7414   2.299   2.638   4.718
 2172SOL    HW1 7415   2.362   2.595   4.653
 2172SOL    HW2 7416   2.275   2.572   4.789
 2173SOL     OW 7417   4.040   0.730   4.997
 2173SOL    HW1 7418   4.039   0.829   4.983
 2173SOL    HW2 7419   4.119   0.691   4.950
 2174SOL     OW 7420   4.914   0.052   5.413
 2174SOL    HW1 7421   4.858   0.074   5.493
 2174SOL    HW2 7422   4.985   0.121   5.402
 2175SOL     OW 7423   2.985   2.701   5.892
 2175SOL    HW1 7424   2.998   2.790   5.936
 2175SOL    HW2 7425   3.072   2.670   5.854
 2176SOL     OW 7426   6.729   1.728   2.870
 2176SOL    HW1 7427   6.752   1.825   2.873
 2176SOL    HW2 7428   6.633   1.716   2.896
 2177SOL     OW 7429   0.605   0.532   5.295
 2177SOL    HW1 7430   0.549   0.574   5.223
 2177SOL    HW2 7431   0.600   0.587   5.378
 2178SOL     OW 7432   1.895   3.385   2.327
 2178SOL    HW1 7433   1.893   3.403   2.228
 2178SOL    HW2 7434   1.974   3.328   2.349
 2179SOL     OW 7435   1.680   4.079   6.727
 2179SOL    HW1 7436   1.691   4.077   6.628
 2179SOL    HW2 7437   1.594   4.035   6.752
 2180SOL     OW 7438   0.264   5.199   2.911
 2180SOL    HW1 7439   0.222   5.205   3.002
 2180SOL    HW2 7440   0.348   5.145   2.917
 2181SOL     OW 7441   4.301   4.666   3.331
 2181SOL    HW1 7442   4.242   4.638   3.255
 2181SOL    HW2 7443   4.396   4.669   3.300
 2182SOL     OW 7444   0.220   6.896   0.908
 2182SOL    HW1 7445   0.207   6.920   1.004
 2182SOL    HW2 7446   0.212   6.978   0.852
 2183SOL     OW 7447   3.810   2.926   0.031
 2183SOL    HW1 7448   3.810   2.983   6.969
 2183SOL    HW2 7449   3.718   2.893   0.049
 2184SOL     OW 7450   6.345   2.053   6.540
 2184SOL    HW1 7451   6.391   1.968   6.516
 2184SOL    HW2 7452   6.368   2.078   6.634
 2185SOL     OW 7453   7.014   1.454   6.612
 2185SOL    HW1 7454   6.930   1.409   6.581
 2185SOL    HW2 7455   0.073   1.399   6.584
 2186SOL     OW 7456   6.646   5.911   5.717
 2186SOL    HW1 7457   6.712   5.871   5.653
 2186SOL    HW2 7458   6.593   5.838   5.759
 2187SOL     OW 7459   5.896   3.853   1.474
 2187SOL    HW1 7460   5.907   3.755   1.457
 2187SOL    HW2 7461   5.844   3.867   1.559
 2188SOL     OW 7462   3.198   2.069   1.299
 2188SOL    HW1 7463   3.245   2.064   1.387
 2188SOL    HW2 7464   3.265   2.063   1.225
 2189SOL     OW 7465   2.452   0.875   2.377
 2189SOL    HW1 7466   2.410   0.954   2.421
 2189SOL    HW2 7467   2.410   0.791   2.413
 2190SOL     OW 7468   6.938   4.418   1.530
 2190SOL    HW1 7469   6.912   4.372   1.615
 2190SOL    HW2 7470   0.017   4.421   1.522
 2191SOL     OW 7471   3.646   0.081   6.604
 2191SOL    HW1 7472   3.719   0.022   6.641
 2191SOL    HW2 7473   3.623   0.151   6.671
 2192SOL     OW 7474   5.120   2.382   1.749
 2192SOL    HW1 7475   5.172   2.446   1.805
 2192SOL    HW2 7476   5.161   2.376   1.658
 2193SOL     OW 7477   1.643   0.268   6.161
 2193SOL    HW1 7478   1.707   0.277   6.237
 2193SOL    HW2 7479   1.589   0.184   6.172
 2194SOL     OW 7480   0.958   4.319   5.514
 2194SOL    HW1 7481   0.998   4.411   5.510
 2194SOL    HW2 7482   0.862   4.326   5.540
 2195SOL     OW 7483   0.575   4.219   5.333
 2195SOL    HW1 7484   0.571   4.176   5.423
 2195SOL    HW2 7485   0.482   4.243   5.304
 2196SOL     OW 7486   4.080   1.593   6.850
 2196SOL    HW1 7487   4.018   1.542   6.910
 2196SOL    HW2 7488   4.028   1.661   6.799
 2197SOL     OW 7489   4.084   5.146   6.847
 2197SOL    HW1 7490   4.089   5.166   6.944
 2197SOL    HW2 7491   4.176   5.127   6.811
 2198SOL     OW 7492   1.349   0.726   6.165
 2198SOL    HW1 7493   1.416   0.794   6.195
 2198SOL    HW2 7494   1.396   0.642   6.138
 2199SOL     OW 7495   4.529   6.335   3.596
 2199SOL    HW1 7496   4.542   6.414   3.656
 2199SOL    HW2 7497   4.610   6.324   3.538
 2200SOL     OW 7498   2.607   2.102   4.821
 2200SOL    HW1 7499   2.645   2.173   4.762
 2200SOL    HW2 7500   2.607   2.015   4.773
 2201SOL     OW 7501   5.803   3.623   4.270
 2201SOL    HW1 7502   5.853   3.562   4.208
 2201SOL    HW2 7503   5.740   3.569   4.326
 2202SOL     OW 7504   4.710   0.429   4.579
 2202SOL    HW1 7505   4.747   0.346   4.538
 2202SOL    HW2 7506   4.747   0.440   4.671
 2203SOL     OW 7507   2.187   6.164   1.262
 2203SOL    HW1 7508   2.176   6.066   1.249
 2203SOL    HW2 7509   2.131   6.213   1.194
 2204SOL     OW 7510   4.727   3.345   0.589
 2204SOL    HW1 7511   4.776   3.284   0.527
 2204SOL    HW2 7512   4.628   3.334   0.576
 2205SOL     OW 7513   5.257   5.553   1.340
 2205SOL    HW1 7514   5.170   5.504   1.341
 2205SOL    HW2 7515   5.308   5.532   1.424
 2206SOL     OW 7516   3.396   3.091   5.550
 2206SOL    HW1 7517   3.439   3.132   5.631
 2206SOL    HW2 7518   3.463   3.035   5.501
 2207SOL     OW 7519   4.597   4.986   1.326
 2207SOL    HW1 7520   4.659   4.976   1.403
 2207SOL    HW2 7521   4.592   4.899   1.276
 2208SOL     OW 7522   6.607   6.159   2.964
 2208SOL    HW1 7523   6.581   6.228   3.032
 2208SOL    HW2 7524   6.706   6.151   2.961
 2209SOL     OW 7525   2.813   5.716   3.657
 2209SOL    HW1 7526   2.877   5.650   3.695
 2209SOL    HW2 7527   2.792   5.692   3.562
 2210SOL     OW 7528   5.576   6.527   2.217
 2210SOL    HW1 7529   5.539   6.513   2.309
 2210SOL    HW2 7530   5.502   6.525   2.150
 2211SOL     OW 7531   1.605   0.710   1.377
 2211SOL    HW1 7532   1.581   0.738   1.284
 2211SOL    HW2 7533   1.559   0.769   1.443
 2212SOL     OW 7534   2.827   6.364   6.284
 2212SOL    HW1 7535   2.909   6.401   6.242
 2212SOL    HW2 7536   2.828   6.382   6.383
 2213SOL     OW 7537   3.492   1.811   4.225
 2213SOL    HW1 7538   3.487   1.716   4.195
 2213SOL    HW2 7539   3.445   1.821   4.313
 2214SOL     OW 7540   4.162   4.649   6.972
 2214SOL    HW1 7541   4.124   4.596   6.896
 2214SOL    HW2 7542   4.139   4.604   0.039
 2215SOL     OW 7543   6.815   5.251   6.227
 2215SOL    HW1 7544   6.781   5.296   6.145
 2215SOL    HW2 7545   6.835   5.155   6.207
 2216SOL     OW 7546   0.008   6.335   0.396
 2216SOL    HW1 7547   7.008   6.242   0.424
 2216SOL    HW2 7548   6.986   6.399   0.460
 2217SOL     OW 7549   3.889   1.278   3.892
 2217SOL    HW1 7550   3.910   1.246   3.800
 2217SOL    HW2 7551   3.970   1.323   3.930
 2218SOL     OW 7552   6.116   5.259   5.917
 2218SOL    HW1 7553   6.083   5.254   6.011
 2218SOL    HW2 7554   6.189   5.192   5.903
 2219SOL     OW 7555   5.216   2.148   0.745
 2219SOL    HW1 7556   5.136   2.149   0.685
 2219SOL    HW2 7557   5.208   2.219   0.815
 2220SOL     OW 7558   6.665   6.924   4.356
 2220SOL    HW1 7559   6.632   7.010   4.316
 2220SOL    HW2 7560   6.659   6.930   4.456
 2221SOL     OW 7561   5.135   0.027   3.528
 2221SOL    HW1 7562   5.116   0.001   3.622
 2221SOL    HW2 7563   5.229   0.058   3.520
 2222SOL     OW 7564   4.055   0.809   4.372
 2222SOL    HW1 7565   4.051   0.881   4.303
 2222SOL    HW2 7566   4.047   0.720   4.328
 2223SOL     OW 7567   0.489   0.349   5.709
 2223SOL    HW1 7568   0.432   0.267   5.711
 2223SOL    HW2 7569   0.585   0.324   5.707
 2224SOL     OW 7570   5.205   4.629   6.543
 2224SOL    HW1 7571   5.147   4.581   6.609
 2224SOL    HW2 7572   5.289   4.578   6.529
 2225SOL     OW 7573   6.540   0.591   0.730
 2225SOL    HW1 7574   6.531   0.513   0.668
 2225SOL    HW2 7575   6.634   0.626   0.727
 2226SOL     OW 7576   2.926   3.392   6.794
 2226SOL    HW1 7577   2.905   3.325   6.866
 2226SOL    HW2 7578   2.961   3.344   6.714
 2227SOL     OW 7579   4.481   1.738   1.369
 2227SOL    HW1 7580   4.406   1.688   1.325
 2227SOL    HW2 7581   4.515   1.684   1.446
 2228SOL     OW 7582   4.846   6.487   6.622
 2228SOL    HW1 7583   4.843   6.426   6.543
 2228SOL    HW2 7584   4.834   6.434   6.706
 2229SOL     OW 7585   3.317   2.897   4.271
 2229SOL    HW1 7586   3.390   2.879   4.338
 2229SOL    HW2 7587   3.340   2.852   4.185
 2230SOL     OW 7588   6.617   1.799   6.291
 2230SOL    HW1 7589   6.632   1.818   6.194
 2230SOL    HW2 7590   6.667   1.716   6.316
 2231SOL     OW 7591   0.804   7.004   5.889
 2231SOL    HW1 7592   0.721   0.035   5.911
 2231SOL    HW2 7593   0.783   6.907   5.884
 2232SOL     OW 7594   1.481   0.876   6.959
 2232SOL    HW1 7595   1.397   0.918   6.992
 2232SOL    HW2 7596   1.459   0.817   6.881
 2233SOL     OW 7597   3.007   5.731   0.904
 2233SOL    HW1 7598   2.971   5.640   0.881
 2233SOL    HW2 7599   3.060   5.725   0.989
 2234SOL     OW 7600   5.341   1.908   1.835
 2234SOL    HW1 7601   5.397   1.933   1.756
 2234SOL    HW2 7602   5.244   1.911   1.811
 2235SOL     OW 7603   1.358   1.990   3.478
 2235SOL    HW1 7604   1.405   2.075   3.502
 2235SOL    HW2 7605   1.401   1.913   3.527
 2236SOL     OW 7606   2.670   5.052   5.124
 2236SOL    HW1 7607   2.747   5.111   5.097
 2236SOL    HW2 7608   2.706   4.969   5.165
 2237SOL     OW 7609   6.090   6.643   5.978
 2237SOL    HW1 7610   6.101   6.654   5.879
 2237SOL    HW2 7611   6.128   6.723   6.024
 2238SOL     OW 7612   5.381   4.216   1.592
 2238SOL    HW1 7613   5.443   4.223   1.670
 2238SOL    HW2 7614   5.324   4.135   1.602
 2239SOL     OW 7615   3.578   0.249   3.173
 2239SOL    HW1 7616   3.485   0.265   3.140
 2239SOL    HW2 7617   3.631   0.334   3.169
 2240SOL     OW 7618   5.209   5.516   2.671
 2240SOL    HW1 7619   5.182   5.460   2.750
 2240SOL    HW2 7620   5.285   5.472   2.624
 2241SOL     OW 7621   1.661   1.787   3.064
 2241SOL    HW1 7622   1.563   1.785   3.043
 2241SOL    HW2 7623   1.709   1.838   2.992
 2242SOL     OW 7624   5.318   2.492   4.294
 2242SOL    HW1 7625   5.384   2.451   4.232
 2242SOL    HW2 7626   5.239   2.526   4.242
 2243SOL     OW 7627   2.322   0.651   0.195
 2243SOL    HW1 7628   2.307   0.629   0.099
 2243SOL    HW2 7629   2.235   0.643   0.244
 2244SOL     OW 7630   2.273   2.063   0.901
 2244SOL    HW1 7631   2.371   2.075   0.889
 2244SOL    HW2 7632   2.255   1.977   0.949
 2245SOL     OW 7633   6.924   1.275   0.381
 2245SOL    HW1 7634   6.954   1.198   0.323
 2245SOL    HW2 7635   6.886   1.239   0.466
 2246SOL     OW 7636   5.656   1.003   5.714
 2246SOL    HW1 7637   5.741   0.960   5.685
 2246SOL    HW2 7638   5.643   1.089   5.664
 2247SOL     OW 7639   3.875   3.449   1.817
 2247SOL    HW1 7640   3.856   3.469   1.913
 2247SOL    HW2 7641   3.824   3.513   1.759
 2248SOL     OW 7642   5.336   3.113   4.566
 2248SOL    HW1 7643   5.353   3.026   4.612
 2248SOL    HW2 7644   5.326   3.185   4.634
 2249SOL     OW 7645   2.279   6.146   3.655
 2249SOL    HW1 7646   2.306   6.241   3.635
 2249SOL    HW2 7647   2.297   6.126   3.751
 2250SOL     OW 7648   4.089   6.342   5.869
 2250SOL    HW1 7649   4.135   6.254   5.854
 2250SOL    HW2 7650   3.994   6.325   5.895
 2251SOL     OW 7651   3.821   6.879   5.001
 2251SOL    HW1 7652   3.821   6.781   5.020
 2251SOL    HW2 7653   3.873   6.927   5.073
 2252SOL     OW 7654   3.435   1.296   2.680
 2252SOL    HW1 7655   3.499   1.274   2.607
 2252SOL    HW2 7656   3.371   1.366   2.648
 2253SOL     OW 7657   1.095   2.711   1.929
 2253SOL    HW1 7658   1.180   2.665   1.903
 2253SOL    HW2 7659   1.018   2.666   1.885
 2254SOL     OW 7660   3.291   2.975   2.616
 2254SOL    HW1 7661   3.291   3.073   2.634
 2254SOL    HW2 7662   3.246   2.957   2.529
 2255SOL     OW 7663   1.646   1.619   6.216
 2255SOL    HW1 7664   1.635   1.714   6.185
 2255SOL    HW2 7665   1.701   1.618   6.300
 2256SOL     OW 7666   4.769   0.055   1.426
 2256SOL    HW1 7667   4.799   0.149   1.409
 2256SOL    HW2 7668   4.837   7.011   1.390
 2257SOL     OW 7669   0.352   0.937   6.122
 2257SOL    HW1 7670   0.356   0.908   6.027
 2257SOL    HW2 7671   0.342   0.857   6.182
 2258SOL     OW 7672   2.250   0.299   3.445
 2258SOL    HW1 7673   2.188   0.288   3.522
 2258SOL    HW2 7674   2.240   0.221   3.383
 2259SOL     OW 7675   5.844   0.105   5.285
 2259SOL    HW1 7676   5.867   0.068   5.195
 2259SOL    HW2 7677   5.911   0.175   5.310
 2260SOL     OW 7678   1.086   3.690   1.109
 2260SOL    HW1 7679   1.041   3.627   1.172
 2260SOL    HW2 7680   1.150   3.639   1.051
 2261SOL     OW 7681   4.416   4.545   6.394
 2261SOL    HW1 7682   4.419   4.645   6.398
 2261SOL    HW2 7683   4.439   4.507   6.483
 2262SOL     OW 7684   6.804   0.259   3.565
 2262SOL    HW1 7685   6.904   0.255   3.554
 2262SOL    HW2 7686   6.761   0.199   3.498
 2263SOL     OW 7687   2.587   4.192   6.810
 2263SOL    HW1 7688   2.673   4.239   6.831
 2263SOL    HW2 7689   2.598   4.139   6.726
 2264SOL     OW 7690   1.852   0.629   6.714
 2264SOL    HW1 7691   1.790   0.648   6.637
 2264SOL    HW2 7692   1.811   0.662   6.799
 2265SOL     OW 7693   0.656   6.199   3.626
 2265SOL    HW1 7694   0.612   6.206   3.537
 2265SOL    HW2 7695   0.595   6.152   3.690
 2266SOL     OW 7696   4.255   4.159   6.868
 2266SOL    HW1 7697   4.328   4.209   6.914
 2266SOL    HW2 7698   4.171   4.212   6.871
 2267SOL     OW 7699   5.696   3.038   4.775
 2267SOL    HW1 7700   5.758   3.002   4.704
 2267SOL    HW2 7701   5.704   3.137   4.779
 2268SOL     OW 7702   0.843   6.212   4.701
 2268SOL    HW1 7703   0.763   6.168   4.741
 2268SOL    HW2 7704   0.893   6.145   4.645
 2269SOL     OW 7705   1.928   2.107   5.278
 2269SOL    HW1 7706   1.879   2.128   5.193
 2269SOL    HW2 7707   2.015   2.064   5.256
 2270SOL     OW 7708   4.278   1.425   6.461
 2270SOL    HW1 7709   4.219   1.414   6.382
 2270SOL    HW2 7710   4.238   1.493   6.523
 2271SOL     OW 7711   4.269   5.711   5.020
 2271SOL    HW1 7712   4.176   5.727   5.053
 2271SOL    HW2 7713   4.334   5.765   5.073
 2272SOL     OW 7714   5.961   0.997   6.612
 2272SOL    HW1 7715   5.865   0.980   6.636
 2272SOL    HW2 7716   5.999   0.916   6.568
 2273SOL     OW 7717   1.856   2.274   4.293
 2273SOL    HW1 7718   1.839   2.176   4.279
 2273SOL    HW2 7719   1.854   2.294   4.391
 2274SOL     OW 7720   1.324   1.047   0.091
 2274SOL    HW1 7721   1.252   1.065   0.158
 2274SOL    HW2 7722   1.403   1.104   0.111
 2275SOL     OW 7723   5.366   3.512   3.201
 2275SOL    HW1 7724   5.388   3.473   3.290
 2275SOL    HW2 7725   5.269   3.536   3.198
 2276SOL     OW 7726   2.131   1.752   1.534
 2276SOL    HW1 7727   2.206   1.687   1.544
 2276SOL    HW2 7728   2.044   1.702   1.527
 2277SOL     OW 7729   3.746   2.974   3.451
 2277SOL    HW1 7730   3.765   2.940   3.543
 2277SOL    HW2 7731   3.655   2.943   3.422
 2278SOL     OW 7732   6.660   3.598   3.849
 2278SOL    HW1 7733   6.677   3.519   3.907
 2278SOL    HW2 7734   6.747   3.634   3.816
 2279SOL     OW 7735   0.709   5.640   5.832
 2279SOL    HW1 7736   0.739   5.608   5.742
 2279SOL    HW2 7737   0.768   5.603   5.903
 2280SOL     OW 7738   4.878   2.700   5.369
 2280SOL    HW1 7739   4.973   2.712   5.397
 2280SOL    HW2 7740   4.846   2.784   5.324
 2281SOL     OW 7741   5.279   6.787   2.368
 2281SOL    HW1 7742   5.260   6.693   2.397
 2281SOL    HW2 7743   5.285   6.790   2.269
 2282SOL     OW 7744   3.325   5.257   5.769
 2282SOL    HW1 7745   3.320   5.211   5.857
 2282SOL    HW2 7746   3.420   5.284   5.751
 2283SOL     OW 7747   6.721   0.833   5.073
 2283SOL    HW1 7748   6.804   0.887   5.089
 2283SOL    HW2 7749   6.691   0.792   5.159
 2284SOL     OW 7750   1.599   3.712   6.085
 2284SOL    HW1 7751   1.571   3.782   6.020
 2284SOL    HW2 7752   1.646   3.755   6.162
 2285SOL     OW 7753   1.245   5.413   6.892
 2285SOL    HW1 7754   1.166   5.457   6.932
 2285SOL    HW2 7755   1.319   5.479   6.882
 2286SOL     OW 7756   4.770   4.399   2.572
 2286SOL    HW1 7757   4.837   4.410   2.645
 2286SOL    HW2 7758   4.682   4.436   2.602
 2287SOL     OW 7759   1.704   1.350   4.145
 2287SOL    HW1 7760   1.797   1.360   4.181
 2287SOL    HW2 7761   1.692   1.409   4.065
 2288SOL     OW 7762   6.738   4.930   2.784
 2288SOL    HW1 7763   6.833   4.959   2.794
 2288SOL    HW2 7764   6.680   5.009   2.762
 2289SOL     OW 7765   0.161   4.752   0.310
 2289SOL    HW1 7766   0.244   4.703   0.336
 2289SOL    HW2 7767   0.176   4.851   0.321
 2290SOL     OW 7768   0.870   5.106   0.080
 2290SOL    HW1 7769   0.933   5.071   0.010
 2290SOL    HW2 7770   0.871   5.045   0.159
 2291SOL     OW 7771   2.118   1.347   0.090
 2291SOL    HW1 7772   2.184   1.346   0.015
 2291SOL    HW2 7773   2.026   1.358   0.054
 2292SOL     OW 7774   2.405   0.782   4.929
 2292SOL    HW1 7775   2.435   0.714   4.995
 2292SOL    HW2 7776   2.404   0.743   4.837
 2293SOL     OW 7777   4.986   4.076   3.398
 2293SOL    HW1 7778   5.029   4.069   3.308
 2293SOL    HW2 7779   4.992   4.171   3.431
 2294SOL     OW 7780   3.863   6.981   6.695
 2294SOL    HW1 7781   3.938   6.958   6.633
 2294SOL    HW2 7782   3.848   6.905   6.758
 2295SOL     OW 7783   1.180   0.685   1.780
 2295SOL    HW1 7784   1.115   0.612   1.801
 2295SOL    HW2 7785   1.226   0.664   1.694
 2296SOL     OW 7786   2.850   6.353   6.995
 2296SOL    HW1 7787   2.811   6.428   0.029
 2296SOL    HW2 7788   2.815   6.266   0.008
 2297SOL     OW 7789   4.110   6.168   6.463
 2297SOL    HW1 7790   4.202   6.133   6.448
 2297SOL    HW2 7791   4.043   6.105   6.423
 2298SOL     OW 7792   4.418   2.971   6.636
 2298SOL    HW1 7793   4.394   2.886   6.681
 2298SOL    HW2 7794   4.440   3.041   6.704
 2299SOL     OW 7795   4.524   0.099   1.540
 2299SOL    HW1 7796   4.612   0.086   1.496
 2299SOL    HW2 7797   4.481   0.183   1.505
 2300SOL     OW 7798   0.785   4.858   0.856
 2300SOL    HW1 7799   0.717   4.932   0.852
 2300SOL    HW2 7800   0.799   4.831   0.951
 2301SOL     OW 7801   3.282   3.125   1.600
 2301SOL    HW1 7802   3.312   3.085   1.514
 2301SOL    HW2 7803   3.343   3.094   1.674
 2302SOL     OW 7804   3.031   5.547   3.101
 2302SOL    HW1 7805   3.033   5.604   3.184
 2302SOL    HW2 7806   3.010   5.453   3.126
 2303SOL     OW 7807   0.503   3.428   5.898
 2303SOL    HW1 7808   0.577   3.416   5.832
 2303SOL    HW2 7809   0.526   3.380   5.982
 2304SOL     OW 7810   1.908   0.976   4.686
 2304SOL    HW1 7811   1.880   0.932   4.771
 2304SOL    HW2 7812   1.827   0.996   4.631
 2305SOL     OW 7813   4.304   4.878   1.729
 2305SOL    HW1 7814   4.344   4.958   1.685
 2305SOL    HW2 7815   4.352   4.795   1.699
 2306SOL     OW 7816   0.567   4.462   0.196
 2306SOL    HW1 7817   0.664   4.444   0.212
 2306SOL    HW2 7818   0.530   4.390   0.137
 2307SOL     OW 7819   0.170   1.024   3.303
 2307SOL    HW1 7820   0.212   0.933   3.306
 2307SOL    HW2 7821   0.123   1.042   3.390
 2308SOL     OW 7822   0.906   0.416   0.137
 2308SOL    HW1 7823   0.831   0.404   0.071
 2308SOL    HW2 7824   0.929   0.328   0.177
 2309SOL     OW 7825   1.798   5.055   6.534
 2309SOL    HW1 7826   1.733   4.985   6.507
 2309SOL    HW2 7827   1.846   5.028   6.617
 2310SOL     OW 7828   5.472   1.576   3.422
 2310SOL    HW1 7829   5.433   1.535   3.340
 2310SOL    HW2 7830   5.571   1.567   3.420
 2311SOL     OW 7831   2.840   0.029   2.744
 2311SOL    HW1 7832   2.744   0.019   2.771
 2311SOL    HW2 7833   2.863   6.983   2.673
 2312SOL     OW 7834   2.872   0.750   2.181
 2312SOL    HW1 7835   2.859   0.832   2.238
 2312SOL    HW2 7836   2.785   0.703   2.170
 2313SOL     OW 7837   4.984   4.655   1.388
 2313SOL    HW1 7838   4.932   4.606   1.457
 2313SOL    HW2 7839   5.026   4.737   1.428
 2314SOL     OW 7840   6.837   5.864   3.212
 2314SOL    HW1 7841   6.857   5.871   3.310
 2314SOL    HW2 7842   6.738   5.868   3.198
 2315SOL     OW 7843   4.840   6.456   4.992
 2315SOL    HW1 7844   4.938   6.469   5.004
 2315SOL    HW2 7845   4.815   6.363   5.021
 2316SOL     OW 7846   4.059   2.167   6.224
 2316SOL    HW1 7847   4.061   2.087   6.284
 2316SOL    HW2 7848   3.969   2.175   6.181
 2317SOL     OW 7849   0.218   5.137   2.233
 2317SOL    HW1 7850   0.158   5.074   2.185
 2317SOL    HW2 7851   0.229   5.107   2.328
 2318SOL     OW 7852   1.238   4.796   3.942
 2318SOL    HW1 7853   1.272   4.793   3.848
 2318SOL    HW2 7854   1.257   4.886   3.981
 2319SOL     OW 7855   2.717   5.324   3.119
 2319SOL    HW1 7856   2.626   5.290   3.094
 2319SOL    HW2 7857   2.733   5.412   3.074
 2320SOL     OW 7858   1.135   2.181   5.294
 2320SOL    HW1 7859   1.153   2.162   5.391
 2320SOL    HW2 7860   1.037   2.188   5.279
 2321SOL     OW 7861   1.931   5.068   5.579
 2321SOL    HW1 7862   1.990   5.140   5.615
 2321SOL    HW2 7863   1.929   5.073   5.479
 2322SOL     OW 7864   1.927   3.384   1.555
 2322SOL    HW1 7865   1.987   3.421   1.626
 2322SOL    HW2 7866   1.855   3.329   1.597
 2323SOL     OW 7867   2.384   5.842   6.492
 2323SOL    HW1 7868   2.347   5.784   6.565
 2323SOL    HW2 7869   2.355   5.937   6.508
 2324SOL     OW 7870   6.439   4.688   2.495
 2324SOL    HW1 7871   6.484   4.645   2.418
 2324SOL    HW2 7872   6.464   4.785   2.499
 2325SOL     OW 7873   6.714   4.014   2.560
 2325SOL    HW1 7874   6.653   3.968   2.624
 2325SOL    HW2 7875   6.799   3.961   2.550
 2326SOL     OW 7876   2.280   0.066   0.434
 2326SOL    HW1 7877   2.244   0.123   0.508
 2326SOL    HW2 7878   2.278   0.117   0.348
 2327SOL     OW 7879   6.316   6.147   1.859
 2327SOL    HW1 7880   6.255   6.179   1.932
 2327SOL    HW2 7881   6.393   6.210   1.850
 2328SOL     OW 7882   2.144   3.859   2.245
 2328SOL    HW1 7883   2.145   3.847   2.146
 2328SOL    HW2 7884   2.164   3.771   2.289
 2329SOL     OW 7885   1.036   5.023   1.860
 2329SOL    HW1 7886   0.955   4.982   1.900
 2329SOL    HW2 7887   1.117   4.973   1.891
 2330SOL     OW 7888   6.104   3.547   1.668
 2330SOL    HW1 7889   6.105   3.454   1.703
 2330SOL    HW2 7890   6.126   3.546   1.570
 2331SOL     OW 7891   4.675   5.449   1.516
 2331SOL    HW1 7892   4.735   5.442   1.596
 2331SOL    HW2 7893   4.715   5.512   1.450
 2332SOL     OW 7894   5.917   0.158   5.984
 2332SOL    HW1 7895   5.980   0.234   5.996
 2332SOL    HW2 7896   5.853   0.177   5.910
 2333SOL     OW 7897   1.751   4.778   2.642
 2333SOL    HW1 7898   1.765   4.681   2.622
 2333SOL    HW2 7899   1.653   4.800   2.635
 2334SOL     OW 7900   3.623   1.090   6.000
 2334SOL    HW1 7901   3.622   1.169   6.061
 2334SOL    HW2 7902   3.563   1.019   6.037
 2335SOL     OW 7903   6.580   0.830   3.769
 2335SOL    HW1 7904   6.498   0.866   3.815
 2335SOL    HW2 7905   6.553   0.756   3.707
 2336SOL     OW 7906   1.846   1.403   2.890
 2336SOL    HW1 7907   1.772   1.434   2.949
 2336SOL    HW2 7908   1.933   1.443   2.921
 2337SOL     OW 7909   4.081   0.939   2.141
 2337SOL    HW1 7910   4.102   0.943   2.044
 2337SOL    HW2 7911   4.091   1.031   2.181
 2338SOL     OW 7912   0.006   3.616   3.537
 2338SOL    HW1 7913   6.980   3.671   3.607
 2338SOL    HW2 7914   0.100   3.647   3.526
 2339SOL     OW 7915   3.486   3.040   2.919
 2339SOL    HW1 7916   3.528   2.995   2.840
 2339SOL    HW2 7917   3.387   3.026   2.917
 2340SOL     OW 7918   1.914   3.633   6.608
 2340SOL    HW1 7919   1.985   3.695   6.574
 2340SOL    HW2 7920   1.902   3.557   6.544
 2341SOL     OW 7921   2.764   4.938   4.391
 2341SOL    HW1 7922   2.736   4.842   4.396
 2341SOL    HW2 7923   2.859   4.944   4.359
 2342SOL     OW 7924   3.809   1.512   4.634
 2342SOL    HW1 7925   3.872   1.435   4.634
 2342SOL    HW2 7926   3.833   1.574   4.709
 2343SOL     OW 7927   7.014   0.070   0.777
 2343SOL    HW1 7928   0.004   0.124   0.861
 2343SOL    HW2 7929   6.920   0.035   0.772
 2344SOL     OW 7930   6.055   4.586   0.259
 2344SOL    HW1 7931   6.047   4.557   0.164
 2344SOL    HW2 7932   5.995   4.665   0.275
 2345SOL     OW 7933   3.935   6.265   4.333
 2345SOL    HW1 7934   4.033   6.252   4.325
 2345SOL    HW2 7935   3.892   6.180   4.364
 2346SOL     OW 7936   4.967   3.290   0.781
 2346SOL    HW1 7937   4.973   3.203   0.830
 2346SOL    HW2 7938   4.887   3.290   0.721
 2347SOL     OW 7939   1.750   1.173   0.963
 2347SOL    HW1 7940   1.686   1.142   0.893
 2347SOL    HW2 7941   1.823   1.226   0.921
 2348SOL     OW 7942   0.230   5.713   2.542
 2348SOL    HW1 7943   0.191   5.652   2.611
 2348SOL    HW2 7944   0.308   5.668   2.498
 2349SOL     OW 7945   0.650   4.513   4.690
 2349SOL    HW1 7946   0.711   4.576   4.739
 2349SOL    HW2 7947   0.701   4.432   4.661
 2350SOL     OW 7948   5.585   3.843   0.458
 2350SOL    HW1 7949   5.631   3.785   0.391
 2350SOL    HW2 7950   5.576   3.936   0.422
 2351SOL     OW 7951   2.321   5.870   1.623
 2351SOL    HW1 7952   2.320   5.795   1.557
 2351SOL    HW2 7953   2.397   5.932   1.602
 2352SOL     OW 7954   6.895   2.638   3.306
 2352SOL    HW1 7955   6.941   2.660   3.220
 2352SOL    HW2 7956   6.801   2.673   3.303
 2353SOL     OW 7957   3.571   6.025   4.113
 2353SOL    HW1 7958   3.519   5.995   4.193
 2353SOL    HW2 7959   3.636   6.096   4.142
 2354SOL     OW 7960   2.431   2.542   3.996
 2354SOL    HW1 7961   2.466   2.600   3.922
 2354SOL    HW2 7962   2.342   2.504   3.970
 2355SOL     OW 7963   2.510   5.760   4.363
 2355SOL    HW1 7964   2.501   5.669   4.323
 2355SOL    HW2 7965   2.535   5.826   4.292
 2356SOL     OW 7966   6.742   2.764   6.696
 2356SOL    HW1 7967   6.784   2.678   6.664
 2356SOL    HW2 7968   6.645   2.749   6.711
 2357SOL     OW 7969   2.176   6.501   2.851
 2357SOL    HW1 7970   2.257   6.449   2.877
 2357SOL    HW2 7971   2.175   6.588   2.900
 2358SOL     OW 7972   4.490   5.276   6.117
 2358SOL    HW1 7973   4.490   5.182   6.084
 2358SOL    HW2 7974   4.533   5.336   6.049
 2359SOL     OW 7975   1.576   0.077   5.569
 2359SOL    HW1 7976   1.503   0.052   5.507
 2359SOL    HW2 7977   1.540   0.083   5.662
 2360SOL     OW 7978   6.890   3.868   0.037
 2360SOL    HW1 7979   6.863   3.837   0.128
 2360SOL    HW2 7980   6.902   3.968   0.038
 2361SOL     OW 7981   3.424   1.142   0.519
 2361SOL    HW1 7982   3.489   1.181   0.453
 2361SOL    HW2 7983   3.337   1.123   0.473
 2362SOL     OW 7984   2.680   5.213   3.410
 2362SOL    HW1 7985   2.713   5.230   3.316
 2362SOL    HW2 7986   2.721   5.129   3.445
 2363SOL     OW 7987   3.924   0.411   3.722
 2363SOL    HW1 7988   3.866   0.369   3.652
 2363SOL    HW2 7989   3.888   0.389   3.813
 2364SOL     OW 7990   1.148   2.621   1.231
 2364SOL    HW1 7991   1.232   2.637   1.284
 2364SOL    HW2 7992   1.170   2.569   1.148
 2365SOL     OW 7993   5.145   1.756   0.667
 2365SOL    HW1 7994   5.215   1.791   0.729
 2365SOL    HW2 7995   5.137   1.817   0.589
 2366SOL     OW 7996   4.713   5.575   0.562
 2366SOL    HW1 7997   4.737   5.647   0.496
 2366SOL    HW2 7998   4.709   5.487   0.515
 2367SOL     OW 7999   2.476   3.452   5.825
 2367SOL    HW1 8000   2.379   3.455   5.802
 2367SOL    HW2 8001   2.509   3.357   5.817
 2368SOL     OW 8002   5.732   5.805   2.087
 2368SOL    HW1 8003   5.674   5.811   2.168
 2368SOL    HW2 8004   5.827   5.823   2.112
 2369SOL     OW 8005   2.413   1.462   3.205
 2369SOL    HW1 8006   2.445   1.439   3.297
 2369SOL    HW2 8007   2.335   1.525   3.212
 2370SOL     OW 8008   5.845   2.619   6.085
 2370SOL    HW1 8009   5.836   2.652   5.991
 2370SOL    HW2 8010   5.779   2.666   6.144
 2371SOL     OW 8011   1.432   5.836   1.882
 2371SOL    HW1 8012   1.455   5.838   1.784
 2371SOL    HW2 8013   1.489   5.768   1.928
 2372SOL     OW 8014   6.425   2.293   3.086
 2372SOL    HW1 8015   6.448   2.196   3.089
 2372SOL    HW2 8016   6.506   2.346   3.059
 2373SOL     OW 8017   2.455   3.585   6.558
 2373SOL    HW1 8018   2.424   3.573   6.653
 2373SOL    HW2 8019   2.378   3.568   6.497
 2374SOL     OW 8020   5.237   2.693   4.919
 2374SOL    HW1 8021   5.141   2.665   4.927
 2374SOL    HW2 8022   5.292   2.642   4.986
 2375SOL     OW 8023   0.940   0.064   5.635
 2375SOL    HW1 8024   0.877   0.141   5.627
 2375SOL    HW2 8025   0.931   0.023   5.726
 2376SOL     OW 8026   0.298   2.257   3.924
 2376SOL    HW1 8027   0.325   2.277   4.019
 2376SOL    HW2 8028   0.341   2.172   3.895
 2377SOL     OW 8029   3.190   2.970   3.907
 2377SOL    HW1 8030   3.182   2.887   3.852
 2377SOL    HW2 8031   3.237   3.041   3.854
 2378SOL     OW 8032   5.223   1.814   1.135
 2378SOL    HW1 8033   5.258   1.903   1.165
 2378SOL    HW2 8034   5.296   1.762   1.091
 2379SOL     OW 8035   6.525   6.983   6.080
 2379SOL    HW1 8036   6.483   6.906   6.031
 2379SOL    HW2 8037   6.454   0.017   6.124
 2380SOL     OW 8038   6.277   2.002   2.912
 2380SOL    HW1 8039   6.334   2.017   2.993
 2380SOL    HW2 8040   6.327   2.031   2.831
 2381SOL     OW 8041   1.660   5.811   2.206
 2381SOL    HW1 8042   1.659   5.769   2.115
 2381SOL    HW2 8043   1.638   5.908   2.198
 2382SOL     OW 8044   1.700   2.759   5.591
 2382SOL    HW1 8045   1.743   2.735   5.504
 2382SOL    HW2 8046   1.766   2.749   5.665
 2383SOL     OW 8047   5.872   5.455   1.404
 2383SOL    HW1 8048   5.947   5.390   1.392
 2383SOL    HW2 8049   5.856   5.470   1.501
 2384SOL     OW 8050   4.356   1.338   1.402
 2384SOL    HW1 8051   4.440   1.371   1.359
 2384SOL    HW2 8052   4.313   1.270   1.341
 2385SOL     OW 8053   1.311   2.742   6.978
 2385SOL    HW1 8054   1.244   2.742   6.903
 2385SOL    HW2 8055   1.385   2.806   6.957
 2386SOL     OW 8056   4.531   4.791   3.253
 2386SOL    HW1 8057   4.437   4.824   3.243
 2386SOL    HW2 8058   4.585   4.859   3.301
 2387SOL     OW 8059   1.335   1.321   2.838
 2387SOL    HW1 8060   1.328   1.330   2.738
 2387SOL    HW2 8061   1.310   1.228   2.864
 2388SOL     OW 8062   6.915   1.611   3.936
 2388SOL    HW1 8063   6.879   1.619   4.029
 2388SOL    HW2 8064   6.868   1.538   3.888
 2389SOL     OW 8065   3.583   6.619   2.005
 2389SOL    HW1 8066   3.650   6.620   1.931
 2389SOL    HW2 8067   3.509   6.682   1.983
 2390SOL     OW 8068   2.993   4.547   0.990
 2390SOL    HW1 8069   2.982   4.450   1.010
 2390SOL    HW2 8070   3.058   4.588   1.054
 2391SOL     OW 8071   4.274   5.307   4.480
 2391SOL    HW1 8072   4.223   5.254   4.547
 2391SOL    HW2 8073   4.221   5.312   4.395
 2392SOL     OW 8074   4.276   1.399   6.889
 2392SOL    HW1 8075   4.209   1.468   6.862
 2392SOL    HW2 8076   4.232   1.329   6.945
 2393SOL     OW 8077   3.680   5.048   5.120
 2393SOL    HW1 8078   3.764   5.100   5.129
 2393SOL    HW2 8079   3.658   5.003   5.207
 2394SOL     OW 8080   0.435   4.819   5.573
 2394SOL    HW1 8081   0.496   4.866   5.510
 2394SOL    HW2 8082   0.420   4.877   5.654
 2395SOL     OW 8083   4.236   6.316   6.264
 2395SOL    HW1 8084   4.175   6.277   6.333
 2395SOL    HW2 8085   4.182   6.370   6.199
 2396SOL     OW 8086   2.789   5.780   0.743
 2396SOL    HW1 8087   2.875   5.741   0.778
 2396SOL    HW2 8088   2.723   5.787   0.817
 2397SOL     OW 8089   0.842   3.188   4.434
 2397SOL    HW1 8090   0.810   3.263   4.491
 2397SOL    HW2 8091   0.844   3.217   4.338
 2398SOL     OW 8092   5.013   3.671   5.486
 2398SOL    HW1 8093   4.998   3.581   5.527
 2398SOL    HW2 8094   5.013   3.662   5.386
 2399SOL     OW 8095   4.574   2.423   1.353
 2399SOL    HW1 8096   4.602   2.469   1.269
 2399SOL    HW2 8097   4.475   2.434   1.366
 2400SOL     OW 8098   1.548   4.537   0.298
 2400SOL    HW1 8099   1.469   4.482   0.325
 2400SOL    HW2 8100   1.524   4.634   0.302
 2401SOL     OW 8101   6.282   5.789   6.664
 2401SOL    HW1 8102   6.198   5.839   6.686
 2401SOL    HW2 8103   6.337   5.845   6.602
 2402SOL     OW 8104   6.872   6.814   3.923
 2402SOL    HW1 8105   6.957   6.763   3.916
 2402SOL    HW2 8106   6.796   6.751   3.940
 2403SOL     OW 8107   1.358   0.876   3.521
 2403SOL    HW1 8108   1.382   0.968   3.550
 2403SOL    HW2 8109   1.365   0.813   3.598
 2404SOL     OW 8110   1.185   0.128   6.963
 2404SOL    HW1 8111   1.189   0.215   7.011
 2404SOL    HW2 8112   1.213   0.054   0.004
 2405SOL     OW 8113   2.930   4.549   1.508
 2405SOL    HW1 8114   3.018   4.505   1.526
 2405SOL    HW2 8115   2.915   4.621   1.576
 2406SOL     OW 8116   4.815   1.482   1.457
 2406SOL    HW1 8117   4.909   1.452   1.468
 2406SOL    HW2 8118   4.813   1.576   1.424
 2407SOL     OW 8119   5.135   6.658   3.865
 2407SOL    HW1 8120   5.180   6.742   3.835
 2407SOL    HW2 8121   5.200   6.600   3.913
 2408SOL     OW 8122   4.298   4.700   2.188
 2408SOL    HW1 8123   4.244   4.735   2.264
 2408SOL    HW2 8124   4.395   4.718   2.205
 2409SOL     OW 8125   1.401   4.164   0.649
 2409SOL    HW1 8126   1.303   4.159   0.667
 2409SOL    HW2 8127   1.424   4.101   0.575
 2410SOL     OW 8128   4.109   3.572   2.680
 2410SOL    HW1 8129   4.116   3.587   2.779
 2410SOL    HW2 8130   4.095   3.660   2.634
 2411SOL     OW 8131   3.405   0.304   4.706
 2411SOL    HW1 8132   3.413   0.258   4.617
 2411SOL    HW2 8133   3.311   0.297   4.739
 2412SOL     OW 8134   4.108   3.609   1.045
 2412SOL    HW1 8135   4.204   3.586   1.064
 2412SOL    HW2 8136   4.068   3.652   1.126
 2413SOL     OW 8137   3.508   0.167   3.432
 2413SOL    HW1 8138   3.436   0.236   3.438
 2413SOL    HW2 8139   3.543   0.162   3.339
 2414SOL     OW 8140   4.875   3.108   4.456
 2414SOL    HW1 8141   4.966   3.084   4.423
 2414SOL    HW2 8142   4.806   3.066   4.398
 2415SOL     OW 8143   4.074   0.445   3.466
 2415SOL    HW1 8144   3.998   0.470   3.407
 2415SOL    HW2 8145   4.068   0.496   3.552
 2416SOL     OW 8146   5.495   1.838   6.283
 2416SOL    HW1 8147   5.463   1.868   6.372
 2416SOL    HW2 8148   5.588   1.872   6.267
 2417SOL     OW 8149   3.269   3.911   5.384
 2417SOL    HW1 8150   3.171   3.893   5.377
 2417SOL    HW2 8151   3.313   3.894   5.296
 2418SOL     OW 8152   3.551   2.829   2.418
 2418SOL    HW1 8153   3.527   2.870   2.506
 2418SOL    HW2 8154   3.550   2.730   2.425
 2419SOL     OW 8155   6.582   0.426   3.930
 2419SOL    HW1 8156   6.544   0.514   3.959
 2419SOL    HW2 8157   6.674   0.439   3.893
 2420SOL     OW 8158   2.144   6.858   1.823
 2420SOL    HW1 8159   2.065   6.843   1.883
 2420SOL    HW2 8160   2.133   6.802   1.740
 2421SOL     OW 8161   4.514   2.200   3.053
 2421SOL    HW1 8162   4.422   2.213   3.091
 2421SOL    HW2 8163   4.559   2.288   3.042
 2422SOL     OW 8164   5.560   1.800   1.197
 2422SOL    HW1 8165   5.579   1.744   1.278
 2422SOL    HW2 8166   5.520   1.743   1.125
 2423SOL     OW 8167   1.363   5.262   2.402
 2423SOL    HW1 8168   1.275   5.215   2.408
 2423SOL    HW2 8169   1.385   5.303   2.490
 2424SOL     OW 8170   6.741   6.824   6.788
 2424SOL    HW1 8171   6.727   6.892   6.860
 2424SOL    HW2 8172   6.685   6.743   6.807
 2425SOL     OW 8173   6.848   0.139   4.525
 2425SOL    HW1 8174   6.870   0.115   4.619
 2425SOL    HW2 8175   6.847   0.056   4.469
 2426SOL     OW 8176   1.609   5.660   4.397
 2426SOL    HW1 8177   1.584   5.756   4.389
 2426SOL    HW2 8178   1.529   5.607   4.426
 2427SOL     OW 8179   6.069   0.906   4.906
 2427SOL    HW1 8180   6.058   0.945   4.998
 2427SOL    HW2 8181   6.043   0.810   4.908
 2428SOL     OW 8182   5.550   2.296   0.480
 2428SOL    HW1 8183   5.551   2.198   0.499
 2428SOL    HW2 8184   5.631   2.321   0.427
 2429SOL     OW 8185   4.289   4.635   2.815
 2429SOL    HW1 8186   4.231   4.625   2.897
 2429SOL    HW2 8187   4.325   4.728   2.811
 2430SOL     OW 8188   5.165   0.222   2.277
 2430SOL    HW1 8189   5.187   0.218   2.374
 2430SOL    HW2 8190   5.107   0.144   2.252
 2431SOL     OW 8191   3.895   6.991   2.227
 2431SOL    HW1 8192   3.987   6.957   2.211
 2431SOL    HW2 8193   3.855   6.946   2.306
 2432SOL     OW 8194   2.864   5.452   2.462
 2432SOL    HW1 8195   2.955   5.444   2.502
 2432SOL    HW2 8196   2.818   5.533   2.498
 2433SOL     OW 8197   5.024   0.196   0.764
 2433SOL    HW1 8198   5.109   0.146   0.745
 2433SOL    HW2 8199   4.972   0.148   0.835
 2434SOL     OW 8200   3.392   3.046   5.278
 2434SOL    HW1 8201   3.319   3.083   5.220
 2434SOL    HW2 8202   3.400   3.101   5.360
 2435SOL     OW 8203   5.702   5.194   6.381
 2435SOL    HW1 8204   5.737   5.276   6.425
 2435SOL    HW2 8205   5.638   5.219   6.309
 2436SOL     OW 8206   3.389   4.297   0.787
 2436SOL    HW1 8207   3.291   4.287   0.803
 2436SOL    HW2 8208   3.411   4.393   0.772
 2437SOL     OW 8209   0.013   0.973   5.754
 2437SOL    HW1 8210   0.103   0.980   5.710
 2437SOL    HW2 8211   0.015   0.900   5.822
 2438SOL     OW 8212   3.689   3.474   0.574
 2438SOL    HW1 8213   3.606   3.511   0.616
 2438SOL    HW2 8214   3.769   3.500   0.628
 2439SOL     OW 8215   6.182   3.849   6.658
 2439SOL    HW1 8216   6.109   3.915   6.676
 2439SOL    HW2 8217   6.168   3.809   6.567
 2440SOL     OW 8218   6.211   4.718   6.260
 2440SOL    HW1 8219   6.187   4.765   6.175
 2440SOL    HW2 8220   6.128   4.682   6.303
 2441SOL     OW 8221   6.654   1.996   0.732
 2441SOL    HW1 8222   6.724   2.065   0.752
 2441SOL    HW2 8223   6.564   2.037   0.744
 2442SOL     OW 8224   6.673   1.832   4.488
 2442SOL    HW1 8225   6.662   1.928   4.514
 2442SOL    HW2 8226   6.715   1.782   4.564
 2443SOL     OW 8227   2.798   4.844   6.330
 2443SOL    HW1 8228   2.834   4.839   6.236
 2443SOL    HW2 8229   2.874   4.847   6.394
 2444SOL     OW 8230   3.490   2.439   5.988
 2444SOL    HW1 8231   3.472   2.537   6.000
 2444SOL    HW2 8232   3.494   2.418   5.890
 2445SOL     OW 8233   1.034   0.605   0.797
 2445SOL    HW1 8234   1.035   0.703   0.818
 2445SOL    HW2 8235   1.107   0.584   0.732
 2446SOL     OW 8236   4.733   3.142   6.469
 2446SOL    HW1 8237   4.796   3.134   6.393
 2446SOL    HW2 8238   4.684   3.056   6.483
 2447SOL     OW 8239   0.917   3.712   6.498
 2447SOL    HW1 8240   0.901   3.654   6.418
 2447SOL    HW2 8241   0.930   3.654   6.579
 2448SOL     OW 8242   6.516   0.450   4.953
 2448SOL    HW1 8243   6.547   0.495   4.870
 2448SOL    HW2 8244   6.512   0.351   4.938
 2449SOL     OW 8245   6.990   3.299   5.583
 2449SOL    HW1 8246   0.062   3.333   5.601
 2449SOL    HW2 8247   6.986   3.263   5.490
 2450SOL     OW 8248   2.571   3.033   1.306
 2450SOL    HW1 8249   2.664   3.017   1.339
 2450SOL    HW2 8250   2.513   2.955   1.330
 2451SOL     OW 8251   2.002   6.220   3.527
 2451SOL    HW1 8252   2.017   6.244   3.431
 2451SOL    HW2 8253   2.082   6.170   3.561
 2452SOL     OW 8254   2.796   1.533   4.404
 2452SOL    HW1 8255   2.859   1.610   4.406
 2452SOL    HW2 8256   2.728   1.548   4.332
 2453SOL     OW 8257   0.498   4.210   0.857
 2453SOL    HW1 8258   0.556   4.289   0.875
 2453SOL    HW2 8259   0.472   4.208   0.761
 2454SOL     OW 8260   0.664   0.028   1.973
 2454SOL    HW1 8261   0.731   0.051   1.903
 2454SOL    HW2 8262   0.664   6.949   1.988
 2455SOL     OW 8263   5.642   3.778   1.290
 2455SOL    HW1 8264   5.573   3.725   1.339
 2455SOL    HW2 8265   5.640   3.872   1.323
 2456SOL     OW 8266   2.894   6.319   1.755
 2456SOL    HW1 8267   2.863   6.227   1.729
 2456SOL    HW2 8268   2.835   6.387   1.711
 2457SOL     OW 8269   5.079   5.811   0.541
 2457SOL    HW1 8270   5.093   5.909   0.529
 2457SOL    HW2 8271   5.080   5.789   0.638
 2458SOL     OW 8272   0.368   6.562   1.706
 2458SOL    HW1 8273   0.391   6.481   1.759
 2458SOL    HW2 8274   0.451   6.604   1.670
 2459SOL     OW 8275   1.517   1.824   0.144
 2459SOL    HW1 8276   1.593   1.772   0.183
 2459SOL    HW2 8277   1.522   1.919   0.175
 2460SOL     OW 8278   2.106   4.575   0.662
 2460SOL    HW1 8279   2.132   4.485   0.696
 2460SOL    HW2 8280   2.133   4.584   0.566
 2461SOL     OW 8281   4.523   1.189   3.354
 2461SOL    HW1 8282   4.490   1.102   3.319
 2461SOL    HW2 8283   4.619   1.201   3.328
 2462SOL     OW 8284   3.043   4.838   6.482
 2462SOL    HW1 8285   3.109   4.815   6.410
 2462SOL    HW2 8286   3.093   4.866   6.564
 2463SOL     OW 8287   1.809   2.981   5.288
 2463SOL    HW1 8288   1.871   2.965   5.365
 2463SOL    HW2 8289   1.847   3.054   5.230
 2464SOL     OW 8290   1.104   3.374   0.751
 2464SOL    HW1 8291   1.116   3.278   0.728
 2464SOL    HW2 8292   1.175   3.402   0.816
 2465SOL     OW 8293   6.090   4.403   3.002
 2465SOL    HW1 8294   6.040   4.400   3.089
 2465SOL    HW2 8295   6.073   4.491   2.957
 2466SOL     OW 8296   4.082   1.745   1.690
 2466SOL    HW1 8297   4.166   1.760   1.742
 2466SOL    HW2 8298   4.104   1.745   1.592
 2467SOL     OW 8299   1.262   1.289   4.330
 2467SOL    HW1 8300   1.276   1.212   4.268
 2467SOL    HW2 8301   1.348   1.338   4.343
 2468SOL     OW 8302   6.353   4.888   6.656
 2468SOL    HW1 8303   6.427   4.904   6.721
 2468SOL    HW2 8304   6.364   4.797   6.615
 2469SOL     OW 8305   2.234   1.719   6.490
 2469SOL    HW1 8306   2.167   1.769   6.436
 2469SOL    HW2 8307   2.326   1.753   6.468
 2470SOL     OW 8308   4.821   2.921   0.803
 2470SOL    HW1 8309   4.730   2.948   0.772
 2470SOL    HW2 8310   4.814   2.869   0.888
 2471SOL     OW 8311   0.385   1.282   3.476
 2471SOL    HW1 8312   0.352   1.341   3.403
 2471SOL    HW2 8313   0.336   1.302   3.561
 2472SOL     OW 8314   6.771   0.906   4.155
 2472SOL    HW1 8315   6.866   0.909   4.186
 2472SOL    HW2 8316   6.714   0.863   4.225
 2473SOL     OW 8317   0.773   5.493   4.525
 2473SOL    HW1 8318   0.830   5.422   4.566
 2473SOL    HW2 8319   0.685   5.496   4.573
 2474SOL     OW 8320   5.582   6.748   4.552
 2474SOL    HW1 8321   5.506   6.685   4.536
 2474SOL    HW2 8322   5.578   6.822   4.485
 2475SOL     OW 8323   3.569   2.388   6.247
 2475SOL    HW1 8324   3.494   2.419   6.306
 2475SOL    HW2 8325   3.546   2.405   6.152
 2476SOL     OW 8326   0.812   1.654   4.081
 2476SOL    HW1 8327   0.839   1.672   3.986
 2476SOL    HW2 8328   0.817   1.555   4.098
 2477SOL     OW 8329   4.569   4.495   1.860
 2477SOL    HW1 8330   4.562   4.403   1.898
 2477SOL    HW2 8331   4.581   4.489   1.761
 2478SOL     OW 8332   6.723   0.491   1.997
 2478SOL    HW1 8333   6.799   0.435   2.031
 2478SOL    HW2 8334   6.756   0.551   1.924
 2479SOL     OW 8335   1.093   3.108   0.472
 2479SOL    HW1 8336   1.147   3.155   0.402
 2479SOL    HW2 8337   1.002   3.149   0.476
 2480SOL     OW 8338   6.632   4.477   0.555
 2480SOL    HW1 8339   6.684   4.562   0.556
 2480SOL    HW2 8340   6.565   4.479   0.481
 2481SOL     OW 8341   3.990   4.803   2.720
 2481SOL    HW1 8342   3.943   4.729   2.769
 2481SOL    HW2 8343   4.019   4.771   2.630
 2482SOL     OW 8344   4.060   2.062   4.668
 2482SOL    HW1 8345   4.054   2.020   4.578
 2482SOL    HW2 8346   4.120   2.142   4.664
 2483SOL     OW 8347   0.761   3.361   6.883
 2483SOL    HW1 8348   0.792   3.266   6.880
 2483SOL    HW2 8349   0.729   3.388   6.793
 2484SOL     OW 8350   3.392   4.342   5.657
 2484SOL    HW1 8351   3.333   4.280   5.707
 2484SOL    HW2 8352   3.348   4.370   5.572
 2485SOL     OW 8353   0.622   4.738   0.177
 2485SOL    HW1 8354   0.716   4.758   0.205
 2485SOL    HW2 8355   0.596   4.646   0.208
 2486SOL     OW 8356   0.468   5.196   4.258
 2486SOL    HW1 8357   0.518   5.283   4.255
 2486SOL    HW2 8358   0.526   5.122   4.225
 2487SOL     OW 8359   2.475   1.125   1.126
 2487SOL    HW1 8360   2.571   1.098   1.140
 2487SOL    HW2 8361   2.415   1.062   1.175
 2488SOL     OW 8362   2.593   5.625   6.464
 2488SOL    HW1 8363   2.499   5.659   6.472
 2488SOL    HW2 8364   2.654   5.681   6.520
 2489SOL     OW 8365   6.441   6.089   4.663
 2489SOL    HW1 8366   6.470   6.112   4.570
 2489SOL    HW2 8367   6.374   6.156   4.694
 2490SOL     OW 8368   5.729   2.572   1.223
 2490SOL    HW1 8369   5.650   2.576   1.284
 2490SOL    HW2 8370   5.698   2.569   1.128
 2491SOL     OW 8371   6.875   4.141   2.203
 2491SOL    HW1 8372   6.878   4.163   2.105
 2491SOL    HW2 8373   6.927   4.058   2.221
 2492SOL     OW 8374   3.849   1.611   0.524
 2492SOL    HW1 8375   3.865   1.648   0.615
 2492SOL    HW2 8376   3.914   1.650   0.459
 2493SOL     OW 8377   6.370   1.048   5.546
 2493SOL    HW1 8378   6.408   1.075   5.457
 2493SOL    HW2 8379   6.305   1.118   5.576
 2494SOL     OW 8380   5.762   5.398   0.498
 2494SOL    HW1 8381   5.684   5.408   0.560
 2494SOL    HW2 8382   5.757   5.309   0.452
 2495SOL     OW 8383   0.024   1.331   2.679
 2495SOL    HW1 8384   0.090   1.258   2.696
 2495SOL    HW2 8385   0.037   1.404   2.747
 2496SOL     OW 8386   1.910   4.737   0.677
 2496SOL    HW1 8387   1.988   4.674   0.676
 2496SOL    HW2 8388   1.828   4.690   0.643
 2497SOL     OW 8389   6.301   1.410   6.380
 2497SOL    HW1 8390   6.227   1.343   6.374
 2497SOL    HW2 8391   6.268   1.491   6.429
 2498SOL     OW 8392   1.438   3.242   4.443
 2498SOL    HW1 8393   1.356   3.297   4.425
 2498SOL    HW2 8394   1.510   3.268   4.379
 2499SOL     OW 8395   5.000   0.195   6.904
 2499SOL    HW1 8396   5.021   0.098   6.898
 2499SOL    HW2 8397   4.987   0.232   6.812
 2500SOL     OW 8398   5.108   2.988   6.265
 2500SOL    HW1 8399   5.119   3.085   6.287
 2500SOL    HW2 8400   5.102   2.977   6.166
 2501SOL     OW 8401   5.863   5.141   0.909
 2501SOL    HW1 8402   5.778   5.194   0.908
 2501SOL    HW2 8403   5.932   5.189   0.855
 2502SOL     OW 8404   1.186   6.858   2.717
 2502SOL    HW1 8405   1.225   6.910   2.792
 2502SOL    HW2 8406   1.107   6.906   2.680
 2503SOL     OW 8407   5.560   5.598   3.637
 2503SOL    HW1 8408   5.643   5.639   3.676
 2503SOL    HW2 8409   5.482   5.659   3.653
 2504SOL     OW 8410   3.087   5.007   2.946
 2504SOL    HW1 8411   3.115   5.004   2.849
 2504SOL    HW2 8412   2.997   4.964   2.956
 2505SOL     OW 8413   4.964   3.909   4.631
 2505SOL    HW1 8414   5.028   3.853   4.579
 2505SOL    HW2 8415   4.927   3.855   4.707
 2506SOL     OW 8416   1.503   1.491   6.894
 2506SOL    HW1 8417   1.545   1.509   6.805
 2506SOL    HW2 8418   1.461   1.400   6.894
 2507SOL     OW 8419   6.907   5.709   1.108
 2507SOL    HW1 8420   6.882   5.728   1.203
 2507SOL    HW2 8421   6.858   5.627   1.076
 2508SOL     OW 8422   1.828   1.360   1.606
 2508SOL    HW1 8423   1.730   1.372   1.588
 2508SOL    HW2 8424   1.840   1.296   1.683
 2509SOL     OW 8425   6.312   6.812   3.605
 2509SOL    HW1 8426   6.374   6.734   3.615
 2509SOL    HW2 8427   6.275   6.837   3.694
 2510SOL     OW 8428   3.440   5.989   2.718
 2510SOL    HW1 8429   3.520   6.010   2.661
 2510SOL    HW2 8430   3.420   6.067   2.777
 2511SOL     OW 8431   0.788   5.178   4.236
 2511SOL    HW1 8432   0.772   5.115   4.160
 2511SOL    HW2 8433   0.835   5.259   4.203
 2512SOL     OW 8434   5.964   3.023   4.632
 2512SOL    HW1 8435   6.014   3.035   4.546
 2512SOL    HW2 8436   5.984   3.100   4.693
 2513SOL     OW 8437   0.581   4.557   1.655
 2513SOL    HW1 8438   0.641   4.555   1.575
 2513SOL    HW2 8439   0.568   4.464   1.688
 2514SOL     OW 8440   6.954   2.148   4.519
 2514SOL    HW1 8441   6.966   2.078   4.590
 2514SOL    HW2 8442   6.967   2.107   4.429
 2515SOL     OW 8443   0.330   4.763   6.233
 2515SOL    HW1 8444   0.425   4.750   6.204
 2515SOL    HW2 8445   0.276   4.682   6.208
 2516SOL     OW 8446   4.768   6.785   4.734
 2516SOL    HW1 8447   4.707   6.757   4.808
 2516SOL    HW2 8448   4.860   6.748   4.751
 2517SOL     OW 8449   2.589   6.099   6.487
 2517SOL    HW1 8450   2.650   6.178   6.495
 2517SOL    HW2 8451   2.636   6.025   6.439
 2518SOL     OW 8452   2.007   2.193   0.195
 2518SOL    HW1 8453   1.999   2.096   0.217
 2518SOL    HW2 8454   1.945   2.246   0.252
 2519SOL     OW 8455   5.932   4.371   4.588
 2519SOL    HW1 8456   5.976   4.342   4.503
 2519SOL    HW2 8457   5.942   4.470   4.599
 2520SOL     OW 8458   4.533   5.728   0.974
 2520SOL    HW1 8459   4.438   5.695   0.975
 2520SOL    HW2 8460   4.556   5.757   0.881
 2521SOL     OW 8461   5.677   6.463   5.936
 2521SOL    HW1 8462   5.721   6.491   6.021
 2521SOL    HW2 8463   5.583   6.497   5.934
 2522SOL     OW 8464   3.580   5.517   5.376
 2522SOL    HW1 8465   3.492   5.501   5.332
 2522SOL    HW2 8466   3.618   5.604   5.344
 2523SOL     OW 8467   1.080   1.970   6.678
 2523SOL    HW1 8468   1.078   2.055   6.625
 2523SOL    HW2 8469   1.008   1.909   6.645
 2524SOL     OW 8470   1.940   0.133   4.315
 2524SOL    HW1 8471   2.032   0.167   4.335
 2524SOL    HW2 8472   1.896   0.194   4.249
 2525SOL     OW 8473   3.138   4.928   2.241
 2525SOL    HW1 8474   3.108   4.876   2.161
 2525SOL    HW2 8475   3.127   5.026   2.223
 2526SOL     OW 8476   1.936   2.978   4.976
 2526SOL    HW1 8477   1.940   3.052   5.044
 2526SOL    HW2 8478   2.021   2.977   4.923
 2527SOL     OW 8479   6.702   0.115   3.800
 2527SOL    HW1 8480   6.760   0.177   3.747
 2527SOL    HW2 8481   6.755   0.073   3.874
 2528SOL     OW 8482   5.514   4.816   2.615
 2528SOL    HW1 8483   5.509   4.724   2.577
 2528SOL    HW2 8484   5.468   4.819   2.703
 2529SOL     OW 8485   5.003   5.290   5.035
 2529SOL    HW1 8486   5.058   5.333   5.106
 2529SOL    HW2 8487   4.923   5.246   5.077
 2530SOL     OW 8488   1.051   6.721   3.450
 2530SOL    HW1 8489   1.122   6.778   3.491
 2530SOL    HW2 8490   0.998   6.675   3.522
 2531SOL     OW 8491   5.143   2.716   6.150
 2531SOL    HW1 8492   5.080   2.771   6.096
 2531SOL    HW2 8493   5.198   2.776   6.209
 2532SOL     OW 8494   6.636   5.287   6.839
 2532SOL    HW1 8495   6.636   5.365   6.777
 2532SOL    HW2 8496   6.555   5.231   6.823
 2533SOL     OW 8497   5.023   0.429   3.723
 2533SOL    HW1 8498   5.023   0.455   3.820
 2533SOL    HW2 8499   5.060   0.504   3.668
 2534SOL     OW 8500   6.631   0.913   2.596
 2534SOL    HW1 8501   6.672   0.867   2.517
 2534SOL    HW2 8502   6.693   0.908   2.674
 2535SOL     OW 8503   2.896   1.330   1.252
 2535SOL    HW1 8504   2.940   1.374   1.330
 2535SOL    HW2 8505   2.922   1.234   1.248
 2536SOL     OW 8506   0.619   0.027   3.055
 2536SOL    HW1 8507   0.617   0.126   3.042
 2536SOL    HW2 8508   0.650   7.004   2.970
 2537SOL     OW 8509   2.376   6.370   1.635
 2537SOL    HW1 8510   2.403   6.309   1.709
 2537SOL    HW2 8511   2.308   6.435   1.669
 2538SOL     OW 8512   0.173   5.331   5.266
 2538SOL    HW1 8513   0.102   5.277   5.312
 2538SOL    HW2 8514   0.245   5.354   5.330
 2539SOL     OW 8515   0.936   0.205   5.254
 2539SOL    HW1 8516   0.846   0.164   5.269
 2539SOL    HW2 8517   1.006   0.134   5.258
 2540SOL     OW 8518   5.686   2.787   1.901
 2540SOL    HW1 8519   5.643   2.852   1.964
 2540SOL    HW2 8520   5.694   2.698   1.945
 2541SOL     OW 8521   1.852   0.799   0.376
 2541SOL    HW1 8522   1.774   0.754   0.418
 2541SOL    HW2 8523   1.823   0.887   0.339
 2542SOL     OW 8524   3.931   2.196   3.145
 2542SOL    HW1 8525   3.945   2.169   3.240
 2542SOL    HW2 8526   3.867   2.133   3.101
 2543SOL     OW 8527   5.739   6.438   5.393
 2543SOL    HW1 8528   5.830   6.478   5.405
 2543SOL    HW2 8529   5.744   6.339   5.407
 2544SOL     OW 8530   0.160   0.491   0.244
 2544SOL    HW1 8531   0.114   0.502   0.332
 2544SOL    HW2 8532   0.128   0.407   0.199
 2545SOL     OW 8533   0.962   1.594   0.356
 2545SOL    HW1 8534   0.945   1.596   0.258
 2545SOL    HW2 8535   0.964   1.687   0.392
 2546SOL     OW 8536   6.050   3.140   3.412
 2546SOL    HW1 8537   6.026   3.200   3.336
 2546SOL    HW2 8538   5.967   3.111   3.459
 2547SOL     OW 8539   5.899   3.361   0.595
 2547SOL    HW1 8540   5.829   3.432   0.604
 2547SOL    HW2 8541   5.947   3.373   0.508
 2548SOL     OW 8542   6.019   0.675   5.439
 2548SOL    HW1 8543   5.929   0.663   5.481
 2548SOL    HW2 8544   6.013   0.656   5.341
 2549SOL     OW 8545   2.653   4.046   6.553
 2549SOL    HW1 8546   2.637   4.010   6.461
 2549SOL    HW2 8547   2.745   4.020   6.583
 2550SOL     OW 8548   3.823   0.799   1.264
 2550SOL    HW1 8549   3.835   0.817   1.166
 2550SOL    HW2 8550   3.781   0.709   1.277
 2551SOL     OW 8551   2.944   4.263   1.022
 2551SOL    HW1 8552   2.918   4.237   1.115
 2551SOL    HW2 8553   2.903   4.201   0.956
 2552SOL     OW 8554   3.124   5.613   1.119
 2552SOL    HW1 8555   3.141   5.546   1.048
 2552SOL    HW2 8556   3.049   5.581   1.178
 2553SOL     OW 8557   4.312   2.108   1.571
 2553SOL    HW1 8558   4.222   2.125   1.611
 2553SOL    HW2 8559   4.377   2.177   1.603
 2554SOL     OW 8560   1.520   5.917   0.659
 2554SOL    HW1 8561   1.565   5.982   0.721
 2554SOL    HW2 8562   1.422   5.934   0.659
 2555SOL     OW 8563   0.467   5.835   4.508
 2555SOL    HW1 8564   0.425   5.925   4.522
 2555SOL    HW2 8565   0.397   5.764   4.512
 2556SOL     OW 8566   5.464   0.745   6.912
 2556SOL    HW1 8567   5.479   0.658   6.865
 2556SOL    HW2 8568   5.544   0.767   6.968
 2557SOL     OW 8569   2.859   1.126   0.488
 2557SOL    HW1 8570   2.823   1.046   0.441
 2557SOL    HW2 8571   2.793   1.201   0.481
 2558SOL     OW 8572   5.775   2.935   1.453
 2558SOL    HW1 8573   5.861   2.892   1.425
 2558SOL    HW2 8574   5.723   2.872   1.510
 2559SOL     OW 8575   0.129   5.883   3.278
 2559SOL    HW1 8576   0.038   5.846   3.296
 2559SOL    HW2 8577   0.172   5.911   3.363
 2560SOL     OW 8578   4.149   2.968   1.763
 2560SOL    HW1 8579   4.050   2.975   1.760
 2560SOL    HW2 8580   4.189   3.060   1.763
 2561SOL     OW 8581   3.613   1.046   4.699
 2561SOL    HW1 8582   3.551   0.968   4.696
 2561SOL    HW2 8583   3.705   1.014   4.721
 2562SOL     OW 8584   1.271   6.603   4.770
 2562SOL    HW1 8585   1.307   6.680   4.822
 2562SOL    HW2 8586   1.243   6.530   4.832
 2563SOL     OW 8587   4.628   2.052   0.103
 2563SOL    HW1 8588   4.687   2.125   0.068
 2563SOL    HW2 8589   4.601   1.992   0.028
 2564SOL     OW 8590   1.617   1.044   1.705
 2564SOL    HW1 8591   1.611   0.961   1.760
 2564SOL    HW2 8592   1.654   1.022   1.615
 2565SOL     OW 8593   6.155   0.442   0.646
 2565SOL    HW1 8594   6.177   0.536   0.674
 2565SOL    HW2 8595   6.154   0.436   0.547
 2566SOL     OW 8596   2.791   1.273   0.912
 2566SOL    HW1 8597   2.740   1.318   0.839
 2566SOL    HW2 8598   2.868   1.331   0.940
 2567SOL     OW 8599   1.947   0.852   6.185
 2567SOL    HW1 8600   2.042   0.859   6.215
 2567SOL    HW2 8601   1.899   0.785   6.241
 2568SOL     OW 8602   3.103   6.440   7.010
 2568SOL    HW1 8603   3.105   6.509   0.063
 2568SOL    HW2 8604   3.012   6.400   7.004
 2569SOL     OW 8605   2.843   6.453   6.749
 2569SOL    HW1 8606   2.855   6.414   6.840
 2569SOL    HW2 8607   2.898   6.536   6.741
 2570SOL     OW 8608   0.061   0.257   3.573
 2570SOL    HW1 8609   0.081   0.321   3.647
 2570SOL    HW2 8610   0.046   0.309   3.488
 2571SOL     OW 8611   3.462   3.140   2.151
 2571SOL    HW1 8612   3.541   3.092   2.190
 2571SOL    HW2 8613   3.378   3.100   2.187
 2572SOL     OW 8614   2.775   6.598   2.511
 2572SOL    HW1 8615   2.762   6.587   2.412
 2572SOL    HW2 8616   2.837   6.675   2.528
 2573SOL     OW 8617   6.107   0.406   2.714
 2573SOL    HW1 8618   6.024   0.403   2.770
 2573SOL    HW2 8619   6.144   0.499   2.713
 2574SOL     OW 8620   0.805   4.605   2.114
 2574SOL    HW1 8621   0.795   4.664   2.194
 2574SOL    HW2 8622   0.778   4.512   2.138
 2575SOL     OW 8623   4.318   3.591   5.296
 2575SOL    HW1 8624   4.274   3.582   5.207
 2575SOL    HW2 8625   4.405   3.641   5.285
 2576SOL     OW 8626   1.136   0.563   3.575
 2576SOL    HW1 8627   1.053   0.588   3.626
 2576SOL    HW2 8628   1.137   0.612   3.488
 2577SOL     OW 8629   1.619   4.789   0.282
 2577SOL    HW1 8630   1.692   4.720   0.281
 2577SOL    HW2 8631   1.658   4.879   0.297
 2578SOL     OW 8632   5.306   1.148   5.207
 2578SOL    HW1 8633   5.393   1.173   5.163
 2578SOL    HW2 8634   5.260   1.077   5.154
 2579SOL     OW 8635   6.913   2.152   6.352
 2579SOL    HW1 8636   6.869   2.240   6.337
 2579SOL    HW2 8637   6.998   2.148   6.298
 2580SOL     OW 8638   1.567   2.306   5.410
 2580SOL    HW1 8639   1.599   2.310   5.316
 2580SOL    HW2 8640   1.509   2.385   5.429
 2581SOL     OW 8641   4.928   6.700   4.233
 2581SOL    HW1 8642   4.855   6.668   4.294
 2581SOL    HW2 8643   4.991   6.624   4.215
 2582SOL     OW 8644   6.811   4.610   2.533
 2582SOL    HW1 8645   6.898   4.571   2.503
 2582SOL    HW2 8646   6.811   4.709   2.519
 2583SOL     OW 8647   2.804   0.512   6.839
 2583SOL    HW1 8648   2.753   0.574   6.898
 2583SOL    HW2 8649   2.897   0.546   6.826
 2584SOL     OW 8650   3.409   0.577   3.838
 2584SOL    HW1 8651   3.410   0.646   3.911
 2584SOL    HW2 8652   3.444   0.491   3.874
 2585SOL     OW 8653   3.878   0.576   3.078
 2585SOL    HW1 8654   3.930   0.495   3.052
 2585SOL    HW2 8655   3.791   0.578   3.030
 2586SOL     OW 8656   1.992   1.894   4.606
 2586SOL    HW1 8657   2.064   1.832   4.575
 2586SOL    HW2 8658   1.948   1.937   4.527
 2587SOL     OW 8659   6.718   4.652   3.519
 2587SOL    HW1 8660   6.689   4.747   3.505
 2587SOL    HW2 8661   6.799   4.633   3.463
 2588SOL     OW 8662   3.042   0.296   2.305
 2588SOL    HW1 8663   3.039   0.353   2.387
 2588SOL    HW2 8664   3.124   0.238   2.309
 2589SOL     OW 8665   4.808   6.608   2.261
 2589SOL    HW1 8666   4.769   6.684   2.210
 2589SOL    HW2 8667   4.739   6.570   2.322
 2590SOL     OW 8668   4.305   6.300   3.743
 2590SOL    HW1 8669   4.250   6.248   3.678
 2590SOL    HW2 8670   4.389   6.331   3.699
 2591SOL     OW 8671   5.452   0.660   0.912
 2591SOL    HW1 8672   5.359   0.646   0.948
 2591SOL    HW2 8673   5.453   0.739   0.851
 2592SOL     OW 8674   2.761   5.721   2.113
 2592SOL    HW1 8675   2.756   5.760   2.205
 2592SOL    HW2 8676   2.712   5.634   2.110
 2593SOL     OW 8677   2.494   0.039   4.370
 2593SOL    HW1 8678   2.508   0.112   4.303
 2593SOL    HW2 8679   2.476   6.973   4.322
 2594SOL     OW 8680   1.614   5.637   6.555
 2594SOL    HW1 8681   1.643   5.547   6.523
 2594SOL    HW2 8682   1.695   5.696   6.566
 2595SOL     OW 8683   0.026   3.228   5.295
 2595SOL    HW1 8684   0.092   3.193   5.228
 2595SOL    HW2 8685   6.976   3.159   5.311
 2596SOL     OW 8686   4.503   1.280   0.668
 2596SOL    HW1 8687   4.459   1.251   0.583
 2596SOL    HW2 8688   4.518   1.379   0.665
 2597SOL     OW 8689   2.368   1.892   6.218
 2597SOL    HW1 8690   2.321   1.934   6.141
 2597SOL    HW2 8691   2.423   1.814   6.186
 2598SOL     OW 8692   6.611   1.256   3.203
 2598SOL    HW1 8693   6.553   1.276   3.123
 2598SOL    HW2 8694   6.594   1.162   3.233
 2599SOL     OW 8695   5.025   6.059   5.634
 2599SOL    HW1 8696   4.968   6.137   5.610
 2599SOL    HW2 8697   5.104   6.055   5.573
 2600SOL     OW 8698   6.842   3.284   4.959
 2600SOL    HW1 8699   6.822   3.199   5.008
 2600SOL    HW2 8700   6.780   3.293   4.881
 2601SOL     OW 8701   4.023   4.265   5.287
 2601SOL    HW1 8702   4.070   4.317   5.215
 2601SOL    HW2 8703   3.986   4.181   5.248
 2602SOL     OW 8704   6.400   0.166   0.306
 2602SOL    HW1 8705   6.397   0.104   0.228
 2602SOL    HW2 8706   6.362   0.120   0.386
 2603SOL     OW 8707   1.844   1.352   0.020
 2603SOL    HW1 8708   1.762   1.407   0.029
 2603SOL    HW2 8709   1.882   1.364   6.948
 2604SOL     OW 8710   5.850   1.689   0.621
 2604SOL    HW1 8711   5.806   1.660   0.706
 2604SOL    HW2 8712   5.921   1.623   0.596
 2605SOL     OW 8713   5.320   2.094   5.454
 2605SOL    HW1 8714   5.306   2.060   5.547
 2605SOL    HW2 8715   5.418   2.093   5.433
 2606SOL     OW 8716   6.189   4.332   1.181
 2606SOL    HW1 8717   6.207   4.429   1.198
 2606SOL    HW2 8718   6.274   4.281   1.191
 2607SOL     OW 8719   0.511   0.655   3.341
 2607SOL    HW1 8720   0.594   0.655   3.396
 2607SOL    HW2 8721   0.459   0.571   3.360
 2608SOL     OW 8722   4.538   1.051   0.058
 2608SOL    HW1 8723   4.612   1.036   0.124
 2608SOL    HW2 8724   4.458   0.997   0.084
 2609SOL     OW 8725   1.095   4.508   3.297
 2609SOL    HW1 8726   1.183   4.496   3.343
 2609SOL    HW2 8727   1.049   4.588   3.334
 2610SOL     OW 8728   5.759   4.933   4.935
 2610SOL    HW1 8729   5.748   4.963   4.840
 2610SOL    HW2 8730   5.744   4.834   4.940
 2611SOL     OW 8731   3.200   6.257   1.953
 2611SOL    HW1 8732   3.136   6.180   1.956
 2611SOL    HW2 8733   3.151   6.341   1.930
 2612SOL     OW 8734   0.517   6.803   4.094
 2612SOL    HW1 8735   0.473   6.724   4.135
 2612SOL    HW2 8736   0.527   6.789   3.995
 2613SOL     OW 8737   4.240   1.792   0.041
 2613SOL    HW1 8738   4.284   1.766   0.127
 2613SOL    HW2 8739   4.195   1.713   0.001
 2614SOL     OW 8740   6.456   6.672   6.749
 2614SOL    HW1 8741   6.380   6.712   6.698
 2614SOL    HW2 8742   6.427   6.584   6.787
 2615SOL     OW 8743   0.510   4.419   1.359
 2615SOL    HW1 8744   0.458   4.345   1.315
 2615SOL    HW2 8745   0.456   4.458   1.434
 2616SOL     OW 8746   3.788   3.686   1.655
 2616SOL    HW1 8747   3.730   3.720   1.729
 2616SOL    HW2 8748   3.830   3.763   1.608
 2617SOL     OW 8749   2.726   6.694   0.902
 2617SOL    HW1 8750   2.808   6.733   0.859
 2617SOL    HW2 8751   2.754   6.631   0.975
 2618SOL     OW 8752   1.441   5.667   0.366
 2618SOL    HW1 8753   1.388   5.750   0.348
 2618SOL    HW2 8754   1.379   5.592   0.386
 2619SOL     OW 8755   6.250   1.010   2.541
 2619SOL    HW1 8756   6.164   0.975   2.505
 2619SOL    HW2 8757   6.270   0.967   2.628
 2620SOL     OW 8758   1.898   6.018   3.825
 2620SOL    HW1 8759   1.862   5.925   3.822
 2620SOL    HW2 8760   1.822   6.083   3.822
 2621SOL     OW 8761   1.568   5.922   4.452
 2621SOL    HW1 8762   1.471   5.932   4.475
 2621SOL    HW2 8763   1.602   6.008   4.415
 2622SOL     OW 8764   2.233   2.823   3.983
 2622SOL    HW1 8765   2.288   2.758   3.931
 2622SOL    HW2 8766   2.258   2.818   4.080
 2623SOL     OW 8767   3.100   0.171   5.552
 2623SOL    HW1 8768   3.027   0.134   5.495
 2623SOL    HW2 8769   3.089   0.137   5.646
 2624SOL     OW 8770   4.443   2.001   4.411
 2624SOL    HW1 8771   4.542   1.991   4.412
 2624SOL    HW2 8772   4.415   2.070   4.477
 2625SOL     OW 8773   1.842   0.074   5.643
 2625SOL    HW1 8774   1.750   0.070   5.604
 2625SOL    HW2 8775   1.842   0.028   5.731
 2626SOL     OW 8776   2.888   6.974   3.512
 2626SOL    HW1 8777   2.810   7.006   3.567
 2626SOL    HW2 8778   2.965   0.015   3.525
 2627SOL     OW 8779   1.095   0.403   4.430
 2627SOL    HW1 8780   1.039   0.459   4.492
 2627SOL    HW2 8781   1.035   0.354   4.366
 2628SOL     OW 8782   4.735   4.980   6.941
 2628SOL    HW1 8783   4.692   4.899   6.980
 2628SOL    HW2 8784   4.830   4.959   6.917
 2629SOL     OW 8785   3.094   4.069   2.004
 2629SOL    HW1 8786   3.036   4.110   2.074
 2629SOL    HW2 8787   3.068   4.104   1.914
 2630SOL     OW 8788   3.719   1.728   2.389
 2630SOL    HW1 8789   3.727   1.635   2.422
 2630SOL    HW2 8790   3.649   1.776   2.442
 2631SOL     OW 8791   3.126   6.556   3.952
 2631SOL    HW1 8792   3.178   6.632   3.993
 2631SOL    HW2 8793   3.150   6.471   3.998
 2632SOL     OW 8794   5.120   1.008   0.714
 2632SOL    HW1 8795   5.089   0.974   0.625
 2632SOL    HW2 8796   5.048   1.065   0.755
 2633SOL     OW 8797   0.462   2.217   0.275
 2633SOL    HW1 8798   0.503   2.182   0.191
 2633SOL    HW2 8799   0.394   2.151   0.309
 2634SOL     OW 8800   2.838   5.299   0.326
 2634SOL    HW1 8801   2.915   5.270   0.384
 2634SOL    HW2 8802   2.806   5.221   0.272
 2635SOL     OW 8803   6.464   4.360   3.226
 2635SOL    HW1 8804   6.501   4.355   3.319
 2635SOL    HW2 8805   6.373   4.319   3.223
 2636SOL     OW 8806   5.493   5.249   5.595
 2636SOL    HW1 8807   5.441   5.180   5.646
 2636SOL    HW2 8808   5.530   5.208   5.512
 2637SOL     OW 8809   5.246   5.486   2.116
 2637SOL    HW1 8810   5.187   5.430   2.056
 2637SOL    HW2 8811   5.304   5.426   2.171
 2638SOL     OW 8812   4.811   5.778   0.415
 2638SOL    HW1 8813   4.860   5.832   0.483
 2638SOL    HW2 8814   4.875   5.737   0.351
 2639SOL     OW 8815   6.413   1.022   0.368
 2639SOL    HW1 8816   6.426   1.081   0.447
 2639SOL    HW2 8817   6.323   1.038   0.329
 2640SOL     OW 8818   6.698   6.224   0.937
 2640SOL    HW1 8819   6.660   6.132   0.941
 2640SOL    HW2 8820   6.626   6.290   0.957
 2641SOL     OW 8821   6.738   5.892   1.344
 2641SOL    HW1 8822   6.663   5.894   1.277
 2641SOL    HW2 8823   6.777   5.984   1.354
 2642SOL     OW 8824   6.786   0.052   4.072
 2642SOL    HW1 8825   6.803   6.974   4.063
 2642SOL    HW2 8826   6.862   0.094   4.122
 2643SOL     OW 8827   1.584   0.628   2.059
 2643SOL    HW1 8828   1.647   0.682   2.114
 2643SOL    HW2 8829   1.626   0.540   2.036
 2644SOL     OW 8830   5.787   6.478   4.809
 2644SOL    HW1 8831   5.864   6.422   4.779
 2644SOL    HW2 8832   5.762   6.542   4.737
 2645SOL     OW 8833   5.682   6.059   6.600
 2645SOL    HW1 8834   5.613   6.106   6.654
 2645SOL    HW2 8835   5.717   6.120   6.529
 2646SOL     OW 8836   5.726   5.374   5.968
 2646SOL    HW1 8837   5.807   5.412   5.923
 2646SOL    HW2 8838   5.718   5.277   5.944
 2647SOL     OW 8839   3.089   4.431   0.429
 2647SOL    HW1 8840   3.101   4.506   0.495
 2647SOL    HW2 8841   3.030   4.361   0.468
 2648SOL     OW 8842   4.564   1.242   3.612
 2648SOL    HW1 8843   4.661   1.245   3.633
 2648SOL    HW2 8844   4.551   1.227   3.514
 2649SOL     OW 8845   2.864   3.886   5.166
 2649SOL    HW1 8846   2.833   3.861   5.074
 2649SOL    HW2 8847   2.787   3.924   5.218
 2650SOL     OW 8848   0.141   6.906   2.200
 2650SOL    HW1 8849   0.237   6.897   2.228
 2650SOL    HW2 8850   0.091   6.958   2.270
 2651SOL     OW 8851   1.540   0.127   2.469
 2651SOL    HW1 8852   1.595   0.174   2.399
 2651SOL    HW2 8853   1.568   0.031   2.475
 2652SOL     OW 8854   3.385   2.132   1.494
 2652SOL    HW1 8855   3.333   2.215   1.514
 2652SOL    HW2 8856   3.483   2.152   1.502
 2653SOL     OW 8857   5.732   0.006   1.317
 2653SOL    HW1 8858   5.760   0.083   1.373
 2653SOL    HW2 8859   5.777   6.943   1.349
 2654SOL     OW 8860   0.207   3.390   5.660
 2654SOL    HW1 8861   0.244   3.332   5.733
 2654SOL    HW2 8862   0.254   3.369   5.574
 2655SOL     OW 8863   5.508   4.771   3.954
 2655SOL    HW1 8864   5.412   4.797   3.938
 2655SOL    HW2 8865   5.548   4.739   3.868
 2656SOL     OW 8866   5.987   3.634   5.236
 2656SOL    HW1 8867   5.940   3.688   5.306
 2656SOL    HW2 8868   6.080   3.671   5.223
 2657SOL     OW 8869   4.008   1.950   5.218
 2657SOL    HW1 8870   3.914   1.928   5.194
 2657SOL    HW2 8871   4.041   2.024   5.159
 2658SOL     OW 8872   0.102   4.184   5.531
 2658SOL    HW1 8873   0.137   4.166   5.623
 2658SOL    HW2 8874   0.069   4.099   5.491
 2659SOL     OW 8875   6.155   0.710   3.491
 2659SOL    HW1 8876   6.202   0.799   3.490
 2659SOL    HW2 8877   6.196   0.652   3.561
 2660SOL     OW 8878   0.928   1.658   3.779
 2660SOL    HW1 8879   0.892   1.568   3.756
 2660SOL    HW2 8880   1.025   1.662   3.757
 2661SOL     OW 8881   3.528   6.692   3.245
 2661SOL    HW1 8882   3.465   6.710   3.320
 2661SOL    HW2 8883   3.601   6.630   3.277
 2662SOL     OW 8884   3.998   1.285   4.342
 2662SOL    HW1 8885   3.990   1.214   4.273
 2662SOL    HW2 8886   4.065   1.354   4.312
 2663SOL     OW 8887   1.060   4.365   3.076
 2663SOL    HW1 8888   1.143   4.336   3.030
 2663SOL    HW2 8889   1.083   4.405   3.165
 2664SOL     OW 8890   4.790   4.241   1.872
 2664SOL    HW1 8891   4.699   4.233   1.912
 2664SOL    HW2 8892   4.858   4.236   1.945
 2665SOL     OW 8893   3.949   0.812   5.274
 2665SOL    HW1 8894   3.862   0.802   5.323
 2665SOL    HW2 8895   3.934   0.866   5.191
 2666SOL     OW 8896   4.973   6.110   1.876
 2666SOL    HW1 8897   4.961   6.200   1.835
 2666SOL    HW2 8898   4.894   6.088   1.933
 2667SOL     OW 8899   2.356   4.697   2.863
 2667SOL    HW1 8900   2.333   4.794   2.862
 2667SOL    HW2 8901   2.277   4.643   2.833
 2668SOL     OW 8902   0.387   2.806   5.262
 2668SOL    HW1 8903   0.461   2.822   5.197
 2668SOL    HW2 8904   0.425   2.771   5.348
 2669SOL     OW 8905   4.298   5.496   4.862
 2669SOL    HW1 8906   4.209   5.464   4.829
 2669SOL    HW2 8907   4.284   5.569   4.929
 2670SOL     OW 8908   2.124   6.798   4.445
 2670SOL    HW1 8909   2.124   6.858   4.365
 2670SOL    HW2 8910   2.055   6.726   4.432
 2671SOL     OW 8911   3.023   3.611   6.681
 2671SOL    HW1 8912   2.982   3.631   6.592
 2671SOL    HW2 8913   2.985   3.526   6.717
 2672SOL     OW 8914   1.133   4.625   0.677
 2672SOL    HW1 8915   1.187   4.563   0.733
 2672SOL    HW2 8916   1.103   4.703   0.733
 2673SOL     OW 8917   4.184   2.287   3.080
 2673SOL    HW1 8918   4.093   2.258   3.108
 2673SOL    HW2 8919   4.223   2.347   3.149
 2674SOL     OW 8920   4.854   5.938   5.210
 2674SOL    HW1 8921   4.863   5.843   5.241
 2674SOL    HW2 8922   4.774   5.946   5.151
 2675SOL     OW 8923   6.935   5.245   5.896
 2675SOL    HW1 8924   7.001   5.320   5.908
 2675SOL    HW2 8925   6.978   5.159   5.925
 2676SOL     OW 8926   4.665   6.970   1.755
 2676SOL    HW1 8927   4.676   0.020   1.826
 2676SOL    HW2 8928   4.629   7.012   1.672
 2677SOL     OW 8929   2.382   4.712   1.977
 2677SOL    HW1 8930   2.387   4.669   2.067
 2677SOL    HW2 8931   2.463   4.689   1.924
 2678SOL     OW 8932   0.890   6.430   0.039
 2678SOL    HW1 8933   0.907   6.392   6.969
 2678SOL    HW2 8934   0.945   6.513   0.051
 2679SOL     OW 8935   2.257   5.054   1.160
 2679SOL    HW1 8936   2.221   5.111   1.234
 2679SOL    HW2 8937   2.352   5.030   1.178
 2680SOL     OW 8938   6.519   2.348   0.851
 2680SOL    HW1 8939   6.606   2.319   0.809
 2680SOL    HW2 8940   6.537   2.422   0.915
 2681SOL     OW 8941   1.656   2.096   1.296
 2681SOL    HW1 8942   1.685   2.054   1.210
 2681SOL    HW2 8943   1.684   2.038   1.373
 2682SOL     OW 8944   0.723   2.995   3.485
 2682SOL    HW1 8945   0.697   3.042   3.401
 2682SOL    HW2 8946   0.643   2.950   3.525
 2683SOL     OW 8947   1.916   6.880   1.003
 2683SOL    HW1 8948   1.900   6.959   1.062
 2683SOL    HW2 8949   1.844   6.875   0.933
 2684SOL     OW 8950   3.350   4.934   3.133
 2684SOL    HW1 8951   3.297   4.974   3.057
 2684SOL    HW2 8952   3.445   4.922   3.104
 2685SOL     OW 8953   5.154   4.556   5.730
 2685SOL    HW1 8954   5.170   4.639   5.676
 2685SOL    HW2 8955   5.235   4.536   5.785
 2686SOL     OW 8956   1.745   3.738   4.422
 2686SOL    HW1 8957   1.745   3.831   4.459
 2686SOL    HW2 8958   1.690   3.679   4.482
 2687SOL     OW 8959   4.453   5.289   2.967
 2687SOL    HW1 8960   4.406   5.320   3.049
 2687SOL    HW2 8961   4.549   5.316   2.971
 2688SOL     OW 8962   3.298   4.382   5.404
 2688SOL    HW1 8963   3.236   4.336   5.341
 2688SOL    HW2 8964   3.370   4.428   5.353
 2689SOL     OW 8965   5.994   1.458   4.034
 2689SOL    HW1 8966   6.044   1.378   4.068
 2689SOL    HW2 8967   6.023   1.539   4.084
 2690SOL     OW 8968   3.248   4.121   3.842
 2690SOL    HW1 8969   3.236   4.056   3.767
 2690SOL    HW2 8970   3.161   4.168   3.858
 2691SOL     OW 8971   0.941   6.152   1.007
 2691SOL    HW1 8972   0.863   6.167   0.946
 2691SOL    HW2 8973   0.924   6.198   1.094
 2692SOL     OW 8974   0.235   4.144   4.108
 2692SOL    HW1 8975   0.176   4.080   4.059
 2692SOL    HW2 8976   0.289   4.197   4.042
 2693SOL     OW 8977   1.963   3.791   2.624
 2693SOL    HW1 8978   1.928   3.715   2.569
 2693SOL    HW2 8979   2.047   3.827   2.582
 2694SOL     OW 8980   1.793   1.626   2.713
 2694SOL    HW1 8981   1.781   1.549   2.776
 2694SOL    HW2 8982   1.787   1.593   2.618
 2695SOL     OW 8983   3.849   2.075   1.869
 2695SOL    HW1 8984   3.769   2.129   1.896
 2695SOL    HW2 8985   3.933   2.125   1.894
 2696SOL     OW 8986   2.871   3.234   6.318
 2696SOL    HW1 8987   2.884   3.319   6.266
 2696SOL    HW2 8988   2.879   3.156   6.256
 2697SOL     OW 8989   2.140   0.974   5.291
 2697SOL    HW1 8990   2.232   0.996   5.325
 2697SOL    HW2 8991   2.146   0.948   5.195
 2698SOL     OW 8992   1.659   1.577   0.073
 2698SOL    HW1 8993   1.708   1.662   0.057
 2698SOL    HW2 8994   1.607   1.552   7.012
 2699SOL     OW 8995   1.939   4.571   3.637
 2699SOL    HW1 8996   2.017   4.521   3.675
 2699SOL    HW2 8997   1.854   4.524   3.662
 2700SOL     OW 8998   2.112   4.669   3.042
 2700SOL    HW1 8999   2.076   4.756   3.077
 2700SOL    HW2 9000   2.199   4.648   3.088
 2701SOL     OW 9001   1.401   0.676   5.385
 2701SOL    HW1 9002   1.406   0.730   5.469
 2701SOL    HW2 9003   1.397   0.737   5.306
 2702SOL     OW 9004   5.794   5.825   2.405
 2702SOL    HW1 9005   5.719   5.888   2.386
 2702SOL    HW2 9006   5.756   5.736   2.434
 2703SOL     OW 9007   1.925   2.673   2.284
 2703SOL    HW1 9008   1.994   2.739   2.252
 2703SOL    HW2 9009   1.971   2.589   2.311
 2704SOL     OW 9010   0.579   6.464   0.293
 2704SOL    HW1 9011   0.652   6.400   0.269
 2704SOL    HW2 9012   0.501   6.414   0.329
 2705SOL     OW 9013   0.201   2.839   2.953
 2705SOL    HW1 9014   0.239   2.900   3.023
 2705SOL    HW2 9015   0.259   2.757   2.946
 2706SOL     OW 9016   6.436   2.529   3.584
 2706SOL    HW1 9017   6.417   2.613   3.534
 2706SOL    HW2 9018   6.473   2.460   3.521
 2707SOL     OW 9019   3.531   0.591   0.435
 2707SOL    HW1 9020   3.505   0.676   0.388
 2707SOL    HW2 9021   3.620   0.560   0.400
 2708SOL     OW 9022   1.346   4.794   6.701
 2708SOL    HW1 9023   1.296   4.862   6.756
 2708SOL    HW2 9024   1.443   4.802   6.720
 2709SOL     OW 9025   3.819   0.445   2.119
 2709SOL    HW1 9026   3.852   0.398   2.037
 2709SOL    HW2 9027   3.779   0.378   2.181
 2710SOL     OW 9028   6.088   3.750   3.094
 2710SOL    HW1 9029   6.106   3.818   3.165
 2710SOL    HW2 9030   6.038   3.793   3.019
 2711SOL     OW 9031   0.394   6.733   1.912
 2711SOL    HW1 9032   0.340   6.817   1.919
 2711SOL    HW2 9033   0.377   6.690   1.823
 2712SOL     OW 9034   3.550   5.650   3.068
 2712SOL    HW1 9035   3.495   5.602   3.137
 2712SOL    HW2 9036   3.637   5.602   3.056
 2713SOL     OW 9037   2.526   2.471   5.482
 2713SOL    HW1 9038   2.441   2.460   5.430
 2713SOL    HW2 9039   2.514   2.542   5.551
 2714SOL     OW 9040   5.678   0.660   6.663
 2714SOL    HW1 9041   5.738   0.582   6.681
 2714SOL    HW2 9042   5.612   0.634   6.592
 2715SOL     OW 9043   5.676   6.961   6.389
 2715SOL    HW1 9044   5.743   7.008   6.332
 2715SOL    HW2 9045   5.665   6.867   6.357
 2716SOL     OW 9046   6.165   6.485   1.921
 2716SOL    HW1 9047   6.115   6.571   1.908
 2716SOL    HW2 9048   6.260   6.498   1.896
 2717SOL     OW 9049   0.439   6.809   3.189
 2717SOL    HW1 9050   0.513   6.857   3.236
 2717SOL    HW2 9051   0.479   6.749   3.119
 2718SOL     OW 9052   6.696   3.791   2.967
 2718SOL    HW1 9053   6.753   3.711   2.950
 2718SOL    HW2 9054   6.654   3.784   3.057
 2719SOL     OW 9055   4.935   4.361   3.430
 2719SOL    HW1 9056   4.844   4.390   3.400
 2719SOL    HW2 9057   4.983   4.439   3.470
 2720SOL     OW 9058   0.082   6.687   3.901
 2720SOL    HW1 9059   0.097   6.589   3.909
 2720SOL    HW2 9060   0.171   6.734   3.903
 2721SOL     OW 9061   4.880   5.903   2.587
 2721SOL    HW1 9062   4.922   5.862   2.506
 2721SOL    HW2 9063   4.946   5.963   2.633
 2722SOL     OW 9064   0.485   6.127   2.539
 2722SOL    HW1 9065   0.439   6.063   2.601
 2722SOL    HW2 9066   0.559   6.080   2.491
 2723SOL     OW 9067   2.888   1.981   4.707
 2723SOL    HW1 9068   2.946   2.061   4.723
 2723SOL    HW2 9069   2.895   1.919   4.785
 2724SOL     OW 9070   4.851   5.862   5.474
 2724SOL    HW1 9071   4.934   5.834   5.522
 2724SOL    HW2 9072   4.873   5.931   5.405
 2725SOL     OW 9073   1.833   5.637   2.357
 2725SOL    HW1 9074   1.761   5.690   2.314
 2725SOL    HW2 9075   1.922   5.667   2.322
 2726SOL     OW 9076   4.416   5.974   2.773
 2726SOL    HW1 9077   4.392   5.877   2.765
 2726SOL    HW2 9078   4.514   5.985   2.759
 2727SOL     OW 9079   2.390   5.438   3.862
 2727SOL    HW1 9080   2.390   5.373   3.786
 2727SOL    HW2 9081   2.392   5.389   3.949
 2728SOL     OW 9082   2.033   6.676   4.866
 2728SOL    HW1 9083   2.094   6.605   4.901
 2728SOL    HW2 9084   1.941   6.663   4.904
 2729SOL     OW 9085   6.922   3.836   2.460
 2729SOL    HW1 9086   6.891   3.741   2.470
 2729SOL    HW2 9087   6.946   3.852   2.364
 2730SOL     OW 9088   1.464   3.048   1.737
 2730SOL    HW1 9089   1.435   2.984   1.666
 2730SOL    HW2 9090   1.546   3.011   1.783
 2731SOL     OW 9091   1.861   3.479   6.804
 2731SOL    HW1 9092   1.874   3.559   6.745
 2731SOL    HW2 9093   1.896   3.397   6.757
 2732SOL     OW 9094   5.760   3.447   4.676
 2732SOL    HW1 9095   5.714   3.403   4.754
 2732SOL    HW2 9096   5.692   3.468   4.606
 2733SOL     OW 9097   1.970   0.430   6.842
 2733SOL    HW1 9098   1.990   0.362   6.772
 2733SOL    HW2 9099   1.924   0.508   6.801
 2734SOL     OW 9100   2.289   0.212   4.202
 2734SOL    HW1 9101   2.323   0.237   4.292
 2734SOL    HW2 9102   2.243   0.290   4.160
 2735SOL     OW 9103   1.341   6.084   1.081
 2735SOL    HW1 9104   1.386   5.996   1.092
 2735SOL    HW2 9105   1.321   6.124   1.171
 2736SOL     OW 9106   4.549   0.712   6.811
 2736SOL    HW1 9107   4.597   0.626   6.831
 2736SOL    HW2 9108   4.599   0.788   6.854
 2737SOL     OW 9109   4.273   3.930   5.501
 2737SOL    HW1 9110   4.207   3.870   5.455
 2737SOL    HW2 9111   4.279   4.017   5.452
 2738SOL     OW 9112   0.358   3.782   5.354
 2738SOL    HW1 9113   0.296   3.738   5.290
 2738SOL    HW2 9114   0.316   3.865   5.391
 2739SOL     OW 9115   3.925   3.821   6.640
 2739SOL    HW1 9116   4.014   3.859   6.666
 2739SOL    HW2 9117   3.903   3.850   6.547
 2740SOL     OW 9118   6.399   3.024   4.627
 2740SOL    HW1 9119   6.495   3.050   4.632
 2740SOL    HW2 9120   6.361   3.017   4.719
 2741SOL     OW 9121   2.169   3.274   6.044
 2741SOL    HW1 9122   2.185   3.319   5.956
 2741SOL    HW2 9123   2.100   3.203   6.033
 2742SOL     OW 9124   2.403   6.033   5.201
 2742SOL    HW1 9125   2.318   6.037   5.253
 2742SOL    HW2 9126   2.402   5.953   5.141
 2743SOL     OW 9127   5.354   3.749   6.327
 2743SOL    HW1 9128   5.398   3.659   6.327
 2743SOL    HW2 9129   5.354   3.786   6.420
 2744SOL     OW 9130   5.055   6.660   1.491
 2744SOL    HW1 9131   5.092   6.574   1.455
 2744SOL    HW2 9132   5.048   6.726   1.416
 2745SOL     OW 9133   3.307   5.560   3.189
 2745SOL    HW1 9134   3.280   5.556   3.285
 2745SOL    HW2 9135   3.226   5.553   3.131
 2746SOL     OW 9136   1.077   2.472   6.906
 2746SOL    HW1 9137   1.104   2.398   6.844
 2746SOL    HW2 9138   1.123   2.460   6.994
 2747SOL     OW 9139   4.811   6.524   3.480
 2747SOL    HW1 9140   4.850   6.481   3.561
 2747SOL    HW2 9141   4.739   6.465   3.443
 2748SOL     OW 9142   5.317   1.094   4.736
 2748SOL    HW1 9143   5.272   1.006   4.721
 2748SOL    HW2 9144   5.249   1.167   4.731
 2749SOL     OW 9145   5.713   5.063   2.764
 2749SOL    HW1 9146   5.692   4.992   2.830
 2749SOL    HW2 9147   5.776   5.028   2.694
 2750SOL     OW 9148   0.800   0.341   0.516
 2750SOL    HW1 9149   0.860   0.388   0.452
 2750SOL    HW2 9150   0.784   0.398   0.596
 2751SOL     OW 9151   1.286   6.959   0.144
 2751SOL    HW1 9152   1.385   6.962   0.128
 2751SOL    HW2 9153   1.259   6.866   0.169
 2752SOL     OW 9154   0.154   6.859   6.576
 2752SOL    HW1 9155   0.070   6.807   6.559
 2752SOL    HW2 9156   0.233   6.807   6.546
 2753SOL     OW 9157   3.365   5.577   4.349
 2753SOL    HW1 9158   3.405   5.647   4.290
 2753SOL    HW2 9159   3.421   5.495   4.347
 2754SOL     OW 9160   1.240   5.045   4.045
 2754SOL    HW1 9161   1.191   5.040   4.132
 2754SOL    HW2 9162   1.294   5.129   4.042
 2755SOL     OW 9163   4.422   6.685   2.780
 2755SOL    HW1 9164   4.506   6.734   2.756
 2755SOL    HW2 9165   4.418   6.599   2.729
 2756SOL     OW 9166   0.084   3.030   4.612
 2756SOL    HW1 9167   0.091   3.076   4.523
 2756SOL    HW2 9168   0.175   3.010   4.647
 2757SOL     OW 9169   5.229   3.907   5.712
 2757SOL    HW1 9170   5.139   3.917   5.672
 2757SOL    HW2 9171   5.287   3.983   5.685
 2758SOL     OW 9172   6.867   6.941   1.405
 2758SOL    HW1 9173   6.885   6.963   1.501
 2758SOL    HW2 9174   6.830   6.848   1.399
 2759SOL     OW 9175   4.018   3.843   4.265
 2759SOL    HW1 9176   4.001   3.889   4.352
 2759SOL    HW2 9177   4.018   3.744   4.279
 2760SOL     OW 9178   4.822   5.617   2.947
 2760SOL    HW1 9179   4.898   5.681   2.952
 2760SOL    HW2 9180   4.751   5.643   3.012
 2761SOL     OW 9181   2.171   3.364   3.885
 2761SOL    HW1 9182   2.170   3.265   3.897
 2761SOL    HW2 9183   2.207   3.386   3.794
 2762SOL     OW 9184   4.432   2.059   2.707
 2762SOL    HW1 9185   4.383   2.022   2.628
 2762SOL    HW2 9186   4.375   2.126   2.753
 2763SOL     OW 9187   5.499   0.694   3.458
 2763SOL    HW1 9188   5.568   0.704   3.386
 2763SOL    HW2 9189   5.538   0.723   3.545
 2764SOL     OW 9190   0.024   1.972   2.834
 2764SOL    HW1 9191   6.990   2.036   2.780
 2764SOL    HW2 9192   0.105   2.018   2.869
 2765SOL     OW 9193   6.515   6.969   6.653
 2765SOL    HW1 9194   6.600   6.984   6.603
 2765SOL    HW2 9195   6.529   6.899   6.723
 2766SOL     OW 9196   5.390   0.299   0.047
 2766SOL    HW1 9197   5.299   0.324   0.079
 2766SOL    HW2 9198   5.385   0.213   7.016
 2767SOL     OW 9199   0.283   6.274   6.375
 2767SOL    HW1 9200   0.367   6.231   6.409
 2767SOL    HW2 9201   0.276   6.367   6.409
 2768SOL     OW 9202   4.064   0.242   1.198
 2768SOL    HW1 9203   4.103   0.308   1.263
 2768SOL    HW2 9204   4.064   0.282   1.106
 2769SOL     OW 9205   0.866   5.494   6.002
 2769SOL    HW1 9206   0.918   5.421   5.957
 2769SOL    HW2 9207   0.834   5.462   6.091
 2770SOL     OW 9208   2.312   6.854   0.296
 2770SOL    HW1 9209   2.307   6.951   0.321
 2770SOL    HW2 9210   2.365   6.844   0.211
 2771SOL     OW 9211   4.062   6.145   5.211
 2771SOL    HW1 9212   4.037   6.180   5.301
 2771SOL    HW2 9213   3.989   6.087   5.177
 2772SOL     OW 9214   6.126   1.796   3.027
 2772SOL    HW1 9215   6.166   1.848   2.952
 2772SOL    HW2 9216   6.186   1.719   3.049
 2773SOL     OW 9217   4.591   1.238   5.985
 2773SOL    HW1 9218   4.569   1.194   6.072
 2773SOL    HW2 9219   4.525   1.310   5.966
 2774SOL     OW 9220   6.215   6.546   3.781
 2774SOL    HW1 9221   6.212   6.640   3.814
 2774SOL    HW2 9222   6.125   6.521   3.745
 2775SOL     OW 9223   6.935   2.859   4.738
 2775SOL    HW1 9224   6.984   2.925   4.681
 2775SOL    HW2 9225   6.836   2.869   4.724
 2776SOL     OW 9226   4.822   3.950   5.830
 2776SOL    HW1 9227   4.804   4.018   5.902
 2776SOL    HW2 9228   4.834   3.860   5.872
 2777SOL     OW 9229   1.545   1.724   0.707
 2777SOL    HW1 9230   1.583   1.816   0.714
 2777SOL    HW2 9231   1.449   1.729   0.679
 2778SOL     OW 9232   2.515   6.159   5.574
 2778SOL    HW1 9233   2.447   6.170   5.646
 2778SOL    HW2 9234   2.548   6.065   5.573
 2779SOL     OW 9235   5.272   1.572   3.785
 2779SOL    HW1 9236   5.367   1.542   3.797
 2779SOL    HW2 9237   5.214   1.526   3.852
 2780SOL     OW 9238   0.410   6.981   5.289
 2780SOL    HW1 9239   0.479   6.984   5.361
 2780SOL    HW2 9240   0.415   0.045   5.235
 2781SOL     OW 9241   6.884   6.898   2.445
 2781SOL    HW1 9242   6.871   6.988   2.485
 2781SOL    HW2 9243   6.806   6.874   2.387
 2782SOL     OW 9244   5.665   6.457   5.063
 2782SOL    HW1 9245   5.591   6.524   5.065
 2782SOL    HW2 9246   5.706   6.456   4.972
 2783SOL     OW 9247   0.316   2.054   1.891
 2783SOL    HW1 9248   0.297   2.027   1.986
 2783SOL    HW2 9249   0.289   2.149   1.877
 2784SOL     OW 9250   1.234   2.081   2.166
 2784SOL    HW1 9251   1.301   2.132   2.219
 2784SOL    HW2 9252   1.281   2.019   2.103
 2785SOL     OW 9253   5.590   3.021   3.810
 2785SOL    HW1 9254   5.558   3.116   3.817
 2785SOL    HW2 9255   5.667   3.008   3.872
 2786SOL     OW 9256   0.463   5.974   1.467
 2786SOL    HW1 9257   0.480   6.070   1.493
 2786SOL    HW2 9258   0.372   5.967   1.425
 2787SOL     OW 9259   0.081   6.580   6.305
 2787SOL    HW1 9260   0.065   6.524   6.224
 2787SOL    HW2 9261   0.029   6.665   6.298
 2788SOL     OW 9262   2.998   6.676   6.686
 2788SOL    HW1 9263   3.010   6.645   6.592
 2788SOL    HW2 9264   2.959   6.768   6.687
 2789SOL     OW 9265   2.313   2.017   4.070
 2789SOL    HW1 9266   2.227   2.066   4.082
 2789SOL    HW2 9267   2.372   2.033   4.149
 2790SOL     OW 9268   1.068   4.533   0.974
 2790SOL    HW1 9269   1.021   4.479   0.905
 2790SOL    HW2 9270   1.001   4.585   1.027
 2791SOL     OW 9271   0.791   3.621   5.477
 2791SOL    HW1 9272   0.728   3.577   5.541
 2791SOL    HW2 9273   0.805   3.716   5.503
 2792SOL     OW 9274   3.041   2.421   6.946
 2792SOL    HW1 9275   3.135   2.409   6.978
 2792SOL    HW2 9276   3.004   2.506   6.981
 2793SOL     OW 9277   4.161   3.721   6.122
 2793SOL    HW1 9278   4.115   3.686   6.203
 2793SOL    HW2 9279   4.202   3.810   6.142
 2794SOL     OW 9280   1.642   2.052   6.954
 2794SOL    HW1 9281   1.692   1.986   7.010
 2794SOL    HW2 9282   1.661   2.034   6.858
 2795SOL     OW 9283   0.997   0.196   0.359
 2795SOL    HW1 9284   0.922   0.132   0.340
 2795SOL    HW2 9285   1.002   0.213   0.457
 2796SOL     OW 9286   3.135   6.004   6.756
 2796SOL    HW1 9287   3.153   5.956   6.670
 2796SOL    HW2 9288   3.086   6.089   6.737
 2797SOL     OW 9289   4.775   3.901   5.176
 2797SOL    HW1 9290   4.737   3.818   5.216
 2797SOL    HW2 9291   4.739   3.981   5.225
 2798SOL     OW 9292   5.664   1.828   2.103
 2798SOL    HW1 9293   5.655   1.892   2.026
 2798SOL    HW2 9294   5.603   1.855   2.177
 2799SOL     OW 9295   3.653   0.320   4.191
 2799SOL    HW1 9296   3.603   0.385   4.248
 2799SOL    HW2 9297   3.726   0.368   4.142
 2800SOL     OW 9298   4.695   1.512   0.369
 2800SOL    HW1 9299   4.680   1.424   0.325
 2800SOL    HW2 9300   4.793   1.531   0.375
 2801SOL     OW 9301   0.514   4.619   3.175
 2801SOL    HW1 9302   0.436   4.596   3.233
 2801SOL    HW2 9303   0.531   4.545   3.110
 2802SOL     OW 9304   2.265   4.463   4.340
 2802SOL    HW1 9305   2.214   4.534   4.390
 2802SOL    HW2 9306   2.346   4.504   4.298
 2803SOL     OW 9307   2.947   2.666   0.017
 2803SOL    HW1 9308   2.923   2.715   6.953
 2803SOL    HW2 9309   3.034   2.698   0.052
 2804SOL     OW 9310   5.555   2.632   3.466
 2804SOL    HW1 9311   5.601   2.619   3.378
 2804SOL    HW2 9312   5.520   2.725   3.472
 2805SOL     OW 9313   3.553   5.425   0.455
 2805SOL    HW1 9314   3.614   5.347   0.470
 2805SOL    HW2 9315   3.460   5.393   0.440
 2806SOL     OW 9316   1.549   3.218   4.703
 2806SOL    HW1 9317   1.541   3.218   4.604
 2806SOL    HW2 9318   1.586   3.130   4.734
 2807SOL     OW 9319   5.034   1.435   4.188
 2807SOL    HW1 9320   4.965   1.507   4.198
 2807SOL    HW2 9321   4.995   1.348   4.216
 2808SOL     OW 9322   0.645   6.508   6.978
 2808SOL    HW1 9323   0.738   6.488   7.010
 2808SOL    HW2 9324   0.642   6.499   6.878
 2809SOL     OW 9325   0.678   6.185   0.848
 2809SOL    HW1 9326   0.579   6.187   0.857
 2809SOL    HW2 9327   0.705   6.243   0.770
 2810SOL     OW 9328   6.954   6.510   1.992
 2810SOL    HW1 9329   7.016   6.433   2.004
 2810SOL    HW2 9330   6.980   6.584   2.054
 2811SOL     OW 9331   0.736   6.976   0.549
 2811SOL    HW1 9332   0.789   6.970   0.464
 2811SOL    HW2 9333   0.640   6.959   0.530
 2812SOL     OW 9334   2.279   0.783   0.794
 2812SOL    HW1 9335   2.374   0.757   0.782
 2812SOL    HW2 9336   2.221   0.702   0.783
 2813SOL     OW 9337   5.849   2.022   1.919
 2813SOL    HW1 9338   5.873   2.113   1.886
 2813SOL    HW2 9339   5.798   1.973   1.848
 2814SOL     OW 9340   2.042   4.121   6.558
 2814SOL    HW1 9341   2.009   4.154   6.647
 2814SOL    HW2 9342   2.128   4.165   6.535
 2815SOL     OW 9343   6.380   6.464   4.807
 2815SOL    HW1 9344   6.455   6.501   4.861
 2815SOL    HW2 9345   6.336   6.390   4.857
 2816SOL     OW 9346   0.937   5.452   5.191
 2816SOL    HW1 9347   0.910   5.374   5.135
 2816SOL    HW2 9348   1.004   5.507   5.141
 2817SOL     OW 9349   3.137   0.951   1.162
 2817SOL    HW1 9350   3.132   0.968   1.064
 2817SOL    HW2 9351   3.177   0.860   1.178
 2818SOL     OW 9352   2.174   0.249   0.634
 2818SOL    HW1 9353   2.075   0.262   0.641
 2818SOL    HW2 9354   2.215   0.325   0.585
 2819SOL     OW 9355   6.052   0.591   6.834
 2819SOL    HW1 9356   5.965   0.554   6.867
 2819SOL    HW2 9357   6.096   0.642   6.908
 2820SOL     OW 9358   1.828   1.948   0.243
 2820SOL    HW1 9359   1.737   1.978   0.271
 2820SOL    HW2 9360   1.875   1.908   0.321
 2821SOL     OW 9361   3.667   2.798   6.250
 2821SOL    HW1 9362   3.731   2.721   6.250
 2821SOL    HW2 9363   3.612   2.796   6.334
 2822SOL     OW 9364   4.194   3.914   1.420
 2822SOL    HW1 9365   4.238   3.879   1.503
 2822SOL    HW2 9366   4.248   3.885   1.340
 2823SOL     OW 9367   5.185   4.230   3.719
 2823SOL    HW1 9368   5.216   4.225   3.624
 2823SOL    HW2 9369   5.092   4.265   3.722
 2824SOL     OW 9370   0.551   4.107   5.587
 2824SOL    HW1 9371   0.604   4.032   5.629
 2824SOL    HW2 9372   0.506   4.159   5.659
 2825SOL     OW 9373   4.819   2.448   5.710
 2825SOL    HW1 9374   4.761   2.513   5.661
 2825SOL    HW2 9375   4.879   2.497   5.773
 2826SOL     OW 9376   3.011   2.393   6.441
 2826SOL    HW1 9377   3.014   2.451   6.360
 2826SOL    HW2 9378   3.079   2.424   6.508
 2827SOL     OW 9379   0.277   2.051   0.415
 2827SOL    HW1 9380   0.325   2.098   0.490
 2827SOL    HW2 9381   0.317   1.961   0.400
 2828SOL     OW 9382   2.054   3.486   7.007
 2828SOL    HW1 9383   2.117   3.409   7.012
 2828SOL    HW2 9384   1.995   3.475   6.927
 2829SOL     OW 9385   3.436   4.188   1.033
 2829SOL    HW1 9386   3.525   4.233   1.032
 2829SOL    HW2 9387   3.405   4.173   0.939
 2830SOL     OW 9388   2.667   5.199   4.678
 2830SOL    HW1 9389   2.619   5.118   4.711
 2830SOL    HW2 9390   2.601   5.272   4.659
 2831SOL     OW 9391   5.554   1.667   1.756
 2831SOL    HW1 9392   5.563   1.661   1.856
 2831SOL    HW2 9393   5.488   1.599   1.724
 2832SOL     OW 9394   1.326   3.495   1.476
 2832SOL    HW1 9395   1.264   3.568   1.450
 2832SOL    HW2 9396   1.276   3.426   1.530
 2833SOL     OW 9397   6.482   2.032   3.098
 2833SOL    HW1 9398   6.574   1.996   3.080
 2833SOL    HW2 9399   6.447   1.990   3.182
 2834SOL     OW 9400   2.742   0.161   4.167
 2834SOL    HW1 9401   2.799   0.113   4.233
 2834SOL    HW2 9402   2.741   0.259   4.188
 2835SOL     OW 9403   6.102   1.973   0.500
 2835SOL    HW1 9404   6.163   2.052   0.489
 2835SOL    HW2 9405   6.154   1.888   0.488
 2836SOL     OW 9406   3.154   6.470   2.338
 2836SOL    HW1 9407   3.070   6.427   2.307
 2836SOL    HW2 9408   3.211   6.494   2.259
 2837SOL     OW 9409   5.262   4.239   3.460
 2837SOL    HW1 9410   5.280   4.193   3.373
 2837SOL    HW2 9411   5.256   4.337   3.445
 2838SOL     OW 9412   6.770   4.534   6.088
 2838SOL    HW1 9413   6.693   4.553   6.150
 2838SOL    HW2 9414   6.778   4.436   6.075
 2839SOL     OW 9415   5.506   2.683   6.609
 2839SOL    HW1 9416   5.463   2.595   6.626
 2839SOL    HW2 9417   5.505   2.738   6.693
 2840SOL     OW 9418   6.397   5.424   5.213
 2840SOL    HW1 9419   6.363   5.500   5.157
 2840SOL    HW2 9420   6.417   5.458   5.305
 2841SOL     OW 9421   5.526   3.541   2.977
 2841SOL    HW1 9422   5.618   3.571   3.002
 2841SOL    HW2 9423   5.476   3.515   3.059
 2842SOL     OW 9424   1.065   6.103   3.872
 2842SOL    HW1 9425   1.160   6.074   3.887
 2842SOL    HW2 9426   1.051   6.194   3.911
 2843SOL     OW 9427   1.002   2.838   4.056
 2843SOL    HW1 9428   1.057   2.859   4.137
 2843SOL    HW2 9429   1.042   2.884   3.976
 2844SOL     OW 9430   5.609   4.294   0.235
 2844SOL    HW1 9431   5.619   4.245   0.322
 2844SOL    HW2 9432   5.684   4.269   0.174
 2845SOL     OW 9433   3.420   1.827   1.176
 2845SOL    HW1 9434   3.394   1.899   1.112
 2845SOL    HW2 9435   3.338   1.777   1.205
 2846SOL     OW 9436   5.768   0.768   5.951
 2846SOL    HW1 9437   5.826   0.781   5.871
 2846SOL    HW2 9438   5.693   0.705   5.929
 2847SOL     OW 9439   6.074   4.669   2.854
 2847SOL    HW1 9440   6.011   4.716   2.792
 2847SOL    HW2 9441   6.160   4.651   2.807
 2848SOL     OW 9442   6.831   4.134   0.376
 2848SOL    HW1 9443   6.733   4.132   0.358
 2848SOL    HW2 9444   6.881   4.101   0.296
 2849SOL     OW 9445   5.368   0.856   0.725
 2849SOL    HW1 9446   5.299   0.812   0.669
 2849SOL    HW2 9447   5.327   0.930   0.778
 2850SOL     OW 9448   6.992   1.167   1.041
 2850SOL    HW1 9449   6.909   1.209   1.002
 2850SOL    HW2 9450   0.044   1.236   1.047
 2851SOL     OW 9451   3.322   2.869   2.167
 2851SOL    HW1 9452   3.244   2.875   2.230
 2851SOL    HW2 9453   3.400   2.829   2.216
 2852SOL     OW 9454   1.537   4.714   4.934
 2852SOL    HW1 9455   1.605   4.772   4.978
 2852SOL    HW2 9456   1.561   4.618   4.949
 2853SOL     OW 9457   6.674   5.299   5.267
 2853SOL    HW1 9458   6.603   5.351   5.221
 2853SOL    HW2 9459   6.635   5.254   5.348
 2854SOL     OW 9460   3.334   0.760   6.965
 2854SOL    HW1 9461   3.298   0.742   6.873
 2854SOL    HW2 9462   3.366   0.675   7.006
 2855SOL     OW 9463   2.630   2.320   4.167
 2855SOL    HW1 9464   2.660   2.330   4.072
 2855SOL    HW2 9465   2.533   2.343   4.173
 2856SOL     OW 9466   1.458   5.197   4.984
 2856SOL    HW1 9467   1.471   5.255   4.903
 2856SOL    HW2 9468   1.379   5.138   4.969
 2857SOL     OW 9469   0.885   4.321   0.091
 2857SOL    HW1 9470   0.855   4.230   0.063
 2857SOL    HW2 9471   0.881   4.328   0.191
 2858SOL     OW 9472   5.353   4.656   4.194
 2858SOL    HW1 9473   5.380   4.583   4.256
 2858SOL    HW2 9474   5.399   4.741   4.220
 2859SOL     OW 9475   0.387   5.079   2.007
 2859SOL    HW1 9476   0.344   5.100   2.095
 2859SOL    HW2 9477   0.487   5.081   2.018
 2860SOL     OW 9478   1.350   6.360   2.331
 2860SOL    HW1 9479   1.262   6.320   2.306
 2860SOL    HW2 9480   1.335   6.435   2.395
 2861SOL     OW 9481   6.012   3.085   5.192
 2861SOL    HW1 9482   5.922   3.041   5.186
 2861SOL    HW2 9483   6.002   3.176   5.231
 2862SOL     OW 9484   4.190   1.059   1.020
 2862SOL    HW1 9485   4.104   1.009   1.011
 2862SOL    HW2 9486   4.220   1.091   0.931
 2863SOL     OW 9487   5.528   1.571   6.242
 2863SOL    HW1 9488   5.484   1.660   6.240
 2863SOL    HW2 9489   5.477   1.507   6.184
 2864SOL     OW 9490   4.737   4.509   0.330
 2864SOL    HW1 9491   4.763   4.552   0.417
 2864SOL    HW2 9492   4.776   4.418   0.324
 2865SOL     OW 9493   5.334   4.293   6.512
 2865SOL    HW1 9494   5.347   4.370   6.449
 2865SOL    HW2 9495   5.352   4.324   6.605
 2866SOL     OW 9496   5.014   6.456   0.594
 2866SOL    HW1 9497   4.928   6.459   0.644
 2866SOL    HW2 9498   5.044   6.361   0.584
 2867SOL     OW 9499   0.303   6.165   3.368
 2867SOL    HW1 9500   0.402   6.176   3.374
 2867SOL    HW2 9501   0.279   6.136   3.275
 2868SOL     OW 9502   6.723   6.785   5.170
 2868SOL    HW1 9503   6.669   6.735   5.237
 2868SOL    HW2 9504   6.749   6.874   5.207
 2869SOL     OW 9505   6.058   4.678   4.989
 2869SOL    HW1 9506   6.026   4.759   4.939
 2869SOL    HW2 9507   6.007   4.598   4.958
 2870SOL     OW 9508   0.595   1.370   1.393
 2870SOL    HW1 9509   0.545   1.340   1.312
 2870SOL    HW2 9510   0.535   1.427   1.450
 2871SOL     OW 9511   4.580   1.490   3.389
 2871SOL    HW1 9512   4.569   1.453   3.297
 2871SOL    HW2 9513   4.676   1.513   3.404
 2872SOL     OW 9514   3.290   1.521   2.570
 2872SOL    HW1 9515   3.206   1.468   2.582
 2872SOL    HW2 9516   3.273   1.594   2.503
 2873SOL     OW 9517   0.175   0.550   2.374
 2873SOL    HW1 9518   0.211   0.461   2.399
 2873SOL    HW2 9519   0.216   0.579   2.287
 2874SOL     OW 9520   1.223   0.991   1.719
 2874SOL    HW1 9521   1.129   0.965   1.742
 2874SOL    HW2 9522   1.232   1.090   1.719
 2875SOL     OW 9523   3.278   1.270   2.341
 2875SOL    HW1 9524   3.254   1.265   2.244
 2875SOL    HW2 9525   3.204   1.231   2.396
 2876SOL     OW 9526   0.914   6.975   0.757
 2876SOL    HW1 9527   0.858   6.987   0.675
 2876SOL    HW2 9528   0.927   0.044   0.801
 2877SOL     OW 9529   1.115   3.362   6.330
 2877SOL    HW1 9530   1.024   3.324   6.345
 2877SOL    HW2 9531   1.135   3.365   6.232
 2878SOL     OW 9532   4.051   3.454   4.402
 2878SOL    HW1 9533   4.067   3.358   4.425
 2878SOL    HW2 9534   4.065   3.510   4.483
 2879SOL     OW 9535   6.559   6.560   0.382
 2879SOL    HW1 9536   6.650   6.545   0.420
 2879SOL    HW2 9537   6.542   6.494   0.309
 2880SOL     OW 9538   1.571   1.309   2.599
 2880SOL    HW1 9539   1.477   1.302   2.566
 2880SOL    HW2 9540   1.609   1.217   2.614
 2881SOL     OW 9541   5.060   5.847   6.813
 2881SOL    HW1 9542   5.100   5.768   6.860
 2881SOL    HW2 9543   4.973   5.820   6.771
 2882SOL     OW 9544   4.305   6.598   0.574
 2882SOL    HW1 9545   4.298   6.527   0.644
 2882SOL    HW2 9546   4.234   6.584   0.505
 2883SOL     OW 9547   5.311   6.036   2.840
 2883SOL    HW1 9548   5.372   6.115   2.842
 2883SOL    HW2 9549   5.364   5.953   2.855
 2884SOL     OW 9550   5.974   5.289   3.522
 2884SOL    HW1 9551   6.008   5.218   3.583
 2884SOL    HW2 9552   6.000   5.379   3.557
 2885SOL     OW 9553   0.680   4.382   3.588
 2885SOL    HW1 9554   0.709   4.435   3.508
 2885SOL    HW2 9555   0.583   4.396   3.603
 2886SOL     OW 9556   1.899   4.421   5.143
 2886SOL    HW1 9557   1.979   4.419   5.202
 2886SOL    HW2 9558   1.922   4.383   5.053
 2887SOL     OW 9559   0.401   4.878   2.500
 2887SOL    HW1 9560   0.451   4.866   2.414
 2887SOL    HW2 9561   0.309   4.912   2.480
 2888SOL     OW 9562   4.571   5.809   6.710
 2888SOL    HW1 9563   4.540   5.715   6.707
 2888SOL    HW2 9564   4.539   5.858   6.629
 2889SOL     OW 9565   4.123   5.205   4.003
 2889SOL    HW1 9566   4.072   5.244   3.926
 2889SOL    HW2 9567   4.214   5.176   3.972
 2890SOL     OW 9568   1.367   1.321   0.650
 2890SOL    HW1 9569   1.314   1.378   0.586
 2890SOL    HW2 9570   1.308   1.292   0.725
 2891SOL     OW 9571   1.117   1.799   5.219
 2891SOL    HW1 9572   1.183   1.808   5.294
 2891SOL    HW2 9573   1.151   1.735   5.151
 2892SOL     OW 9574   5.961   4.445   2.633
 2892SOL    HW1 9575   5.941   4.391   2.551
 2892SOL    HW2 9576   6.059   4.460   2.640
 2893SOL     OW 9577   6.588   6.211   4.926
 2893SOL    HW1 9578   6.490   6.192   4.926
 2893SOL    HW2 9579   6.633   6.160   5.000
 2894SOL     OW 9580   1.818   5.600   1.451
 2894SOL    HW1 9581   1.736   5.607   1.508
 2894SOL    HW2 9582   1.827   5.506   1.416
 2895SOL     OW 9583   4.942   6.577   6.186
 2895SOL    HW1 9584   4.857   6.554   6.234
 2895SOL    HW2 9585   4.920   6.603   6.092
 2896SOL     OW 9586   6.489   0.317   6.557
 2896SOL    HW1 9587   6.433   0.244   6.595
 2896SOL    HW2 9588   6.586   0.294   6.567
 2897SOL     OW 9589   2.783   6.067   3.913
 2897SOL    HW1 9590   2.738   6.157   3.903
 2897SOL    HW2 9591   2.836   6.066   3.998
 2898SOL     OW 9592   5.238   2.701   2.703
 2898SOL    HW1 9593   5.260   2.624   2.643
 2898SOL    HW2 9594   5.274   2.785   2.664
 2899SOL     OW 9595   6.272   3.025   1.292
 2899SOL    HW1 9596   6.266   2.973   1.376
 2899SOL    HW2 9597   6.189   3.079   1.280
 2900SOL     OW 9598   3.264   2.915   4.916
 2900SOL    HW1 9599   3.189   2.853   4.894
 2900SOL    HW2 9600   3.288   2.969   4.836
 2901SOL     OW 9601   1.347   2.587   1.778
 2901SOL    HW1 9602   1.434   2.569   1.825
 2901SOL    HW2 9603   1.360   2.653   1.705
 2902SOL     OW 9604   5.347   6.364   3.423
 2902SOL    HW1 9605   5.250   6.390   3.422
 2902SOL    HW2 9606   5.356   6.271   3.387
 2903SOL     OW 9607   0.813   5.268   2.008
 2903SOL    HW1 9608   0.893   5.328   2.002
 2903SOL    HW2 9609   0.756   5.297   2.085
 2904SOL     OW 9610   3.446   4.912   4.157
 2904SOL    HW1 9611   3.353   4.875   4.151
 2904SOL    HW2 9612   3.471   4.955   4.071
 2905SOL     OW 9613   2.053   4.211   1.483
 2905SOL    HW1 9614   2.012   4.295   1.449
 2905SOL    HW2 9615   1.994   4.171   1.553
 2906SOL     OW 9616   6.300   6.580   6.489
 2906SOL    HW1 9617   6.369   6.510   6.469
 2906SOL    HW2 9618   6.212   6.535   6.504
 2907SOL     OW 9619   0.168   1.300   6.473
 2907SOL    HW1 9620   0.142   1.267   6.383
 2907SOL    HW2 9621   0.267   1.294   6.484
 2908SOL     OW 9622   4.052   5.856   3.665
 2908SOL    HW1 9623   4.136   5.816   3.703
 2908SOL    HW2 9624   4.030   5.940   3.714
 2909SOL     OW 9625   6.817   6.303   0.644
 2909SOL    HW1 9626   6.902   6.251   0.655
 2909SOL    HW2 9627   6.754   6.280   0.718
 2910SOL     OW 9628   1.337   0.307   4.109
 2910SOL    HW1 9629   1.313   0.276   4.017
 2910SOL    HW2 9630   1.340   0.228   4.171
 2911SOL     OW 9631   6.649   3.464   3.532
 2911SOL    HW1 9632   6.685   3.382   3.575
 2911SOL    HW2 9633   6.697   3.480   3.446
 2912SOL     OW 9634   0.299   1.487   3.307
 2912SOL    HW1 9635   0.215   1.465   3.356
 2912SOL    HW2 9636   0.283   1.486   3.209
 2913SOL     OW 9637   0.736   6.937   4.198
 2913SOL    HW1 9638   0.816   6.887   4.165
 2913SOL    HW2 9639   0.653   6.884   4.180
 2914SOL     OW 9640   3.863   4.502   0.882
 2914SOL    HW1 9641   3.860   4.404   0.898
 2914SOL    HW2 9642   3.893   4.549   0.965
 2915SOL     OW 9643   1.921   6.816   3.591
 2915SOL    HW1 9644   1.931   6.890   3.659
 2915SOL    HW2 9645   2.011   6.796   3.552
 2916SOL     OW 9646   6.983   5.990   0.014
 2916SOL    HW1 9647   7.006   6.031   0.102
 2916SOL    HW2 9648   0.038   6.004   6.970
 2917SOL     OW 9649   2.084   1.761   3.931
 2917SOL    HW1 9650   2.168   1.744   3.881
 2917SOL    HW2 9651   2.088   1.716   4.020
 2918SOL     OW 9652   4.999   0.822   1.338
 2918SOL    HW1 9653   5.045   0.733   1.338
 2918SOL    HW2 9654   4.934   0.827   1.262
 2919SOL     OW 9655   1.038   5.059   5.244
 2919SOL    HW1 9656   1.058   4.975   5.193
 2919SOL    HW2 9657   1.111   5.125   5.227
 2920SOL     OW 9658   2.952   2.682   1.730
 2920SOL    HW1 9659   3.001   2.757   1.774
 2920SOL    HW2 9660   2.939   2.608   1.796
 2921SOL     OW 9661   0.092   4.887   3.291
 2921SOL    HW1 9662   0.142   4.885   3.205
 2921SOL    HW2 9663   0.008   4.832   3.282
 2922SOL     OW 9664   3.575   5.330   4.154
 2922SOL    HW1 9665   3.479   5.306   4.164
 2922SOL    HW2 9666   3.612   5.285   4.072
 2923SOL     OW 9667   1.576   4.119   3.826
 2923SOL    HW1 9668   1.578   4.217   3.809
 2923SOL    HW2 9669   1.526   4.073   3.753
 2924SOL     OW 9670   4.639   1.633   6.762
 2924SOL    HW1 9671   4.684   1.702   6.705
 2924SOL    HW2 9672   4.699   1.609   6.839
 2925SOL     OW 9673   5.509   6.706   4.144
 2925SOL    HW1 9674   5.515   6.788   4.088
 2925SOL    HW2 9675   5.475   6.729   4.235
 2926SOL     OW 9676   0.157   2.618   5.302
 2926SOL    HW1 9677   0.252   2.643   5.282
 2926SOL    HW2 9678   0.135   2.531   5.257
 2927SOL     OW 9679   1.164   1.923   3.046
 2927SOL    HW1 9680   1.247   1.889   3.003
 2927SOL    HW2 9681   1.092   1.853   3.040
 2928SOL     OW 9682   5.088   4.843   0.221
 2928SOL    HW1 9683   5.175   4.808   0.185
 2928SOL    HW2 9684   5.012   4.794   0.178
 2929SOL     OW 9685   1.971   1.169   2.621
 2929SOL    HW1 9686   1.979   1.269   2.629
 2929SOL    HW2 9687   1.911   1.135   2.693
 2930SOL     OW 9688   0.861   3.133   3.722
 2930SOL    HW1 9689   0.938   3.113   3.784
 2930SOL    HW2 9690   0.815   3.048   3.699
 2931SOL     OW 9691   5.689   4.389   5.694
 2931SOL    HW1 9692   5.673   4.313   5.756
 2931SOL    HW2 9693   5.771   4.438   5.722
 2932SOL     OW 9694   6.641   6.995   0.502
 2932SOL    HW1 9695   6.687   6.975   0.588
 2932SOL    HW2 9696   6.596   0.064   0.508
 2933SOL     OW 9697   0.527   0.678   6.664
 2933SOL    HW1 9698   0.603   0.667   6.600
 2933SOL    HW2 9699   0.461   0.743   6.626
 2934SOL     OW 9700   5.648   5.324   2.753
 2934SOL    HW1 9701   5.680   5.234   2.784
 2934SOL    HW2 9702   5.704   5.354   2.676
 2935SOL     OW 9703   0.472   4.443   6.251
 2935SOL    HW1 9704   0.541   4.508   6.218
 2935SOL    HW2 9705   0.395   4.442   6.187
 2936SOL     OW 9706   4.590   6.269   2.925
 2936SOL    HW1 9707   4.522   6.253   2.853
 2936SOL    HW2 9708   4.547   6.317   3.002
 2937SOL     OW 9709   6.349   3.339   3.225
 2937SOL    HW1 9710   6.335   3.330   3.324
 2937SOL    HW2 9711   6.440   3.378   3.207
 2938SOL     OW 9712   0.260   5.090   1.190
 2938SOL    HW1 9713   0.161   5.079   1.181
 2938SOL    HW2 9714   0.280   5.151   1.267
 2939SOL     OW 9715   6.407   5.875   1.995
 2939SOL    HW1 9716   6.366   5.962   1.967
 2939SOL    HW2 9717   6.466   5.841   1.922
 2940SOL     OW 9718   4.591   5.995   3.180
 2940SOL    HW1 9719   4.497   5.984   3.151
 2940SOL    HW2 9720   4.643   6.043   3.109
 2941SOL     OW 9721   2.832   4.978   1.798
 2941SOL    HW1 9722   2.923   5.016   1.815
 2941SOL    HW2 9723   2.776   4.988   1.880
 2942SOL     OW 9724   2.535   1.838   0.333
 2942SOL    HW1 9725   2.479   1.913   0.296
 2942SOL    HW2 9726   2.609   1.818   0.269
 2943SOL     OW 9727   0.423   4.471   3.607
 2943SOL    HW1 9728   0.462   4.513   3.689
 2943SOL    HW2 9729   0.422   4.538   3.533
 2944SOL     OW 9730   0.594   5.044   3.770
 2944SOL    HW1 9731   0.536   5.123   3.747
 2944SOL    HW2 9732   0.648   5.017   3.690
 2945SOL     OW 9733   5.664   3.380   0.292
 2945SOL    HW1 9734   5.633   3.474   0.309
 2945SOL    HW2 9735   5.619   3.319   0.358
 2946SOL     OW 9736   3.372   3.825   4.829
 2946SOL    HW1 9737   3.326   3.792   4.912
 2946SOL    HW2 9738   3.325   3.788   4.748
 2947SOL     OW 9739   6.416   6.795   0.406
 2947SOL    HW1 9740   6.469   6.710   0.413
 2947SOL    HW2 9741   6.473   6.872   0.436
 2948SOL     OW 9742   6.191   4.611   0.831
 2948SOL    HW1 9743   6.251   4.547   0.877
 2948SOL    HW2 9744   6.222   4.625   0.737
 2949SOL     OW 9745   1.597   6.138   0.830
 2949SOL    HW1 9746   1.543   6.182   0.902
 2949SOL    HW2 9747   1.664   6.204   0.794
 2950SOL     OW 9748   5.131   4.915   2.431
 2950SOL    HW1 9749   5.209   4.949   2.483
 2950SOL    HW2 9750   5.073   4.858   2.490
 2951SOL     OW 9751   0.786   2.768   0.889
 2951SOL    HW1 9752   0.878   2.790   0.921
 2951SOL    HW2 9753   0.724   2.843   0.910
 2952SOL     OW 9754   1.130   0.917   4.704
 2952SOL    HW1 9755   1.140   0.820   4.681
 2952SOL    HW2 9756   1.119   0.970   4.619
 2953SOL     OW 9757   1.119   5.724   3.096
 2953SOL    HW1 9758   1.078   5.752   3.183
 2953SOL    HW2 9759   1.057   5.748   3.021
 2954SOL     OW 9760   0.638   4.627   5.635
 2954SOL    HW1 9761   0.690   4.633   5.721
 2954SOL    HW2 9762   0.554   4.681   5.643
 2955SOL     OW 9763   0.880   5.005   6.205
 2955SOL    HW1 9764   0.854   5.030   6.299
 2955SOL    HW2 9765   0.811   5.038   6.141
 2956SOL     OW 9766   6.479   3.564   5.006
 2956SOL    HW1 9767   6.526   3.651   5.018
 2956SOL    HW2 9768   6.449   3.555   4.911
 2957SOL     OW 9769   1.455   4.812   1.793
 2957SOL    HW1 9770   1.414   4.784   1.706
 2957SOL    HW2 9771   1.492   4.732   1.839
 2958SOL     OW 9772   2.279   3.322   1.374
 2958SOL    HW1 9773   2.338   3.301   1.451
 2958SOL    HW2 9774   2.200   3.261   1.374
 2959SOL     OW 9775   1.147   3.932   4.374
 2959SOL    HW1 9776   1.173   3.943   4.278
 2959SOL    HW2 9777   1.200   3.858   4.414
 2960SOL     OW 9778   5.501   6.168   0.538
 2960SOL    HW1 9779   5.422   6.115   0.572
 2960SOL    HW2 9780   5.482   6.265   0.548
 2961SOL     OW 9781   5.879   1.910   0.862
 2961SOL    HW1 9782   5.908   1.837   0.924
 2961SOL    HW2 9783   5.905   1.887   0.768
 2962SOL     OW 9784   6.438   0.672   4.008
 2962SOL    HW1 9785   6.456   0.685   4.105
 2962SOL    HW2 9786   6.381   0.747   3.974
 2963SOL     OW 9787   1.925   1.271   6.231
 2963SOL    HW1 9788   1.981   1.353   6.221
 2963SOL    HW2 9789   1.829   1.294   6.217
 2964SOL     OW 9790   0.600   0.955   5.911
 2964SOL    HW1 9791   0.645   0.917   5.830
 2964SOL    HW2 9792   0.664   1.015   5.960
 2965SOL     OW 9793   6.089   0.367   6.083
 2965SOL    HW1 9794   6.160   0.429   6.049
 2965SOL    HW2 9795   6.126   0.310   6.157
 2966SOL     OW 9796   3.572   0.075   2.874
 2966SOL    HW1 9797   3.662   0.103   2.840
 2966SOL    HW2 9798   3.583   0.023   2.958
 2967SOL     OW 9799   5.480   0.022   5.317
 2967SOL    HW1 9800   5.500   6.949   5.286
 2967SOL    HW2 9801   5.543   0.047   5.390
 2968SOL     OW 9802   1.584   3.745   1.942
 2968SOL    HW1 9803   1.666   3.689   1.939
 2968SOL    HW2 9804   1.507   3.693   1.906
 2969SOL     OW 9805   4.148   1.856   4.822
 2969SOL    HW1 9806   4.232   1.818   4.783
 2969SOL    HW2 9807   4.123   1.939   4.772
 2970SOL     OW 9808   2.628   2.237   6.572
 2970SOL    HW1 9809   2.555   2.192   6.520
 2970SOL    HW2 9810   2.592   2.319   6.616
 2971SOL     OW 9811   3.757   3.802   5.373
 2971SOL    HW1 9812   3.755   3.840   5.465
 2971SOL    HW2 9813   3.663   3.782   5.343
 2972SOL     OW 9814   6.942   6.080   0.368
 2972SOL    HW1 9815   6.882   6.123   0.301
 2972SOL    HW2 9816   6.887   6.027   0.432
 2973SOL     OW 9817   4.863   0.500   4.803
 2973SOL    HW1 9818   4.848   0.515   4.901
 2973SOL    HW2 9819   4.940   0.436   4.791
 2974SOL     OW 9820   5.294   4.962   2.829
 2974SOL    HW1 9821   5.248   4.873   2.825
 2974SOL    HW2 9822   5.234   5.028   2.873
 2975SOL     OW 9823   0.878   3.686   4.678
 2975SOL    HW1 9824   0.928   3.649   4.757
 2975SOL    HW2 9825   0.797   3.736   4.710
 2976SOL     OW 9826   4.116   0.001   1.455
 2976SOL    HW1 9827   4.195   6.982   1.502
 2976SOL    HW2 9828   4.142   0.090   1.417
 2977SOL     OW 9829   1.262   1.491   2.276
 2977SOL    HW1 9830   1.225   1.407   2.238
 2977SOL    HW2 9831   1.343   1.519   2.223
 2978SOL     OW 9832   3.343   5.874   0.544
 2978SOL    HW1 9833   3.337   5.906   0.450
 2978SOL    HW2 9834   3.429   5.906   0.585
 2979SOL     OW 9835   1.632   1.354   5.515
 2979SOL    HW1 9836   1.692   1.345   5.594
 2979SOL    HW2 9837   1.537   1.361   5.546
 2980SOL     OW 9838   3.286   3.225   2.681
 2980SOL    HW1 9839   3.327   3.275   2.604
 2980SOL    HW2 9840   3.310   3.270   2.767
 2981SOL     OW 9841   2.465   1.679   1.666
 2981SOL    HW1 9842   2.484   1.749   1.596
 2981SOL    HW2 9843   2.467   1.722   1.757
 2982SOL     OW 9844   0.483   0.509   2.442
 2982SOL    HW1 9845   0.572   0.489   2.482
 2982SOL    HW2 9846   0.491   0.584   2.376
 2983SOL     OW 9847   6.651   2.697   6.032
 2983SOL    HW1 9848   6.607   2.630   5.972
 2983SOL    HW2 9849   6.633   2.789   5.999
 2984SOL     OW 9850   0.676   5.844   0.998
 2984SOL    HW1 9851   0.607   5.912   1.024
 2984SOL    HW2 9852   0.640   5.786   0.925
 2985SOL     OW 9853   0.162   0.118   5.530
 2985SOL    HW1 9854   0.091   0.188   5.526
 2985SOL    HW2 9855   0.128   0.032   5.493
 2986SOL     OW 9856   3.677   3.989   2.416
 2986SOL    HW1 9857   3.673   3.912   2.480
 2986SOL    HW2 9858   3.590   4.039   2.419
 2987SOL     OW 9859   2.422   6.827   6.127
 2987SOL    HW1 9860   2.372   6.890   6.067
 2987SOL    HW2 9861   2.436   6.740   6.080
 2988SOL     OW 9862   0.779   2.213   6.529
 2988SOL    HW1 9863   0.728   2.293   6.496
 2988SOL    HW2 9864   0.724   2.167   6.599
 2989SOL     OW 9865   5.732   3.478   5.719
 2989SOL    HW1 9866   5.707   3.565   5.762
 2989SOL    HW2 9867   5.789   3.424   5.780
 2990SOL     OW 9868   5.068   2.146   4.933
 2990SOL    HW1 9869   5.040   2.197   4.852
 2990SOL    HW2 9870   5.167   2.129   4.929
 2991SOL     OW 9871   6.121   2.582   0.118
 2991SOL    HW1 9872   6.071   2.606   0.201
 2991SOL    HW2 9873   6.138   2.664   0.063
 2992SOL     OW 9874   2.445   4.646   4.728
 2992SOL    HW1 9875   2.427   4.674   4.822
 2992SOL    HW2 9876   2.404   4.556   4.711
 2993SOL     OW 9877   3.826   5.233   6.775
 2993SOL    HW1 9878   3.820   5.319   6.827
 2993SOL    HW2 9879   3.920   5.198   6.782
 2994SOL     OW 9880   2.905   5.197   5.095
 2994SOL    HW1 9881   2.992   5.153   5.071
 2994SOL    HW2 9882   2.891   5.277   5.036
 2995SOL     OW 9883   5.676   0.454   2.513
 2995SOL    HW1 9884   5.661   0.440   2.415
 2995SOL    HW2 9885   5.593   0.431   2.563
 2996SOL     OW 9886   6.692   0.633   4.578
 2996SOL    HW1 9887   6.607   0.625   4.630
 2996SOL    HW2 9888   6.764   0.669   4.638
 2997SOL     OW 9889   4.779   6.269   4.247
 2997SOL    HW1 9890   4.721   6.347   4.224
 2997SOL    HW2 9891   4.748   6.188   4.198
 2998SOL     OW 9892   2.698   0.232   1.648
 2998SOL    HW1 9893   2.709   0.229   1.747
 2998SOL    HW2 9894   2.601   0.246   1.626
 2999SOL     OW 9895   2.617   5.496   0.353
 2999SOL    HW1 9896   2.676   5.561   0.306
 2999SOL    HW2 9897   2.669   5.414   0.377
 3000SOL     OW 9898   1.864   4.275   6.399
 3000SOL    HW1 9899   1.837   4.348   6.462
 3000SOL    HW2 9900   1.931   4.216   6.443
 3001SOL     OW 9901   3.063   0.317   5.820
 3001SOL    HW1 9902   3.090   0.245   5.885
 3001SOL    HW2 9903   2.969   0.301   5.790
 3002SOL     OW 9904   1.337   2.192   1.370
 3002SOL    HW1 9905   1.349   2.113   1.309
 3002SOL    HW2 9906   1.391   2.178   1.454
 3003SOL     OW 9907   1.262   5.878   0.279
 3003SOL    HW1 9908   1.203   5.865   0.358
 3003SOL    HW2 9909   1.232   5.959   0.228
 3004SOL     OW 9910   2.834   1.235   4.650
 3004SOL    HW1 9911   2.924   1.220   4.691
 3004SOL    HW2 9912   2.804   1.329   4.669
 3005SOL     OW 9913   3.029   1.402   6.852
 3005SOL    HW1 9914   2.985   1.433   6.768
 3005SOL    HW2 9915   3.052   1.481   6.909
 3006SOL     OW 9916   6.082   1.034   6.042
 3006SOL    HW1 9917   6.144   0.955   6.040
 3006SOL    HW2 9918   5.999   1.010   6.092
 3007SOL     OW 9919   6.317   5.402   6.079
 3007SOL    HW1 9920   6.372   5.339   6.134
 3007SOL    HW2 9921   6.301   5.362   5.988
 3008SOL     OW 9922   5.469   3.361   5.669
 3008SOL    HW1 9923   5.416   3.433   5.625
 3008SOL    HW2 9924   5.555   3.400   5.704
 3009SOL     OW 9925   5.484   4.209   1.097
 3009SOL    HW1 9926   5.465   4.306   1.084
 3009SOL    HW2 9927   5.420   4.170   1.163
 3010SOL     OW 9928   4.459   4.167   1.425
 3010SOL    HW1 9929   4.388   4.161   1.495
 3010SOL    HW2 9930   4.548   4.183   1.468
 3011SOL     OW 9931   5.177   0.607   1.009
 3011SOL    HW1 9932   5.088   0.603   0.962
 3011SOL    HW2 9933   5.163   0.600   1.108
 3012SOL     OW 9934   1.975   2.740   4.680
 3012SOL    HW1 9935   1.933   2.699   4.761
 3012SOL    HW2 9936   1.914   2.811   4.644
 3013SOL     OW 9937   0.707   5.567   5.563
 3013SOL    HW1 9938   0.766   5.506   5.511
 3013SOL    HW2 9939   0.616   5.526   5.571
 3014SOL     OW 9940   3.638   6.900   0.731
 3014SOL    HW1 9941   3.632   6.860   0.822
 3014SOL    HW2 9942   3.692   6.841   0.672
 3015SOL     OW 9943   2.177   6.670   5.935
 3015SOL    HW1 9944   2.105   6.630   5.878
 3015SOL    HW2 9945   2.241   6.598   5.963
 3016SOL     OW 9946   3.377   1.219   4.709
 3016SOL    HW1 9947   3.430   1.198   4.626
 3016SOL    HW2 9948   3.421   1.176   4.788
 3017SOL     OW 9949   1.569   5.962   6.710
 3017SOL    HW1 9950   1.628   6.014   6.771
 3017SOL    HW2 9951   1.623   5.894   6.661
 3018SOL     OW 9952   2.051   2.665   1.943
 3018SOL    HW1 9953   2.003   2.700   2.023
 3018SOL    HW2 9954   2.145   2.641   1.968
 3019SOL     OW 9955   0.873   1.477   5.561
 3019SOL    HW1 9956   0.808   1.458   5.487
 3019SOL    HW2 9957   0.849   1.421   5.641
 3020SOL     OW 9958   5.257   4.023   6.695
 3020SOL    HW1 9959   5.315   3.943   6.681
 3020SOL    HW2 9960   5.188   4.026   6.623
 3021SOL     OW 9961   3.943   6.711   4.250
 3021SOL    HW1 9962   3.925   6.792   4.306
 3021SOL    HW2 9963   4.035   6.678   4.268
 3022SOL     OW 9964   3.998   6.359   2.199
 3022SOL    HW1 9965   3.917   6.394   2.153
 3022SOL    HW2 9966   4.024   6.420   2.273
 3023SOL     OW 9967   5.750   4.666   4.987
 3023SOL    HW1 9968   5.719   4.594   4.925
 3023SOL    HW2 9969   5.812   4.628   5.055
 3024SOL     OW 9970   6.068   1.704   6.031
 3024SOL    HW1 9971   6.068   1.651   5.946
 3024SOL    HW2 9972   6.148   1.680   6.086
 3025SOL     OW 9973   3.715   5.289   1.097
 3025SOL    HW1 9974   3.632   5.329   1.058
 3025SOL    HW2 9975   3.794   5.319   1.043
 3026SOL     OW 9976   6.972   5.417   2.970
 3026SOL    HW1 9977   6.970   5.516   2.974
 3026SOL    HW2 9978   0.031   5.383   3.022
 3027SOL     OW 9979   3.887   0.187   0.904
 3027SOL    HW1 9980   3.865   0.140   0.818
 3027SOL    HW2 9981   3.875   0.285   0.892
 3028SOL     OW 9982   3.592   3.495   3.671
 3028SOL    HW1 9983   3.500   3.534   3.682
 3028SOL    HW2 9984   3.651   3.529   3.744
 3029SOL     OW 9985   0.152   2.446   5.086
 3029SOL    HW1 9986   0.168   2.382   5.011
 3029SOL    HW2 9987   0.170   2.540   5.054
 3030SOL     OW 9988   0.237   3.832   6.326
 3030SOL    HW1 9989   0.159   3.833   6.263
 3030SOL    HW2 9990   0.318   3.797   6.279
 3031SOL     OW 9991   0.182   4.257   0.199
 3031SOL    HW1 9992   0.206   4.174   0.250
 3031SOL    HW2 9993   0.256   4.280   0.136
 3032SOL     OW 9994   3.738   0.354   3.537
 3032SOL    HW1 9995   3.672   0.279   3.535
 3032SOL    HW2 9996   3.765   0.378   3.443
 3033SOL     OW 9997   2.080   0.339   6.574
 3033SOL    HW1 9998   2.024   0.364   6.496
 3033SOL    HW2 9999   2.171   0.380   6.565
 3034SOL     OW10000   4.997   3.232   3.432
 3034SOL    HW110001   4.978   3.152   3.376
 3034SOL    HW210002   4.948   3.311   3.396
 3035SOL     OW10003   5.848   4.270   6.822
 3035SOL    HW110004   5.834   4.356   6.773
 3035SOL    HW210005   5.761   4.219   6.825
 3036SOL     OW10006   2.527   2.458   6.969
 3036SOL    HW110007   2.544   2.541   0.002
 3036SOL    HW210008   2.613   2.426   6.929
 3037SOL     OW10009   0.509   5.678   6.092
 3037SOL    HW110010   0.521   5.616   6.170
 3037SOL    HW210011   0.542   5.632   6.009
 3038SOL     OW10012   6.245   5.063   5.771
 3038SOL    HW110013   6.242   5.087   5.674
 3038SOL    HW210014   6.339   5.068   5.804
 3039SOL     OW10015   6.120   3.194   6.293
 3039SOL    HW110016   6.197   3.242   6.250
 3039SOL    HW210017   6.132   3.095   6.283
 3040SOL     OW10018   3.335   6.673   6.527
 3040SOL    HW110019   3.429   6.691   6.498
 3040SOL    HW210020   3.335   6.611   6.605
 3041SOL     OW10021   1.927   5.854   5.905
 3041SOL    HW110022   1.993   5.780   5.893
 3041SOL    HW210023   1.847   5.821   5.955
 3042SOL     OW10024   0.122   5.871   4.730
 3042SOL    HW110025   0.064   5.798   4.693
 3042SOL    HW210026   0.108   5.955   4.677
 3043SOL     OW10027   2.373   3.798   1.821
 3043SOL    HW110028   2.329   3.711   1.842
 3043SOL    HW210029   2.461   3.782   1.777
 3044SOL     OW10030   3.781   3.933   3.853
 3044SOL    HW110031   3.779   3.930   3.753
 3044SOL    HW210032   3.876   3.939   3.884
 3045SOL     OW10033   5.622   6.827   3.270
 3045SOL    HW110034   5.558   6.752   3.287
 3045SOL    HW210035   5.585   6.886   3.198
 3046SOL     OW10036   6.040   6.151   1.562
 3046SOL    HW110037   6.034   6.206   1.646
 3046SOL    HW210038   6.136   6.143   1.535
 3047SOL     OW10039   4.499   1.578   3.678
 3047SOL    HW110040   4.498   1.502   3.612
 3047SOL    HW210041   4.429   1.645   3.653
 3048SOL     OW10042   4.191   5.060   0.865
 3048SOL    HW110043   4.253   5.015   0.930
 3048SOL    HW210044   4.242   5.086   0.783
 3049SOL     OW10045   0.125   0.704   1.422
 3049SOL    HW110046   0.205   0.644   1.424
 3049SOL    HW210047   0.110   0.737   1.329
 3050SOL     OW10048   3.884   3.044   5.640
 3050SOL    HW110049   3.907   3.003   5.728
 3050SOL    HW210050   3.945   3.008   5.570
 3051SOL     OW10051   2.495   4.623   6.053
 3051SOL    HW110052   2.485   4.683   6.132
 3051SOL    HW210053   2.557   4.548   6.075
 3052SOL     OW10054   6.456   6.735   4.538
 3052SOL    HW110055   6.488   6.718   4.444
 3052SOL    HW210056   6.497   6.819   4.573
 3053SOL     OW10057   0.414   5.262   5.825
 3053SOL    HW110058   0.316   5.252   5.808
 3053SOL    HW210059   0.465   5.213   5.754
 3054SOL     OW10060   6.044   5.964   3.558
 3054SOL    HW110061   6.065   5.973   3.461
 3054SOL    HW210062   6.128   5.942   3.608
 3055SOL     OW10063   5.485   5.900   0.717
 3055SOL    HW110064   5.417   5.834   0.747
 3055SOL    HW210065   5.447   5.992   0.722
 3056SOL     OW10066   4.499   2.698   1.275
 3056SOL    HW110067   4.414   2.656   1.307
 3056SOL    HW210068   4.572   2.680   1.341
 3057SOL     OW10069   6.953   2.175   3.067
 3057SOL    HW110070   6.888   2.232   3.118
 3057SOL    HW210071   0.019   2.169   3.117
 3058SOL     OW10072   5.082   4.196   6.430
 3058SOL    HW110073   5.175   4.222   6.459
 3058SOL    HW210074   5.078   4.195   6.330
 3059SOL     OW10075   1.734   2.470   3.202
 3059SOL    HW110076   1.681   2.391   3.233
 3059SOL    HW210077   1.673   2.548   3.190
 3060SOL     OW10078   6.504   2.845   3.910
 3060SOL    HW110079   6.503   2.775   3.982
 3060SOL    HW210080   6.428   2.909   3.923
 3061SOL     OW10081   5.186   5.733   2.218
 3061SOL    HW110082   5.173   5.712   2.315
 3061SOL    HW210083   5.224   5.654   2.171
 3062SOL     OW10084   4.457   5.130   0.059
 3062SOL    HW110085   4.531   5.195   0.074
 3062SOL    HW210086   4.451   5.109   6.981
 3063SOL     OW10087   5.937   5.913   1.190
 3063SOL    HW110088   5.973   5.997   1.230
 3063SOL    HW210089   5.874   5.870   1.254
 3064SOL     OW10090   4.476   0.894   5.771
 3064SOL    HW110091   4.555   0.953   5.761
 3064SOL    HW210092   4.392   0.948   5.764
 3065SOL     OW10093   4.567   1.788   6.286
 3065SOL    HW110094   4.556   1.829   6.376
 3065SOL    HW210095   4.571   1.688   6.295
 3066SOL     OW10096   4.889   0.132   6.382
 3066SOL    HW110097   4.806   0.133   6.438
 3066SOL    HW210098   4.895   0.045   6.333
 3067SOL     OW10099   0.979   2.009   4.884
 3067SOL    HW110100   0.934   2.096   4.902
 3067SOL    HW210101   0.947   1.972   4.798
 3068SOL     OW10102   6.325   0.702   0.616
 3068SOL    HW110103   6.391   0.662   0.680
 3068SOL    HW210104   6.350   0.677   0.522
 3069SOL     OW10105   5.060   6.077   4.081
 3069SOL    HW110106   5.153   6.041   4.088
 3069SOL    HW210107   5.030   6.075   3.986
 3070SOL     OW10108   2.359   1.621   0.210
 3070SOL    HW110109   2.408   1.701   0.244
 3070SOL    HW210110   2.415   1.539   0.224
 3071SOL     OW10111   6.408   4.197   4.432
 3071SOL    HW110112   6.405   4.291   4.397
 3071SOL    HW210113   6.342   4.141   4.382
 3072SOL     OW10114   1.817   6.902   4.313
 3072SOL    HW110115   1.876   6.979   4.290
 3072SOL    HW210116   1.797   6.902   4.411
 3073SOL     OW10117   0.831   5.142   3.327
 3073SOL    HW110118   0.920   5.185   3.342
 3073SOL    HW210119   0.814   5.134   3.229
 3074SOL     OW10120   2.951   3.645   1.662
 3074SOL    HW110121   2.949   3.739   1.697
 3074SOL    HW210122   2.948   3.647   1.562
 3075SOL     OW10123   3.746   4.847   0.708
 3075SOL    HW110124   3.690   4.776   0.748
 3075SOL    HW210125   3.810   4.883   0.777
 3076SOL     OW10126   2.347   1.391   4.387
 3076SOL    HW110127   2.332   1.413   4.483
 3076SOL    HW210128   2.293   1.311   4.362
 3077SOL     OW10129   0.246   3.730   2.720
 3077SOL    HW110130   0.212   3.812   2.674
 3077SOL    HW210131   0.190   3.711   2.800
 3078SOL     OW10132   6.080   4.763   1.592
 3078SOL    HW110133   6.019   4.708   1.535
 3078SOL    HW210134   6.153   4.802   1.536
 3079SOL     OW10135   0.181   4.451   2.292
 3079SOL    HW110136   0.185   4.463   2.193
 3079SOL    HW210137   0.269   4.476   2.332
 3080SOL     OW10138   3.453   5.068   1.589
 3080SOL    HW110139   3.516   5.023   1.652
 3080SOL    HW210140   3.407   5.000   1.532
 3081SOL     OW10141   2.231   2.220   5.908
 3081SOL    HW110142   2.182   2.263   5.832
 3081SOL    HW210143   2.289   2.147   5.872
 3082SOL     OW10144   6.345   3.694   4.390
 3082SOL    HW110145   6.302   3.708   4.479
 3082SOL    HW210146   6.428   3.638   4.402
 3083SOL     OW10147   4.808   5.495   1.789
 3083SOL    HW110148   4.880   5.563   1.802
 3083SOL    HW210149   4.732   5.516   1.850
 3084SOL     OW10150   0.326   5.600   4.469
 3084SOL    HW110151   0.261   5.641   4.405
 3084SOL    HW210152   0.293   5.510   4.498
 3085SOL     OW10153   6.535   5.487   5.537
 3085SOL    HW110154   6.460   5.504   5.474
 3085SOL    HW210155   6.516   5.529   5.625
 3086SOL     OW10156   6.251   6.289   5.975
 3086SOL    HW110157   6.345   6.265   5.953
 3086SOL    HW210158   6.190   6.261   5.900
 3087SOL     OW10159   2.610   0.009   1.849
 3087SOL    HW110160   2.646   0.098   1.877
 3087SOL    HW210161   2.595   0.009   1.750
 3088SOL     OW10162   2.239   2.932   5.281
 3088SOL    HW110163   2.259   2.843   5.321
 3088SOL    HW210164   2.314   2.959   5.220
 3089SOL     OW10165   4.228   0.307   0.358
 3089SOL    HW110166   4.211   0.313   0.259
 3089SOL    HW210167   4.195   0.219   0.392
 3090SOL     OW10168   0.403   1.966   3.153
 3090SOL    HW110169   0.413   1.880   3.202
 3090SOL    HW210170   0.477   2.029   3.179
 3091SOL     OW10171   1.522   1.717   5.554
 3091SOL    HW110172   1.529   1.757   5.645
 3091SOL    HW210173   1.610   1.724   5.507
 3092SOL     OW10174   4.840   2.176   3.810
 3092SOL    HW110175   4.847   2.102   3.743
 3092SOL    HW210176   4.899   2.155   3.888
 3093SOL     OW10177   6.176   6.010   0.040
 3093SOL    HW110178   6.099   6.068   0.013
 3093SOL    HW210179   6.247   6.067   0.082
 3094SOL     OW10180   1.150   0.644   6.398
 3094SOL    HW110181   1.246   0.665   6.380
 3094SOL    HW210182   1.112   0.593   6.321
 3095SOL     OW10183   2.244   3.540   6.130
 3095SOL    HW110184   2.239   3.445   6.099
 3095SOL    HW210185   2.214   3.601   6.056
 3096SOL     OW10186   2.085   3.638   3.600
 3096SOL    HW110187   2.085   3.664   3.697
 3096SOL    HW210188   2.057   3.717   3.545
 3097SOL     OW10189   5.259   2.174   6.520
 3097SOL    HW110190   5.349   2.214   6.505
 3097SOL    HW210191   5.210   2.168   6.433
 3098SOL     OW10192   2.020   4.197   2.894
 3098SOL    HW110193   1.954   4.218   2.822
 3098SOL    HW210194   2.056   4.282   2.933
 3099SOL     OW10195   0.179   1.226   5.701
 3099SOL    HW110196   0.123   1.269   5.772
 3099SOL    HW210197   0.196   1.292   5.628
 3100SOL     OW10198   5.922   4.011   3.072
 3100SOL    HW110199   5.854   4.084   3.073
 3100SOL    HW210200   5.961   4.002   3.164
 3101SOL     OW10201   4.525   0.583   4.730
 3101SOL    HW110202   4.559   0.676   4.719
 3101SOL    HW210203   4.563   0.525   4.658
 3102SOL     OW10204   5.541   3.122   2.918
 3102SOL    HW110205   5.469   3.068   2.963
 3102SOL    HW210206   5.499   3.197   2.867
 3103SOL     OW10207   1.310   1.276   2.497
 3103SOL    HW110208   1.340   1.229   2.414
 3103SOL    HW210209   1.227   1.329   2.478
 3104SOL     OW10210   5.771   1.669   6.017
 3104SOL    HW110211   5.702   1.714   6.074
 3104SOL    HW210212   5.858   1.719   6.024
 3105SOL     OW10213   5.598   4.597   0.853
 3105SOL    HW110214   5.632   4.653   0.929
 3105SOL    HW210215   5.671   4.583   0.786
 3106SOL     OW10216   5.555   1.688   5.354
 3106SOL    HW110217   5.547   1.684   5.454
 3106SOL    HW210218   5.471   1.726   5.315
 3107SOL     OW10219   4.600   1.400   4.618
 3107SOL    HW110220   4.695   1.374   4.636
 3107SOL    HW210221   4.570   1.360   4.531
 3108SOL     OW10222   2.534   5.020   4.479
 3108SOL    HW110223   2.554   4.986   4.571
 3108SOL    HW210224   2.617   5.018   4.424
 3109SOL     OW10225   6.979   5.043   4.186
 3109SOL    HW110226   6.941   4.953   4.165
 3109SOL    HW210227   0.054   5.047   4.154
 3110SOL     OW10228   1.829   4.771   3.859
 3110SOL    HW110229   1.839   4.838   3.786
 3110SOL    HW210230   1.900   4.701   3.850
 3111SOL     OW10231   0.210   3.753   4.216
 3111SOL    HW110232   0.156   3.754   4.300
 3111SOL    HW210233   0.300   3.794   4.233
 3112SOL     OW10234   4.575   0.434   0.824
 3112SOL    HW110235   4.591   0.337   0.844
 3112SOL    HW210236   4.603   0.454   0.731
 3113SOL     OW10237   1.348   6.525   3.654
 3113SOL    HW110238   1.295   6.514   3.570
 3113SOL    HW210239   1.288   6.551   3.729
 3114SOL     OW10240   5.068   5.002   4.987
 3114SOL    HW110241   5.167   5.009   4.988
 3114SOL    HW210242   5.027   5.093   4.989
 3115SOL     OW10243   5.536   5.275   4.553
 3115SOL    HW110244   5.439   5.275   4.579
 3115SOL    HW210245   5.551   5.340   4.478
 3116SOL     OW10246   0.619   2.609   6.047
 3116SOL    HW110247   0.563   2.527   6.034
 3116SOL    HW210248   0.593   2.655   6.131
 3117SOL     OW10249   4.089   0.133   1.974
 3117SOL    HW110250   4.029   0.085   2.038
 3117SOL    HW210251   4.166   0.173   2.023
 3118SOL     OW10252   0.716   1.878   3.499
 3118SOL    HW110253   0.710   1.778   3.498
 3118SOL    HW210254   0.630   1.917   3.467
 3119SOL     OW10255   4.195   6.679   3.007
 3119SOL    HW110256   4.267   6.627   2.961
 3119SOL    HW210257   4.234   6.728   3.085
 3120SOL     OW10258   3.650   6.534   6.373
 3120SOL    HW110259   3.628   6.632   6.373
 3120SOL    HW210260   3.634   6.496   6.464
 3121SOL     OW10261   3.776   1.396   2.932
 3121SOL    HW110262   3.848   1.371   2.867
 3121SOL    HW210263   3.708   1.322   2.936
 3122SOL     OW10264   5.220   3.298   6.820
 3122SOL    HW110265   5.296   3.322   6.760
 3122SOL    HW210266   5.149   3.251   6.768
 3123SOL     OW10267   2.134   3.329   2.789
 3123SOL    HW110268   2.071   3.369   2.722
 3123SOL    HW210269   2.147   3.393   2.865
 3124SOL     OW10270   5.002   6.650   5.609
 3124SOL    HW110271   5.044   6.741   5.610
 3124SOL    HW210272   4.963   6.632   5.519
 3125SOL     OW10273   2.110   1.789   4.915
 3125SOL    HW110274   2.098   1.885   4.940
 3125SOL    HW210275   2.162   1.783   4.830
 3126SOL     OW10276   5.111   4.070   5.040
 3126SOL    HW110277   5.071   4.111   5.122
 3126SOL    HW210278   5.038   4.050   4.975
 3127SOL     OW10279   6.258   2.193   6.164
 3127SOL    HW110280   6.264   2.226   6.070
 3127SOL    HW210281   6.325   2.242   6.220
 3128SOL     OW10282   4.553   2.255   1.601
 3128SOL    HW110283   4.561   2.285   1.506
 3128SOL    HW210284   4.520   2.331   1.657
 3129SOL     OW10285   4.132   4.536   0.202
 3129SOL    HW110286   4.178   4.466   0.257
 3129SOL    HW210287   4.105   4.612   0.262
 3130SOL     OW10288   6.488   5.481   3.441
 3130SOL    HW110289   6.488   5.578   3.418
 3130SOL    HW210290   6.472   5.469   3.539
 3131SOL     OW10291   0.206   2.138   3.554
 3131SOL    HW110292   0.123   2.119   3.501
 3131SOL    HW210293   0.213   2.236   3.570
 3132SOL     OW10294   4.582   3.958   6.065
 3132SOL    HW110295   4.572   3.934   5.969
 3132SOL    HW210296   4.562   3.878   6.122
 3133SOL     OW10297   5.394   6.504   4.646
 3133SOL    HW110298   5.392   6.449   4.730
 3133SOL    HW210299   5.360   6.449   4.570
 3134SOL     OW10300   3.993   5.506   3.488
 3134SOL    HW110301   4.074   5.565   3.481
 3134SOL    HW210302   3.939   5.533   3.568
 3135SOL     OW10303   4.224   0.913   6.449
 3135SOL    HW110304   4.305   0.855   6.463
 3135SOL    HW210305   4.221   0.983   6.520
 3136SOL     OW10306   6.141   5.518   1.897
 3136SOL    HW110307   6.147   5.548   1.802
 3136SOL    HW210308   6.048   5.485   1.916
 3137SOL     OW10309   5.023   3.616   6.893
 3137SOL    HW110310   5.080   3.555   6.948
 3137SOL    HW210311   5.065   3.707   6.890
 3138SOL     OW10312   6.599   6.613   5.361
 3138SOL    HW110313   6.525   6.546   5.353
 3138SOL    HW210314   6.573   6.683   5.428
 3139SOL     OW10315   1.269   4.869   1.980
 3139SOL    HW110316   1.292   4.928   2.057
 3139SOL    HW210317   1.345   4.866   1.916
 3140SOL     OW10318   4.806   5.660   6.449
 3140SOL    HW110319   4.863   5.584   6.418
 3140SOL    HW210320   4.723   5.664   6.393
 3141SOL     OW10321   5.933   2.193   0.212
 3141SOL    HW110322   6.030   2.196   0.188
 3141SOL    HW210323   5.879   2.225   0.134
 3142SOL     OW10324   4.075   0.672   3.666
 3142SOL    HW110325   4.002   0.609   3.693
 3142SOL    HW210326   4.036   0.762   3.647
 3143SOL     OW10327   5.908   1.535   6.877
 3143SOL    HW110328   5.822   1.584   6.894
 3143SOL    HW210329   5.916   1.515   6.779
 3144SOL     OW10330   3.805   5.124   6.456
 3144SOL    HW110331   3.798   5.223   6.464
 3144SOL    HW210332   3.817   5.084   6.547
 3145SOL     OW10333   1.004   6.089   5.412
 3145SOL    HW110334   0.926   6.052   5.361
 3145SOL    HW210335   0.981   6.181   5.444
 3146SOL     OW10336   6.552   1.318   4.389
 3146SOL    HW110337   6.504   1.398   4.353
 3146SOL    HW210338   6.562   1.250   4.316
 3147SOL     OW10339   4.925   0.526   0.838
 3147SOL    HW110340   4.931   0.430   0.865
 3147SOL    HW210341   4.867   0.534   0.757
 3148SOL     OW10342   5.550   4.935   0.509
 3148SOL    HW110343   5.504   4.974   0.588
 3148SOL    HW210344   5.584   4.844   0.532
 3149SOL     OW10345   4.303   3.171   6.828
 3149SOL    HW110346   4.346   3.237   6.890
 3149SOL    HW210347   4.204   3.183   6.830
 3150SOL     OW10348   6.620   0.725   5.285
 3150SOL    HW110349   6.583   0.632   5.283
 3150SOL    HW210350   6.602   0.766   5.375
 3151SOL     OW10351   0.714   1.449   6.948
 3151SOL    HW110352   0.678   1.533   6.907
 3151SOL    HW210353   0.641   1.381   6.953
 3152SOL     OW10354   2.722   1.352   5.813
 3152SOL    HW110355   2.626   1.378   5.801
 3152SOL    HW210356   2.728   1.257   5.842
 3153SOL     OW10357   5.482   5.746   1.463
 3153SOL    HW110358   5.418   5.755   1.387
 3153SOL    HW210359   5.523   5.654   1.463
 3154SOL     OW10360   3.868   2.165   0.453
 3154SOL    HW110361   3.861   2.171   0.354
 3154SOL    HW210362   3.951   2.210   0.484
 3155SOL     OW10363   6.723   6.384   6.419
 3155SOL    HW110364   6.811   6.336   6.431
 3155SOL    HW210365   6.717   6.458   6.486
 3156SOL     OW10366   2.818   4.703   0.834
 3156SOL    HW110367   2.887   4.671   0.899
 3156SOL    HW210368   2.863   4.748   0.757
 3157SOL     OW10369   1.378   1.142   3.188
 3157SOL    HW110370   1.417   1.071   3.247
 3157SOL    HW210371   1.285   1.161   3.216
 3158SOL     OW10372   1.932   0.454   6.355
 3158SOL    HW110373   1.928   0.549   6.387
 3158SOL    HW210374   1.851   0.405   6.387
 3159SOL     OW10375   4.905   5.663   1.131
 3159SOL    HW110376   4.954   5.588   1.086
 3159SOL    HW210377   4.818   5.630   1.166
 3160SOL     OW10378   2.244   1.132   5.618
 3160SOL    HW110379   2.163   1.190   5.628
 3160SOL    HW210380   2.220   1.037   5.637
 3161SOL     OW10381   1.981   2.226   2.035
 3161SOL    HW110382   1.938   2.266   2.116
 3161SOL    HW210383   2.074   2.261   2.025
 3162SOL     OW10384   1.394   5.797   2.340
 3162SOL    HW110385   1.470   5.809   2.276
 3162SOL    HW210386   1.361   5.886   2.369
 3163SOL     OW10387   5.494   4.697   1.451
 3163SOL    HW110388   5.486   4.774   1.386
 3163SOL    HW210389   5.425   4.708   1.523
 3164SOL     OW10390   2.194   6.733   3.003
 3164SOL    HW110391   2.179   6.712   3.100
 3164SOL    HW210392   2.150   6.820   2.981
 3165SOL     OW10393   6.914   5.243   6.756
 3165SOL    HW110394   6.911   5.341   6.740
 3165SOL    HW210395   6.821   5.208   6.768
 3166SOL     OW10396   3.718   2.114   4.615
 3166SOL    HW110397   3.769   2.092   4.698
 3166SOL    HW210398   3.623   2.137   4.640
 3167SOL     OW10399   6.502   2.789   2.639
 3167SOL    HW110400   6.519   2.887   2.646
 3167SOL    HW210401   6.565   2.749   2.573
 3168SOL     OW10402   5.897   1.370   0.775
 3168SOL    HW110403   5.891   1.379   0.676
 3168SOL    HW210404   5.980   1.319   0.799
 3169SOL     OW10405   1.081   2.217   2.399
 3169SOL    HW110406   1.094   2.119   2.381
 3169SOL    HW210407   0.998   2.229   2.454
 3170SOL     OW10408   2.675   5.089   4.183
 3170SOL    HW110409   2.660   5.052   4.091
 3170SOL    HW210410   2.699   5.014   4.245
 3171SOL     OW10411   6.807   2.356   4.377
 3171SOL    HW110412   6.715   2.366   4.417
 3171SOL    HW210413   6.870   2.321   4.447
 3172SOL     OW10414   6.122   3.888   1.007
 3172SOL    HW110415   6.114   3.918   1.102
 3172SOL    HW210416   6.049   3.928   0.953
 3173SOL     OW10417   5.512   4.556   0.294
 3173SOL    HW110418   5.549   4.467   0.265
 3173SOL    HW210419   5.463   4.545   0.381
 3174SOL     OW10420   2.905   2.970   6.931
 3174SOL    HW110421   2.961   2.973   6.848
 3174SOL    HW210422   2.836   2.898   6.922
 3175SOL     OW10423   5.950   5.974   5.315
 3175SOL    HW110424   6.018   6.028   5.265
 3175SOL    HW210425   5.998   5.903   5.368
 3176SOL     OW10426   6.776   4.909   3.731
 3176SOL    HW110427   6.712   4.855   3.785
 3176SOL    HW210428   6.859   4.855   3.714
 3177SOL     OW10429   5.661   2.354   1.657
 3177SOL    HW110430   5.696   2.294   1.585
 3177SOL    HW210431   5.582   2.311   1.700
 3178SOL     OW10432   1.791   0.737   2.207
 3178SOL    HW110433   1.888   0.715   2.197
 3178SOL    HW210434   1.758   0.699   2.294
 3179SOL     OW10435   0.656   4.688   2.812
 3179SOL    HW110436   0.597   4.615   2.846
 3179SOL    HW210437   0.601   4.766   2.785
 3180SOL     OW10438   6.180   0.245   6.327
 3180SOL    HW110439   6.164   0.160   6.378
 3180SOL    HW210440   6.159   0.323   6.385
 3181SOL     OW10441   6.723   6.521   4.692
 3181SOL    HW110442   6.678   6.609   4.676
 3181SOL    HW210443   6.793   6.531   4.763
 3182SOL     OW10444   1.413   6.652   1.377
 3182SOL    HW110445   1.416   6.747   1.346
 3182SOL    HW210446   1.440   6.591   1.301
 3183SOL     OW10447   4.195   4.099   0.404
 3183SOL    HW110448   4.173   4.023   0.465
 3183SOL    HW210449   4.111   4.146   0.377
 3184SOL     OW10450   6.456   0.458   4.667
 3184SOL    HW110451   6.474   0.474   4.570
 3184SOL    HW210452   6.408   0.536   4.705
 3185SOL     OW10453   1.203   0.120   6.245
 3185SOL    HW110454   1.268   0.196   6.250
 3185SOL    HW210455   1.147   0.130   6.163
 3186SOL     OW10456   0.829   2.067   6.127
 3186SOL    HW110457   0.913   2.103   6.087
 3186SOL    HW210458   0.772   2.027   6.054
 3187SOL     OW10459   5.192   0.453   3.160
 3187SOL    HW110460   5.137   0.503   3.093
 3187SOL    HW210461   5.142   0.372   3.190
 3188SOL     OW10462   0.912   6.490   1.520
 3188SOL    HW110463   0.981   6.525   1.455
 3188SOL    HW210464   0.821   6.503   1.481
 3189SOL     OW10465   2.722   1.877   5.339
 3189SOL    HW110466   2.660   1.805   5.308
 3189SOL    HW210467   2.686   1.966   5.312
 3190SOL     OW10468   6.621   5.931   4.783
 3190SOL    HW110469   6.551   5.986   4.737
 3190SOL    HW210470   6.654   5.980   4.864
 3191SOL     OW10471   4.214   5.217   0.525
 3191SOL    HW110472   4.236   5.294   0.464
 3191SOL    HW210473   4.295   5.191   0.576
 3192SOL     OW10474   5.228   0.896   3.436
 3192SOL    HW110475   5.302   0.961   3.416
 3192SOL    HW210476   5.241   0.813   3.382
 3193SOL     OW10477   3.901   5.780   4.767
 3193SOL    HW110478   3.892   5.877   4.788
 3193SOL    HW210479   3.819   5.749   4.719
 3194SOL     OW10480   2.407   6.548   6.078
 3194SOL    HW110481   2.445   6.511   5.993
 3194SOL    HW210482   2.422   6.483   6.152
 3195SOL     OW10483   6.924   6.143   1.478
 3195SOL    HW110484   6.836   6.187   1.497
 3195SOL    HW210485   6.981   6.205   1.425
 3196SOL     OW10486   5.673   0.878   3.013
 3196SOL    HW110487   5.760   0.850   2.972
 3196SOL    HW210488   5.604   0.808   2.996
 3197SOL     OW10489   3.097   0.846   0.074
 3197SOL    HW110490   3.044   0.913   0.023
 3197SOL    HW210491   3.189   0.839   0.035
 3198SOL     OW10492   6.059   4.275   4.090
 3198SOL    HW110493   6.125   4.328   4.038
 3198SOL    HW210494   6.068   4.178   4.067
 3199SOL     OW10495   5.242   3.582   3.978
 3199SOL    HW110496   5.174   3.525   4.023
 3199SOL    HW210497   5.217   3.679   3.988
 3200SOL     OW10498   6.422   3.508   4.740
 3200SOL    HW110499   6.348   3.471   4.683
 3200SOL    HW210500   6.475   3.574   4.688
 3201SOL     OW10501   6.297   3.454   2.554
 3201SOL    HW110502   6.313   3.376   2.493
 3201SOL    HW210503   6.209   3.442   2.601
 3202SOL     OW10504   3.332   2.942   5.916
 3202SOL    HW110505   3.364   2.881   5.843
 3202SOL    HW210506   3.291   2.888   5.989
 3203SOL     OW10507   3.465   6.505   1.647
 3203SOL    HW110508   3.541   6.470   1.702
 3203SOL    HW210509   3.395   6.543   1.707
 3204SOL     OW10510   5.671   0.733   3.260
 3204SOL    HW110511   5.666   0.785   3.176
 3204SOL    HW210512   5.745   0.767   3.317
 3205SOL     OW10513   5.406   2.816   0.729
 3205SOL    HW110514   5.494   2.863   0.726
 3205SOL    HW210515   5.381   2.796   0.824
 3206SOL     OW10516   3.744   5.169   0.240
 3206SOL    HW110517   3.831   5.158   0.288
 3206SOL    HW210518   3.670   5.132   0.296
 3207SOL     OW10519   1.911   5.813   2.560
 3207SOL    HW110520   1.850   5.892   2.564
 3207SOL    HW210521   1.868   5.740   2.507
 3208SOL     OW10522   0.018   4.105   6.866
 3208SOL    HW110523   7.008   4.121   6.960
 3208SOL    HW210524   6.970   4.050   6.817
 3209SOL     OW10525   5.199   0.242   5.090
 3209SOL    HW110526   5.212   0.171   5.159
 3209SOL    HW210527   5.108   0.232   5.049
 3210SOL     OW10528   4.651   5.012   2.329
 3210SOL    HW110529   4.728   5.054   2.377
 3210SOL    HW210530   4.651   5.042   2.234
 3211SOL     OW10531   2.402   0.184   6.747
 3211SOL    HW110532   2.418   0.086   6.757
 3211SOL    HW210533   2.489   0.230   6.728
 3212SOL     OW10534   3.715   0.075   4.268
 3212SOL    HW110535   3.680   0.168   4.259
 3212SOL    HW210536   3.814   0.077   4.281
 3213SOL     OW10537   1.309   0.081   5.880
 3213SOL    HW110538   1.224   0.096   5.930
 3213SOL    HW210539   1.300   0.114   5.786
 3214SOL     OW10540   2.149   6.971   2.825
 3214SOL    HW110541   2.072   6.927   2.778
 3214SOL    HW210542   2.229   6.971   2.764
 3215SOL     OW10543   2.420   3.282   1.603
 3215SOL    HW110544   2.493   3.220   1.631
 3215SOL    HW210545   2.390   3.337   1.681
 3216SOL     OW10546   0.353   3.984   1.488
 3216SOL    HW110547   0.436   4.031   1.517
 3216SOL    HW210548   0.274   4.028   1.531
 3217SOL     OW10549   5.992   5.915   4.139
 3217SOL    HW110550   6.005   5.968   4.054
 3217SOL    HW210551   6.081   5.896   4.180
 3218SOL     OW10552   5.767   1.503   3.420
 3218SOL    HW110553   5.836   1.571   3.394
 3218SOL    HW210554   5.755   1.504   3.519
 3219SOL     OW10555   4.330   1.980   4.144
 3219SOL    HW110556   4.359   2.001   4.238
 3219SOL    HW210557   4.358   2.055   4.084
 3220SOL     OW10558   0.513   3.781   5.578
 3220SOL    HW110559   0.472   3.784   5.487
 3220SOL    HW210560   0.606   3.818   5.574
 3221SOL     OW10561   3.957   1.869   2.370
 3221SOL    HW110562   3.875   1.822   2.337
 3221SOL    HW210563   3.949   1.967   2.351
 3222SOL     OW10564   2.867   0.839   3.179
 3222SOL    HW110565   2.862   0.937   3.201
 3222SOL    HW210566   2.863   0.828   3.079
 3223SOL     OW10567   1.874   5.327   0.676
 3223SOL    HW110568   1.887   5.240   0.630
 3223SOL    HW210569   1.859   5.399   0.607
 3224SOL     OW10570   4.537   2.614   3.556
 3224SOL    HW110571   4.486   2.542   3.509
 3224SOL    HW210572   4.531   2.601   3.655
 3225SOL     OW10573   3.082   1.143   4.755
 3225SOL    HW110574   3.149   1.145   4.830
 3225SOL    HW210575   3.117   1.087   4.680
 3226SOL     OW10576   5.404   1.251   0.123
 3226SOL    HW110577   5.365   1.205   0.044
 3226SOL    HW210578   5.468   1.189   0.169
 3227SOL     OW10579   6.216   4.022   6.062
 3227SOL    HW110580   6.267   3.937   6.078
 3227SOL    HW210581   6.175   4.020   5.971
 3228SOL     OW10582   2.158   4.363   1.032
 3228SOL    HW110583   2.151   4.432   1.104
 3228SOL    HW210584   2.142   4.272   1.072
 3229SOL     OW10585   0.908   1.202   0.659
 3229SOL    HW110586   1.008   1.214   0.663
 3229SOL    HW210587   0.887   1.104   0.661
 3230SOL     OW10588   3.230   6.444   5.057
 3230SOL    HW110589   3.180   6.364   5.089
 3230SOL    HW210590   3.316   6.415   5.014
 3231SOL     OW10591   2.848   2.183   2.693
 3231SOL    HW110592   2.808   2.203   2.604
 3231SOL    HW210593   2.886   2.091   2.693
 3232SOL     OW10594   3.383   5.157   3.635
 3232SOL    HW110595   3.381   5.122   3.541
 3232SOL    HW210596   3.320   5.103   3.692
 3233SOL     OW10597   2.149   6.764   5.184
 3233SOL    HW110598   2.185   6.672   5.197
 3233SOL    HW210599   2.224   6.826   5.159
 3234SOL     OW10600   3.592   3.837   0.705
 3234SOL    HW110601   3.627   3.902   0.637
 3234SOL    HW210602   3.645   3.846   0.789
 3235SOL     OW10603   0.095   1.771   2.988
 3235SOL    HW110604   0.069   1.777   3.085
 3235SOL    HW210605   0.073   1.856   2.942
 3236SOL     OW10606   5.658   6.340   0.875
 3236SOL    HW110607   5.688   6.319   0.782
 3236SOL    HW210608   5.664   6.258   0.931
 3237SOL     OW10609   6.177   2.441   5.542
 3237SOL    HW110610   6.102   2.375   5.551
 3237SOL    HW210611   6.141   2.529   5.512
 3238SOL     OW10612   0.688   4.430   0.844
 3238SOL    HW110613   0.666   4.457   0.937
 3238SOL    HW210614   0.640   4.489   0.779
 3239SOL     OW10615   6.545   1.533   4.795
 3239SOL    HW110616   6.589   1.482   4.721
 3239SOL    HW210617   6.459   1.572   4.763
 3240SOL     OW10618   0.894   1.629   1.495
 3240SOL    HW110619   0.966   1.566   1.466
 3240SOL    HW210620   0.936   1.708   1.541
 3241SOL     OW10621   6.889   2.943   5.557
 3241SOL    HW110622   6.919   2.915   5.648
 3241SOL    HW210623   6.966   2.936   5.493
 3242SOL     OW10624   0.274   4.678   5.398
 3242SOL    HW110625   0.331   4.726   5.464
 3242SOL    HW210626   0.236   4.596   5.441
 3243SOL     OW10627   6.024   4.969   4.943
 3243SOL    HW110628   5.926   4.948   4.952
 3243SOL    HW210629   6.060   4.999   5.031
 3244SOL     OW10630   4.926   6.914   6.902
 3244SOL    HW110631   4.896   6.911   6.998
 3244SOL    HW210632   4.854   6.876   6.844
 3245SOL     OW10633   1.880   6.195   4.543
 3245SOL    HW110634   1.926   6.202   4.455
 3245SOL    HW210635   1.842   6.104   4.553
 3246SOL     OW10636   6.310   5.343   2.010
 3246SOL    HW110637   6.325   5.265   1.949
 3246SOL    HW210638   6.270   5.419   1.957
 3247SOL     OW10639   2.318   4.400   4.685
 3247SOL    HW110640   2.319   4.321   4.623
 3247SOL    HW210641   2.331   4.367   4.779
 3248SOL     OW10642   5.877   2.682   3.803
 3248SOL    HW110643   5.848   2.586   3.799
 3248SOL    HW210644   5.926   2.698   3.889
 3249SOL     OW10645   4.048   3.875   3.981
 3249SOL    HW110646   4.123   3.941   3.979
 3249SOL    HW210647   4.017   3.863   4.075
 3250SOL     OW10648   4.302   5.409   3.166
 3250SOL    HW110649   4.247   5.460   3.099
 3250SOL    HW210650   4.322   5.469   3.244
 3251SOL     OW10651   2.182   2.369   1.824
 3251SOL    HW110652   2.085   2.389   1.811
 3251SOL    HW210653   2.225   2.443   1.877
 3252SOL     OW10654   1.659   1.521   2.453
 3252SOL    HW110655   1.655   1.422   2.464
 3252SOL    HW210656   1.586   1.564   2.506
 3253SOL     OW10657   6.594   3.088   1.069
 3253SOL    HW110658   6.539   3.131   0.997
 3253SOL    HW210659   6.574   3.134   1.156
 3254SOL     OW10660   5.930   0.139   0.662
 3254SOL    HW110661   6.026   0.151   0.686
 3254SOL    HW210662   5.873   0.189   0.728
 3255SOL     OW10663   3.640   4.945   2.094
 3255SOL    HW110664   3.633   4.889   2.012
 3255SOL    HW210665   3.573   4.913   2.161
 3256SOL     OW10666   5.584   2.307   2.053
 3256SOL    HW110667   5.550   2.269   1.967
 3256SOL    HW210668   5.513   2.300   2.123
 3257SOL     OW10669   2.857   1.402   2.422
 3257SOL    HW110670   2.830   1.499   2.421
 3257SOL    HW210671   2.824   1.358   2.339
 3258SOL     OW10672   0.222   5.358   4.589
 3258SOL    HW110673   0.244   5.269   4.549
 3258SOL    HW210674   0.210   5.348   4.688
 3259SOL     OW10675   6.033   5.019   2.757
 3259SOL    HW110676   5.964   5.083   2.789
 3259SOL    HW210677   6.015   4.995   2.661
 3260SOL     OW10678   3.041   4.853   3.568
 3260SOL    HW110679   3.079   4.854   3.476
 3260SOL    HW210680   2.961   4.793   3.571
 3261SOL     OW10681   6.101   0.432   4.145
 3261SOL    HW110682   6.123   0.467   4.054
 3261SOL    HW210683   6.006   0.452   4.167
 3262SOL     OW10684   3.110   1.958   2.456
 3262SOL    HW110685   3.133   2.039   2.401
 3262SOL    HW210686   3.133   1.875   2.404
 3263SOL     OW10687   5.550   0.408   0.950
 3263SOL    HW110688   5.516   0.500   0.928
 3263SOL    HW210689   5.481   0.358   1.002
 3264SOL     OW10690   1.306   4.988   6.897
 3264SOL    HW110691   1.334   4.917   6.961
 3264SOL    HW210692   1.384   5.047   6.876
 3265SOL     OW10693   6.725   5.677   5.312
 3265SOL    HW110694   6.697   5.586   5.340
 3265SOL    HW210695   6.769   5.672   5.222
 3266SOL     OW10696   3.269   5.011   6.594
 3266SOL    HW110697   3.215   5.005   6.678
 3266SOL    HW210698   3.358   4.968   6.609
 3267SOL     OW10699   3.079   0.368   0.173
 3267SOL    HW110700   3.125   0.376   0.261
 3267SOL    HW210701   3.000   0.429   0.171
 3268SOL     OW10702   5.399   4.127   2.736
 3268SOL    HW110703   5.497   4.118   2.717
 3268SOL    HW210704   5.368   4.218   2.707
 3269SOL     OW10705   2.162   5.443   0.491
 3269SOL    HW110706   2.087   5.406   0.436
 3269SOL    HW210707   2.200   5.371   0.550
 3270SOL     OW10708   1.561   2.938   6.645
 3270SOL    HW110709   1.544   3.035   6.658
 3270SOL    HW210710   1.660   2.923   6.636
 3271SOL     OW10711   1.098   4.165   1.846
 3271SOL    HW110712   1.093   4.078   1.894
 3271SOL    HW210713   1.090   4.150   1.747
 3272SOL     OW10714   3.876   0.264   0.287
 3272SOL    HW110715   3.886   0.304   0.378
 3272SOL    HW210716   3.791   0.295   0.245
 3273SOL     OW10717   4.144   3.940   6.710
 3273SOL    HW110718   4.228   3.886   6.716
 3273SOL    HW210719   4.162   4.033   6.741
 3274SOL     OW10720   4.812   6.940   2.245
 3274SOL    HW110721   4.878   6.961   2.173
 3274SOL    HW210722   4.719   6.946   2.208
 3275SOL     OW10723   4.475   0.284   1.788
 3275SOL    HW110724   4.515   0.225   1.858
 3275SOL    HW210725   4.392   0.241   1.752
 3276SOL     OW10726   6.237   6.173   0.379
 3276SOL    HW110727   6.298   6.159   0.301
 3276SOL    HW210728   6.150   6.211   0.348
 3277SOL     OW10729   5.015   1.192   2.208
 3277SOL    HW110730   4.956   1.179   2.288
 3277SOL    HW210731   5.095   1.133   2.216
 3278SOL     OW10732   4.958   1.206   6.355
 3278SOL    HW110733   5.029   1.177   6.420
 3278SOL    HW210734   4.967   1.304   6.338
 3279SOL     OW10735   4.213   0.314   2.343
 3279SOL    HW110736   4.292   0.367   2.375
 3279SOL    HW210737   4.132   0.339   2.396
 3280SOL     OW10738   0.336   2.293   4.197
 3280SOL    HW110739   0.333   2.226   4.271
 3280SOL    HW210740   0.280   2.373   4.221
 3281SOL     OW10741   5.979   2.580   2.150
 3281SOL    HW110742   5.936   2.670   2.155
 3281SOL    HW210743   5.913   2.513   2.116
 3282SOL     OW10744   6.553   4.860   5.310
 3282SOL    HW110745   6.514   4.793   5.373
 3282SOL    HW210746   6.618   4.815   5.249
 3283SOL     OW10747   3.479   1.378   0.654
 3283SOL    HW110748   3.443   1.298   0.608
 3283SOL    HW210749   3.453   1.377   0.751
 3284SOL     OW10750   2.182   0.866   5.676
 3284SOL    HW110751   2.244   0.789   5.660
 3284SOL    HW210752   2.122   0.846   5.754
 3285SOL     OW10753   4.197   1.594   4.685
 3285SOL    HW110754   4.120   1.653   4.707
 3285SOL    HW210755   4.164   1.508   4.647
 3286SOL     OW10756   1.658   4.000   3.126
 3286SOL    HW110757   1.630   3.935   3.055
 3286SOL    HW210758   1.662   3.953   3.214
 3287SOL     OW10759   3.374   1.635   0.910
 3287SOL    HW110760   3.286   1.664   0.871
 3287SOL    HW210761   3.358   1.571   0.985
 3288SOL     OW10762   2.894   5.456   1.249
 3288SOL    HW110763   2.898   5.411   1.338
 3288SOL    HW210764   2.880   5.387   1.178
 3289SOL     OW10765   5.173   6.966   0.213
 3289SOL    HW110766   5.171   0.029   0.268
 3289SOL    HW210767   5.237   6.978   0.137
 3290SOL     OW10768   0.808   4.042   0.108
 3290SOL    HW110769   0.751   4.001   0.180
 3290SOL    HW210770   0.768   4.023   0.019
 3291SOL     OW10771   5.328   6.727   5.691
 3291SOL    HW110772   5.254   6.741   5.625
 3291SOL    HW210773   5.310   6.780   5.773
 3292SOL     OW10774   0.596   2.975   0.873
 3292SOL    HW110775   0.617   2.975   0.775
 3292SOL    HW210776   0.522   2.910   0.892
 3293SOL     OW10777   6.785   4.846   1.787
 3293SOL    HW110778   6.798   4.828   1.884
 3293SOL    HW210779   6.867   4.891   1.750
 3294SOL     OW10780   3.991   2.891   5.415
 3294SOL    HW110781   3.929   2.908   5.339
 3294SOL    HW210782   4.035   2.802   5.403
 3295SOL     OW10783   1.687   3.713   3.278
 3295SOL    HW110784   1.720   3.695   3.186
 3295SOL    HW210785   1.736   3.654   3.343
 3296SOL     OW10786   2.551   0.751   7.015
 3296SOL    HW110787   2.595   0.680   0.048
 3296SOL    HW210788   2.453   0.731   7.005
 3297SOL     OW10789   3.038   0.575   5.827
 3297SOL    HW110790   3.007   0.628   5.747
 3297SOL    HW210791   3.033   0.478   5.806
 3298SOL     OW10792   3.898   3.901   6.162
 3298SOL    HW110793   3.815   3.887   6.108
 3298SOL    HW210794   3.969   3.939   6.104
 3299SOL     OW10795   2.473   6.825   4.233
 3299SOL    HW110796   2.469   6.733   4.273
 3299SOL    HW210797   2.512   6.820   4.142
 3300SOL     OW10798   1.663   0.983   3.070
 3300SOL    HW110799   1.645   1.080   3.082
 3300SOL    HW210800   1.602   0.946   3.000
 3301SOL     OW10801   1.429   0.839   1.837
 3301SOL    HW110802   1.364   0.895   1.785
 3301SOL    HW210803   1.450   0.755   1.785
 3302SOL     OW10804   1.705   4.834   5.098
 3302SOL    HW110805   1.756   4.896   5.039
 3302SOL    HW210806   1.709   4.866   5.192
 3303SOL     OW10807   4.457   4.173   0.462
 3303SOL    HW110808   4.374   4.122   0.437
 3303SOL    HW210809   4.535   4.131   0.416
 3304SOL     OW10810   2.769   3.827   0.751
 3304SOL    HW110811   2.813   3.767   0.817
 3304SOL    HW210812   2.838   3.865   0.689
 3305SOL     OW10813   3.341   2.636   6.753
 3305SOL    HW110814   3.312   2.719   6.799
 3305SOL    HW210815   3.428   2.605   6.792
 3306SOL     OW10816   2.628   0.353   0.633
 3306SOL    HW110817   2.609   0.265   0.676
 3306SOL    HW210818   2.716   0.388   0.667
 3307SOL     OW10819   1.832   5.426   5.275
 3307SOL    HW110820   1.904   5.373   5.231
 3307SOL    HW210821   1.768   5.459   5.206
 3308SOL     OW10822   5.260   5.123   1.870
 3308SOL    HW110823   5.285   5.120   1.967
 3308SOL    HW210824   5.337   5.090   1.815
 3309SOL     OW10825   5.877   3.399   4.060
 3309SOL    HW110826   5.786   3.376   4.094
 3309SOL    HW210827   5.946   3.363   4.123
 3310SOL     OW10828   6.245   4.393   6.981
 3310SOL    HW110829   6.228   4.484   6.943
 3310SOL    HW210830   6.201   4.324   6.924
 3311SOL     OW10831   1.312   2.869   0.924
 3311SOL    HW110832   1.382   2.817   0.971
 3311SOL    HW210833   1.310   2.963   0.959
 3312SOL     OW10834   5.021   3.613   0.221
 3312SOL    HW110835   5.033   3.574   0.130
 3312SOL    HW210836   5.027   3.713   0.216
 3313SOL     OW10837   1.031   6.403   3.931
 3313SOL    HW110838   1.119   6.438   3.962
 3313SOL    HW210839   0.962   6.474   3.940
 3314SOL     OW10840   3.142   6.156   3.806
 3314SOL    HW110841   3.093   6.216   3.869
 3314SOL    HW210842   3.084   6.079   3.782
 3315SOL     OW10843   0.920   6.643   4.018
 3315SOL    HW110844   0.996   6.659   4.080
 3315SOL    HW210845   0.896   6.729   3.971
 3316SOL     OW10846   3.901   1.697   0.786
 3316SOL    HW110847   3.996   1.678   0.811
 3316SOL    HW210848   3.841   1.628   0.826
 3317SOL     OW10849   5.863   2.322   1.006
 3317SOL    HW110850   5.921   2.269   0.945
 3317SOL    HW210851   5.913   2.402   1.039
 3318SOL     OW10852   4.216   2.566   0.635
 3318SOL    HW110853   4.117   2.552   0.634
 3318SOL    HW210854   4.238   2.656   0.598
 3319SOL     OW10855   6.368   6.444   4.183
 3319SOL    HW110856   6.417   6.504   4.246
 3319SOL    HW210857   6.384   6.474   4.089
 3320SOL     OW10858   6.454   0.705   2.949
 3320SOL    HW110859   6.452   0.607   2.930
 3320SOL    HW210860   6.549   0.736   2.958
 3321SOL     OW10861   4.951   1.416   6.751
 3321SOL    HW110862   4.869   1.365   6.729
 3321SOL    HW210863   4.988   1.458   6.668
 3322SOL     OW10864   5.852   3.639   1.747
 3322SOL    HW110865   5.861   3.715   1.811
 3322SOL    HW210866   5.943   3.612   1.714
 3323SOL     OW10867   0.376   0.418   2.107
 3323SOL    HW110868   0.337   0.510   2.104
 3323SOL    HW210869   0.467   0.422   2.148
 3324SOL     OW10870   6.544   5.680   6.392
 3324SOL    HW110871   6.592   5.701   6.478
 3324SOL    HW210872   6.446   5.677   6.409
 3325SOL     OW10873   2.315   5.498   6.374
 3325SOL    HW110874   2.414   5.497   6.383
 3325SOL    HW210875   2.276   5.416   6.416
 3326SOL     OW10876   4.187   1.340   1.744
 3326SOL    HW110877   4.150   1.391   1.666
 3326SOL    HW210878   4.203   1.404   1.819
 3327SOL     OW10879   1.657   6.191   6.008
 3327SOL    HW110880   1.721   6.153   6.074
 3327SOL    HW210881   1.608   6.268   6.049
 3328SOL     OW10882   4.257   2.649   5.577
 3328SOL    HW110883   4.230   2.744   5.595
 3328SOL    HW210884   4.188   2.605   5.519
 3329SOL     OW10885   6.784   6.391   5.884
 3329SOL    HW110886   6.858   6.445   5.926
 3329SOL    HW210887   6.781   6.301   5.926
 3330SOL     OW10888   6.816   3.098   3.527
 3330SOL    HW110889   6.871   3.169   3.572
 3330SOL    HW210890   6.744   3.067   3.590
 3331SOL     OW10891   2.151   3.407   0.776
 3331SOL    HW110892   2.162   3.434   0.680
 3331SOL    HW210893   2.147   3.489   0.833
 3332SOL     OW10894   6.846   4.236   1.963
 3332SOL    HW110895   6.794   4.311   2.004
 3332SOL    HW210896   6.809   4.216   1.872
 3333SOL     OW10897   3.193   6.035   5.400
 3333SOL    HW110898   3.150   6.058   5.488
 3333SOL    HW210899   3.188   5.936   5.386
 3334SOL     OW10900   1.525   2.750   1.081
 3334SOL    HW110901   1.597   2.815   1.055
 3334SOL    HW210902   1.548   2.659   1.046
 3335SOL     OW10903   5.680   4.226   5.149
 3335SOL    HW110904   5.681   4.203   5.052
 3335SOL    HW210905   5.588   4.254   5.177
 3336SOL     OW10906   3.520   6.218   5.424
 3336SOL    HW110907   3.467   6.262   5.496
 3336SOL    HW210908   3.459   6.179   5.356
 3337SOL     OW10909   3.867   0.846   0.987
 3337SOL    HW110910   3.795   0.789   0.947
 3337SOL    HW210911   3.875   0.931   0.935
 3338SOL     OW10912   6.602   5.432   0.420
 3338SOL    HW110913   6.542   5.503   0.382
 3338SOL    HW210914   6.591   5.348   0.366
 3339SOL     OW10915   0.384   4.617   6.701
 3339SOL    HW110916   0.444   4.686   6.741
 3339SOL    HW210917   0.305   4.603   6.761
 3340SOL     OW10918   3.820   0.752   1.707
 3340SOL    HW110919   3.795   0.722   1.799
 3340SOL    HW210920   3.901   0.702   1.676
 3341SOL     OW10921   1.284   0.205   6.577
 3341SOL    HW110922   1.231   0.178   6.497
 3341SOL    HW210923   1.323   0.296   6.562
 3342SOL     OW10924   1.598   6.829   5.420
 3342SOL    HW110925   1.671   6.772   5.458
 3342SOL    HW210926   1.637   6.912   5.380
 3343SOL     OW10927   0.436   2.573   0.737
 3343SOL    HW110928   0.470   2.592   0.645
 3343SOL    HW210929   0.337   2.555   0.732
 3344SOL     OW10930   1.405   2.258   6.583
 3344SOL    HW110931   1.329   2.323   6.573
 3344SOL    HW210932   1.379   2.187   6.648
 3345SOL     OW10933   2.914   2.819   6.270
 3345SOL    HW110934   2.947   2.864   6.353
 3345SOL    HW210935   2.914   2.885   6.194
 3346SOL     OW10936   2.726   5.684   2.555
 3346SOL    HW110937   2.694   5.719   2.643
 3346SOL    HW210938   2.649   5.649   2.502
 3347SOL     OW10939   5.812   4.322   3.684
 3347SOL    HW110940   5.912   4.321   3.672
 3347SOL    HW210941   5.788   4.271   3.767
 3348SOL     OW10942   3.805   3.747   3.597
 3348SOL    HW110943   3.716   3.711   3.627
 3348SOL    HW210944   3.831   3.703   3.511
 3349SOL     OW10945   5.196   2.452   0.866
 3349SOL    HW110946   5.245   2.409   0.942
 3349SOL    HW210947   5.125   2.512   0.901
 3350SOL     OW10948   2.608   2.975   1.679
 3350SOL    HW110949   2.671   3.022   1.741
 3350SOL    HW210950   2.644   2.885   1.657
 3351SOL     OW10951   6.245   3.059   1.004
 3351SOL    HW110952   6.307   3.122   0.957
 3351SOL    HW210953   6.278   3.043   1.097
 3352SOL     OW10954   0.086   4.106   0.797
 3352SOL    HW110955   0.070   4.095   0.895
 3352SOL    HW210956   0.158   4.174   0.782
 3353SOL     OW10957   1.262   6.252   6.100
 3353SOL    HW110958   1.224   6.191   6.031
 3353SOL    HW210959   1.196   6.265   6.174
 3354SOL     OW10960   0.402   6.530   2.094
 3354SOL    HW110961   0.401   6.598   2.021
 3354SOL    HW210962   0.308   6.512   2.124
 3355SOL     OW10963   5.740   1.023   2.464
 3355SOL    HW110964   5.714   1.042   2.559
 3355SOL    HW210965   5.824   1.072   2.441
 3356SOL     OW10966   1.508   3.911   6.839
 3356SOL    HW110967   1.526   3.829   6.785
 3356SOL    HW210968   1.426   3.897   6.895
 3357SOL     OW10969   3.025   6.232   2.655
 3357SOL    HW110970   3.018   6.132   2.651
 3357SOL    HW210971   3.076   6.265   2.576
 3358SOL     OW10972   0.367   3.651   3.309
 3358SOL    HW110973   0.464   3.667   3.326
 3358SOL    HW210974   0.344   3.678   3.215
 3359SOL     OW10975   2.472   1.852   1.444
 3359SOL    HW110976   2.435   1.917   1.377
 3359SOL    HW210977   2.561   1.886   1.477
 3360SOL     OW10978   2.333   1.254   6.395
 3360SOL    HW110979   2.348   1.159   6.421
 3360SOL    HW210980   2.336   1.263   6.295
 3361SOL     OW10981   2.448   1.151   2.823
 3361SOL    HW110982   2.513   1.207   2.873
 3361SOL    HW210983   2.358   1.193   2.826
 3362SOL     OW10984   3.046   2.101   4.401
 3362SOL    HW110985   3.071   2.151   4.318
 3362SOL    HW210986   2.949   2.077   4.397
 3363SOL     OW10987   6.662   0.741   0.330
 3363SOL    HW110988   6.601   0.818   0.311
 3363SOL    HW210989   6.744   0.749   0.274
 3364SOL     OW10990   1.441   5.400   5.185
 3364SOL    HW110991   1.429   5.311   5.141
 3364SOL    HW210992   1.520   5.447   5.146
 3365SOL     OW10993   6.473   2.299   4.991
 3365SOL    HW110994   6.560   2.345   5.006
 3365SOL    HW210995   6.479   2.205   5.024
 3366SOL     OW10996   4.969   1.215   0.329
 3366SOL    HW110997   5.027   1.294   0.305
 3366SOL    HW210998   4.899   1.244   0.394
 3367SOL     OW10999   1.832   0.173   2.065
 3367SOL    HW111000   1.771   0.097   2.087
 3367SOL    HW211001   1.857   0.169   1.968
 3368SOL     OW11002   6.317   1.359   4.621
 3368SOL    HW111003   6.229   1.313   4.611
 3368SOL    HW211004   6.343   1.401   4.534
 3369SOL     OW11005   3.855   5.387   6.519
 3369SOL    HW111006   3.868   5.405   6.617
 3369SOL    HW211007   3.801   5.461   6.479
 3370SOL     OW11008   5.937   0.973   5.643
 3370SOL    HW111009   5.930   1.072   5.659
 3370SOL    HW211010   5.933   0.955   5.545
 3371SOL     OW11011   6.569   4.835   1.468
 3371SOL    HW111012   6.664   4.852   1.495
 3371SOL    HW211013   6.553   4.737   1.465
 3372SOL     OW11014   1.492   2.969   2.798
 3372SOL    HW111015   1.541   2.891   2.759
 3372SOL    HW211016   1.434   2.937   2.873
 3373SOL     OW11017   1.161   2.682   6.019
 3373SOL    HW111018   1.183   2.738   5.939
 3373SOL    HW211019   1.065   2.696   6.044
 3374SOL     OW11020   3.726   6.161   4.991
 3374SOL    HW111021   3.735   6.248   4.944
 3374SOL    HW211022   3.629   6.144   5.012
 3375SOL     OW11023   3.084   4.070   5.131
 3375SOL    HW111024   3.026   3.994   5.161
 3375SOL    HW211025   3.088   4.072   5.031
 3376SOL     OW11026   3.688   2.917   1.342
 3376SOL    HW111027   3.742   2.962   1.271
 3376SOL    HW211028   3.615   2.864   1.299
 3377SOL     OW11029   2.601   5.080   6.201
 3377SOL    HW111030   2.638   4.988   6.213
 3377SOL    HW211031   2.668   5.147   6.231
 3378SOL     OW11032   6.796   1.287   0.892
 3378SOL    HW111033   6.812   1.385   0.902
 3378SOL    HW211034   6.708   1.263   0.932
 3379SOL     OW11035   5.979   5.008   5.790
 3379SOL    HW111036   6.075   5.028   5.808
 3379SOL    HW211037   5.971   4.918   5.747
 3380SOL     OW11038   0.979   3.739   5.156
 3380SOL    HW111039   0.915   3.798   5.205
 3380SOL    HW211040   0.984   3.650   5.202
 3381SOL     OW11041   3.178   2.314   0.858
 3381SOL    HW111042   3.171   2.216   0.879
 3381SOL    HW211043   3.094   2.344   0.813
 3382SOL     OW11044   6.741   6.545   0.059
 3382SOL    HW111045   6.751   6.629   0.112
 3382SOL    HW211046   6.647   6.514   0.064
 3383SOL     OW11047   0.802   4.283   1.693
 3383SOL    HW111048   0.875   4.224   1.658
 3383SOL    HW211049   0.771   4.249   1.782
 3384SOL     OW11050   3.479   3.802   3.191
 3384SOL    HW111051   3.497   3.715   3.236
 3384SOL    HW211052   3.538   3.810   3.110
 3385SOL     OW11053   0.118   4.025   3.675
 3385SOL    HW111054   0.107   4.026   3.774
 3385SOL    HW211055   0.041   3.977   3.633
 3386SOL     OW11056   5.673   4.400   4.245
 3386SOL    HW111057   5.670   4.459   4.164
 3386SOL    HW211058   5.716   4.313   4.220
 3387SOL     OW11059   3.469   1.515   2.315
 3387SOL    HW111060   3.388   1.463   2.342
 3387SOL    HW211061   3.483   1.592   2.377
 3388SOL     OW11062   5.828   1.609   1.278
 3388SOL    HW111063   5.822   1.635   1.182
 3388SOL    HW211064   5.806   1.512   1.288
 3389SOL     OW11065   4.230   5.225   2.426
 3389SOL    HW111066   4.278   5.313   2.421
 3389SOL    HW211067   4.152   5.233   2.488
 3390SOL     OW11068   4.014   1.887   5.671
 3390SOL    HW111069   3.962   1.814   5.715
 3390SOL    HW211070   4.050   1.854   5.583
 3391SOL     OW11071   3.147   1.516   4.186
 3391SOL    HW111072   3.088   1.595   4.170
 3391SOL    HW211073   3.091   1.436   4.206
 3392SOL     OW11074   5.540   6.277   3.963
 3392SOL    HW111075   5.546   6.339   3.885
 3392SOL    HW211076   5.577   6.188   3.939
 3393SOL     OW11077   6.709   0.172   6.080
 3393SOL    HW111078   6.656   0.220   6.150
 3393SOL    HW211079   6.661   0.089   6.053
 3394SOL     OW11080   5.191   1.682   2.047
 3394SOL    HW111081   5.261   1.632   2.099
 3394SOL    HW211082   5.205   1.780   2.059
 3395SOL     OW11083   1.947   3.873   5.335
 3395SOL    HW111084   1.883   3.930   5.283
 3395SOL    HW211085   2.032   3.923   5.349
 3396SOL     OW11086   6.132   3.717   3.945
 3396SOL    HW111087   6.134   3.697   4.043
 3396SOL    HW211088   6.101   3.637   3.895
 3397SOL     OW11089   3.141   5.660   6.313
 3397SOL    HW111090   3.212   5.614   6.367
 3397SOL    HW211091   3.175   5.676   6.221
 3398SOL     OW11092   0.634   1.774   4.258
 3398SOL    HW111093   0.592   1.701   4.312
 3398SOL    HW211094   0.705   1.736   4.199
 3399SOL     OW11095   3.692   5.672   4.601
 3399SOL    HW111096   3.721   5.659   4.506
 3399SOL    HW211097   3.603   5.717   4.603
 3400SOL     OW11098   5.152   1.926   0.411
 3400SOL    HW111099   5.088   1.982   0.464
 3400SOL    HW211100   5.246   1.949   0.436
 3401SOL     OW11101   6.628   4.703   6.874
 3401SOL    HW111102   6.559   4.738   6.937
 3401SOL    HW211103   6.594   4.622   6.827
 3402SOL     OW11104   4.096   4.903   1.991
 3402SOL    HW111105   4.012   4.869   1.948
 3402SOL    HW211106   4.078   4.990   2.036
 3403SOL     OW11107   3.701   1.858   6.381
 3403SOL    HW111108   3.641   1.778   6.378
 3403SOL    HW211109   3.791   1.831   6.415
 3404SOL     OW11110   4.596   5.605   2.015
 3404SOL    HW111111   4.509   5.653   2.017
 3404SOL    HW211112   4.652   5.634   2.093
 3405SOL     OW11113   6.057   4.279   0.341
 3405SOL    HW111114   5.997   4.201   0.328
 3405SOL    HW211115   6.016   4.360   0.300
 3406SOL     OW11116   0.818   3.289   1.793
 3406SOL    HW111117   0.768   3.291   1.707
 3406SOL    HW211118   0.886   3.217   1.791
 3407SOL     OW11119   1.043   5.606   2.564
 3407SOL    HW111120   1.041   5.544   2.642
 3407SOL    HW211121   1.084   5.693   2.591
 3408SOL     OW11122   5.630   3.533   2.207
 3408SOL    HW111123   5.680   3.490   2.282
 3408SOL    HW211124   5.626   3.471   2.129
 3409SOL     OW11125   2.811   1.507   0.277
 3409SOL    HW111126   2.887   1.486   0.216
 3409SOL    HW211127   2.752   1.426   0.284
 3410SOL     OW11128   0.696   1.829   0.229
 3410SOL    HW111129   0.707   1.925   0.257
 3410SOL    HW211130   0.783   1.781   0.243
 3411SOL     OW11131   4.797   1.619   2.438
 3411SOL    HW111132   4.780   1.714   2.414
 3411SOL    HW211133   4.710   1.570   2.448
 3412SOL     OW11134   4.405   5.017   6.836
 3412SOL    HW111135   4.441   4.924   6.829
 3412SOL    HW211136   4.459   5.078   6.778
 3413SOL     OW11137   5.009   1.033   2.671
 3413SOL    HW111138   5.055   0.949   2.699
 3413SOL    HW211139   4.941   1.058   2.739
 3414SOL     OW11140   4.111   0.467   5.438
 3414SOL    HW111141   4.030   0.508   5.478
 3414SOL    HW211142   4.108   0.475   5.339
 3415SOL     OW11143   1.712   6.152   5.741
 3415SOL    HW111144   1.702   6.163   5.840
 3415SOL    HW211145   1.690   6.057   5.716
 3416SOL     OW11146   1.369   4.609   5.463
 3416SOL    HW111147   1.343   4.670   5.539
 3416SOL    HW211148   1.288   4.579   5.415
 3417SOL     OW11149   5.285   1.017   1.220
 3417SOL    HW111150   5.360   0.952   1.202
 3417SOL    HW211151   5.324   1.103   1.253
 3418SOL     OW11152   2.867   1.964   5.737
 3418SOL    HW111153   2.780   1.954   5.690
 3418SOL    HW211154   2.909   1.873   5.747
 3419SOL     OW11155   4.459   3.372   6.054
 3419SOL    HW111156   4.486   3.374   6.150
 3419SOL    HW211157   4.374   3.425   6.042
 3420SOL     OW11158   2.761   0.611   5.199
 3420SOL    HW111159   2.734   0.677   5.270
 3420SOL    HW211160   2.843   0.644   5.153
 3421SOL     OW11161   1.082   6.530   2.744
 3421SOL    HW111162   1.075   6.498   2.649
 3421SOL    HW211163   1.023   6.610   2.756
 3422SOL     OW11164   3.282   2.044   3.075
 3422SOL    HW111165   3.240   1.983   3.141
 3422SOL    HW211166   3.211   2.082   3.015
 3423SOL     OW11167   3.469   0.790   1.478
 3423SOL    HW111168   3.483   0.798   1.577
 3423SOL    HW211169   3.418   0.870   1.445
 3424SOL     OW11170   4.767   1.572   0.889
 3424SOL    HW111171   4.722   1.593   0.802
 3424SOL    HW211172   4.857   1.615   0.891
 3425SOL     OW11173   3.940   3.889   1.557
 3425SOL    HW111174   4.004   3.881   1.481
 3425SOL    HW211175   3.988   3.930   1.635
 3426SOL     OW11176   4.966   3.754   0.742
 3426SOL    HW111177   4.993   3.705   0.658
 3426SOL    HW211178   5.037   3.821   0.765
 3427SOL     OW11179   0.867   1.731   0.680
 3427SOL    HW111180   0.882   1.802   0.612
 3427SOL    HW211181   0.780   1.684   0.660
 3428SOL     OW11182   4.743   4.566   3.312
 3428SOL    HW111183   4.676   4.500   3.278
 3428SOL    HW211184   4.734   4.575   3.411
 3429SOL     OW11185   0.442   2.882   0.475
 3429SOL    HW111186   0.529   2.888   0.526
 3429SOL    HW211187   0.447   2.940   0.394
 3430SOL     OW11188   0.556   5.536   6.987
 3430SOL    HW111189   0.649   5.571   6.999
 3430SOL    HW211190   0.559   5.448   6.941
 3431SOL     OW11191   1.148   5.844   6.660
 3431SOL    HW111192   1.133   5.849   6.561
 3431SOL    HW211193   1.059   5.850   6.707
 3432SOL     OW11194   3.590   1.969   6.153
 3432SOL    HW111195   3.613   1.931   6.243
 3432SOL    HW211196   3.649   1.926   6.084
 3433SOL     OW11197   3.813   1.382   4.946
 3433SOL    HW111198   3.854   1.455   5.001
 3433SOL    HW211199   3.727   1.415   4.907
 3434SOL     OW11200   4.280   1.299   3.152
 3434SOL    HW111201   4.325   1.386   3.171
 3434SOL    HW211202   4.326   1.226   3.201
 3435SOL     OW11203   0.653   1.185   6.661
 3435SOL    HW111204   0.622   1.172   6.755
 3435SOL    HW211205   0.575   1.199   6.601
 3436SOL     OW11206   4.154   6.585   1.989
 3436SOL    HW111207   4.197   6.567   2.078
 3436SOL    HW211208   4.069   6.533   1.982
 3437SOL     OW11209   4.267   0.266   0.042
 3437SOL    HW111210   4.223   0.179   0.019
 3437SOL    HW211211   4.201   0.324   0.091
 3438SOL     OW11212   0.294   5.534   6.571
 3438SOL    HW111213   0.390   5.520   6.597
 3438SOL    HW211214   0.237   5.537   6.653
 3439SOL     OW11215   2.395   0.499   4.018
 3439SOL    HW111216   2.382   0.585   3.969
 3439SOL    HW211217   2.398   0.517   4.116
 3440SOL     OW11218   3.695   2.012   0.650
 3440SOL    HW111219   3.657   1.944   0.588
 3440SOL    HW211220   3.741   2.084   0.598
 3441SOL     OW11221   4.419   0.151   4.075
 3441SOL    HW111222   4.361   0.226   4.107
 3441SOL    HW211223   4.506   0.152   4.124
 3442SOL     OW11224   0.663   5.657   3.232
 3442SOL    HW111225   0.642   5.563   3.260
 3442SOL    HW211226   0.662   5.717   3.311
 3443SOL     OW11227   6.005   6.760   4.268
 3443SOL    HW111228   5.951   6.680   4.292
 3443SOL    HW211229   6.079   6.771   4.334
 3444SOL     OW11230   3.637   5.373   0.079
 3444SOL    HW111231   3.681   5.296   0.125
 3444SOL    HW211232   3.648   5.456   0.133
 3445SOL     OW11233   5.965   4.776   5.577
 3445SOL    HW111234   6.026   4.710   5.533
 3445SOL    HW211235   6.005   4.867   5.570
 3446SOL     OW11236   2.624   5.997   1.843
 3446SOL    HW111237   2.648   6.046   1.760
 3446SOL    HW211238   2.682   6.029   1.919
 3447SOL     OW11239   5.999   4.497   5.456
 3447SOL    HW111240   5.899   4.504   5.447
 3447SOL    HW211241   6.024   4.401   5.469
 3448SOL     OW11242   3.943   3.211   0.437
 3448SOL    HW111243   3.884   3.180   0.362
 3448SOL    HW211244   3.914   3.169   0.522
 3449SOL     OW11245   6.112   6.027   3.314
 3449SOL    HW111246   6.151   6.091   3.247
 3449SOL    HW211247   6.138   5.934   3.289
 3450SOL     OW11248   0.546   1.833   0.891
 3450SOL    HW111249   0.644   1.834   0.874
 3450SOL    HW211250   0.511   1.926   0.889
 3451SOL     OW11251   2.147   5.227   4.477
 3451SOL    HW111252   2.061   5.194   4.515
 3451SOL    HW211253   2.176   5.167   4.402
 3452SOL     OW11254   6.651   1.843   0.520
 3452SOL    HW111255   6.632   1.915   0.586
 3452SOL    HW211256   6.739   1.801   0.541
 3453SOL     OW11257   5.965   5.132   5.211
 3453SOL    HW111258   6.050   5.177   5.238
 3453SOL    HW211259   5.907   5.197   5.160
 3454SOL     OW11260   6.870   1.155   0.653
 3454SOL    HW111261   6.823   1.184   0.736
 3454SOL    HW211262   6.934   1.082   0.675
 3455SOL     OW11263   1.363   2.864   3.041
 3455SOL    HW111264   1.299   2.889   3.114
 3455SOL    HW211265   1.374   2.765   3.039
 3456SOL     OW11266   6.248   0.452   0.392
 3456SOL    HW111267   6.322   0.402   0.437
 3456SOL    HW211268   6.208   0.395   0.320
 3457SOL     OW11269   2.035   6.358   3.263
 3457SOL    HW111270   2.012   6.452   3.288
 3457SOL    HW211271   2.019   6.345   3.165
 3458SOL     OW11272   4.789   4.969   0.271
 3458SOL    HW111273   4.719   4.920   0.218
 3458SOL    HW211274   4.860   5.001   0.209
 3459SOL     OW11275   6.477   0.218   2.901
 3459SOL    HW111276   6.521   0.194   2.988
 3459SOL    HW211277   6.512   0.158   2.829
 3460SOL     OW11278   4.512   2.910   0.851
 3460SOL    HW111279   4.531   2.892   0.755
 3460SOL    HW211280   4.473   3.002   0.861
 3461SOL     OW11281   2.320   6.024   3.254
 3461SOL    HW111282   2.401   6.062   3.298
 3461SOL    HW211283   2.262   5.980   3.323
 3462SOL     OW11284   4.971   2.604   2.774
 3462SOL    HW111285   5.051   2.628   2.720
 3462SOL    HW211286   4.990   2.521   2.826
 3463SOL     OW11287   1.085   3.021   1.149
 3463SOL    HW111288   1.046   2.962   1.079
 3463SOL    HW211289   1.158   3.078   1.109
 3464SOL     OW11290   5.315   1.364   6.203
 3464SOL    HW111291   5.388   1.314   6.156
 3464SOL    HW211292   5.324   1.352   6.302
 3465SOL     OW11293   2.268   4.370   1.393
 3465SOL    HW111294   2.231   4.426   1.319
 3465SOL    HW211295   2.198   4.357   1.463
 3466SOL     OW11296   6.482   3.806   4.191
 3466SOL    HW111297   6.445   3.895   4.166
 3466SOL    HW211298   6.432   3.769   4.269
 3467SOL     OW11299   3.326   3.405   0.457
 3467SOL    HW111300   3.239   3.356   0.466
 3467SOL    HW211301   3.333   3.473   0.530
 3468SOL     OW11302   4.475   1.419   1.739
 3468SOL    HW111303   4.384   1.385   1.715
 3468SOL    HW211304   4.513   1.363   1.812
 3469SOL     OW11305   3.975   5.661   5.366
 3469SOL    HW111306   3.970   5.569   5.326
 3469SOL    HW211307   3.883   5.698   5.376
 3470SOL     OW11308   1.166   2.738   0.689
 3470SOL    HW111309   1.079   2.703   0.720
 3470SOL    HW211310   1.216   2.779   0.766
 3471SOL     OW11311   5.017   2.917   4.938
 3471SOL    HW111312   4.943   2.857   4.909
 3471SOL    HW211313   5.100   2.896   4.886
 3472SOL     OW11314   4.508   1.615   2.140
 3472SOL    HW111315   4.564   1.647   2.064
 3472SOL    HW211316   4.483   1.693   2.198
 3473SOL     OW11317   6.271   4.513   1.808
 3473SOL    HW111318   6.225   4.600   1.823
 3473SOL    HW211319   6.229   4.466   1.730
 3474SOL     OW11320   4.879   3.692   3.541
 3474SOL    HW111321   4.840   3.783   3.529
 3474SOL    HW211322   4.887   3.672   3.639
 3475SOL     OW11323   6.972   3.952   4.180
 3475SOL    HW111324   7.004   3.947   4.274
 3475SOL    HW211325   6.876   3.926   4.176
 3476SOL     OW11326   1.989   3.047   3.035
 3476SOL    HW111327   1.941   3.116   2.981
 3476SOL    HW211328   2.085   3.045   3.008
 3477SOL     OW11329   1.436   4.277   1.819
 3477SOL    HW111330   1.438   4.370   1.784
 3477SOL    HW211331   1.365   4.269   1.889
 3478SOL     OW11332   2.548   0.595   1.370
 3478SOL    HW111333   2.646   0.602   1.350
 3478SOL    HW211334   2.520   0.671   1.428
 3479SOL     OW11335   1.403   3.889   5.711
 3479SOL    HW111336   1.360   3.801   5.695
 3479SOL    HW211337   1.435   3.926   5.623
 3480SOL     OW11338   1.040   5.088   6.868
 3480SOL    HW111339   1.053   5.161   6.801
 3480SOL    HW211340   1.129   5.045   6.887
 3481SOL     OW11341   6.108   0.892   4.643
 3481SOL    HW111342   6.111   0.892   4.743
 3481SOL    HW211343   6.043   0.960   4.612
 3482SOL     OW11344   6.096   2.888   6.275
 3482SOL    HW111345   6.071   2.861   6.368
 3482SOL    HW211346   6.151   2.816   6.233
 3483SOL     OW11347   5.291   2.403   4.730
 3483SOL    HW111348   5.235   2.323   4.754
 3483SOL    HW211349   5.237   2.464   4.672
 3484SOL     OW11350   1.039   2.906   4.770
 3484SOL    HW111351   1.041   2.967   4.691
 3484SOL    HW211352   1.101   2.829   4.753
 3485SOL     OW11353   6.680   3.993   6.850
 3485SOL    HW111354   6.603   3.958   6.797
 3485SOL    HW211355   6.765   3.978   6.801
 3486SOL     OW11356   1.498   6.426   5.000
 3486SOL    HW111357   1.460   6.468   4.918
 3486SOL    HW211358   1.597   6.417   4.989
 3487SOL     OW11359   4.188   1.619   6.604
 3487SOL    HW111360   4.228   1.711   6.596
 3487SOL    HW211361   4.164   1.602   6.699
 3488SOL     OW11362   4.863   6.426   5.323
 3488SOL    HW111363   4.921   6.501   5.291
 3488SOL    HW211364   4.876   6.347   5.262
 3489SOL     OW11365   3.515   6.037   0.706
 3489SOL    HW111366   3.530   6.115   0.767
 3489SOL    HW211367   3.587   6.034   0.637
 3490SOL     OW11368   4.206   6.935   0.884
 3490SOL    HW111369   4.216   6.946   0.983
 3490SOL    HW211370   4.216   0.005   0.840
 3491SOL     OW11371   4.862   4.311   5.428
 3491SOL    HW111372   4.908   4.330   5.514
 3491SOL    HW211373   4.763   4.312   5.443
 3492SOL     OW11374   5.661   3.681   3.552
 3492SOL    HW111375   5.689   3.777   3.545
 3492SOL    HW211376   5.565   3.677   3.581
 3493SOL     OW11377   0.399   3.766   5.837
 3493SOL    HW111378   0.423   3.751   5.741
 3493SOL    HW211379   0.482   3.758   5.893
 3494SOL     OW11380   4.499   1.156   2.905
 3494SOL    HW111381   4.495   1.123   2.810
 3494SOL    HW211382   4.443   1.097   2.963
 3495SOL     OW11383   2.035   3.789   3.839
 3495SOL    HW111384   1.949   3.748   3.870
 3495SOL    HW211385   2.021   3.887   3.823
 3496SOL     OW11386   6.299   5.703   1.133
 3496SOL    HW111387   6.208   5.708   1.090
 3496SOL    HW211388   6.346   5.620   1.103
 3497SOL     OW11389   3.238   0.273   1.467
 3497SOL    HW111390   3.312   0.330   1.504
 3497SOL    HW211391   3.233   0.188   1.519
 3498SOL     OW11392   2.655   2.585   1.423
 3498SOL    HW111393   2.721   2.517   1.391
 3498SOL    HW211394   2.580   2.592   1.357
 3499SOL     OW11395   5.798   6.777   4.993
 3499SOL    HW111396   5.831   6.859   5.040
 3499SOL    HW211397   5.734   6.804   4.921
 3500SOL     OW11398   2.942   2.133   3.706
 3500SOL    HW111399   3.022   2.073   3.698
 3500SOL    HW211400   2.945   2.202   3.634
 3501SOL     OW11401   1.496   7.008   6.215
 3501SOL    HW111402   1.464   7.015   6.310
 3501SOL    HW211403   1.430   6.955   6.161
 3502SOL     OW11404   5.376   2.196   2.235
 3502SOL    HW111405   5.277   2.208   2.223
 3502SOL    HW211406   5.394   2.159   2.326
 3503SOL     OW11407   0.668   6.154   6.433
 3503SOL    HW111408   0.756   6.106   6.430
 3503SOL    HW211409   0.661   6.214   6.353
 3504SOL     OW11410   2.077   0.808   6.816
 3504SOL    HW111411   2.087   0.903   6.846
 3504SOL    HW211412   1.979   0.786   6.806
 3505SOL     OW11413   5.224   2.366   5.170
 3505SOL    HW111414   5.191   2.343   5.262
 3505SOL    HW211415   5.147   2.398   5.114
 3506SOL     OW11416   4.062   4.878   4.985
 3506SOL    HW111417   4.038   4.849   5.077
 3506SOL    HW211418   3.982   4.871   4.925
 3507SOL     OW11419   2.923   1.801   1.177
 3507SOL    HW111420   2.828   1.769   1.180
 3507SOL    HW211421   2.942   1.859   1.256
 3508SOL     OW11422   3.721   1.374   6.856
 3508SOL    HW111423   3.732   1.274   6.851
 3508SOL    HW211424   3.631   1.396   6.892
 3509SOL     OW11425   4.385   5.526   6.987
 3509SOL    HW111426   4.287   5.545   6.984
 3509SOL    HW211427   4.424   5.542   6.896
 3510SOL     OW11428   2.509   1.090   1.452
 3510SOL    HW111429   2.595   1.135   1.478
 3510SOL    HW211430   2.440   1.160   1.432
 3511SOL     OW11431   2.694   4.860   2.049
 3511SOL    HW111432   2.614   4.802   2.031
 3511SOL    HW211433   2.776   4.815   2.013
 3512SOL     OW11434   6.672   5.311   5.910
 3512SOL    HW111435   6.612   5.234   5.886
 3512SOL    HW211436   6.767   5.284   5.896
 3513SOL     OW11437   5.128   1.743   0.209
 3513SOL    HW111438   5.133   1.811   0.282
 3513SOL    HW211439   5.217   1.698   0.199
 3514SOL     OW11440   3.396   1.802   2.140
 3514SOL    HW111441   3.477   1.860   2.142
 3514SOL    HW211442   3.399   1.743   2.059
 3515SOL     OW11443   0.420   4.321   3.964
 3515SOL    HW111444   0.416   4.301   3.866
 3515SOL    HW211445   0.509   4.362   3.986
 3516SOL     OW11446   4.280   0.654   1.263
 3516SOL    HW111447   4.337   0.699   1.332
 3516SOL    HW211448   4.321   0.567   1.237
 3517SOL     OW11449   4.786   1.522   2.149
 3517SOL    HW111450   4.724   1.599   2.138
 3517SOL    HW211451   4.815   1.516   2.245
 3518SOL     OW11452   6.410   1.519   5.477
 3518SOL    HW111453   6.326   1.505   5.424
 3518SOL    HW211454   6.394   1.491   5.571
 3519SOL     OW11455   3.249   1.454   1.440
 3519SOL    HW111456   3.320   1.523   1.423
 3519SOL    HW211457   3.290   1.375   1.485
 3520SOL     OW11458   2.526   6.230   4.142
 3520SOL    HW111459   2.465   6.188   4.209
 3520SOL    HW211460   2.494   6.210   4.050
 3521SOL     OW11461   2.330   2.460   6.019
 3521SOL    HW111462   2.295   2.374   5.983
 3521SOL    HW211463   2.426   2.472   5.991
 3522SOL     OW11464   0.731   6.085   6.885
 3522SOL    HW111465   0.731   6.004   6.826
 3522SOL    HW211466   0.697   6.164   6.833
 3523SOL     OW11467   3.616   5.746   0.053
 3523SOL    HW111468   3.666   5.741   0.139
 3523SOL    HW211469   3.680   5.742   6.997
 3524SOL     OW11470   4.438   1.492   4.328
 3524SOL    HW111471   4.381   1.411   4.339
 3524SOL    HW211472   4.379   1.572   4.313
 3525SOL     OW11473   0.296   2.953   3.395
 3525SOL    HW111474   0.356   2.979   3.470
 3525SOL    HW211475   0.333   2.873   3.348
 3526SOL     OW11476   0.166   6.817   1.673
 3526SOL    HW111477   0.195   6.832   1.768
 3526SOL    HW211478   0.130   6.724   1.663
 3527SOL     OW11479   6.356   2.870   0.339
 3527SOL    HW111480   6.409   2.851   0.257
 3527SOL    HW211481   6.369   2.796   0.405
 3528SOL     OW11482   2.116   5.295   5.179
 3528SOL    HW111483   2.181   5.318   5.107
 3528SOL    HW211484   2.165   5.279   5.264
 3529SOL     OW11485   4.642   4.049   0.301
 3529SOL    HW111486   4.682   4.125   0.249
 3529SOL    HW211487   4.706   4.021   0.372
 3530SOL     OW11488   6.351   0.495   0.939
 3530SOL    HW111489   6.418   0.531   0.873
 3530SOL    HW211490   6.376   0.524   1.031
 3531SOL     OW11491   4.511   1.803   0.747
 3531SOL    HW111492   4.443   1.873   0.729
 3531SOL    HW211493   4.601   1.834   0.715
 3532SOL     OW11494   2.184   0.777   1.370
 3532SOL    HW111495   2.191   0.793   1.272
 3532SOL    HW211496   2.145   0.858   1.414
 3533SOL     OW11497   1.854   2.741   3.014
 3533SOL    HW111498   1.899   2.829   3.030
 3533SOL    HW211499   1.793   2.721   3.090
 3534SOL     OW11500   0.482   1.379   0.799
 3534SOL    HW111501   0.493   1.363   0.700
 3534SOL    HW211502   0.444   1.297   0.842
 3535SOL     OW11503   4.371   6.730   3.739
 3535SOL    HW111504   4.459   6.686   3.722
 3535SOL    HW211505   4.384   6.815   3.788
 3536SOL     OW11506   4.143   1.778   4.142
 3536SOL    HW111507   4.088   1.767   4.224
 3536SOL    HW211508   4.199   1.860   4.150
 3537SOL     OW11509   1.832   6.185   2.345
 3537SOL    HW111510   1.860   6.175   2.441
 3537SOL    HW211511   1.912   6.179   2.286
 3538SOL     OW11512   3.515   5.857   1.607
 3538SOL    HW111513   3.555   5.946   1.586
 3538SOL    HW211514   3.518   5.798   1.526
 3539SOL     OW11515   3.474   3.947   4.323
 3539SOL    HW111516   3.400   4.003   4.285
 3539SOL    HW211517   3.529   4.002   4.385
 3540SOL     OW11518   2.185   2.257   3.136
 3540SOL    HW111519   2.273   2.237   3.179
 3540SOL    HW211520   2.111   2.222   3.194
 3541SOL     OW11521   3.961   3.856   4.551
 3541SOL    HW111522   3.980   3.904   4.637
 3541SOL    HW211523   3.898   3.910   4.496
 3542SOL     OW11524   6.911   5.777   1.511
 3542SOL    HW111525   6.852   5.820   1.442
 3542SOL    HW211526   6.932   5.844   1.582
 3543SOL     OW11527   5.028   2.212   4.661
 3543SOL    HW111528   4.975   2.273   4.603
 3543SOL    HW211529   5.063   2.136   4.606
 3544SOL     OW11530   3.307   6.944   6.563
 3544SOL    HW111531   3.310   6.844   6.565
 3544SOL    HW211532   3.395   6.979   6.532
 3545SOL     OW11533   3.046   5.170   0.479
 3545SOL    HW111534   3.093   5.159   0.391
 3545SOL    HW211535   3.114   5.182   0.552
 3546SOL     OW11536   1.118   4.628   2.634
 3546SOL    HW111537   1.037   4.687   2.636
 3546SOL    HW211538   1.095   4.541   2.589
 3547SOL     OW11539   5.148   4.689   4.015
 3547SOL    HW111540   5.068   4.630   3.999
 3547SOL    HW211541   5.206   4.648   4.084
 3548SOL     OW11542   6.039   3.225   5.568
 3548SOL    HW111543   6.000   3.177   5.646
 3548SOL    HW211544   5.987   3.204   5.486
 3549SOL     OW11545   5.187   3.484   2.061
 3549SOL    HW111546   5.088   3.494   2.056
 3549SOL    HW211547   5.211   3.398   2.105
 3550SOL     OW11548   5.163   1.764   3.985
 3550SOL    HW111549   5.066   1.787   3.991
 3550SOL    HW211550   5.180   1.714   3.900
 3551SOL     OW11551   1.699   0.344   2.375
 3551SOL    HW111552   1.692   0.443   2.390
 3551SOL    HW211553   1.778   0.308   2.423
 3552SOL     OW11554   6.625   4.565   3.163
 3552SOL    HW111555   6.669   4.561   3.073
 3552SOL    HW211556   6.568   4.485   3.176
 3553SOL     OW11557   5.640   1.919   3.489
 3553SOL    HW111558   5.649   2.019   3.490
 3553SOL    HW211559   5.726   1.879   3.456
 3554SOL     OW11560   3.745   5.485   6.854
 3554SOL    HW111561   3.683   5.520   6.785
 3554SOL    HW211562   3.692   5.442   6.927
 3555SOL     OW11563   0.929   2.344   4.012
 3555SOL    HW111564   0.971   2.435   4.019
 3555SOL    HW211565   0.974   2.283   4.077
 3556SOL     OW11566   4.164   1.574   6.060
 3556SOL    HW111567   4.142   1.501   6.125
 3556SOL    HW211568   4.221   1.642   6.105
 3557SOL     OW11569   1.389   0.747   3.954
 3557SOL    HW111570   1.404   0.845   3.942
 3557SOL    HW211571   1.385   0.702   3.864
 3558SOL     OW11572   0.195   6.884   1.252
 3558SOL    HW111573   0.183   6.983   1.241
 3558SOL    HW211574   0.231   6.864   1.342
 3559SOL     OW11575   0.727   0.585   5.850
 3559SOL    HW111576   0.683   0.550   5.933
 3559SOL    HW211577   0.723   0.516   5.778
 3560SOL     OW11578   6.485   0.010   1.596
 3560SOL    HW111579   6.561   0.068   1.623
 3560SOL    HW211580   6.400   0.049   1.632
 3561SOL     OW11581   5.655   4.968   3.698
 3561SOL    HW111582   5.564   5.010   3.692
 3561SOL    HW211583   5.648   4.870   3.683
 3562SOL     OW11584   4.189   2.235   2.352
 3562SOL    HW111585   4.173   2.183   2.436
 3562SOL    HW211586   4.266   2.297   2.365
 3563SOL     OW11587   3.982   6.386   1.835
 3563SOL    HW111588   4.010   6.449   1.763
 3563SOL    HW211589   3.968   6.295   1.797
 3564SOL     OW11590   6.448   4.422   2.032
 3564SOL    HW111591   6.400   4.439   1.946
 3564SOL    HW211592   6.382   4.420   2.107
 3565SOL     OW11593   0.690   0.700   5.484
 3565SOL    HW111594   0.753   0.694   5.406
 3565SOL    HW211595   0.735   0.748   5.559
 3566SOL     OW11596   0.796   4.634   5.832
 3566SOL    HW111597   0.854   4.634   5.751
 3566SOL    HW211598   0.839   4.580   5.905
 3567SOL     OW11599   6.706   2.124   1.079
 3567SOL    HW111600   6.731   2.221   1.076
 3567SOL    HW211601   6.735   2.084   1.166
 3568SOL     OW11602   4.901   4.089   3.998
 3568SOL    HW111603   4.872   3.995   3.976
 3568SOL    HW211604   4.996   4.102   3.969
 3569SOL     OW11605   3.962   3.537   3.448
 3569SOL    HW111606   3.972   3.447   3.405
 3569SOL    HW211607   3.906   3.595   3.389
 3570SOL     OW11608   0.452   2.607   5.472
 3570SOL    HW111609   0.412   2.565   5.391
 3570SOL    HW211610   0.434   2.549   5.552
 3571SOL     OW11611   3.000   0.112   4.254
 3571SOL    HW111612   3.080   0.095   4.197
 3571SOL    HW211613   3.006   0.058   4.338
 3572SOL     OW11614   4.512   4.465   2.811
 3572SOL    HW111615   4.565   4.520   2.876
 3572SOL    HW211616   4.422   4.506   2.798
 3573SOL     OW11617   0.519   4.626   3.810
 3573SOL    HW111618   0.605   4.645   3.762
 3573SOL    HW211619   0.459   4.706   3.804
 3574SOL     OW11620   2.023   2.005   5.923
 3574SOL    HW111621   2.060   1.950   5.848
 3574SOL    HW211622   2.079   2.088   5.933
 3575SOL     OW11623   4.719   0.239   6.161
 3575SOL    HW111624   4.799   0.205   6.210
 3575SOL    HW211625   4.694   0.175   6.089
 3576SOL     OW11626   0.950   2.819   0.520
 3576SOL    HW111627   0.996   2.907   0.522
 3576SOL    HW211628   1.010   2.748   0.557
 3577SOL     OW11629   2.172   3.692   4.647
 3577SOL    HW111630   2.222   3.775   4.671
 3577SOL    HW211631   2.122   3.705   4.562
 3578SOL     OW11632   4.808   2.019   0.808
 3578SOL    HW111633   4.776   1.989   0.718
 3578SOL    HW211634   4.745   1.986   0.878
 3579SOL     OW11635   0.741   3.708   2.362
 3579SOL    HW111636   0.761   3.658   2.278
 3579SOL    HW211637   0.710   3.800   2.339
 3580SOL     OW11638   6.649   3.964   2.084
 3580SOL    HW111639   6.707   4.038   2.118
 3580SOL    HW211640   6.593   3.999   2.008
 3581SOL     OW11641   1.703   0.405   3.046
 3581SOL    HW111642   1.661   0.409   2.955
 3581SOL    HW211643   1.765   0.327   3.051
 3582SOL     OW11644   4.836   6.375   6.865
 3582SOL    HW111645   4.846   6.281   6.832
 3582SOL    HW211646   4.775   6.377   6.944
 3583SOL     OW11647   1.913   6.098   0.582
 3583SOL    HW111648   1.992   6.153   0.554
 3583SOL    HW211649   1.923   6.072   0.678
 3584SOL     OW11650   5.417   5.141   4.822
 3584SOL    HW111651   5.434   5.217   4.885
 3584SOL    HW211652   5.367   5.174   4.742
 3585SOL     OW11653   4.302   2.097   3.610
 3585SOL    HW111654   4.390   2.071   3.649
 3585SOL    HW211655   4.313   2.117   3.513
 3586SOL     OW11656   6.776   3.020   5.067
 3586SOL    HW111657   6.798   3.050   5.159
 3586SOL    HW211658   6.840   2.948   5.039
 3587SOL     OW11659   2.236   0.511   5.968
 3587SOL    HW111660   2.179   0.457   6.031
 3587SOL    HW211661   2.314   0.455   5.939
 3588SOL     OW11662   6.057   4.011   4.039
 3588SOL    HW111663   6.034   3.948   3.964
 3588SOL    HW211664   6.024   3.973   4.125
 3589SOL     OW11665   0.024   1.278   6.177
 3589SOL    HW111666   0.042   1.377   6.182
 3589SOL    HW211667   6.997   1.258   6.092
 3590SOL     OW11668   6.114   4.836   6.037
 3590SOL    HW111669   6.058   4.918   6.052
 3590SOL    HW211670   6.090   4.797   5.948
 3591SOL     OW11671   4.900   1.140   0.847
 3591SOL    HW111672   4.809   1.181   0.855
 3591SOL    HW211673   4.936   1.121   0.938
 3592SOL     OW11674   0.622   6.215   1.221
 3592SOL    HW111675   0.667   6.227   1.309
 3592SOL    HW211676   0.656   6.284   1.157
 3593SOL     OW11677   4.260   3.280   5.609
 3593SOL    HW111678   4.351   3.296   5.647
 3593SOL    HW211679   4.200   3.242   5.679
 3594SOL     OW11680   4.386   4.551   5.336
 3594SOL    HW111681   4.479   4.519   5.321
 3594SOL    HW211682   4.325   4.512   5.266
 3595SOL     OW11683   4.803   6.814   5.414
 3595SOL    HW111684   4.727   6.823   5.477
 3595SOL    HW211685   4.848   6.903   5.404
 3596SOL     OW11686   3.314   1.518   1.999
 3596SOL    HW111687   3.376   1.588   1.963
 3596SOL    HW211688   3.367   1.437   2.025
 3597SOL     OW11689   4.100   4.585   5.296
 3597SOL    HW111690   4.152   4.517   5.245
 3597SOL    HW211691   4.010   4.548   5.321
 3598SOL     OW11692   6.542   5.594   4.071
 3598SOL    HW111693   6.453   5.632   4.047
 3598SOL    HW211694   6.599   5.665   4.112
 3599SOL     OW11695   1.936   1.203   5.573
 3599SOL    HW111696   1.934   1.127   5.638
 3599SOL    HW211697   1.906   1.170   5.483
 3600SOL     OW11698   2.106   4.156   1.199
 3600SOL    HW111699   2.049   4.083   1.161
 3600SOL    HW211700   2.079   4.173   1.294
 3601SOL     OW11701   3.231   0.228   5.167
 3601SOL    HW111702   3.328   0.228   5.191
 3601SOL    HW211703   3.182   0.289   5.230
 3602SOL     OW11704   1.448   2.251   0.665
 3602SOL    HW111705   1.369   2.221   0.612
 3602SOL    HW211706   1.442   2.350   0.680
 3603SOL     OW11707   1.207   6.844   5.791
 3603SOL    HW111708   1.234   6.936   5.820
 3603SOL    HW211709   1.274   6.809   5.726
 3604SOL     OW11710   6.861   1.351   4.369
 3604SOL    HW111711   6.795   1.390   4.433
 3604SOL    HW211712   6.870   1.253   4.385
 3605SOL     OW11713   1.032   0.118   4.891
 3605SOL    HW111714   0.967   0.044   4.907
 3605SOL    HW211715   1.103   0.117   4.962
 3606SOL     OW11716   1.786   6.948   3.143
 3606SOL    HW111717   1.750   6.961   3.236
 3606SOL    HW211718   1.851   6.873   3.142
 3607SOL     OW11719   5.767   1.713   4.292
 3607SOL    HW111720   5.756   1.615   4.308
 3607SOL    HW211721   5.862   1.740   4.309
 3608SOL     OW11722   4.134   1.842   5.431
 3608SOL    HW111723   4.090   1.904   5.365
 3608SOL    HW211724   4.232   1.838   5.413
 3609SOL     OW11725   3.121   6.532   4.824
 3609SOL    HW111726   3.168   6.497   4.906
 3609SOL    HW211727   3.185   6.588   4.771
 3610SOL     OW11728   1.063   0.133   6.017
 3610SOL    HW111729   1.013   0.216   5.992
 3610SOL    HW211730   1.005   0.053   5.999
 3611SOL     OW11731   5.369   3.344   2.848
 3611SOL    HW111732   5.421   3.413   2.899
 3611SOL    HW211733   5.362   3.373   2.753
 3612SOL     OW11734   5.248   1.421   0.815
 3612SOL    HW111735   5.241   1.396   0.911
 3612SOL    HW211736   5.333   1.471   0.799
 3613SOL     OW11737   4.111   0.876   2.531
 3613SOL    HW111738   4.166   0.799   2.498
 3613SOL    HW211739   4.020   0.872   2.489
 3614SOL     OW11740   3.334   5.946   0.230
 3614SOL    HW111741   3.362   5.888   0.154
 3614SOL    HW211742   3.400   6.020   0.241
 3615SOL     OW11743   5.516   2.533   4.826
 3615SOL    HW111744   5.508   2.626   4.790
 3615SOL    HW211745   5.438   2.478   4.794
 3616SOL     OW11746   2.221   0.832   1.081
 3616SOL    HW111747   2.253   0.815   0.988
 3616SOL    HW211748   2.149   0.901   1.078
 3617SOL     OW11749   4.030   5.368   4.837
 3617SOL    HW111750   4.083   5.284   4.850
 3617SOL    HW211751   4.016   5.413   4.925
 3618SOL     OW11752   1.235   5.359   4.282
 3618SOL    HW111753   1.213   5.428   4.351
 3618SOL    HW211754   1.172   5.369   4.205
 3619SOL     OW11755   0.049   1.848   1.994
 3619SOL    HW111756   0.110   1.791   1.941
 3619SOL    HW211757   0.036   1.809   2.085
 3620SOL     OW11758   4.621   6.642   5.652
 3620SOL    HW111759   4.682   6.647   5.730
 3620SOL    HW211760   4.563   6.561   5.660
 3621SOL     OW11761   3.281   3.123   3.132
 3621SOL    HW111762   3.202   3.089   3.182
 3621SOL    HW211763   3.348   3.158   3.197
 3622SOL     OW11764   2.069   6.052   6.072
 3622SOL    HW111765   2.097   6.013   6.159
 3622SOL    HW211766   2.031   5.981   6.013
 3623SOL     OW11767   1.904   5.995   5.651
 3623SOL    HW111768   1.858   6.078   5.682
 3623SOL    HW211769   1.914   5.932   5.728
 3624SOL     OW11770   2.855   1.629   2.607
 3624SOL    HW111771   2.827   1.567   2.680
 3624SOL    HW211772   2.776   1.652   2.550
 3625SOL     OW11773   6.135   1.634   1.442
 3625SOL    HW111774   6.058   1.572   1.455
 3625SOL    HW211775   6.104   1.717   1.395
 3626SOL     OW11776   0.898   3.298   5.708
 3626SOL    HW111777   0.993   3.330   5.705
 3626SOL    HW211778   0.840   3.363   5.659
 3627SOL     OW11779   3.067   1.349   2.567
 3627SOL    HW111780   3.020   1.378   2.484
 3627SOL    HW211781   3.003   1.350   2.644
 3628SOL     OW11782   6.818   1.318   1.657
 3628SOL    HW111783   6.916   1.318   1.674
 3628SOL    HW211784   6.800   1.304   1.560
 3629SOL     OW11785   1.812   0.705   4.548
 3629SOL    HW111786   1.800   0.613   4.585
 3629SOL    HW211787   1.887   0.751   4.596
 3630SOL     OW11788   6.836   1.570   2.671
 3630SOL    HW111789   6.798   1.620   2.748
 3630SOL    HW211790   6.779   1.490   2.651
 3631SOL     OW11791   2.370   5.189   2.404
 3631SOL    HW111792   2.422   5.190   2.318
 3631SOL    HW211793   2.272   5.187   2.383
 3632SOL     OW11794   5.093   3.250   2.629
 3632SOL    HW111795   5.161   3.323   2.639
 3632SOL    HW211796   5.131   3.164   2.662
 3633SOL     OW11797   4.574   4.920   5.706
 3633SOL    HW111798   4.622   4.832   5.713
 3633SOL    HW211799   4.489   4.917   5.758
 3634SOL     OW11800   2.782   5.128   6.534
 3634SOL    HW111801   2.682   5.137   6.530
 3634SOL    HW211802   2.817   5.114   6.441
 3635SOL     OW11803   1.638   6.702   2.645
 3635SOL    HW111804   1.538   6.700   2.655
 3635SOL    HW211805   1.671   6.609   2.631
 3636SOL     OW11806   6.861   6.357   4.334
 3636SOL    HW111807   6.811   6.298   4.271
 3636SOL    HW211808   6.796   6.405   4.393
 3637SOL     OW11809   4.965   2.043   6.969
 3637SOL    HW111810   5.038   2.084   6.913
 3637SOL    HW211811   4.922   2.115   0.004
 3638SOL     OW11812   0.506   2.656   4.048
 3638SOL    HW111813   0.582   2.718   4.028
 3638SOL    HW211814   0.513   2.576   3.989
 3639SOL     OW11815   3.401   3.274   3.906
 3639SOL    HW111816   3.347   3.358   3.907
 3639SOL    HW211817   3.412   3.240   3.999
 3640SOL     OW11818   4.455   1.834   2.328
 3640SOL    HW111819   4.387   1.892   2.373
 3640SOL    HW211820   4.531   1.818   2.390
 3641SOL     OW11821   0.024   3.253   1.456
 3641SOL    HW111822   0.040   3.156   1.438
 3641SOL    HW211823   0.005   3.299   1.369
 3642SOL     OW11824   4.173   4.728   6.508
 3642SOL    HW111825   4.160   4.642   6.458
 3642SOL    HW211826   4.121   4.801   6.464
 3643SOL     OW11827   4.484   4.946   5.026
 3643SOL    HW111828   4.570   4.905   4.995
 3643SOL    HW211829   4.410   4.921   4.963
 3644SOL     OW11830   3.128   1.802   1.641
 3644SOL    HW111831   3.071   1.723   1.659
 3644SOL    HW211832   3.224   1.774   1.634
 3645SOL     OW11833   1.501   3.752   3.933
 3645SOL    HW111834   1.570   3.787   3.870
 3645SOL    HW211835   1.506   3.652   3.935
 3646SOL     OW11836   2.559   5.235   5.302
 3646SOL    HW111837   2.460   5.231   5.315
 3646SOL    HW211838   2.588   5.162   5.241
 3647SOL     OW11839   3.407   0.906   0.825
 3647SOL    HW111840   3.435   0.910   0.922
 3647SOL    HW211841   3.387   0.811   0.801
 3648SOL     OW11842   5.695   5.585   3.984
 3648SOL    HW111843   5.737   5.621   3.901
 3648SOL    HW211844   5.647   5.500   3.963
 3649SOL     OW11845   5.235   3.055   0.243
 3649SOL    HW111846   5.250   3.114   0.165
 3649SOL    HW211847   5.180   3.103   0.312
 3650SOL     OW11848   5.246   6.221   0.100
 3650SOL    HW111849   5.263   6.318   0.082
 3650SOL    HW211850   5.149   6.208   0.123
 3651SOL     OW11851   0.498   1.799   5.690
 3651SOL    HW111852   0.586   1.809   5.736
 3651SOL    HW211853   0.478   1.882   5.638
 3652SOL     OW11854   5.805   2.009   2.515
 3652SOL    HW111855   5.873   1.939   2.496
 3652SOL    HW211856   5.822   2.089   2.457
 3653SOL     OW11857   2.292   1.698   0.743
 3653SOL    HW111858   2.351   1.760   0.692
 3653SOL    HW211859   2.314   1.702   0.840
 3654SOL     OW11860   4.210   5.963   0.909
 3654SOL    HW111861   4.239   5.868   0.897
 3654SOL    HW211862   4.239   6.016   0.830
 3655SOL     OW11863   1.279   6.976   3.810
 3655SOL    HW111864   1.344   0.006   3.754
 3655SOL    HW211865   1.251   0.013   3.888
 3656SOL     OW11866   0.662   0.734   0.912
 3656SOL    HW111867   0.667   0.763   1.008
 3656SOL    HW211868   0.646   0.813   0.854
 3657SOL     OW11869   0.012   4.539   6.413
 3657SOL    HW111870   0.110   4.553   6.426
 3657SOL    HW211871   7.014   4.443   6.394
 3658SOL     OW11872   2.415   4.440   5.846
 3658SOL    HW111873   2.323   4.451   5.808
 3658SOL    HW211874   2.415   4.466   5.942
 3659SOL     OW11875   1.072   2.304   0.214
 3659SOL    HW111876   1.034   2.276   0.302
 3659SOL    HW211877   1.084   2.403   0.213
 3660SOL     OW11878   4.337   4.634   4.272
 3660SOL    HW111879   4.343   4.720   4.323
 3660SOL    HW211880   4.274   4.572   4.318
 3661SOL     OW11881   0.763   0.971   5.109
 3661SOL    HW111882   0.703   0.913   5.165
 3661SOL    HW211883   0.836   0.916   5.070
 3662SOL     OW11884   3.641   2.678   5.523
 3662SOL    HW111885   3.717   2.663   5.460
 3662SOL    HW211886   3.556   2.687   5.470
 3663SOL     OW11887   1.532   2.663   5.795
 3663SOL    HW111888   1.603   2.644   5.863
 3663SOL    HW211889   1.567   2.725   5.725
 3664SOL     OW11890   1.990   2.640   0.687
 3664SOL    HW111891   1.894   2.622   0.709
 3664SOL    HW211892   2.028   2.703   0.755
 3665SOL     OW11893   6.718   6.022   5.068
 3665SOL    HW111894   6.795   5.975   5.024
 3665SOL    HW211895   6.720   6.003   5.166
 3666SOL     OW11896   2.165   3.882   4.866
 3666SOL    HW111897   2.155   3.791   4.904
 3666SOL    HW211898   2.215   3.940   4.930
 3667SOL     OW11899   2.695   6.351   1.177
 3667SOL    HW111900   2.691   6.402   1.091
 3667SOL    HW211901   2.628   6.277   1.176
 3668SOL     OW11902   4.537   0.613   0.477
 3668SOL    HW111903   4.548   0.710   0.457
 3668SOL    HW211904   4.453   0.580   0.434
 3669SOL     OW11905   6.790   1.294   2.535
 3669SOL    HW111906   6.739   1.272   2.618
 3669SOL    HW211907   6.875   1.342   2.559
 3670SOL     OW11908   2.054   6.172   2.021
 3670SOL    HW111909   2.099   6.195   2.108
 3670SOL    HW211910   2.082   6.080   1.992
 3671SOL     OW11911   0.438   0.761   5.537
 3671SOL    HW111912   0.424   0.681   5.596
 3671SOL    HW211913   0.535   0.770   5.516
 3672SOL     OW11914   2.755   0.325   2.728
 3672SOL    HW111915   2.801   0.244   2.765
 3672SOL    HW211916   2.717   0.304   2.638
 3673SOL     OW11917   3.595   1.301   1.803
 3673SOL    HW111918   3.602   1.254   1.715
 3673SOL    HW211919   3.602   1.400   1.788
 3674SOL     OW11920   6.845   5.811   6.101
 3674SOL    HW111921   6.773   5.742   6.110
 3674SOL    HW211922   6.894   5.820   6.188
 3675SOL     OW11923   5.746   0.718   5.494
 3675SOL    HW111924   5.672   0.772   5.535
 3675SOL    HW211925   5.710   0.628   5.467
 3676SOL     OW11926   2.247   0.768   6.290
 3676SOL    HW111927   2.313   0.705   6.250
 3676SOL    HW211928   2.250   0.760   6.390
 3677SOL     OW11929   1.219   0.061   5.086
 3677SOL    HW111930   1.312   0.076   5.052
 3677SOL    HW211931   1.195   6.985   5.074
 3678SOL     OW11932   2.787   0.986   3.661
 3678SOL    HW111933   2.868   1.032   3.697
 3678SOL    HW211934   2.710   1.001   3.722
 3679SOL     OW11935   3.349   1.025   1.398
 3679SOL    HW111936   3.347   1.057   1.303
 3679SOL    HW211937   3.257   1.030   1.436
 3680SOL     OW11938   4.690   1.327   3.997
 3680SOL    HW111939   4.598   1.313   3.960
 3680SOL    HW211940   4.682   1.363   4.091
 3681SOL     OW11941   0.954   5.391   3.651
 3681SOL    HW111942   0.965   5.490   3.641
 3681SOL    HW211943   0.999   5.345   3.574
 3682SOL     OW11944   5.406   1.074   2.056
 3682SOL    HW111945   5.410   1.174   2.047
 3682SOL    HW211946   5.370   1.051   2.147
 3683SOL     OW11947   6.027   2.217   1.316
 3683SOL    HW111948   6.006   2.315   1.320
 3683SOL    HW211949   6.099   2.202   1.249
 3684SOL     OW11950   2.213   6.283   5.487
 3684SOL    HW111951   2.220   6.197   5.438
 3684SOL    HW211952   2.171   6.267   5.576
 3685SOL     OW11953   1.384   6.677   2.765
 3685SOL    HW111954   1.343   6.586   2.765
 3685SOL    HW211955   1.312   6.745   2.748
 3686SOL     OW11956   1.295   4.898   0.831
 3686SOL    HW111957   1.197   4.912   0.823
 3686SOL    HW211958   1.321   4.895   0.928
 3687SOL     OW11959   6.911   4.809   4.075
 3687SOL    HW111960   6.991   4.774   4.026
 3687SOL    HW211961   6.835   4.745   4.064
 3688SOL     OW11962   0.373   2.632   1.613
 3688SOL    HW111963   0.458   2.581   1.604
 3688SOL    HW211964   0.392   2.721   1.655
 3689SOL     OW11965   2.964   2.171   5.594
 3689SOL    HW111966   2.871   2.202   5.574
 3689SOL    HW211967   2.960   2.096   5.660
 3690SOL     OW11968   0.048   5.584   2.278
 3690SOL    HW111969   0.048   5.549   2.372
 3690SOL    HW211970   6.999   5.535   2.225
 3691SOL     OW11971   2.792   1.710   6.851
 3691SOL    HW111972   2.882   1.751   6.863
 3691SOL    HW211973   2.783   1.677   6.757
 3692SOL     OW11974   0.966   2.894   5.747
 3692SOL    HW111975   0.964   2.804   5.705
 3692SOL    HW211976   0.923   2.961   5.686
 3693SOL     OW11977   0.845   1.066   3.214
 3693SOL    HW111978   0.799   0.992   3.264
 3693SOL    HW211979   0.781   1.142   3.202
 3694SOL     OW11980   6.779   6.200   2.036
 3694SOL    HW111981   6.854   6.250   1.991
 3694SOL    HW211982   6.813   6.157   2.120
 3695SOL     OW11983   6.005   3.916   4.542
 3695SOL    HW111984   5.960   3.840   4.589
 3695SOL    HW211985   6.035   3.984   4.610
 3696SOL     OW11986   4.148   6.927   4.321
 3696SOL    HW111987   4.193   6.871   4.390
 3696SOL    HW211988   4.181   6.902   4.231
 3697SOL     OW11989   6.995   5.101   2.741
 3697SOL    HW111990   6.972   5.097   2.839
 3697SOL    HW211991   6.937   5.170   2.697
 3698SOL     OW11992   1.458   0.281   3.677
 3698SOL    HW111993   1.370   0.273   3.631
 3698SOL    HW211994   1.445   0.314   3.770
 3699SOL     OW11995   3.115   1.613   3.491
 3699SOL    HW111996   3.148   1.519   3.484
 3699SOL    HW211997   3.024   1.620   3.449
 3700SOL     OW11998   1.172   5.083   4.647
 3700SOL    HW111999   1.088   5.094   4.592
 3700SOL    HW212000   1.249   5.121   4.597
 3701SOL     OW12001   6.332   0.394   2.563
 3701SOL    HW112002   6.317   0.456   2.486
 3701SOL    HW212003   6.244   0.374   2.607
 3702SOL     OW12004   6.967   4.512   3.521
 3702SOL    HW112005   6.971   4.588   3.587
 3702SOL    HW212006   0.011   4.440   3.550
 3703SOL     OW12007   0.939   2.038   3.409
 3703SOL    HW112008   0.866   1.972   3.425
 3703SOL    HW212009   1.022   1.990   3.380
 3704SOL     OW12010   6.329   6.845   0.907
 3704SOL    HW112011   6.324   6.748   0.931
 3704SOL    HW212012   6.247   6.892   0.940
 3705SOL     OW12013   6.855   4.088   3.903
 3705SOL    HW112014   6.947   4.051   3.902
 3705SOL    HW212015   6.840   4.142   3.820
 3706SOL     OW12016   0.049   6.672   6.874
 3706SOL    HW112017   6.995   6.606   6.864
 3706SOL    HW212018   0.012   6.761   6.901
 3707SOL     OW12019   6.477   4.254   3.666
 3707SOL    HW112020   6.427   4.337   3.690
 3707SOL    HW212021   6.440   4.215   3.582
 3708SOL     OW12022   0.399   5.862   0.216
 3708SOL    HW112023   0.465   5.928   0.181
 3708SOL    HW212024   0.435   5.817   0.297
 3709SOL     OW12025   0.755   1.628   1.267
 3709SOL    HW112026   0.664   1.592   1.285
 3709SOL    HW212027   0.802   1.647   1.354
 3710SOL     OW12028   1.665   3.578   4.950
 3710SOL    HW112029   1.735   3.588   5.020
 3710SOL    HW212030   1.645   3.481   4.937
 3711SOL     OW12031   0.963   4.794   6.096
 3711SOL    HW112032   0.930   4.872   6.149
 3711SOL    HW212033   0.907   4.714   6.116
 3712SOL     OW12034   3.793   4.950   3.208
 3712SOL    HW112035   3.769   4.900   3.125
 3712SOL    HW212036   3.878   4.913   3.245
 3713SOL     OW12037   6.082   0.813   6.416
 3713SOL    HW112038   6.138   0.887   6.379
 3713SOL    HW212039   6.015   0.784   6.348
 3714SOL     OW12040   0.051   5.484   0.673
 3714SOL    HW112041   0.130   5.432   0.642
 3714SOL    HW212042   6.988   5.443   0.638
 3715SOL     OW12043   5.486   4.401   2.227
 3715SOL    HW112044   5.446   4.318   2.265
 3715SOL    HW212045   5.455   4.480   2.279
 3716SOL     OW12046   5.318   5.022   5.688
 3716SOL    HW112047   5.369   4.941   5.659
 3716SOL    HW212048   5.220   5.004   5.682
 3717SOL     OW12049   4.227   6.788   1.294
 3717SOL    HW112050   4.225   6.888   1.288
 3717SOL    HW212051   4.208   6.760   1.388
 3718SOL     OW12052   5.151   6.398   6.247
 3718SOL    HW112053   5.074   6.456   6.219
 3718SOL    HW212054   5.213   6.451   6.305
 3719SOL     OW12055   2.886   3.587   0.299
 3719SOL    HW112056   2.911   3.490   0.292
 3719SOL    HW212057   2.968   3.643   0.307
 3720SOL     OW12058   0.972   2.226   0.466
 3720SOL    HW112059   1.061   2.254   0.503
 3720SOL    HW212060   0.899   2.278   0.510
 3721SOL     OW12061   6.489   0.505   5.481
 3721SOL    HW112062   6.409   0.513   5.422
 3721SOL    HW212063   6.461   0.503   5.576
 3722SOL     OW12064   4.938   6.367   1.848
 3722SOL    HW112065   4.883   6.388   1.767
 3722SOL    HW212066   4.945   6.449   1.905
 3723SOL     OW12067   4.041   4.066   6.455
 3723SOL    HW112068   4.052   4.147   6.513
 3723SOL    HW212069   4.049   3.984   6.512
 3724SOL     OW12070   6.031   3.922   4.863
 3724SOL    HW112071   6.056   4.004   4.812
 3724SOL    HW212072   6.112   3.868   4.883
 3725SOL     OW12073   6.888   6.503   1.140
 3725SOL    HW112074   6.936   6.426   1.098
 3725SOL    HW212075   6.953   6.558   1.193
 3726SOL     OW12076   6.233   3.735   5.159
 3726SOL    HW112077   6.275   3.782   5.236
 3726SOL    HW212078   6.254   3.637   5.164
 3727SOL     OW12079   6.148   1.716   4.026
 3727SOL    HW112080   6.090   1.733   3.946
 3727SOL    HW212081   6.149   1.797   4.085
 3728SOL     OW12082   1.990   4.394   0.412
 3728SOL    HW112083   1.984   4.493   0.400
 3728SOL    HW212084   1.923   4.364   0.480
 3729SOL     OW12085   6.903   0.055   6.280
 3729SOL    HW112086   6.831   0.089   6.219
 3729SOL    HW212087   6.932   6.984   6.249
 3730SOL     OW12088   5.980   4.190   4.944
 3730SOL    HW112089   5.892   4.176   4.898
 3730SOL    HW212090   6.017   4.101   4.974
 3731SOL     OW12091   6.286   1.221   1.837
 3731SOL    HW112092   6.328   1.165   1.909
 3731SOL    HW212093   6.211   1.170   1.794
 3732SOL     OW12094   4.302   2.391   6.762
 3732SOL    HW112095   4.228   2.361   6.823
 3732SOL    HW212096   4.264   2.440   6.684
 3733SOL     OW12097   2.164   1.195   2.949
 3733SOL    HW112098   2.199   1.150   3.032
 3733SOL    HW212099   2.076   1.154   2.923
 3734SOL     OW12100   4.635   0.974   2.056
 3734SOL    HW112101   4.548   1.020   2.075
 3734SOL    HW212102   4.710   1.040   2.061
 3735SOL     OW12103   3.753   1.040   2.587
 3735SOL    HW112104   3.744   1.022   2.685
 3735SOL    HW212105   3.685   1.107   2.559
 3736SOL     OW12106   0.790   1.044   6.476
 3736SOL    HW112107   0.744   1.021   6.390
 3736SOL    HW212108   0.735   1.111   6.526
 3737SOL     OW12109   4.899   1.941   4.661
 3737SOL    HW112110   4.981   1.954   4.605
 3737SOL    HW212111   4.924   1.943   4.757
 3738SOL     OW12112   0.687   1.125   0.434
 3738SOL    HW112113   0.702   1.135   0.336
 3738SOL    HW212114   0.744   1.191   0.483
 3739SOL     OW12115   3.098   5.674   6.790
 3739SOL    HW112116   3.090   5.594   6.851
 3739SOL    HW212117   3.072   5.756   6.840
 3740SOL     OW12118   6.920   0.213   6.821
 3740SOL    HW112119   7.003   0.197   6.768
 3740SOL    HW212120   6.932   0.296   6.877
 3741SOL     OW12121   5.681   4.654   0.487
 3741SOL    HW112122   5.619   4.616   0.418
 3741SOL    HW212123   5.759   4.696   0.442
 3742SOL     OW12124   4.413   5.207   1.324
 3742SOL    HW112125   4.345   5.193   1.396
 3742SOL    HW212126   4.469   5.124   1.316
 3743SOL     OW12127   2.705   4.010   1.603
 3743SOL    HW112128   2.665   4.098   1.631
 3743SOL    HW212129   2.729   4.013   1.506
 3744SOL     OW12130   6.539   5.688   2.349
 3744SOL    HW112131   6.541   5.761   2.417
 3744SOL    HW212132   6.444   5.667   2.324
 3745SOL     OW12133   6.091   1.018   3.230
 3745SOL    HW112134   5.993   1.018   3.210
 3745SOL    HW212135   6.137   0.952   3.170
 3746SOL     OW12136   5.392   0.072   5.824
 3746SOL    HW112137   5.479   0.046   5.781
 3746SOL    HW212138   5.359   7.016   5.879
 3747SOL     OW12139   2.046   4.859   5.690
 3747SOL    HW112140   2.085   4.786   5.634
 3747SOL    HW212141   1.998   4.924   5.631
 3748SOL     OW12142   4.797   1.312   3.050
 3748SOL    HW112143   4.720   1.366   3.083
 3748SOL    HW212144   4.880   1.368   3.049
 3749SOL     OW12145   5.617   5.286   0.883
 3749SOL    HW112146   5.581   5.300   0.975
 3749SOL    HW212147   5.572   5.349   0.819
 3750SOL     OW12148   0.188   4.460   1.562
 3750SOL    HW112149   0.196   4.477   1.464
 3750SOL    HW212150   0.182   4.548   1.610
 3751SOL     OW12151   1.944   4.733   0.956
 3751SOL    HW112152   1.916   4.734   0.860
 3751SOL    HW212153   2.044   4.722   0.961
 3752SOL     OW12154   1.203   6.739   6.070
 3752SOL    HW112155   1.181   6.779   5.980
 3752SOL    HW212156   1.149   6.786   6.140
 3753SOL     OW12157   0.539   1.238   5.653
 3753SOL    HW112158   0.501   1.245   5.745
 3753SOL    HW212159   0.566   1.329   5.621
 3754SOL     OW12160   6.655   6.658   1.079
 3754SOL    HW112161   6.647   6.750   1.119
 3754SOL    HW212162   6.728   6.608   1.126
 3755SOL     OW12163   4.669   2.613   2.919
 3755SOL    HW112164   4.636   2.609   2.825
 3755SOL    HW212165   4.690   2.708   2.943
 3756SOL     OW12166   3.166   6.946   0.342
 3756SOL    HW112167   3.066   6.943   0.335
 3756SOL    HW212168   3.202   7.011   0.276
 3757SOL     OW12169   3.046   3.736   5.663
 3757SOL    HW112170   3.025   3.776   5.574
 3757SOL    HW212171   2.977   3.766   5.730
 3758SOL     OW12172   0.848   0.953   1.545
 3758SOL    HW112173   0.913   1.030   1.542
 3758SOL    HW212174   0.770   0.973   1.485
 3759SOL     OW12175   5.664   3.939   0.691
 3759SOL    HW112176   5.632   3.888   0.611
 3759SOL    HW212177   5.650   4.037   0.675
 3760SOL     OW12178   1.971   1.568   5.985
 3760SOL    HW112179   1.891   1.599   6.037
 3760SOL    HW212180   1.968   1.468   5.976
 3761SOL     OW12181   0.076   6.485   4.413
 3761SOL    HW112182   0.160   6.432   4.403
 3761SOL    HW212183   0.002   6.439   4.364
 3762SOL     OW12184   0.267   3.843   1.265
 3762SOL    HW112185   0.326   3.764   1.281
 3762SOL    HW212186   0.279   3.910   1.338
 3763SOL     OW12187   0.363   2.418   4.757
 3763SOL    HW112188   0.414   2.449   4.838
 3763SOL    HW212189   0.373   2.485   4.684
 3764SOL     OW12190   2.578   0.461   3.159
 3764SOL    HW112191   2.653   0.495   3.216
 3764SOL    HW212192   2.494   0.460   3.212
 3765SOL     OW12193   6.279   1.532   3.662
 3765SOL    HW112194   6.306   1.488   3.747
 3765SOL    HW212195   6.355   1.586   3.626
 3766SOL     OW12196   2.242   1.431   4.649
 3766SOL    HW112197   2.162   1.374   4.665
 3766SOL    HW212198   2.287   1.451   4.736
 3767SOL     OW12199   6.606   4.207   1.515
 3767SOL    HW112200   6.578   4.263   1.437
 3767SOL    HW212201   6.627   4.266   1.592
 3768SOL     OW12202   4.491   6.721   1.456
 3768SOL    HW112203   4.434   6.640   1.439
 3768SOL    HW212204   4.549   6.705   1.536
 3769SOL     OW12205   3.932   6.861   4.487
 3769SOL    HW112206   3.898   6.907   4.570
 3769SOL    HW212207   4.003   6.917   4.445
 3770SOL     OW12208   1.548   3.001   0.770
 3770SOL    HW112209   1.640   3.040   0.774
 3770SOL    HW212210   1.489   3.047   0.836
 3771SOL     OW12211   5.214   1.495   5.229
 3771SOL    HW112212   5.216   1.404   5.269
 3771SOL    HW212213   5.243   1.562   5.297
 3772SOL     OW12214   5.128   0.752   3.107
 3772SOL    HW112215   5.035   0.721   3.127
 3772SOL    HW212216   5.189   0.724   3.181
 3773SOL     OW12217   6.191   2.650   1.372
 3773SOL    HW112218   6.132   2.687   1.300
 3773SOL    HW212219   6.251   2.580   1.333
 3774SOL     OW12220   2.089   1.099   1.787
 3774SOL    HW112221   1.997   1.139   1.790
 3774SOL    HW212222   2.102   1.040   1.866
 3775SOL     OW12223   5.449   2.646   3.740
 3775SOL    HW112224   5.459   2.576   3.669
 3775SOL    HW212225   5.452   2.737   3.699
 3776SOL     OW12226   3.249   1.929   0.038
 3776SOL    HW112227   3.291   2.002   0.091
 3776SOL    HW212228   3.308   1.904   6.982
 3777SOL     OW12229   1.565   4.342   3.407
 3777SOL    HW112230   1.539   4.246   3.421
 3777SOL    HW212231   1.585   4.384   3.495
 3778SOL     OW12232   2.240   0.338   1.737
 3778SOL    HW112233   2.203   0.250   1.708
 3778SOL    HW212234   2.212   0.408   1.671
 3779SOL     OW12235   2.081   3.599   0.315
 3779SOL    HW112236   1.996   3.648   0.302
 3779SOL    HW212237   2.096   3.536   0.239
 3780SOL     OW12238   2.693   0.652   4.225
 3780SOL    HW112239   2.711   0.554   4.215
 3780SOL    HW212240   2.777   0.703   4.210
 3781SOL     OW12241   3.317   4.944   4.602
 3781SOL    HW112242   3.302   5.043   4.595
 3781SOL    HW212243   3.399   4.926   4.656
 3782SOL     OW12244   3.044   0.971   2.019
 3782SOL    HW112245   3.003   0.887   2.053
 3782SOL    HW212246   3.035   0.975   1.919
 3783SOL     OW12247   5.396   4.385   5.681
 3783SOL    HW112248   5.365   4.418   5.592
 3783SOL    HW212249   5.494   4.400   5.690
 3784SOL     OW12250   4.878   2.909   5.168
 3784SOL    HW112251   4.782   2.880   5.174
 3784SOL    HW212252   4.909   2.901   5.074
 3785SOL     OW12253   7.011   0.356   1.660
 3785SOL    HW112254   6.950   0.299   1.715
 3785SOL    HW212255   6.957   0.423   1.609
 3786SOL     OW12256   2.781   6.079   1.631
 3786SOL    HW112257   2.859   6.050   1.577
 3786SOL    HW212258   2.700   6.028   1.604
 3787SOL     OW12259   3.901   1.405   3.337
 3787SOL    HW112260   3.905   1.495   3.292
 3787SOL    HW212261   3.953   1.339   3.284
 3788SOL     OW12262   0.496   3.055   2.719
 3788SOL    HW112263   0.448   3.085   2.802
 3788SOL    HW212264   0.455   3.099   2.640
 3789SOL     OW12265   1.804   5.072   1.997
 3789SOL    HW112266   1.872   5.051   2.068
 3789SOL    HW212267   1.851   5.101   1.914
 3790SOL     OW12268   2.116   3.505   2.992
 3790SOL    HW112269   2.111   3.533   3.088
 3790SOL    HW212270   2.073   3.575   2.935
 3791SOL     OW12271   6.893   0.515   2.348
 3791SOL    HW112272   6.989   0.539   2.340
 3791SOL    HW212273   6.837   0.589   2.310
 3792SOL     OW12274   1.228   5.015   5.960
 3792SOL    HW112275   1.315   5.048   5.923
 3792SOL    HW212276   1.212   5.057   6.049
 3793SOL     OW12277   6.358   6.102   2.583
 3793SOL    HW112278   6.424   6.132   2.514
 3793SOL    HW212279   6.372   6.005   2.602
 3794SOL     OW12280   4.358   0.054   5.084
 3794SOL    HW112281   4.422   0.121   5.046
 3794SOL    HW212282   4.406   6.988   5.098
 3795SOL     OW12283   5.568   0.812   0.321
 3795SOL    HW112284   5.498   0.744   0.342
 3795SOL    HW212285   5.574   0.879   0.395
 3796SOL     OW12286   0.441   2.293   1.435
 3796SOL    HW112287   0.484   2.357   1.499
 3796SOL    HW212288   0.495   2.209   1.430
 3797SOL     OW12289   6.397   6.215   2.307
 3797SOL    HW112290   6.427   6.125   2.274
 3797SOL    HW212291   6.297   6.215   2.316
 3798SOL     OW12292   1.317   4.165   6.877
 3798SOL    HW112293   1.339   4.077   6.835
 3798SOL    HW212294   1.395   4.227   6.870
 3799SOL     OW12295   0.182   0.717   5.101
 3799SOL    HW112296   0.206   0.737   5.196
 3799SOL    HW212297   0.171   0.802   5.050
 3800SOL     OW12298   4.712   2.473   5.104
 3800SOL    HW112299   4.652   2.400   5.136
 3800SOL    HW212300   4.659   2.542   5.056
 3801SOL     OW12301   6.628   0.693   5.761
 3801SOL    HW112302   6.591   0.742   5.682
 3801SOL    HW212303   6.726   0.680   5.749
 3802SOL     OW12304   1.798   2.200   5.015
 3802SOL    HW112305   1.748   2.261   5.077
 3802SOL    HW212306   1.743   2.183   4.933
 3803SOL     OW12307   4.468   0.950   1.300
 3803SOL    HW112308   4.480   0.964   1.399
 3803SOL    HW212309   4.394   1.009   1.268
 3804SOL     OW12310   5.107   4.149   4.724
 3804SOL    HW112311   5.060   4.067   4.692
 3804SOL    HW212312   5.203   4.147   4.696
 3805SOL     OW12313   2.143   2.935   1.544
 3805SOL    HW112314   2.106   3.025   1.525
 3805SOL    HW212315   2.068   2.871   1.565
 3806SOL     OW12316   4.168   0.224   0.902
 3806SOL    HW112317   4.185   0.313   0.860
 3806SOL    HW212318   4.070   0.213   0.918
 3807SOL     OW12319   1.761   6.909   2.846
 3807SOL    HW112320   1.739   6.932   2.940
 3807SOL    HW212321   1.699   6.837   2.814
 3808SOL     OW12322   3.827   1.067   0.815
 3808SOL    HW112323   3.855   1.163   0.815
 3808SOL    HW212324   3.757   1.052   0.745
 3809SOL     OW12325   3.810   1.032   0.473
 3809SOL    HW112326   3.765   0.997   0.556
 3809SOL    HW212327   3.879   0.966   0.444
 3810SOL     OW12328   1.266   3.237   6.815
 3810SOL    HW112329   1.244   3.195   6.903
 3810SOL    HW212330   1.324   3.317   6.830
 3811SOL     OW12331   6.522   0.800   5.551
 3811SOL    HW112332   6.480   0.710   5.538
 3811SOL    HW212333   6.451   0.869   5.557
 3812SOL     OW12334   4.013   0.107   5.882
 3812SOL    HW112335   4.005   0.196   5.836
 3812SOL    HW212336   3.953   0.041   5.838
 3813SOL     OW12337   3.651   4.995   1.758
 3813SOL    HW112338   3.712   4.941   1.700
 3813SOL    HW212339   3.704   5.048   1.824
 3814SOL     OW12340   1.735   6.915   1.687
 3814SOL    HW112341   1.820   6.954   1.723
 3814SOL    HW212342   1.667   6.910   1.761
 3815SOL     OW12343   4.979   1.898   2.163
 3815SOL    HW112344   4.886   1.883   2.197
 3815SOL    HW212345   4.985   1.867   2.068
 3816SOL     OW12346   0.184   5.218   0.911
 3816SOL    HW112347   0.150   5.162   0.986
 3816SOL    HW212348   0.108   5.262   0.864
 3817SOL     OW12349   5.453   1.884   5.019
 3817SOL    HW112350   5.428   1.837   5.104
 3817SOL    HW212351   5.479   1.816   4.950
 3818SOL     OW12352   3.803   0.082   3.193
 3818SOL    HW112353   3.795   7.011   3.233
 3818SOL    HW212354   3.712   0.125   3.190
 3819SOL     OW12355   5.737   3.589   6.295
 3819SOL    HW112356   5.650   3.544   6.314
 3819SOL    HW212357   5.781   3.616   6.381
 3820SOL     OW12358   3.986   6.544   3.396
 3820SOL    HW112359   3.999   6.460   3.450
 3820SOL    HW212360   4.072   6.593   3.390
 3821SOL     OW12361   1.435   4.543   1.712
 3821SOL    HW112362   1.404   4.559   1.618
 3821SOL    HW212363   1.365   4.574   1.776
 3822SOL     OW12364   0.936   3.493   1.901
 3822SOL    HW112365   0.881   3.413   1.877
 3822SOL    HW212366   1.030   3.464   1.923
 3823SOL     OW12367   2.180   3.658   5.231
 3823SOL    HW112368   2.220   3.739   5.273
 3823SOL    HW212369   2.131   3.684   5.147
 3824SOL     OW12370   0.231   3.189   6.158
 3824SOL    HW112371   0.134   3.165   6.147
 3824SOL    HW212372   0.275   3.122   6.218
 3825SOL     OW12373   0.428   6.130   6.564
 3825SOL    HW112374   0.444   6.096   6.656
 3825SOL    HW212375   0.516   6.146   6.518
 3826SOL     OW12376   0.259   1.579   1.488
 3826SOL    HW112377   0.189   1.626   1.542
 3826SOL    HW212378   0.304   1.510   1.544
 3827SOL     OW12379   4.341   1.719   1.897
 3827SOL    HW112380   4.417   1.699   1.958
 3827SOL    HW212381   4.372   1.779   1.823
 3828SOL     OW12382   3.718   1.514   0.894
 3828SOL    HW112383   3.686   1.587   0.834
 3828SOL    HW212384   3.640   1.462   0.928
 3829SOL     OW12385   0.854   5.316   3.931
 3829SOL    HW112386   0.880   5.219   3.937
 3829SOL    HW212387   0.892   5.355   3.848
 3830SOL     OW12388   1.797   6.947   6.181
 3830SOL    HW112389   1.713   6.990   6.146
 3830SOL    HW212390   1.809   6.972   6.277
 3831SOL     OW12391   4.657   2.219   2.291
 3831SOL    HW112392   4.678   2.233   2.194
 3831SOL    HW212393   4.743   2.210   2.342
 3832SOL     OW12394   6.298   0.093   2.479
 3832SOL    HW112395   6.285   0.185   2.515
 3832SOL    HW212396   6.388   0.085   2.437
 3833SOL     OW12397   1.193   6.104   1.761
 3833SOL    HW112398   1.275   6.128   1.710
 3833SOL    HW212399   1.165   6.011   1.736
 3834SOL     OW12400   3.044   2.328   0.558
 3834SOL    HW112401   3.021   2.231   0.558
 3834SOL    HW212402   2.978   2.378   0.502
 3835SOL     OW12403   3.612   4.958   2.944
 3835SOL    HW112404   3.567   4.910   2.868
 3835SOL    HW212405   3.691   5.008   2.908
 3836SOL     OW12406   1.254   2.386   6.183
 3836SOL    HW112407   1.309   2.420   6.106
 3836SOL    HW212408   1.200   2.308   6.153
 3837SOL     OW12409   3.786   4.436   6.685
 3837SOL    HW112410   3.690   4.412   6.696
 3837SOL    HW212411   3.807   4.516   6.741
 3838SOL     OW12412   0.181   3.429   5.067
 3838SOL    HW112413   0.131   3.515   5.079
 3838SOL    HW212414   0.147   3.381   4.987
 3839SOL     OW12415   0.467   6.662   0.130
 3839SOL    HW112416   0.505   6.619   0.048
 3839SOL    HW212417   0.505   6.617   0.211
 3840SOL     OW12418   3.620   1.683   3.221
 3840SOL    HW112419   3.556   1.709   3.149
 3840SOL    HW212420   3.709   1.660   3.180
 3841SOL     OW12421   1.649   2.984   3.924
 3841SOL    HW112422   1.646   3.008   4.021
 3841SOL    HW212423   1.693   3.057   3.872
 3842SOL     OW12424   1.218   4.844   0.323
 3842SOL    HW112425   1.194   4.827   0.228
 3842SOL    HW212426   1.241   4.757   0.367
 3843SOL     OW12427   6.875   5.439   0.159
 3843SOL    HW112428   6.959   5.386   0.168
 3843SOL    HW212429   6.799   5.378   0.140
 3844SOL     OW12430   3.101   4.290   6.140
 3844SOL    HW112431   3.123   4.253   6.050
 3844SOL    HW212432   3.070   4.216   6.200
 3845SOL     OW12433   3.077   4.016   4.836
 3845SOL    HW112434   3.044   3.922   4.841
 3845SOL    HW212435   3.099   4.040   4.741
 3846SOL     OW12436   0.188   4.329   4.329
 3846SOL    HW112437   0.210   4.255   4.265
 3846SOL    HW212438   0.119   4.297   4.394
 3847SOL     OW12439   1.182   6.536   1.116
 3847SOL    HW112440   1.216   6.627   1.093
 3847SOL    HW212441   1.174   6.482   1.032
 3848SOL     OW12442   2.354   6.149   2.533
 3848SOL    HW112443   2.316   6.239   2.511
 3848SOL    HW212444   2.336   6.128   2.629
 3849SOL     OW12445   2.660   1.415   4.784
 3849SOL    HW112446   2.703   1.415   4.874
 3849SOL    HW212447   2.616   1.326   4.769
 3850SOL     OW12448   1.713   2.936   1.831
 3850SOL    HW112449   1.724   3.014   1.893
 3850SOL    HW212450   1.668   2.861   1.879
 3851SOL     OW12451   2.675   2.835   0.165
 3851SOL    HW112452   2.694   2.904   0.235
 3851SOL    HW212453   2.584   2.796   0.179
 3852SOL     OW12454   4.373   0.690   5.496
 3852SOL    HW112455   4.349   0.593   5.488
 3852SOL    HW212456   4.300   0.745   5.455
 3853SOL     OW12457   0.157   3.445   1.909
 3853SOL    HW112458   0.132   3.387   1.831
 3853SOL    HW212459   0.252   3.475   1.900
 3854SOL     OW12460   1.318   4.193   4.093
 3854SOL    HW112461   1.311   4.094   4.081
 3854SOL    HW212462   1.381   4.213   4.169
 3855SOL     OW12463   6.807   2.417   5.021
 3855SOL    HW112464   6.839   2.331   5.061
 3855SOL    HW212465   6.845   2.494   5.072
 3856SOL     OW12466   0.850   6.469   5.987
 3856SOL    HW112467   0.882   6.547   5.934
 3856SOL    HW212468   0.836   6.497   6.082
 3857SOL     OW12469   0.285   0.729   6.317
 3857SOL    HW112470   0.244   0.642   6.344
 3857SOL    HW212471   0.291   0.789   6.397
 3858SOL     OW12472   4.007   4.848   6.786
 3858SOL    HW112473   4.081   4.811   6.843
 3858SOL    HW212474   4.023   4.945   6.771
 3859SOL     OW12475   0.153   2.265   2.820
 3859SOL    HW112476   0.235   2.211   2.804
 3859SOL    HW212477   0.106   2.232   2.901
 3860SOL     OW12478   2.320   6.113   4.767
 3860SOL    HW112479   2.270   6.159   4.840
 3860SOL    HW212480   2.298   6.156   4.679
 3861SOL     OW12481   3.633   3.677   0.352
 3861SOL    HW112482   3.668   3.636   0.268
 3861SOL    HW212483   3.618   3.605   0.421
 3862SOL     OW12484   0.319   6.359   5.442
 3862SOL    HW112485   0.399   6.348   5.500
 3862SOL    HW212486   0.271   6.271   5.435
 3863SOL     OW12487   2.409   2.838   0.485
 3863SOL    HW112488   2.494   2.823   0.536
 3863SOL    HW212489   2.417   2.921   0.431
 3864SOL     OW12490   3.454   1.735   1.883
 3864SOL    HW112491   3.515   1.700   1.812
 3864SOL    HW212492   3.402   1.813   1.847
 3865SOL     OW12493   4.321   0.798   2.196
 3865SOL    HW112494   4.355   0.888   2.226
 3865SOL    HW212495   4.274   0.807   2.109
 3866SOL     OW12496   4.546   6.222   6.051
 3866SOL    HW112497   4.528   6.243   5.955
 3866SOL    HW212498   4.530   6.303   6.107
 3867SOL     OW12499   2.547   5.150   2.965
 3867SOL    HW112500   2.474   5.145   2.897
 3867SOL    HW212501   2.631   5.109   2.928
 3868SOL     OW12502   2.947   5.297   2.743
 3868SOL    HW112503   2.996   5.225   2.694
 3868SOL    HW212504   2.849   5.279   2.740
 3869SOL     OW12505   1.477   1.348   3.344
 3869SOL    HW112506   1.418   1.428   3.335
 3869SOL    HW212507   1.441   1.274   3.287
 3870SOL     OW12508   3.928   3.564   0.661
 3870SOL    HW112509   3.913   3.608   0.573
 3870SOL    HW212510   3.970   3.630   0.724
 3871SOL     OW12511   2.147   0.616   5.222
 3871SOL    HW112512   2.076   0.563   5.270
 3871SOL    HW212513   2.103   0.684   5.164
 3872SOL     OW12514   4.926   3.864   0.134
 3872SOL    HW112515   4.839   3.820   0.112
 3872SOL    HW212516   4.975   3.886   0.050
 3873SOL     OW12517   6.323   5.103   1.839
 3873SOL    HW112518   6.399   5.050   1.802
 3873SOL    HW212519   6.266   5.138   1.764
 3874SOL     OW12520   5.473   6.367   5.618
 3874SOL    HW112521   5.530   6.285   5.623
 3874SOL    HW212522   5.525   6.442   5.578
 3875SOL     OW12523   3.212   3.214   0.663
 3875SOL    HW112524   3.307   3.186   0.653
 3875SOL    HW212525   3.174   3.173   0.747
 3876SOL     OW12526   5.689   4.233   3.157
 3876SOL    HW112527   5.637   4.181   3.090
 3876SOL    HW212528   5.662   4.205   3.249
 3877SOL     OW12529   4.647   2.246   2.010
 3877SOL    HW112530   4.564   2.231   1.956
 3877SOL    HW212531   4.726   2.256   1.950
 3878SOL     OW12532   6.126   4.963   5.402
 3878SOL    HW112533   6.038   4.989   5.362
 3878SOL    HW212534   6.185   4.924   5.332
 3879SOL     OW12535   2.110   6.706   0.933
 3879SOL    HW112536   2.028   6.754   0.965
 3879SOL    HW212537   2.129   6.731   0.838
 3880SOL     OW12538   5.592   1.786   4.500
 3880SOL    HW112539   5.652   1.795   4.421
 3880SOL    HW212540   5.644   1.751   4.578
 3881SOL     OW12541   0.023   6.493   5.992
 3881SOL    HW112542   0.089   6.558   5.955
 3881SOL    HW212543   0.053   6.399   5.973
 3882SOL     OW12544   6.828   5.724   0.226
 3882SOL    HW112545   6.841   5.732   0.325
 3882SOL    HW212546   6.864   5.636   0.194
 3883SOL     OW12547   4.322   1.986   0.685
 3883SOL    HW112548   4.253   1.991   0.613
 3883SOL    HW212549   4.396   2.050   0.665
 3884SOL     OW12550   2.893   6.076   6.214
 3884SOL    HW112551   2.843   6.156   6.249
 3884SOL    HW212552   2.836   5.995   6.223
 3885SOL     OW12553   1.169   1.525   4.160
 3885SOL    HW112554   1.081   1.571   4.172
 3885SOL    HW212555   1.187   1.467   4.239
 3886SOL     OW12556   7.010   5.614   4.666
 3886SOL    HW112557   6.954   5.665   4.601
 3886SOL    HW212558   7.016   5.518   4.637
 3887SOL     OW12559   0.478   2.767   4.664
 3887SOL    HW112560   0.575   2.791   4.669
 3887SOL    HW212561   0.454   2.743   4.570
 3888SOL     OW12562   4.582   2.148   3.316
 3888SOL    HW112563   4.592   2.157   3.217
 3888SOL    HW212564   4.665   2.106   3.354
 3889SOL     OW12565   6.214   5.405   0.469
 3889SOL    HW112566   6.210   5.439   0.563
 3889SOL    HW212567   6.132   5.436   0.419
 3890SOL     OW12568   5.835   3.074   3.590
 3890SOL    HW112569   5.817   2.976   3.582
 3890SOL    HW212570   5.750   3.122   3.615
 3891SOL     OW12571   3.478   4.644   6.637
 3891SOL    HW112572   3.576   4.647   6.617
 3891SOL    HW212573   3.439   4.735   6.629
 3892SOL     OW12574   5.247   5.823   4.403
 3892SOL    HW112575   5.170   5.858   4.350
 3892SOL    HW212576   5.225   5.823   4.500
 3893SOL     OW12577   2.945   6.055   4.949
 3893SOL    HW112578   2.861   6.014   4.987
 3893SOL    HW212579   2.954   6.029   4.853
 3894SOL     OW12580   5.643   5.138   6.110
 3894SOL    HW112581   5.556   5.188   6.105
 3894SOL    HW212582   5.674   5.114   6.018
 3895SOL     OW12583   1.495   1.829   5.124
 3895SOL    HW112584   1.413   1.841   5.068
 3895SOL    HW212585   1.476   1.859   5.218
 3896SOL     OW12586   6.180   3.290   1.499
 3896SOL    HW112587   6.129   3.249   1.423
 3896SOL    HW212588   6.135   3.268   1.585
 3897SOL     OW12589   2.524   0.747   3.126
 3897SOL    HW112590   2.586   0.685   3.078
 3897SOL    HW212591   2.566   0.776   3.212
 3898SOL     OW12592   3.459   3.829   2.643
 3898SOL    HW112593   3.450   3.856   2.739
 3898SOL    HW212594   3.368   3.809   2.605
 3899SOL     OW12595   4.216   1.115   6.233
 3899SOL    HW112596   4.193   1.033   6.285
 3899SOL    HW212597   4.316   1.123   6.225
 3900SOL     OW12598   1.268   2.095   4.211
 3900SOL    HW112599   1.267   2.058   4.119
 3900SOL    HW212600   1.178   2.133   4.233
 3901SOL     OW12601   4.252   6.791   4.540
 3901SOL    HW112602   4.291   6.777   4.631
 3901SOL    HW212603   4.208   6.706   4.509
 3902SOL     OW12604   3.084   4.913   3.272
 3902SOL    HW112605   3.019   4.887   3.201
 3902SOL    HW212606   3.177   4.903   3.236
 3903SOL     OW12607   2.538   4.135   6.053
 3903SOL    HW112608   2.496   4.123   5.963
 3903SOL    HW212609   2.476   4.187   6.112
 3904SOL     OW12610   2.436   6.158   0.698
 3904SOL    HW112611   2.340   6.172   0.671
 3904SOL    HW212612   2.496   6.213   0.640
 3905SOL     OW12613   4.646   6.649   4.941
 3905SOL    HW112614   4.738   6.611   4.942
 3905SOL    HW212615   4.590   6.601   5.009
 3906SOL     OW12616   7.003   5.697   3.860
 3906SOL    HW112617   6.949   5.659   3.936
 3906SOL    HW212618   6.978   5.651   3.775
 3907SOL     OW12619   1.363   0.764   4.893
 3907SOL    HW112620   1.284   0.772   4.833
 3907SOL    HW212621   1.389   0.667   4.901
 3908SOL     OW12622   2.556   1.891   4.583
 3908SOL    HW112623   2.642   1.938   4.563
 3908SOL    HW212624   2.574   1.795   4.602
 3909SOL     OW12625   6.527   3.065   2.623
 3909SOL    HW112626   6.468   3.138   2.658
 3909SOL    HW212627   6.608   3.105   2.581
 3910SOL     OW12628   1.504   2.285   6.962
 3910SOL    HW112629   1.519   2.336   6.877
 3910SOL    HW212630   1.565   2.207   6.965
 3911SOL     OW12631   6.254   0.666   2.482
 3911SOL    HW112632   6.175   0.720   2.453
 3911SOL    HW212633   6.266   0.673   2.581
 3912SOL     OW12634   4.672   4.430   0.885
 3912SOL    HW112635   4.633   4.372   0.813
 3912SOL    HW212636   4.757   4.389   0.918
 3913SOL     OW12637   4.026   4.413   0.632
 3913SOL    HW112638   4.116   4.403   0.591
 3913SOL    HW212639   4.035   4.458   0.721
 3914SOL     OW12640   0.603   0.674   0.408
 3914SOL    HW112641   0.690   0.658   0.362
 3914SOL    HW212642   0.529   0.630   0.357
 3915SOL     OW12643   5.304   0.008   4.410
 3915SOL    HW112644   5.249   0.092   4.411
 3915SOL    HW212645   5.328   7.006   4.316
 3916SOL     OW12646   1.663   2.692   2.246
 3916SOL    HW112647   1.610   2.744   2.313
 3916SOL    HW212648   1.761   2.709   2.262
 3917SOL     OW12649   3.187   5.529   1.915
 3917SOL    HW112650   3.154   5.599   1.851
 3917SOL    HW212651   3.120   5.517   1.988
 3918SOL     OW12652   3.929   6.473   6.875
 3918SOL    HW112653   3.834   6.452   6.899
 3918SOL    HW212654   3.938   6.472   6.776
 3919SOL     OW12655   5.059   4.554   3.563
 3919SOL    HW112656   5.106   4.520   3.646
 3919SOL    HW212657   4.969   4.589   3.588
 3920SOL     OW12658   4.380   0.390   5.486
 3920SOL    HW112659   4.282   0.393   5.464
 3920SOL    HW212660   4.393   0.407   5.584
 3921SOL     OW12661   1.448   4.188   5.369
 3921SOL    HW112662   1.526   4.194   5.306
 3921SOL    HW212663   1.378   4.129   5.330
 3922SOL     OW12664   5.517   1.490   3.944
 3922SOL    HW112665   5.590   1.488   3.876
 3922SOL    HW212666   5.497   1.396   3.974
 3923SOL     OW12667   5.848   1.022   1.389
 3923SOL    HW112668   5.799   0.939   1.413
 3923SOL    HW212669   5.837   1.041   1.292
 3924SOL     OW12670   5.760   4.853   4.037
 3924SOL    HW112671   5.664   4.831   4.018
 3924SOL    HW212672   5.765   4.903   4.124
 3925SOL     OW12673   3.551   4.732   1.605
 3925SOL    HW112674   3.591   4.706   1.693
 3925SOL    HW212675   3.454   4.708   1.605
 3926SOL     OW12676   0.738   5.988   4.984
 3926SOL    HW112677   0.797   5.945   4.916
 3926SOL    HW212678   0.653   6.017   4.941
 3927SOL     OW12679   6.468   6.411   5.241
 3927SOL    HW112680   6.479   6.311   5.248
 3927SOL    HW212681   6.374   6.432   5.215
 3928SOL     OW12682   4.411   5.225   1.921
 3928SOL    HW112683   4.511   5.225   1.917
 3928SOL    HW212684   4.381   5.290   1.990
 3929SOL     OW12685   2.027   0.410   5.425
 3929SOL    HW112686   2.018   0.431   5.523
 3929SOL    HW212687   1.984   0.321   5.407
 3930SOL     OW12688   1.836   5.616   4.545
 3930SOL    HW112689   1.741   5.619   4.515
 3930SOL    HW212690   1.876   5.707   4.536
 3931SOL     OW12691   0.351   2.264   0.623
 3931SOL    HW112692   0.270   2.313   0.591
 3931SOL    HW212693   0.367   2.286   0.719
 3932SOL     OW12694   1.766   4.772   2.922
 3932SOL    HW112695   1.851   4.799   2.966
 3932SOL    HW212696   1.773   4.787   2.823
 3933SOL     OW12697   0.825   6.951   1.417
 3933SOL    HW112698   0.753   7.013   1.447
 3933SOL    HW212699   0.805   6.918   1.325
 3934SOL     OW12700   0.877   6.642   1.721
 3934SOL    HW112701   0.941   6.621   1.795
 3934SOL    HW212702   0.894   6.581   1.644
 3935SOL     OW12703   6.706   1.174   4.864
 3935SOL    HW112704   6.752   1.117   4.933
 3935SOL    HW212705   6.714   1.270   4.889
 3936SOL     OW12706   6.348   4.799   4.275
 3936SOL    HW112707   6.436   4.844   4.289
 3936SOL    HW212708   6.327   4.740   4.353
 3937SOL     OW12709   1.423   6.358   6.749
 3937SOL    HW112710   1.521   6.357   6.769
 3937SOL    HW212711   1.379   6.430   6.804
 3938SOL     OW12712   1.485   4.616   6.422
 3938SOL    HW112713   1.385   4.609   6.424
 3938SOL    HW212714   1.525   4.534   6.463
 3939SOL     OW12715   1.396   5.524   4.517
 3939SOL    HW112716   1.435   5.434   4.541
 3939SOL    HW212717   1.299   5.514   4.498
 3940SOL     OW12718   2.288   5.980   6.826
 3940SOL    HW112719   2.259   5.902   6.769
 3940SOL    HW212720   2.342   6.043   6.770
 3941SOL     OW12721   5.808   4.854   3.367
 3941SOL    HW112722   5.878   4.909   3.412
 3941SOL    HW212723   5.841   4.760   3.356
 3942SOL     OW12724   0.796   0.025   0.274
 3942SOL    HW112725   0.713   0.078   0.292
 3942SOL    HW212726   0.799   0.001   0.177
 3943SOL     OW12727   0.710   4.670   0.604
 3943SOL    HW112728   0.752   4.701   0.689
 3943SOL    HW212729   0.618   4.634   0.623
 3944SOL     OW12730   5.826   2.803   0.815
 3944SOL    HW112731   5.876   2.866   0.876
 3944SOL    HW212732   5.741   2.846   0.785
 3945SOL     OW12733   0.726   0.614   3.130
 3945SOL    HW112734   0.627   0.620   3.126
 3945SOL    HW212735   0.753   0.569   3.215
 3946SOL     OW12736   4.849   0.858   1.094
 3946SOL    HW112737   4.828   0.814   1.007
 3946SOL    HW212738   4.780   0.928   1.114
 3947SOL     OW12739   5.278   0.319   1.039
 3947SOL    HW112740   5.229   0.398   1.001
 3947SOL    HW212741   5.263   0.315   1.137
 3948SOL     OW12742   1.715   1.496   3.927
 3948SOL    HW112743   1.729   1.408   3.880
 3948SOL    HW212744   1.776   1.564   3.888
 3949SOL     OW12745   6.125   6.695   2.592
 3949SOL    HW112746   6.104   6.767   2.526
 3949SOL    HW212747   6.053   6.691   2.662
 3950SOL     OW12748   2.164   4.695   1.543
 3950SOL    HW112749   2.077   4.648   1.555
 3950SOL    HW212750   2.196   4.683   1.449
 3951SOL     OW12751   0.147   3.276   2.811
 3951SOL    HW112752   0.185   3.184   2.816
 3951SOL    HW212753   0.077   3.279   2.740
 3952SOL     OW12754   5.726   5.434   6.778
 3952SOL    HW112755   5.671   5.516   6.793
 3952SOL    HW212756   5.767   5.438   6.687
 3953SOL     OW12757   3.310   3.074   4.681
 3953SOL    HW112758   3.219   3.113   4.670
 3953SOL    HW212759   3.379   3.137   4.645
 3954SOL     OW12760   0.557   5.489   6.304
 3954SOL    HW112761   0.646   5.445   6.313
 3954SOL    HW212762   0.485   5.420   6.298
 3955SOL     OW12763   6.019   3.018   0.095
 3955SOL    HW112764   5.925   2.998   0.121
 3955SOL    HW212765   6.072   2.932   0.094
 3956SOL     OW12766   0.047   3.551   4.485
 3956SOL    HW112767   0.010   3.638   4.452
 3956SOL    HW212768   0.140   3.564   4.519
 3957SOL     OW12769   1.632   2.538   1.793
 3957SOL    HW112770   1.732   2.540   1.789
 3957SOL    HW212771   1.602   2.456   1.842
 3958SOL     OW12772   5.008   5.287   0.647
 3958SOL    HW112773   5.009   5.350   0.569
 3958SOL    HW212774   4.962   5.202   0.620
 3959SOL     OW12775   2.270   4.862   0.301
 3959SOL    HW112776   2.358   4.870   0.255
 3959SOL    HW212777   2.219   4.947   0.291
 3960SOL     OW12778   5.854   3.599   1.322
 3960SOL    HW112779   5.806   3.513   1.339
 3960SOL    HW212780   5.788   3.675   1.322
 3961SOL     OW12781   0.334   1.744   2.192
 3961SOL    HW112782   0.365   1.838   2.177
 3961SOL    HW212783   0.383   1.683   2.131
 3962SOL     OW12784   0.246   7.014   0.167
 3962SOL    HW112785   0.236   6.960   0.250
 3962SOL    HW212786   0.196   0.080   0.176
 3963SOL     OW12787   6.264   2.995   4.848
 3963SOL    HW112788   6.303   2.951   4.929
 3963SOL    HW212789   6.227   3.085   4.873
 3964SOL     OW12790   5.983   4.827   6.534
 3964SOL    HW112791   5.976   4.916   6.489
 3964SOL    HW212792   6.025   4.839   6.624
 3965SOL     OW12793   2.244   5.086   1.899
 3965SOL    HW112794   2.249   5.023   1.821
 3965SOL    HW212795   2.219   5.035   1.981
 3966SOL     OW12796   6.890   4.328   5.673
 3966SOL    HW112797   6.964   4.281   5.624
 3966SOL    HW212798   6.912   4.425   5.681
 3967SOL     OW12799   2.894   0.420   0.694
 3967SOL    HW112800   2.925   0.417   0.789
 3967SOL    HW212801   2.960   0.373   0.635
 3968SOL     OW12802   4.730   2.335   0.627
 3968SOL    HW112803   4.771   2.405   0.687
 3968SOL    HW212804   4.798   2.266   0.605
 3969SOL     OW12805   6.428   6.974   1.346
 3969SOL    HW112806   6.439   6.875   1.331
 3969SOL    HW212807   6.449   6.995   1.442
 3970SOL     OW12808   5.817   3.780   3.256
 3970SOL    HW112809   5.892   3.838   3.290
 3970SOL    HW212810   5.815   3.695   3.309
 3971SOL     OW12811   6.873   5.564   4.070
 3971SOL    HW112812   6.851   5.622   4.149
 3971SOL    HW212813   6.797   5.502   4.052
 3972SOL     OW12814   0.609   0.963   6.277
 3972SOL    HW112815   0.634   1.037   6.215
 3972SOL    HW212816   0.513   0.939   6.265
 3973SOL     OW12817   4.051   2.979   1.414
 3973SOL    HW112818   4.047   3.075   1.386
 3973SOL    HW212819   3.970   2.955   1.467
 3974SOL     OW12820   5.520   0.609   6.457
 3974SOL    HW112821   5.476   0.690   6.417
 3974SOL    HW212822   5.492   0.527   6.405
 3975SOL     OW12823   0.044   6.289   3.490
 3975SOL    HW112824   0.124   6.252   3.444
 3975SOL    HW212825   7.007   6.338   3.425
 3976SOL     OW12826   0.868   2.897   4.963
 3976SOL    HW112827   0.868   2.990   4.998
 3976SOL    HW212828   0.918   2.893   4.876
 3977SOL     OW12829   2.133   4.879   6.178
 3977SOL    HW112830   2.036   4.894   6.196
 3977SOL    HW212831   2.146   4.855   6.082
 3978SOL     OW12832   4.136   3.358   6.266
 3978SOL    HW112833   4.204   3.431   6.265
 3978SOL    HW212834   4.134   3.315   6.357
 3979SOL     OW12835   0.171   5.659   2.855
 3979SOL    HW112836   0.095   5.697   2.909
 3979SOL    HW212837   0.257   5.702   2.884
 3980SOL     OW12838   5.413   4.035   4.031
 3980SOL    HW112839   5.439   4.097   4.105
 3980SOL    HW212840   5.473   3.955   4.032
 3981SOL     OW12841   6.767   1.272   6.975
 3981SOL    HW112842   6.678   1.279   7.019
 3981SOL    HW212843   6.792   1.175   6.966
 3982SOL     OW12844   2.040   2.849   3.628
 3982SOL    HW112845   2.044   2.781   3.701
 3982SOL    HW212846   1.955   2.901   3.635
 3983SOL     OW12847   2.164   1.689   3.609
 3983SOL    HW112848   2.085   1.640   3.572
 3983SOL    HW212849   2.201   1.751   3.539
 3984SOL     OW12850   1.495   6.252   2.652
 3984SOL    HW112851   1.445   6.314   2.712
 3984SOL    HW212852   1.593   6.275   2.654
 3985SOL     OW12853   0.963   2.142   1.223
 3985SOL    HW112854   0.986   2.189   1.308
 3985SOL    HW212855   1.002   2.050   1.224
 3986SOL     OW12856   0.941   0.705   2.981
 3986SOL    HW112857   0.856   0.679   3.027
 3986SOL    HW212858   1.015   0.645   3.012
 3987SOL     OW12859   1.453   4.594   5.753
 3987SOL    HW112860   1.494   4.523   5.811
 3987SOL    HW212861   1.525   4.643   5.704
 3988SOL     OW12862   4.841   5.331   2.190
 3988SOL    HW112863   4.854   5.234   2.208
 3988SOL    HW212864   4.920   5.366   2.139
 3989SOL     OW12865   4.560   0.826   6.156
 3989SOL    HW112866   4.584   0.846   6.251
 3989SOL    HW212867   4.461   0.819   6.148
 3990SOL     OW12868   6.076   6.394   4.107
 3990SOL    HW112869   6.173   6.395   4.084
 3990SOL    HW212870   6.022   6.418   4.026
 3991SOL     OW12871   0.379   2.077   4.563
 3991SOL    HW112872   0.372   2.174   4.586
 3991SOL    HW212873   0.340   2.023   4.637
 3992SOL     OW12874   6.071   3.466   5.723
 3992SOL    HW112875   5.999   3.524   5.684
 3992SOL    HW212876   6.069   3.377   5.677
 3993SOL     OW12877   1.568   0.799   4.537
 3993SOL    HW112878   1.666   0.782   4.545
 3993SOL    HW212879   1.518   0.730   4.589
 3994SOL     OW12880   3.128   1.917   3.742
 3994SOL    HW112881   3.134   1.884   3.837
 3994SOL    HW212882   3.151   1.842   3.680
 3995SOL     OW12883   1.937   3.951   1.913
 3995SOL    HW112884   1.948   3.984   1.819
 3995SOL    HW212885   2.019   3.901   1.940
 3996SOL     OW12886   0.525   5.744   5.371
 3996SOL    HW112887   0.518   5.841   5.350
 3996SOL    HW212888   0.617   5.711   5.346
 3997SOL     OW12889   5.995   3.281   4.917
 3997SOL    HW112890   5.983   3.213   4.989
 3997SOL    HW212891   5.971   3.372   4.953
 3998SOL     OW12892   4.718   2.320   2.758
 3998SOL    HW112893   4.733   2.404   2.810
 3998SOL    HW212894   4.640   2.332   2.697
 3999SOL     OW12895   4.581   3.638   1.245
 3999SOL    HW112896   4.579   3.615   1.342
 3999SOL    HW212897   4.676   3.644   1.214
 4000SOL     OW12898   2.994   4.843   2.659
 4000SOL    HW112899   2.913   4.791   2.630
 4000SOL    HW212900   3.033   4.802   2.741
 4001SOL     OW12901   0.981   5.730   4.082
 4001SOL    HW112902   1.074   5.768   4.086
 4001SOL    HW212903   0.917   5.801   4.054
 4002SOL     OW12904   3.661   3.867   4.705
 4002SOL    HW112905   3.714   3.785   4.725
 4002SOL    HW212906   3.575   3.865   4.755
 4003SOL     OW12907   3.237   1.599   4.437
 4003SOL    HW112908   3.226   1.570   4.342
 4003SOL    HW212909   3.305   1.672   4.443
 4004SOL     OW12910   2.147   3.612   4.938
 4004SOL    HW112911   2.118   3.619   4.842
 4004SOL    HW212912   2.217   3.541   4.946
 4005SOL     OW12913   6.005   2.222   1.770
 4005SOL    HW112914   6.028   2.307   1.722
 4005SOL    HW212915   5.989   2.149   1.704
 4006SOL     OW12916   6.738   5.870   1.953
 4006SOL    HW112917   6.707   5.944   1.894
 4006SOL    HW212918   6.737   5.784   1.902
 4007SOL     OW12919   0.813   1.337   1.551
 4007SOL    HW112920   0.723   1.346   1.509
 4007SOL    HW212921   0.832   1.415   1.610
 4008SOL     OW12922   4.146   0.275   1.489
 4008SOL    HW112923   4.174   0.252   1.582
 4008SOL    HW212924   4.108   0.368   1.488
 4009SOL     OW12925   3.723   2.504   1.489
 4009SOL    HW112926   3.664   2.439   1.441
 4009SOL    HW212927   3.681   2.529   1.577
 4010SOL     OW12928   0.922   5.791   0.696
 4010SOL    HW112929   0.843   5.851   0.687
 4010SOL    HW212930   0.952   5.790   0.791
 4011SOL     OW12931   5.915   6.696   6.960
 4011SOL    HW112932   5.937   6.694   6.863
 4011SOL    HW212933   5.999   6.688   7.014
 4012SOL     OW12934   5.784   4.394   2.111
 4012SOL    HW112935   5.685   4.389   2.100
 4012SOL    HW212936   5.822   4.453   2.039
 4013SOL     OW12937   0.207   1.914   6.733
 4013SOL    HW112938   0.126   1.857   6.720
 4013SOL    HW212939   0.189   2.005   6.696
 4014SOL     OW12940   4.102   6.352   2.918
 4014SOL    HW112941   4.033   6.404   2.968
 4014SOL    HW212942   4.088   6.364   2.820
 4015SOL     OW12943   3.495   6.313   4.860
 4015SOL    HW112944   3.561   6.383   4.888
 4015SOL    HW212945   3.504   6.295   4.763
 4016SOL     OW12946   4.510   4.859   3.900
 4016SOL    HW112947   4.540   4.796   3.829
 4016SOL    HW212948   4.425   4.826   3.941
 4017SOL     OW12949   1.461   5.890   6.335
 4017SOL    HW112950   1.411   5.883   6.249
 4017SOL    HW212951   1.407   5.851   6.409
 4018SOL     OW12952   5.546   5.647   6.790
 4018SOL    HW112953   5.488   5.631   6.869
 4018SOL    HW212954   5.490   5.668   6.710
 4019SOL     OW12955   1.009   2.185   3.104
 4019SOL    HW112956   1.042   2.261   3.048
 4019SOL    HW212957   1.073   2.108   3.099
 4020SOL     OW12958   6.504   5.697   4.857
 4020SOL    HW112959   6.580   5.632   4.851
 4020SOL    HW212960   6.531   5.785   4.818
 4021SOL     OW12961   5.072   5.620   5.935
 4021SOL    HW112962   5.081   5.696   5.870
 4021SOL    HW212963   5.093   5.534   5.888
 4022SOL     OW12964   3.767   0.259   1.251
 4022SOL    HW112965   3.861   0.229   1.238
 4022SOL    HW212966   3.738   0.242   1.345
 4023SOL     OW12967   1.141   1.911   3.707
 4023SOL    HW112968   1.128   2.008   3.684
 4023SOL    HW212969   1.057   1.875   3.748
 4024SOL     OW12970   1.119   6.780   6.462
 4024SOL    HW112971   1.189   6.851   6.469
 4024SOL    HW212972   1.140   6.706   6.525
 4025SOL     OW12973   1.285   4.741   4.590
 4025SOL    HW112974   1.260   4.807   4.660
 4025SOL    HW212975   1.332   4.788   4.515
 4026SOL     OW12976   0.487   6.367   4.023
 4026SOL    HW112977   0.573   6.398   4.063
 4026SOL    HW212978   0.496   6.272   3.994
 4027SOL     OW12979   3.391   5.879   4.931
 4027SOL    HW112980   3.320   5.842   4.991
 4027SOL    HW212981   3.440   5.804   4.887
 4028SOL     OW12982   4.717   1.946   4.442
 4028SOL    HW112983   4.722   1.859   4.394
 4028SOL    HW212984   4.765   1.939   4.530
 4029SOL     OW12985   2.264   6.908   1.006
 4029SOL    HW112986   2.227   6.961   0.930
 4029SOL    HW212987   2.196   6.840   1.035
 4030SOL     OW12988   0.613   1.184   1.872
 4030SOL    HW112989   0.558   1.138   1.803
 4030SOL    HW212990   0.573   1.168   1.963
 4031SOL     OW12991   5.911   5.874   0.762
 4031SOL    HW112992   5.895   5.835   0.671
 4031SOL    HW212993   5.936   5.970   0.753
 4032SOL     OW12994   4.701   1.747   1.954
 4032SOL    HW112995   4.674   1.837   1.989
 4032SOL    HW212996   4.748   1.759   1.866
 4033SOL     OW12997   1.357   4.333   2.977
 4033SOL    HW112998   1.445   4.352   3.021
 4033SOL    HW212999   1.337   4.235   2.983
 4034SOL     OW13000   3.002   1.725   4.412
 4034SOL    HW113001   3.018   1.820   4.439
 4034SOL    HW213002   3.088   1.674   4.415
 4035SOL     OW13003   3.506   2.358   1.348
 4035SOL    HW113004   3.527   2.283   1.286
 4035SOL    HW213005   3.409   2.354   1.373
 4036SOL     OW13006   4.490   0.299   3.123
 4036SOL    HW113007   4.404   0.293   3.173
 4036SOL    HW213008   4.565   0.315   3.188
 4037SOL     OW13009   1.757   0.670   5.845
 4037SOL    HW113010   1.857   0.668   5.841
 4037SOL    HW213011   1.720   0.588   5.802
 4038SOL     OW13012   3.996   5.251   5.826
 4038SOL    HW113013   3.972   5.278   5.919
 4038SOL    HW213014   3.917   5.264   5.766
 4039SOL     OW13015   6.108   4.362   2.019
 4039SOL    HW113016   6.175   4.385   1.949
 4039SOL    HW213017   6.077   4.268   2.007
 4040SOL     OW13018   2.246   6.553   5.395
 4040SOL    HW113019   2.243   6.456   5.420
 4040SOL    HW213020   2.306   6.565   5.316
 4041SOL     OW13021   1.271   6.251   1.302
 4041SOL    HW113022   1.213   6.329   1.279
 4041SOL    HW213023   1.356   6.284   1.344
 4042SOL     OW13024   1.531   1.723   4.737
 4042SOL    HW113025   1.537   1.627   4.711
 4042SOL    HW213026   1.620   1.755   4.768
 4043SOL     OW13027   3.669   2.826   5.900
 4043SOL    HW113028   3.656   2.853   5.995
 4043SOL    HW213029   3.581   2.805   5.859
 4044SOL     OW13030   4.715   4.133   3.769
 4044SOL    HW113031   4.626   4.166   3.801
 4044SOL    HW213032   4.764   4.090   3.845
 4045SOL     OW13033   4.535   1.897   4.774
 4045SOL    HW113034   4.605   1.947   4.724
 4045SOL    HW213035   4.523   1.806   4.733
 4046SOL     OW13036   5.275   0.802   4.187
 4046SOL    HW113037   5.261   0.726   4.251
 4046SOL    HW213038   5.192   0.857   4.182
 4047SOL     OW13039   2.441   2.394   6.728
 4047SOL    HW113040   2.461   2.423   6.822
 4047SOL    HW213041   2.358   2.337   6.728
 4048SOL     OW13042   4.922   2.319   3.111
 4048SOL    HW113043   5.001   2.342   3.055
 4048SOL    HW213044   4.921   2.220   3.128
 4049SOL     OW13045   3.867   3.906   2.852
 4049SOL    HW113046   3.919   3.839   2.800
 4049SOL    HW213047   3.827   3.973   2.789
 4050SOL     OW13048   0.054   4.845   2.864
 4050SOL    HW113049   0.034   4.937   2.831
 4050SOL    HW213050   0.114   4.798   2.799
 4051SOL     OW13051   5.799   0.311   3.645
 4051SOL    HW113052   5.712   0.330   3.599
 4051SOL    HW213053   5.853   0.395   3.650
 4052SOL     OW13054   4.264   1.115   4.921
 4052SOL    HW113055   4.187   1.173   4.945
 4052SOL    HW213056   4.335   1.170   4.877
 4053SOL     OW13057   0.888   4.754   2.692
 4053SOL    HW113058   0.860   4.841   2.652
 4053SOL    HW213059   0.814   4.718   2.749
 4054SOL     OW13060   5.596   4.236   1.797
 4054SOL    HW113061   5.667   4.222   1.728
 4054SOL    HW213062   5.620   4.186   1.880
 4055SOL     OW13063   6.956   4.160   0.095
 4055SOL    HW113064   6.910   4.248   0.083
 4055SOL    HW213065   0.031   4.175   0.121
 4056SOL     OW13066   4.781   4.274   0.146
 4056SOL    HW113067   4.738   4.341   0.086
 4056SOL    HW213068   4.867   4.243   0.106
 4057SOL     OW13069   6.947   4.621   5.548
 4057SOL    HW113070   6.949   4.705   5.493
 4057SOL    HW213071   6.874   4.627   5.616
 4058SOL     OW13072   3.013   0.773   4.061
 4058SOL    HW113073   3.026   0.735   4.152
 4058SOL    HW213074   2.929   0.736   4.021
 4059SOL     OW13075   1.822   1.286   3.774
 4059SOL    HW113076   1.747   1.252   3.718
 4059SOL    HW213077   1.849   1.216   3.840
 4060SOL     OW13078   6.875   6.408   3.998
 4060SOL    HW113079   6.935   6.430   3.921
 4060SOL    HW213080   6.925   6.423   4.084
 4061SOL     OW13081   1.546   4.200   2.617
 4061SOL    HW113082   1.463   4.230   2.662
 4061SOL    HW213083   1.576   4.270   2.552
 4062SOL     OW13084   2.640   3.728   0.309
 4062SOL    HW113085   2.626   3.764   0.217
 4062SOL    HW213086   2.737   3.704   0.321
 4063SOL     OW13087   3.608   0.999   1.271
 4063SOL    HW113088   3.674   0.943   1.222
 4063SOL    HW213089   3.588   0.958   1.360
 4064SOL     OW13090   2.699   6.604   4.885
 4064SOL    HW113091   2.680   6.618   4.788
 4064SOL    HW213092   2.747   6.517   4.897
 4065SOL     OW13093   2.331   1.238   1.692
 4065SOL    HW113094   2.258   1.197   1.746
 4065SOL    HW213095   2.418   1.197   1.717
 4066SOL     OW13096   0.430   4.034   4.952
 4066SOL    HW113097   0.386   4.098   5.015
 4066SOL    HW213098   0.396   4.050   4.860
 4067SOL     OW13099   5.739   4.067   1.124
 4067SOL    HW113100   5.810   4.127   1.087
 4067SOL    HW213101   5.649   4.105   1.101
 4068SOL     OW13102   2.592   2.307   5.770
 4068SOL    HW113103   2.616   2.396   5.809
 4068SOL    HW213104   2.628   2.302   5.677
 4069SOL     OW13105   4.179   0.554   6.005
 4069SOL    HW113106   4.198   0.620   6.078
 4069SOL    HW213107   4.203   0.595   5.917
 4070SOL     OW13108   1.852   3.990   4.385
 4070SOL    HW113109   1.906   3.955   4.308
 4070SOL    HW213110   1.912   4.042   4.446
 4071SOL     OW13111   1.114   0.543   5.158
 4071SOL    HW113112   1.085   0.511   5.248
 4071SOL    HW213113   1.045   0.518   5.089
 4072SOL     OW13114   2.622   6.155   2.467
 4072SOL    HW113115   2.528   6.171   2.496
 4072SOL    HW213116   2.682   6.221   2.512
 4073SOL     OW13117   4.923   5.031   6.669
 4073SOL    HW113118   4.832   5.052   6.633
 4073SOL    HW213119   4.970   4.970   6.605
 4074SOL     OW13120   1.309   5.537   2.022
 4074SOL    HW113121   1.242   5.464   2.035
 4074SOL    HW213122   1.262   5.625   2.016
 4075SOL     OW13123   5.291   0.334   6.689
 4075SOL    HW113124   5.335   0.368   6.772
 4075SOL    HW213125   5.303   0.235   6.683
 4076SOL     OW13126   2.279   5.483   3.444
 4076SOL    HW113127   2.261   5.534   3.528
 4076SOL    HW213128   2.377   5.464   3.437
 4077SOL     OW13129   2.670   1.721   1.113
 4077SOL    HW113130   2.623   1.728   1.025
 4077SOL    HW213131   2.608   1.683   1.181
 4078SOL     OW13132   4.532   4.741   1.947
 4078SOL    HW113133   4.584   4.754   2.031
 4078SOL    HW213134   4.551   4.650   1.909
 4079SOL     OW13135   0.707   2.868   3.959
 4079SOL    HW113136   0.725   2.919   4.043
 4079SOL    HW213137   0.621   2.900   3.918
 4080SOL     OW13138   6.197   2.213   4.825
 4080SOL    HW113139   6.099   2.199   4.807
 4080SOL    HW213140   6.208   2.283   4.895
 4081SOL     OW13141   6.154   3.634   2.387
 4081SOL    HW113142   6.060   3.616   2.417
 4081SOL    HW213143   6.213   3.559   2.416
 4082SOL     OW13144   0.434   3.628   1.259
 4082SOL    HW113145   0.476   3.605   1.171
 4082SOL    HW213146   0.429   3.546   1.316
 4083SOL     OW13147   0.057   3.664   5.564
 4083SOL    HW113148   0.073   3.595   5.493
 4083SOL    HW213149   0.084   3.626   5.653
 4084SOL     OW13150   4.791   0.564   3.739
 4084SOL    HW113151   4.848   0.493   3.698
 4084SOL    HW213152   4.838   0.652   3.735
 4085SOL     OW13153   2.518   5.176   6.467
 4085SOL    HW113154   2.483   5.106   6.405
 4085SOL    HW213155   2.551   5.254   6.414
 4086SOL     OW13156   6.946   2.143   1.988
 4086SOL    HW113157   6.866   2.136   1.927
 4086SOL    HW213158   6.982   2.051   2.005
 4087SOL     OW13159   1.158   0.753   3.354
 4087SOL    HW113160   1.065   0.784   3.373
 4087SOL    HW213161   1.224   0.817   3.394
 4088SOL     OW13162   0.367   3.022   6.326
 4088SOL    HW113163   0.308   2.947   6.355
 4088SOL    HW213164   0.415   3.060   6.406
 4089SOL     OW13165   0.436   2.123   5.302
 4089SOL    HW113166   0.523   2.133   5.350
 4089SOL    HW213167   0.399   2.031   5.319
 4090SOL     OW13168   3.170   5.441   6.595
 4090SOL    HW113169   3.240   5.459   6.527
 4090SOL    HW213170   3.164   5.517   6.659
 4091SOL     OW13171   4.204   6.152   1.145
 4091SOL    HW113172   4.201   6.072   1.085
 4091SOL    HW213173   4.110   6.180   1.168
 4092SOL     OW13174   1.156   1.147   3.769
 4092SOL    HW113175   1.109   1.111   3.688
 4092SOL    HW213176   1.156   1.247   3.766
 4093SOL     OW13177   4.566   6.707   3.507
 4093SOL    HW113178   4.614   6.789   3.540
 4093SOL    HW213179   4.632   6.632   3.500
 4094SOL     OW13180   3.154   2.784   6.566
 4094SOL    HW113181   3.171   2.701   6.619
 4094SOL    HW213182   3.241   2.824   6.539
 4095SOL     OW13183   2.100   3.824   5.933
 4095SOL    HW113184   2.186   3.813   5.882
 4095SOL    HW213185   2.110   3.898   6.000
 4096SOL     OW13186   4.636   4.492   1.597
 4096SOL    HW113187   4.616   4.394   1.593
 4096SOL    HW213188   4.694   4.517   1.520
 4097SOL     OW13189   3.698   3.780   3.012
 4097SOL    HW113190   3.728   3.694   3.052
 4097SOL    HW213191   3.769   3.815   2.951
 4098SOL     OW13192   1.459   3.037   2.482
 4098SOL    HW113193   1.411   3.092   2.413
 4098SOL    HW213194   1.466   3.088   2.567
 4099SOL     OW13195   2.544   6.002   1.520
 4099SOL    HW113196   2.537   5.934   1.447
 4099SOL    HW213197   2.484   6.079   1.499
 4100SOL     OW13198   3.531   0.313   2.718
 4100SOL    HW113199   3.527   0.236   2.781
 4100SOL    HW213200   3.609   0.371   2.740
 4101SOL     OW13201   4.939   1.364   0.006
 4101SOL    HW113202   4.945   1.379   6.927
 4101SOL    HW213203   4.919   1.268   0.024
 4102SOL     OW13204   4.967   1.853   5.945
 4102SOL    HW113205   4.873   1.831   5.971
 4102SOL    HW213206   4.996   1.936   5.994
 4103SOL     OW13207   6.718   0.118   1.668
 4103SOL    HW113208   6.790   0.054   1.641
 4103SOL    HW213209   6.719   0.129   1.768
 4104SOL     OW13210   2.442   4.558   2.200
 4104SOL    HW113211   2.516   4.497   2.227
 4104SOL    HW213212   2.372   4.559   2.271
 4105SOL     OW13213   6.450   4.817   0.604
 4105SOL    HW113214   6.452   4.717   0.606
 4105SOL    HW213215   6.447   4.853   0.697
 4106SOL     OW13216   0.506   3.089   3.937
 4106SOL    HW113217   0.585   3.151   3.938
 4106SOL    HW213218   0.445   3.111   4.013
 4107SOL     OW13219   6.824   0.622   0.763
 4107SOL    HW113220   6.870   0.646   0.677
 4107SOL    HW213221   6.892   0.611   0.835
 4108SOL     OW13222   6.720   2.504   4.778
 4108SOL    HW113223   6.729   2.485   4.875
 4108SOL    HW213224   6.709   2.603   4.764
 4109SOL     OW13225   2.062   6.473   3.653
 4109SOL    HW113226   1.989   6.490   3.719
 4109SOL    HW213227   2.056   6.379   3.619
 4110SOL     OW13228   4.831   3.306   5.169
 4110SOL    HW113229   4.834   3.264   5.079
 4110SOL    HW213230   4.799   3.401   5.160
 4111SOL     OW13231   3.887   3.547   6.746
 4111SOL    HW113232   3.970   3.504   6.781
 4111SOL    HW213233   3.911   3.632   6.699
 4112SOL     OW13234   3.895   0.778   5.852
 4112SOL    HW113235   3.915   0.789   5.754
 4112SOL    HW213236   3.859   0.687   5.869
 4113SOL     OW13237   3.521   5.747   4.158
 4113SOL    HW113238   3.543   5.831   4.108
 4113SOL    HW213239   3.529   5.669   4.096
 4114SOL     OW13240   3.633   1.356   3.462
 4114SOL    HW113241   3.723   1.367   3.418
 4114SOL    HW213242   3.601   1.262   3.449
 4115SOL     OW13243   4.864   3.479   3.375
 4115SOL    HW113244   4.879   3.548   3.445
 4115SOL    HW213245   4.766   3.458   3.369
 4116SOL     OW13246   2.698   1.401   1.676
 4116SOL    HW113247   2.746   1.370   1.759
 4116SOL    HW213248   2.755   1.467   1.627
 4117SOL     OW13249   1.174   5.778   1.983
 4117SOL    HW113250   1.116   5.773   1.901
 4117SOL    HW213251   1.262   5.821   1.959
 4118SOL     OW13252   1.559   0.523   6.109
 4118SOL    HW113253   1.609   0.594   6.160
 4118SOL    HW213254   1.610   0.437   6.113
 4119SOL     OW13255   5.398   1.390   3.228
 4119SOL    HW113256   5.411   1.439   3.142
 4119SOL    HW213257   5.440   1.299   3.221
 4120SOL     OW13258   5.658   0.810   1.767
 4120SOL    HW113259   5.652   0.808   1.667
 4120SOL    HW213260   5.570   0.781   1.806
 4121SOL     OW13261   5.296   2.452   3.866
 4121SOL    HW113262   5.220   2.441   3.801
 4121SOL    HW213263   5.362   2.517   3.829
 4122SOL     OW13264   2.277   5.350   0.114
 4122SOL    HW113265   2.317   5.428   0.163
 4122SOL    HW213266   2.231   5.290   0.179
 4123SOL     OW13267   3.918   3.608   5.062
 4123SOL    HW113268   3.900   3.587   5.158
 4123SOL    HW213269   3.947   3.524   5.015
 4124SOL     OW13270   4.678   5.974   2.722
 4124SOL    HW113271   4.744   5.936   2.656
 4124SOL    HW213272   4.728   6.017   2.798
 4125SOL     OW13273   4.431   1.906   1.707
 4125SOL    HW113274   4.395   1.988   1.662
 4125SOL    HW213275   4.490   1.857   1.643
 4126SOL     OW13276   1.884   3.889   4.782
 4126SOL    HW113277   1.965   3.887   4.840
 4126SOL    HW213278   1.912   3.890   4.686
 4127SOL     OW13279   5.278   4.818   3.775
 4127SOL    HW113280   5.229   4.741   3.817
 4127SOL    HW213281   5.324   4.786   3.692
 4128SOL     OW13282   0.002   1.926   1.743
 4128SOL    HW113283   0.002   2.025   1.734
 4128SOL    HW213284   0.015   1.901   1.839
 4129SOL     OW13285   0.174   2.966   0.241
 4129SOL    HW113286   0.100   2.904   0.268
 4129SOL    HW213287   0.202   3.020   0.320
 4130SOL     OW13288   6.463   2.083   1.344
 4130SOL    HW113289   6.517   2.160   1.377
 4130SOL    HW213290   6.388   2.064   1.408
 4131SOL     OW13291   6.923   3.897   3.580
 4131SOL    HW113292   6.853   3.902   3.508
 4131SOL    HW213293   6.878   3.894   3.669
 4132SOL     OW13294   4.692   1.449   4.240
 4132SOL    HW113295   4.753   1.528   4.234
 4132SOL    HW213296   4.603   1.478   4.275
 4133SOL     OW13297   2.674   2.752   0.534
 4133SOL    HW113298   2.730   2.759   0.452
 4133SOL    HW213299   2.656   2.656   0.554
 4134SOL     OW13300   2.543   1.171   6.890
 4134SOL    HW113301   2.511   1.250   6.838
 4134SOL    HW213302   2.641   1.181   6.908
 4135SOL     OW13303   1.487   0.507   0.918
 4135SOL    HW113304   1.572   0.539   0.960
 4135SOL    HW213305   1.497   0.412   0.889
 4136SOL     OW13306   1.767   1.954   3.268
 4136SOL    HW113307   1.715   1.872   3.242
 4136SOL    HW213308   1.796   1.946   3.363
 4137SOL     OW13309   3.869   2.920   5.142
 4137SOL    HW113310   3.784   2.970   5.127
 4137SOL    HW213311   3.945   2.985   5.150
 4138SOL     OW13312   5.022   5.393   1.398
 4138SOL    HW113313   4.968   5.330   1.344
 4138SOL    HW213314   4.968   5.475   1.418
 4139SOL     OW13315   3.147   1.626   6.983
 4139SOL    HW113316   3.146   1.725   6.998
 4139SOL    HW213317   3.237   1.598   6.953
 4140SOL     OW13318   4.761   2.408   4.812
 4140SOL    HW113319   4.665   2.434   4.814
 4140SOL    HW213320   4.790   2.377   4.902
 4141SOL     OW13321   5.218   6.051   1.029
 4141SOL    HW113322   5.237   6.043   0.932
 4141SOL    HW213323   5.183   5.963   1.063
 4142SOL     OW13324   5.974   2.912   1.999
 4142SOL    HW113325   5.977   2.844   1.926
 4142SOL    HW213326   5.939   2.870   2.082
 4143SOL     OW13327   1.913   2.508   1.781
 4143SOL    HW113328   1.951   2.515   1.689
 4143SOL    HW213329   1.959   2.574   1.841
 4144SOL     OW13330   4.261   0.660   2.436
 4144SOL    HW113331   4.322   0.583   2.454
 4144SOL    HW213332   4.284   0.701   2.348
 4145SOL     OW13333   3.235   0.335   3.637
 4145SOL    HW113334   3.294   0.382   3.571
 4145SOL    HW213335   3.208   0.400   3.708
 4146SOL     OW13336   4.700   4.859   0.680
 4146SOL    HW113337   4.741   4.876   0.770
 4146SOL    HW213338   4.606   4.893   0.679
 4147SOL     OW13339   2.812   1.566   5.962
 4147SOL    HW113340   2.797   1.488   5.902
 4147SOL    HW213341   2.746   1.639   5.941
 4148SOL     OW13342   6.916   6.500   2.376
 4148SOL    HW113343   6.828   6.455   2.361
 4148SOL    HW213344   6.921   6.582   2.319
 4149SOL     OW13345   4.698   4.443   2.157
 4149SOL    HW113346   4.637   4.380   2.110
 4149SOL    HW213347   4.662   4.463   2.248
 4150SOL     OW13348   3.227   0.522   4.532
 4150SOL    HW113349   3.189   0.588   4.596
 4150SOL    HW213350   3.196   0.430   4.556
 4151SOL     OW13351   0.099   5.594   0.324
 4151SOL    HW113352   0.126   5.500   0.345
 4151SOL    HW213353   0.111   5.610   0.226
 4152SOL     OW13354   3.801   4.265   0.954
 4152SOL    HW113355   3.710   4.303   0.967
 4152SOL    HW213356   3.818   4.194   1.022
 4153SOL     OW13357   6.274   5.738   6.381
 4153SOL    HW113358   6.262   5.820   6.325
 4153SOL    HW213359   6.216   5.744   6.463
 4154SOL     OW13360   4.454   2.507   4.711
 4154SOL    HW113361   4.450   2.476   4.616
 4154SOL    HW213362   4.364   2.498   4.753
 4155SOL     OW13363   1.754   3.350   1.107
 4155SOL    HW113364   1.733   3.428   1.166
 4155SOL    HW213365   1.814   3.380   1.033
 4156SOL     OW13366   5.981   1.456   5.466
 4156SOL    HW113367   6.076   1.440   5.436
 4156SOL    HW213368   5.977   1.540   5.520
 4157SOL     OW13369   3.603   1.466   3.724
 4157SOL    HW113370   3.701   1.463   3.743
 4157SOL    HW213371   3.586   1.431   3.632
 4158SOL     OW13372   0.713   0.287   3.085
 4158SOL    HW113373   0.667   0.259   3.170
 4158SOL    HW213374   0.759   0.374   3.100
 4159SOL     OW13375   1.014   4.624   5.260
 4159SOL    HW113376   1.014   4.528   5.231
 4159SOL    HW213377   1.105   4.649   5.294
 4160SOL     OW13378   6.256   0.911   1.473
 4160SOL    HW113379   6.171   0.877   1.511
 4160SOL    HW213380   6.243   1.004   1.438
 4161SOL     OW13381   6.718   1.228   1.906
 4161SOL    HW113382   6.723   1.129   1.919
 4161SOL    HW213383   6.727   1.249   1.808
 4162SOL     OW13384   0.354   6.985   4.830
 4162SOL    HW113385   0.318   6.973   4.923
 4162SOL    HW213386   0.317   6.913   4.771
 4163SOL     OW13387   0.678   1.856   5.254
 4163SOL    HW113388   0.601   1.916   5.231
 4163SOL    HW213389   0.760   1.889   5.207
 4164SOL     OW13390   2.306   6.712   5.620
 4164SOL    HW113391   2.292   6.650   5.698
 4164SOL    HW213392   2.261   6.674   5.539
 4165SOL     OW13393   0.939   6.175   1.272
 4165SOL    HW113394   1.009   6.123   1.321
 4165SOL    HW213395   0.868   6.204   1.335
 4166SOL     OW13396   6.407   1.755   2.912
 4166SOL    HW113397   6.388   1.853   2.918
 4166SOL    HW213398   6.364   1.718   2.829
 4167SOL     OW13399   1.478   2.733   1.364
 4167SOL    HW113400   1.481   2.743   1.265
 4167SOL    HW213401   1.552   2.671   1.394
 4168SOL     OW13402   2.114   5.651   0.655
 4168SOL    HW113403   2.132   5.576   0.592
 4168SOL    HW213404   2.189   5.659   0.720
 4169SOL     OW13405   6.041   3.348   6.660
 4169SOL    HW113406   6.065   3.285   6.733
 4169SOL    HW213407   5.973   3.305   6.599
 4170SOL     OW13408   3.046   0.617   5.389
 4170SOL    HW113409   3.056   0.647   5.295
 4170SOL    HW213410   2.985   0.679   5.438
 4171SOL     OW13411   6.442   3.031   1.707
 4171SOL    HW113412   6.453   2.948   1.762
 4171SOL    HW213413   6.448   3.008   1.610
 4172SOL     OW13414   2.739   0.248   1.115
 4172SOL    HW113415   2.721   0.154   1.085
 4172SOL    HW213416   2.759   0.249   1.213
 4173SOL     OW13417   4.295   4.125   5.329
 4173SOL    HW113418   4.344   4.194   5.384
 4173SOL    HW213419   4.233   4.172   5.266
 4174SOL     OW13420   4.371   0.986   3.705
 4174SOL    HW113421   4.419   1.048   3.643
 4174SOL    HW213422   4.369   0.894   3.666
 4175SOL     OW13423   2.371   1.297   2.051
 4175SOL    HW113424   2.419   1.358   1.988
 4175SOL    HW213425   2.350   1.211   2.006
 4176SOL     OW13426   5.503   4.649   2.870
 4176SOL    HW113427   5.436   4.670   2.942
 4176SOL    HW213428   5.564   4.577   2.903
 4177SOL     OW13429   0.605   6.068   2.849
 4177SOL    HW113430   0.618   5.976   2.812
 4177SOL    HW213431   0.617   6.135   2.776
 4178SOL     OW13432   4.037   2.620   5.401
 4178SOL    HW113433   3.958   2.560   5.416
 4178SOL    HW213434   4.090   2.585   5.324
 4179SOL     OW13435   0.350   1.628   0.116
 4179SOL    HW113436   0.297   1.566   0.174
 4179SOL    HW213437   0.413   1.681   0.172
 4180SOL     OW13438   5.957   4.157   1.662
 4180SOL    HW113439   5.944   4.256   1.673
 4180SOL    HW213440   6.020   4.141   1.586
 4181SOL     OW13441   5.941   0.950   0.028
 4181SOL    HW113442   5.996   0.973   0.109
 4181SOL    HW213443   5.880   1.026   0.008
 4182SOL     OW13444   5.970   0.803   3.699
 4182SOL    HW113445   6.012   0.794   3.789
 4182SOL    HW213446   5.932   0.895   3.689
 4183SOL     OW13447   0.531   0.709   1.753
 4183SOL    HW113448   0.629   0.707   1.775
 4183SOL    HW213449   0.509   0.632   1.694
 4184SOL     OW13450   4.411   4.833   6.208
 4184SOL    HW113451   4.364   4.765   6.150
 4184SOL    HW213452   4.387   4.925   6.177
 4185SOL     OW13453   6.912   1.089   4.460
 4185SOL    HW113454   6.985   1.050   4.516
 4185SOL    HW213455   6.826   1.089   4.512
 4186SOL     OW13456   3.324   3.659   1.742
 4186SOL    HW113457   3.384   3.721   1.793
 4186SOL    HW213458   3.257   3.712   1.690
 4187SOL     OW13459   4.819   5.173   5.557
 4187SOL    HW113460   4.883   5.173   5.479
 4187SOL    HW213461   4.819   5.263   5.600
 4188SOL     OW13462   5.490   5.751   2.629
 4188SOL    HW113463   5.432   5.815   2.577
 4188SOL    HW213464   5.438   5.715   2.706
 4189SOL     OW13465   1.387   3.370   3.003
 4189SOL    HW113466   1.463   3.306   3.017
 4189SOL    HW213467   1.304   3.334   3.045
 4190SOL     OW13468   2.472   6.288   1.882
 4190SOL    HW113469   2.546   6.228   1.913
 4190SOL    HW213470   2.437   6.340   1.960
 4191SOL     OW13471   0.111   2.015   3.931
 4191SOL    HW113472   0.175   1.963   3.874
 4191SOL    HW213473   0.151   2.105   3.952
 4192SOL     OW13474   5.857   6.273   3.938
 4192SOL    HW113475   5.829   6.292   3.844
 4192SOL    HW213476   5.788   6.309   4.001
 4193SOL     OW13477   1.487   6.648   3.967
 4193SOL    HW113478   1.527   6.706   3.897
 4193SOL    HW213479   1.393   6.625   3.942
 4194SOL     OW13480   4.801   6.996   3.167
 4194SOL    HW113481   4.773   6.900   3.162
 4194SOL    HW213482   4.760   0.026   3.091
 4195SOL     OW13483   4.680   0.415   3.382
 4195SOL    HW113484   4.652   0.485   3.448
 4195SOL    HW213485   4.669   0.325   3.424
 4196SOL     OW13486   4.970   2.659   3.117
 4196SOL    HW113487   5.036   2.614   3.177
 4196SOL    HW213488   4.951   2.600   3.039
 4197SOL     OW13489   5.660   4.525   4.784
 4197SOL    HW113490   5.628   4.440   4.824
 4197SOL    HW213491   5.660   4.517   4.684
 4198SOL     OW13492   6.456   3.571   6.033
 4198SOL    HW113493   6.439   3.504   5.961
 4198SOL    HW213494   6.553   3.567   6.060
 4199SOL     OW13495   3.166   4.538   6.250
 4199SOL    HW113496   3.217   4.505   6.329
 4199SOL    HW213497   3.111   4.463   6.212
 4200SOL     OW13498   2.452   0.254   5.162
 4200SOL    HW113499   2.485   0.188   5.230
 4200SOL    HW213500   2.444   0.209   5.074
 4201SOL     OW13501   6.232   0.103   4.861
 4201SOL    HW113502   6.152   0.044   4.847
 4201SOL    HW213503   6.256   0.105   4.958
 4202SOL     OW13504   5.912   3.574   4.976
 4202SOL    HW113505   5.813   3.587   4.972
 4202SOL    HW213506   5.947   3.610   5.063
 4203SOL     OW13507   3.465   5.832   4.571
 4203SOL    HW113508   3.387   5.772   4.556
 4203SOL    HW213509   3.448   5.890   4.651
 4204SOL     OW13510   1.697   4.108   0.015
 4204SOL    HW113511   1.614   4.084   6.986
 4204SOL    HW213512   1.684   4.196   0.062
 4205SOL     OW13513   2.456   6.785   3.634
 4205SOL    HW113514   2.545   6.802   3.676
 4205SOL    HW213515   2.393   6.749   3.703
 4206SOL     OW13516   4.594   6.338   3.312
 4206SOL    HW113517   4.498   6.367   3.308
 4206SOL    HW213518   4.648   6.391   3.246
 4207SOL     OW13519   1.900   6.084   0.077
 4207SOL    HW113520   1.999   6.074   0.077
 4207SOL    HW213521   1.865   6.072   0.170
 4208SOL     OW13522   1.034   1.653   2.040
 4208SOL    HW113523   0.990   1.613   2.121
 4208SOL    HW213524   1.058   1.580   1.976
 4209SOL     OW13525   2.048   0.480   5.711
 4209SOL    HW113526   2.086   0.389   5.730
 4209SOL    HW213527   2.075   0.543   5.784
 4210SOL     OW13528   3.689   3.220   0.723
 4210SOL    HW113529   3.683   3.309   0.677
 4210SOL    HW213530   3.773   3.173   0.693
 4211SOL     OW13531   6.570   3.110   4.079
 4211SOL    HW113532   6.514   3.042   4.126
 4211SOL    HW213533   6.617   3.068   4.001
 4212SOL     OW13534   5.602   6.680   1.893
 4212SOL    HW113535   5.642   6.766   1.863
 4212SOL    HW213536   5.548   6.641   1.819
 4213SOL     OW13537   1.081   0.451   1.026
 4213SOL    HW113538   1.077   0.523   0.957
 4213SOL    HW213539   1.125   0.370   0.988
 4214SOL     OW13540   3.127   5.439   3.686
 4214SOL    HW113541   3.205   5.474   3.738
 4214SOL    HW213542   3.116   5.341   3.703
 4215SOL     OW13543   1.644   5.784   6.961
 4215SOL    HW113544   1.731   5.759   6.919
 4215SOL    HW213545   1.628   5.882   6.949
 4216SOL     OW13546   2.528   2.847   5.384
 4216SOL    HW113547   2.525   2.931   5.330
 4216SOL    HW213548   2.465   2.779   5.345
 4217SOL     OW13549   6.132   0.350   4.832
 4217SOL    HW113550   6.092   0.349   4.740
 4217SOL    HW213551   6.182   0.265   4.848
 4218SOL     OW13552   3.227   5.582   2.283
 4218SOL    HW113553   3.248   5.635   2.200
 4218SOL    HW213554   3.312   5.547   2.322
 4219SOL     OW13555   5.182   0.462   2.821
 4219SOL    HW113556   5.251   0.414   2.876
 4219SOL    HW213557   5.110   0.496   2.881
 4220SOL     OW13558   0.931   4.870   3.025
 4220SOL    HW113559   0.941   4.901   2.931
 4220SOL    HW213560   0.926   4.770   3.027
 4221SOL     OW13561   5.271   6.234   5.848
 4221SOL    HW113562   5.355   6.216   5.796
 4221SOL    HW213563   5.202   6.274   5.789
 4222SOL     OW13564   2.354   3.141   0.056
 4222SOL    HW113565   2.401   3.082   7.011
 4222SOL    HW213566   2.362   3.101   0.148
 4223SOL     OW13567   3.620   4.136   2.884
 4223SOL    HW113568   3.525   4.106   2.891
 4223SOL    HW213569   3.651   4.170   2.973
 4224SOL     OW13570   3.445   2.093   5.202
 4224SOL    HW113571   3.445   2.003   5.246
 4224SOL    HW213572   3.454   2.082   5.103
 4225SOL     OW13573   5.109   6.292   4.703
 4225SOL    HW113574   5.072   6.245   4.783
 4225SOL    HW213575   5.198   6.254   4.680
 4226SOL     OW13576   2.326   2.137   1.696
 4226SOL    HW113577   2.259   2.197   1.739
 4226SOL    HW213578   2.410   2.137   1.749
 4227SOL     OW13579   5.700   3.682   0.269
 4227SOL    HW113580   5.799   3.676   0.260
 4227SOL    HW213581   5.659   3.704   0.180
 4228SOL     OW13582   4.352   5.674   2.779
 4228SOL    HW113583   4.423   5.656   2.711
 4228SOL    HW213584   4.277   5.725   2.736
 4229SOL     OW13585   4.298   4.648   4.630
 4229SOL    HW113586   4.392   4.635   4.597
 4229SOL    HW213587   4.299   4.699   4.716
 4230SOL     OW13588   1.517   1.157   5.366
 4230SOL    HW113589   1.557   1.088   5.306
 4230SOL    HW213590   1.576   1.238   5.369
 4231SOL     OW13591   3.874   6.625   6.574
 4231SOL    HW113592   3.932   6.548   6.601
 4231SOL    HW213593   3.905   6.660   6.485
 4232SOL     OW13594   1.867   4.076   1.603
 4232SOL    HW113595   1.806   4.094   1.681
 4232SOL    HW213596   1.814   4.083   1.518
 4233SOL     OW13597   4.893   5.246   1.213
 4233SOL    HW113598   4.897   5.146   1.207
 4233SOL    HW213599   4.820   5.280   1.154
 4234SOL     OW13600   3.833   3.641   5.826
 4234SOL    HW113601   3.791   3.692   5.751
 4234SOL    HW213602   3.916   3.688   5.857
 4235SOL     OW13603   0.304   3.781   4.882
 4235SOL    HW113604   0.372   3.854   4.888
 4235SOL    HW213605   0.350   3.692   4.888
 4236SOL     OW13606   1.108   3.306   4.122
 4236SOL    HW113607   1.163   3.232   4.084
 4236SOL    HW213608   1.149   3.339   4.207
 4237SOL     OW13609   5.211   3.453   5.243
 4237SOL    HW113610   5.127   3.508   5.238
 4237SOL    HW213611   5.288   3.512   5.267
 4238SOL     OW13612   5.114   4.710   4.971
 4238SOL    HW113613   5.116   4.810   4.969
 4238SOL    HW213614   5.208   4.676   4.973
 4239SOL     OW13615   5.268   4.904   5.305
 4239SOL    HW113616   5.229   4.888   5.214
 4239SOL    HW213617   5.235   4.834   5.368
 4240SOL     OW13618   2.214   4.242   5.952
 4240SOL    HW113619   2.176   4.310   5.889
 4240SOL    HW213620   2.226   4.155   5.903
 4241SOL     OW13621   3.771   2.436   0.466
 4241SOL    HW113622   3.786   2.343   0.433
 4241SOL    HW213623   3.719   2.488   0.398
 4242SOL     OW13624   2.806   0.539   1.897
 4242SOL    HW113625   2.811   0.576   1.804
 4242SOL    HW213626   2.885   0.571   1.950
 4243SOL     OW13627   2.038   1.849   2.020
 4243SOL    HW113628   2.125   1.833   1.974
 4243SOL    HW213629   1.987   1.920   1.971
 4244SOL     OW13630   2.539   0.046   0.742
 4244SOL    HW113631   2.467   0.108   0.774
 4244SOL    HW213632   2.504   6.973   0.738
 4245SOL     OW13633   0.396   1.415   1.634
 4245SOL    HW113634   0.354   1.364   1.709
 4245SOL    HW213635   0.460   1.483   1.671
 4246SOL     OW13636   3.682   2.109   3.323
 4246SOL    HW113637   3.779   2.125   3.343
 4246SOL    HW213638   3.668   2.109   3.225
 4247SOL     OW13639   2.308   4.940   6.610
 4247SOL    HW113640   2.405   4.931   6.588
 4247SOL    HW213641   2.269   4.850   6.627
 4248SOL     OW13642   3.063   6.519   1.907
 4248SOL    HW113643   2.995   6.507   1.834
 4248SOL    HW213644   3.030   6.586   1.973
 4249SOL     OW13645   6.218   1.456   5.291
 4249SOL    HW113646   6.236   1.533   5.229
 4249SOL    HW213647   6.246   1.371   5.248
 4250SOL     OW13648   0.927   5.327   4.660
 4250SOL    HW113649   0.936   5.282   4.571
 4250SOL    HW213650   0.987   5.282   4.726
 4251SOL     OW13651   4.557   1.546   5.554
 4251SOL    HW113652   4.637   1.571   5.500
 4251SOL    HW213653   4.554   1.601   5.637
 4252SOL     OW13654   0.785   6.830   6.815
 4252SOL    HW113655   0.814   6.885   6.736
 4252SOL    HW213656   0.791   6.733   6.790
 4253SOL     OW13657   3.080   0.154   2.605
 4253SOL    HW113658   3.035   0.108   2.682
 4253SOL    HW213659   3.037   0.243   2.589
 4254SOL     OW13660   0.782   0.687   4.732
 4254SOL    HW113661   0.691   0.688   4.691
 4254SOL    HW213662   0.775   0.669   4.830
 4255SOL     OW13663   1.780   2.916   4.586
 4255SOL    HW113664   1.831   2.985   4.535
 4255SOL    HW213665   1.702   2.885   4.533
 4256SOL     OW13666   5.938   6.216   1.178
 4256SOL    HW113667   5.903   6.297   1.225
 4256SOL    HW213668   5.863   6.165   1.137
 4257SOL     OW13669   0.386   1.460   2.595
 4257SOL    HW113670   0.334   1.409   2.664
 4257SOL    HW213671   0.325   1.525   2.549
 4258SOL     OW13672   2.408   6.367   0.966
 4258SOL    HW113673   2.427   6.456   1.009
 4258SOL    HW213674   2.483   6.343   0.904
 4259SOL     OW13675   1.268   0.636   0.343
 4259SOL    HW113676   1.325   0.695   0.401
 4259SOL    HW213677   1.314   0.620   0.256
 4260SOL     OW13678   6.879   0.577   5.684
 4260SOL    HW113679   6.970   0.586   5.645
 4260SOL    HW213680   6.849   0.482   5.680
 4261SOL     OW13681   1.842   6.549   2.908
 4261SOL    HW113682   1.840   6.612   2.830
 4261SOL    HW213683   1.779   6.474   2.893
 4262SOL     OW13684   1.330   3.558   4.576
 4262SOL    HW113685   1.350   3.642   4.525
 4262SOL    HW213686   1.297   3.488   4.513
 4263SOL     OW13687   3.117   0.826   2.480
 4263SOL    HW113688   3.064   0.891   2.425
 4263SOL    HW213689   3.146   0.750   2.421
 4264SOL     OW13690   4.281   2.205   6.389
 4264SOL    HW113691   4.281   2.291   6.440
 4264SOL    HW213692   4.243   2.219   6.298
 4265SOL     OW13693   3.653   5.959   6.313
 4265SOL    HW113694   3.580   6.025   6.294
 4265SOL    HW213695   3.672   5.905   6.231
 4266SOL     OW13696   1.367   3.696   2.522
 4266SOL    HW113697   1.279   3.738   2.544
 4266SOL    HW213698   1.438   3.766   2.522
 4267SOL     OW13699   1.597   3.513   3.694
 4267SOL    HW113700   1.543   3.450   3.749
 4267SOL    HW213701   1.551   3.529   3.607
 4268SOL     OW13702   1.171   4.481   4.946
 4268SOL    HW113703   1.225   4.426   4.882
 4268SOL    HW213704   1.133   4.422   5.017
 4269SOL     OW13705   2.456   2.032   4.294
 4269SOL    HW113706   2.492   2.123   4.271
 4269SOL    HW213707   2.533   1.971   4.315
 4270SOL     OW13708   4.123   4.309   1.073
 4270SOL    HW113709   4.134   4.260   1.159
 4270SOL    HW213710   4.026   4.324   1.055
 4271SOL     OW13711   6.161   6.705   0.060
 4271SOL    HW113712   6.202   6.784   0.014
 4271SOL    HW213713   6.184   6.708   0.157
 4272SOL     OW13714   6.676   2.215   5.396
 4272SOL    HW113715   6.580   2.242   5.394
 4272SOL    HW213716   6.734   2.296   5.394
 4273SOL     OW13717   3.309   6.244   3.583
 4273SOL    HW113718   3.236   6.202   3.635
 4273SOL    HW213719   3.274   6.271   3.493
 4274SOL     OW13720   6.062   0.638   2.185
 4274SOL    HW113721   6.014   0.723   2.209
 4274SOL    HW213722   6.049   0.570   2.257
 4275SOL     OW13723   5.688   1.818   4.014
 4275SOL    HW113724   5.594   1.849   4.000
 4275SOL    HW213725   5.709   1.816   4.111
 4276SOL     OW13726   2.275   0.906   3.252
 4276SOL    HW113727   2.307   0.997   3.226
 4276SOL    HW213728   2.327   0.838   3.199
 4277SOL     OW13729   6.348   4.575   2.803
 4277SOL    HW113730   6.314   4.557   2.896
 4277SOL    HW213731   6.411   4.653   2.806
 4278SOL     OW13732   0.327   6.950   1.505
 4278SOL    HW113733   0.252   7.013   1.483
 4278SOL    HW213734   0.291   6.870   1.552
 4279SOL     OW13735   1.511   3.927   2.608
 4279SOL    HW113736   1.579   3.864   2.645
 4279SOL    HW213737   1.550   4.019   2.604
 4280SOL     OW13738   2.468   0.082   5.778
 4280SOL    HW113739   2.542   0.093   5.844
 4280SOL    HW213740   2.385   0.056   5.825
 4281SOL     OW13741   6.806   6.738   2.647
 4281SOL    HW113742   6.805   6.783   2.557
 4281SOL    HW213743   6.738   6.780   2.706
 4282SOL     OW13744   4.922   4.513   2.394
 4282SOL    HW113745   4.914   4.570   2.312
 4282SOL    HW213746   4.831   4.498   2.433
 4283SOL     OW13747   0.176   2.272   5.486
 4283SOL    HW113748   0.152   2.368   5.497
 4283SOL    HW213749   0.201   2.255   5.391
 4284SOL     OW13750   4.637   6.345   0.046
 4284SOL    HW113751   4.628   6.390   0.135
 4284SOL    HW213752   4.634   6.246   0.058
 4285SOL     OW13753   2.941   1.233   6.040
 4285SOL    HW113754   2.928   1.299   6.114
 4285SOL    HW213755   2.855   1.187   6.020
 4286SOL     OW13756   5.374   6.724   6.654
 4286SOL    HW113757   5.378   6.777   6.570
 4286SOL    HW213758   5.347   6.784   6.730
 4287SOL     OW13759   4.756   0.146   1.070
 4287SOL    HW113760   4.822   0.072   1.054
 4287SOL    HW213761   4.727   0.184   0.982
 4288SOL     OW13762   6.231   6.356   2.705
 4288SOL    HW113763   6.155   6.295   2.729
 4288SOL    HW213764   6.288   6.311   2.635
 4289SOL     OW13765   0.286   5.111   5.638
 4289SOL    HW113766   0.188   5.113   5.618
 4289SOL    HW213767   0.318   5.016   5.640
 4290SOL     OW13768   0.193   0.974   2.990
 4290SOL    HW113769   0.184   0.957   3.088
 4290SOL    HW213770   0.141   0.906   2.939
 4291SOL     OW13771   4.675   4.897   5.408
 4291SOL    HW113772   4.694   4.800   5.426
 4291SOL    HW213773   4.737   4.929   5.335
 4292SOL     OW13774   6.447   0.780   0.120
 4292SOL    HW113775   6.363   0.762   0.069
 4292SOL    HW213776   6.429   0.774   0.218
 4293SOL     OW13777   4.076   2.069   5.857
 4293SOL    HW113778   4.052   2.016   5.776
 4293SOL    HW213779   4.138   2.016   5.914
 4294SOL     OW13780   2.969   1.836   0.217
 4294SOL    HW113781   3.040   1.767   0.228
 4294SOL    HW213782   2.889   1.795   0.174
 4295SOL     OW13783   4.032   7.004   2.593
 4295SOL    HW113784   4.090   6.962   2.663
 4295SOL    HW213785   4.086   0.001   2.511
 4296SOL     OW13786   1.624   5.312   1.641
 4296SOL    HW113787   1.570   5.367   1.704
 4296SOL    HW213788   1.593   5.217   1.645
 4297SOL     OW13789   4.941   3.973   0.432
 4297SOL    HW113790   4.898   3.986   0.343
 4297SOL    HW213791   4.874   3.938   0.497
 4298SOL     OW13792   1.873   6.404   0.982
 4298SOL    HW113793   1.844   6.366   0.894
 4298SOL    HW213794   1.971   6.423   0.979
 4299SOL     OW13795   0.174   3.619   0.150
 4299SOL    HW113796   0.168   3.645   0.054
 4299SOL    HW213797   0.249   3.668   0.194
 4300SOL     OW13798   3.657   0.908   2.359
 4300SOL    HW113799   3.609   0.993   2.338
 4300SOL    HW213800   3.729   0.926   2.426
 4301SOL     OW13801   2.082   5.715   4.315
 4301SOL    HW113802   2.070   5.730   4.217
 4301SOL    HW213803   2.001   5.668   4.351
 4302SOL     OW13804   3.556   4.578   6.908
 4302SOL    HW113805   3.612   4.635   6.849
 4302SOL    HW213806   3.530   4.494   6.860
 4303SOL     OW13807   4.772   5.284   3.227
 4303SOL    HW113808   4.768   5.280   3.127
 4303SOL    HW213809   4.737   5.198   3.265
 4304SOL     OW13810   2.816   4.261   1.301
 4304SOL    HW113811   2.757   4.336   1.271
 4304SOL    HW213812   2.766   4.175   1.293
 4305SOL     OW13813   0.545   0.092   5.985
 4305SOL    HW113814   0.457   0.120   5.948
 4305SOL    HW213815   0.531   0.017   6.050
 4306SOL     OW13816   6.615   4.349   4.971
 4306SOL    HW113817   6.579   4.305   5.054
 4306SOL    HW213818   6.553   4.422   4.944
 4307SOL     OW13819   6.949   1.790   4.332
 4307SOL    HW113820   6.948   1.859   4.259
 4307SOL    HW213821   6.857   1.781   4.370
 4308SOL     OW13822   4.924   5.908   6.378
 4308SOL    HW113823   4.854   5.842   6.351
 4308SOL    HW213824   4.906   5.938   6.472
 4309SOL     OW13825   2.344   2.108   0.483
 4309SOL    HW113826   2.365   2.088   0.388
 4309SOL    HW213827   2.276   2.182   0.488
 4310SOL     OW13828   6.396   1.263   4.879
 4310SOL    HW113829   6.493   1.265   4.903
 4310SOL    HW213830   6.384   1.299   4.786
 4311SOL     OW13831   1.079   6.547   0.639
 4311SOL    HW113832   1.036   6.529   0.550
 4311SOL    HW213833   1.013   6.592   0.699
 4312SOL     OW13834   0.555   3.318   2.595
 4312SOL    HW113835   0.572   3.305   2.498
 4312SOL    HW213836   0.486   3.389   2.608
 4313SOL     OW13837   0.670   3.604   0.869
 4313SOL    HW113838   0.681   3.665   0.791
 4313SOL    HW213839   0.572   3.590   0.888
 4314SOL     OW13840   2.640   1.935   5.599
 4314SOL    HW113841   2.555   1.984   5.584
 4314SOL    HW213842   2.674   1.900   5.512
 4315SOL     OW13843   2.736   2.309   5.483
 4315SOL    HW113844   2.648   2.358   5.482
 4315SOL    HW213845   2.797   2.349   5.414
 4316SOL     OW13846   5.130   4.181   1.098
 4316SOL    HW113847   5.077   4.177   1.182
 4316SOL    HW213848   5.186   4.099   1.090
 4317SOL     OW13849   4.896   0.210   3.492
 4317SOL    HW113850   4.964   0.142   3.520
 4317SOL    HW213851   4.862   0.258   3.573
 4318SOL     OW13852   2.184   5.627   3.669
 4318SOL    HW113853   2.131   5.709   3.691
 4318SOL    HW213854   2.255   5.614   3.738
 4319SOL     OW13855   2.618   4.439   0.859
 4319SOL    HW113856   2.555   4.403   0.927
 4319SOL    HW213857   2.690   4.492   0.904
 4320SOL     OW13858   4.567   1.297   1.956
 4320SOL    HW113859   4.538   1.367   2.022
 4320SOL    HW213860   4.666   1.285   1.964
 4321SOL     OW13861   6.950   5.885   3.490
 4321SOL    HW113862   6.968   5.965   3.548
 4321SOL    HW213863   6.977   5.802   3.539
 4322SOL     OW13864   2.821   2.004   3.918
 4322SOL    HW113865   2.833   2.072   3.846
 4322SOL    HW213866   2.910   1.972   3.950
 4323SOL     OW13867   5.797   3.938   1.733
 4323SOL    HW113868   5.818   3.915   1.828
 4323SOL    HW213869   5.845   4.021   1.708
 4324SOL     OW13870   6.397   4.072   5.202
 4324SOL    HW113871   6.450   4.149   5.236
 4324SOL    HW213872   6.339   4.036   5.275
 4325SOL     OW13873   1.463   0.433   0.528
 4325SOL    HW113874   1.380   0.471   0.567
 4325SOL    HW213875   1.493   0.490   0.451
 4326SOL     OW13876   5.295   2.715   2.297
 4326SOL    HW113877   5.309   2.751   2.205
 4326SOL    HW213878   5.382   2.684   2.335
 4327SOL     OW13879   3.456   6.409   4.134
 4327SOL    HW113880   3.472   6.463   4.051
 4327SOL    HW213881   3.520   6.332   4.136
 4328SOL     OW13882   5.496   0.442   1.666
 4328SOL    HW113883   5.445   0.453   1.581
 4328SOL    HW213884   5.593   0.460   1.650
 4329SOL     OW13885   6.432   3.694   0.502
 4329SOL    HW113886   6.456   3.656   0.413
 4329SOL    HW213887   6.335   3.717   0.504
 4330SOL     OW13888   2.846   6.349   5.267
 4330SOL    HW113889   2.779   6.419   5.244
 4330SOL    HW213890   2.799   6.263   5.287
 4331SOL     OW13891   6.064   1.409   3.023
 4331SOL    HW113892   6.133   1.340   3.043
 4331SOL    HW213893   6.035   1.400   2.927
 4332SOL     OW13894   6.648   6.433   1.292
 4332SOL    HW113895   6.560   6.428   1.246
 4332SOL    HW213896   6.720   6.403   1.230
 4333SOL     OW13897   3.522   3.105   6.067
 4333SOL    HW113898   3.575   3.116   5.983
 4333SOL    HW213899   3.435   3.061   6.046
 4334SOL     OW13900   0.551   1.839   3.815
 4334SOL    HW113901   0.631   1.787   3.846
 4334SOL    HW213902   0.557   1.933   3.848
 4335SOL     OW13903   2.126   2.420   1.314
 4335SOL    HW113904   2.222   2.412   1.341
 4335SOL    HW213905   2.097   2.335   1.270
 4336SOL     OW13906   2.237   5.590   5.446
 4336SOL    HW113907   2.170   5.613   5.376
 4336SOL    HW213908   2.191   5.544   5.522
 4337SOL     OW13909   6.955   4.441   4.090
 4337SOL    HW113910   6.892   4.366   4.112
 4337SOL    HW213911   0.017   4.404   4.048
 4338SOL     OW13912   3.241   3.297   5.246
 4338SOL    HW113913   3.141   3.308   5.240
 4338SOL    HW213914   3.279   3.367   5.305
 4339SOL     OW13915   4.091   3.785   4.954
 4339SOL    HW113916   4.006   3.740   4.983
 4339SOL    HW213917   4.100   3.872   5.002
 4340SOL     OW13918   0.058   4.323   0.541
 4340SOL    HW113919   6.989   4.285   0.568
 4340SOL    HW213920   0.082   4.290   0.450
 4341SOL     OW13921   5.769   6.900   1.818
 4341SOL    HW113922   5.760   6.985   1.868
 4341SOL    HW213923   5.842   6.909   1.750
 4342SOL     OW13924   5.266   3.741   2.124
 4342SOL    HW113925   5.297   3.730   2.219
 4342SOL    HW213926   5.231   3.653   2.091
 4343SOL     OW13927   4.886   6.935   6.246
 4343SOL    HW113928   4.815   6.884   6.196
 4343SOL    HW213929   4.968   6.879   6.253
 4344SOL     OW13930   1.635   4.329   2.387
 4344SOL    HW113931   1.582   4.410   2.361
 4344SOL    HW213932   1.686   4.296   2.308
 4345SOL     OW13933   3.912   3.666   2.433
 4345SOL    HW113934   3.833   3.705   2.386
 4345SOL    HW213935   3.951   3.592   2.378
 4346SOL     OW13936   1.255   3.214   1.821
 4346SOL    HW113937   1.206   3.136   1.862
 4346SOL    HW213938   1.347   3.185   1.795
 4347SOL     OW13939   5.674   5.862   0.901
 4347SOL    HW113940   5.622   5.883   0.818
 4347SOL    HW213941   5.760   5.817   0.876
 4348SOL     OW13942   6.889   4.217   6.036
 4348SOL    HW113943   6.796   4.215   6.072
 4348SOL    HW213944   6.887   4.209   5.936
 4349SOL     OW13945   0.857   3.628   3.674
 4349SOL    HW113946   0.913   3.557   3.716
 4349SOL    HW213947   0.878   3.716   3.717
 4350SOL     OW13948   4.949   6.965   4.137
 4350SOL    HW113949   4.900   6.913   4.207
 4350SOL    HW213950   4.930   6.926   4.047
 4351SOL     OW13951   0.210   6.490   1.486
 4351SOL    HW113952   0.288   6.467   1.428
 4351SOL    HW213953   0.242   6.514   1.577
 4352SOL     OW13954   4.448   4.444   1.331
 4352SOL    HW113955   4.465   4.358   1.283
 4352SOL    HW213956   4.354   4.446   1.363
 4353SOL     OW13957   2.368   3.413   0.027
 4353SOL    HW113958   2.366   3.446   0.121
 4353SOL    HW213959   2.384   3.314   0.027
 4354SOL     OW13960   6.306   4.246   2.940
 4354SOL    HW113961   6.344   4.272   2.851
 4354SOL    HW213962   6.229   4.306   2.962
 4355SOL     OW13963   2.107   5.035   3.926
 4355SOL    HW113964   2.170   5.112   3.941
 4355SOL    HW213965   2.069   5.041   3.833
 4356SOL     OW13966   5.708   1.514   5.813
 4356SOL    HW113967   5.716   1.416   5.833
 4356SOL    HW213968   5.741   1.567   5.891
 4357SOL     OW13969   5.280   5.734   2.835
 4357SOL    HW113970   5.279   5.651   2.779
 4357SOL    HW213971   5.187   5.755   2.865
 4358SOL     OW13972   3.879   0.513   1.248
 4358SOL    HW113973   3.847   0.420   1.267
 4358SOL    HW213974   3.918   0.517   1.156
 4359SOL     OW13975   3.063   4.167   1.770
 4359SOL    HW113976   3.162   4.152   1.762
 4359SOL    HW213977   3.031   4.220   1.691
 4360SOL     OW13978   2.909   6.367   3.807
 4360SOL    HW113979   2.900   6.384   3.709
 4360SOL    HW213980   2.988   6.416   3.843
 4361SOL     OW13981   1.778   0.086   6.845
 4361SOL    HW113982   1.774   0.088   6.745
 4361SOL    HW213983   1.708   0.146   6.883
 4362SOL     OW13984   5.897   5.416   1.966
 4362SOL    HW113985   5.846   5.465   2.037
 4362SOL    HW213986   5.932   5.330   2.004
 4363SOL     OW13987   4.418   0.446   2.479
 4363SOL    HW113988   4.506   0.467   2.522
 4363SOL    HW213989   4.364   0.391   2.542
 4364SOL     OW13990   3.652   3.111   3.126
 4364SOL    HW113991   3.738   3.066   3.102
 4364SOL    HW213992   3.584   3.094   3.055
 4365SOL     OW13993   2.196   1.274   0.923
 4365SOL    HW113994   2.203   1.201   0.855
 4365SOL    HW213995   2.287   1.312   0.940
 4366SOL     OW13996   4.647   5.451   4.793
 4366SOL    HW113997   4.577   5.454   4.722
 4366SOL    HW213998   4.614   5.396   4.870
 4367SOL     OW13999   1.559   0.193   1.842
 4367SOL    HW114000   1.462   0.215   1.834
 4367SOL    HW214001   1.613   0.271   1.812
 4368SOL     OW14002   5.171   5.362   4.274
 4368SOL    HW114003   5.120   5.352   4.359
 4368SOL    HW214004   5.214   5.453   4.271
 4369SOL     OW14005   6.766   4.201   3.653
 4369SOL    HW114006   6.800   4.232   3.564
 4369SOL    HW214007   6.668   4.222   3.660
 4370SOL     OW14008   5.424   4.487   1.143
 4370SOL    HW114009   5.413   4.586   1.127
 4370SOL    HW214010   5.410   4.468   1.240
 4371SOL     OW14011   3.174   0.811   3.619
 4371SOL    HW114012   3.093   0.789   3.564
 4371SOL    HW214013   3.190   0.909   3.617
 4372SOL     OW14014   2.030   4.368   5.542
 4372SOL    HW114015   1.933   4.357   5.518
 4372SOL    HW214016   2.038   4.414   5.630
 4373SOL     OW14017   4.064   0.522   0.488
 4373SOL    HW114018   3.989   0.467   0.526
 4373SOL    HW214019   4.146   0.466   0.479
 4374SOL     OW14020   1.791   6.051   0.324
 4374SOL    HW114021   1.836   6.074   0.410
 4374SOL    HW214022   1.693   6.037   0.340
 4375SOL     OW14023   4.598   0.767   5.214
 4375SOL    HW114024   4.552   0.700   5.272
 4375SOL    HW214025   4.532   0.837   5.186
 4376SOL     OW14026   2.205   4.663   6.921
 4376SOL    HW114027   2.227   4.603   6.998
 4376SOL    HW214028   2.127   4.720   6.946
 4377SOL     OW14029   5.657   6.207   6.999
 4377SOL    HW114030   5.666   6.149   0.059
 4377SOL    HW214031   5.734   6.190   6.937
 4378SOL     OW14032   2.825   5.121   1.140
 4378SOL    HW114033   2.730   5.112   1.112
 4378SOL    HW214034   2.842   5.063   1.220
 4379SOL     OW14035   5.763   6.561   1.020
 4379SOL    HW114036   5.739   6.488   0.956
 4379SOL    HW214037   5.816   6.631   0.972
 4380SOL     OW14038   1.657   5.996   4.992
 4380SOL    HW114039   1.612   6.061   4.930
 4380SOL    HW214040   1.748   6.031   5.015
 4381SOL     OW14041   3.287   6.140   4.969
 4381SOL    HW114042   3.279   6.042   4.955
 4381SOL    HW214043   3.359   6.177   4.910
 4382SOL     OW14044   5.841   3.548   3.363
 4382SOL    HW114045   5.773   3.557   3.437
 4382SOL    HW214046   5.827   3.461   3.317
 4383SOL     OW14047   1.457   0.016   6.706
 4383SOL    HW114048   1.508   0.071   6.772
 4383SOL    HW214049   1.389   0.073   6.659
 4384SOL     OW14050   3.875   6.983   1.585
 4384SOL    HW114051   3.967   6.990   1.546
 4384SOL    HW214052   3.852   6.887   1.599
 4385SOL     OW14053   6.055   2.525   4.363
 4385SOL    HW114054   6.043   2.511   4.462
 4385SOL    HW214055   5.968   2.553   4.323
 4386SOL     OW14056   1.560   5.317   0.245
 4386SOL    HW114057   1.586   5.254   0.172
 4386SOL    HW214058   1.580   5.411   0.217
 4387SOL     OW14059   6.520   2.661   0.825
 4387SOL    HW114060   6.458   2.642   0.900
 4387SOL    HW214061   6.477   2.724   0.760
 4388SOL     OW14062   3.954   0.845   5.595
 4388SOL    HW114063   4.050   0.841   5.565
 4388SOL    HW214064   3.918   0.937   5.579
 4389SOL     OW14065   0.742   2.898   2.682
 4389SOL    HW114066   0.799   2.976   2.655
 4389SOL    HW214067   0.653   2.930   2.713
 4390SOL     OW14068   5.282   3.954   1.084
 4390SOL    HW114069   5.303   3.923   0.991
 4390SOL    HW214070   5.266   3.874   1.143
 4391SOL     OW14071   0.455   5.596   1.346
 4391SOL    HW114072   0.548   5.631   1.332
 4391SOL    HW214073   0.402   5.664   1.396
 4392SOL     OW14074   5.247   5.252   4.617
 4392SOL    HW114075   5.221   5.163   4.580
 4392SOL    HW214076   5.170   5.315   4.608
 4393SOL     OW14077   5.215   7.015   2.611
 4393SOL    HW114078   5.219   6.965   2.697
 4393SOL    HW214079   5.147   6.973   2.551
 4394SOL     OW14080   4.771   1.174   3.266
 4394SOL    HW114081   4.836   1.098   3.262
 4394SOL    HW214082   4.776   1.227   3.182
 4395SOL     OW14083   5.240   2.541   1.165
 4395SOL    HW114084   5.162   2.484   1.140
 4395SOL    HW214085   5.233   2.568   1.261
 4396SOL     OW14086   2.059   0.697   2.246
 4396SOL    HW114087   2.117   0.664   2.172
 4396SOL    HW214088   2.105   0.684   2.334
 4397SOL     OW14089   4.052   1.911   0.475
 4397SOL    HW114090   4.135   1.935   0.424
 4397SOL    HW214091   4.000   1.994   0.495
 4398SOL     OW14092   0.850   5.208   5.097
 4398SOL    HW114093   0.906   5.149   5.156
 4398SOL    HW214094   0.760   5.168   5.086
 4399SOL     OW14095   2.907   0.469   1.340
 4399SOL    HW114096   2.969   0.403   1.299
 4399SOL    HW214097   2.862   0.522   1.267
 4400SOL     OW14098   3.794   5.092   2.784
 4400SOL    HW114099   3.708   5.127   2.746
 4400SOL    HW214100   3.869   5.151   2.755
 4401SOL     OW14101   4.741   6.696   4.466
 4401SOL    HW114102   4.754   6.734   4.558
 4401SOL    HW214103   4.708   6.602   4.472
 4402SOL     OW14104   6.969   6.543   0.739
 4402SOL    HW114105   6.893   6.602   0.767
 4402SOL    HW214106   6.966   6.458   0.792
 4403SOL     OW14107   6.477   1.655   3.153
 4403SOL    HW114108   6.449   1.728   3.215
 4403SOL    HW214109   6.468   1.685   3.058
 4404SOL     OW14110   1.673   3.688   2.699
 4404SOL    HW114111   1.746   3.687   2.630
 4404SOL    HW214112   1.618   3.606   2.691
 4405SOL     OW14113   3.255   4.002   6.642
 4405SOL    HW114114   3.347   4.034   6.667
 4405SOL    HW214115   3.187   4.048   6.698
 4406SOL     OW14116   6.220   2.443   2.948
 4406SOL    HW114117   6.269   2.443   3.035
 4406SOL    HW214118   6.121   2.449   2.965
 4407SOL     OW14119   0.870   0.722   0.531
 4407SOL    HW114120   0.791   0.662   0.540
 4407SOL    HW214121   0.954   0.667   0.526
 4408SOL     OW14122   4.994   6.204   1.101
 4408SOL    HW114123   5.072   6.146   1.078
 4408SOL    HW214124   5.015   6.299   1.078
 4409SOL     OW14125   3.835   1.624   3.090
 4409SOL    HW114126   3.930   1.638   3.061
 4409SOL    HW214127   3.800   1.541   3.049
 4410SOL     OW14128   1.860   5.718   0.594
 4410SOL    HW114129   1.835   5.815   0.595
 4410SOL    HW214130   1.946   5.705   0.643
 4411SOL     OW14131   3.611   3.242   1.795
 4411SOL    HW114132   3.584   3.147   1.811
 4411SOL    HW214133   3.690   3.245   1.735
 4412SOL     OW14134   3.473   1.244   6.703
 4412SOL    HW114135   3.511   1.262   6.612
 4412SOL    HW214136   3.517   1.163   6.742
 4413SOL     OW14137   3.960   5.831   4.190
 4413SOL    HW114138   3.962   5.908   4.254
 4413SOL    HW214139   4.049   5.822   4.146
 4414SOL     OW14140   3.567   4.441   1.512
 4414SOL    HW114141   3.589   4.408   1.603
 4414SOL    HW214142   3.562   4.541   1.513
 4415SOL     OW14143   4.822   1.182   2.015
 4415SOL    HW114144   4.903   1.197   2.072
 4415SOL    HW214145   4.850   1.169   1.920
 4416SOL     OW14146   2.583   2.444   4.831
 4416SOL    HW114147   2.557   2.521   4.772
 4416SOL    HW214148   2.611   2.367   4.774
 4417SOL     OW14149   4.919   1.087   1.350
 4417SOL    HW114150   4.985   1.016   1.327
 4417SOL    HW214151   4.832   1.068   1.305
 4418SOL     OW14152   4.383   0.593   2.974
 4418SOL    HW114153   4.370   0.521   2.905
 4418SOL    HW214154   4.428   0.672   2.931
 4419SOL     OW14155   6.488   5.298   6.282
 4419SOL    HW114156   6.423   5.259   6.348
 4419SOL    HW214157   6.532   5.378   6.321
 4420SOL     OW14158   5.541   1.308   0.636
 4420SOL    HW114159   5.445   1.283   0.621
 4420SOL    HW214160   5.598   1.265   0.565
 4421SOL     OW14161   1.056   1.530   3.296
 4421SOL    HW114162   1.018   1.455   3.349
 4421SOL    HW214163   1.150   1.549   3.325
 4422SOL     OW14164   2.145   4.107   5.525
 4422SOL    HW114165   2.082   4.029   5.530
 4422SOL    HW214166   2.093   4.192   5.528
 4423SOL     OW14167   6.542   2.142   5.989
 4423SOL    HW114168   6.605   2.218   5.979
 4423SOL    HW214169   6.525   2.124   6.086
 4424SOL     OW14170   2.132   5.172   3.236
 4424SOL    HW114171   2.123   5.271   3.224
 4424SOL    HW214172   2.043   5.133   3.260
 4425SOL     OW14173   5.523   4.102   2.992
 4425SOL    HW114174   5.479   4.142   2.912
 4425SOL    HW214175   5.505   4.004   2.994
 4426SOL     OW14176   0.215   6.523   6.739
 4426SOL    HW114177   0.158   6.584   6.794
 4426SOL    HW214178   0.258   6.455   6.798
 4427SOL     OW14179   0.251   4.874   4.055
 4427SOL    HW114180   0.276   4.779   4.076
 4427SOL    HW214181   0.267   4.891   3.957
 4428SOL     OW14182   1.781   6.900   2.205
 4428SOL    HW114183   1.703   6.889   2.267
 4428SOL    HW214184   1.865   6.910   2.258
 4429SOL     OW14185   2.231   6.851   1.453
 4429SOL    HW114186   2.308   6.857   1.390
 4429SOL    HW214187   2.224   6.758   1.489
 4430SOL     OW14188   1.690   0.393   1.996
 4430SOL    HW114189   1.646   0.310   1.960
 4430SOL    HW214190   1.766   0.367   2.055
 4431SOL     OW14191   2.239   1.763   2.609
 4431SOL    HW114192   2.199   1.784   2.519
 4431SOL    HW214193   2.172   1.783   2.681
 4432SOL     OW14194   3.753   4.144   4.705
 4432SOL    HW114195   3.735   4.045   4.705
 4432SOL    HW214196   3.787   4.171   4.615
 4433SOL     OW14197   5.949   6.849   1.366
 4433SOL    HW114198   6.026   6.909   1.344
 4433SOL    HW214199   5.953   6.768   1.308
 4434SOL     OW14200   5.513   2.069   5.841
 4434SOL    HW114201   5.429   2.052   5.788
 4434SOL    HW214202   5.549   1.982   5.875
 4435SOL     OW14203   3.696   2.638   1.785
 4435SOL    HW114204   3.597   2.654   1.787
 4435SOL    HW214205   3.714   2.543   1.809
 4436SOL     OW14206   5.819   0.046   0.074
 4436SOL    HW114207   5.752   0.002   0.013
 4436SOL    HW214208   5.820   7.019   0.162
 4437SOL     OW14209   2.950   6.860   5.835
 4437SOL    HW114210   3.031   6.918   5.844
 4437SOL    HW214211   2.892   6.871   5.915
 4438SOL     OW14212   3.759   2.594   6.561
 4438SOL    HW114213   3.842   2.560   6.518
 4438SOL    HW214214   3.694   2.518   6.571
 4439SOL     OW14215   1.091   5.272   2.813
 4439SOL    HW114216   1.109   5.370   2.820
 4439SOL    HW214217   1.076   5.234   2.904
 4440SOL     OW14218   6.361   1.584   0.316
 4440SOL    HW114219   6.326   1.502   0.360
 4440SOL    HW214220   6.307   1.663   0.344
 4441SOL     OW14221   6.044   0.818   3.983
 4441SOL    HW114222   6.015   0.756   4.056
 4441SOL    HW214223   5.992   0.902   3.987
 4442SOL     OW14224   2.003   6.217   1.747
 4442SOL    HW114225   2.014   6.141   1.683
 4442SOL    HW214226   2.042   6.193   1.835
 4443SOL     OW14227   1.943   1.023   1.103
 4443SOL    HW114228   2.010   1.085   1.144
 4443SOL    HW214229   1.866   1.076   1.067
 4444SOL     OW14230   5.083   2.012   2.748
 4444SOL    HW114231   4.993   2.039   2.782
 4444SOL    HW214232   5.072   1.948   2.671
 4445SOL     OW14233   1.100   2.176   6.069
 4445SOL    HW114234   1.049   2.254   6.033
 4445SOL    HW214235   1.128   2.117   5.993
 4446SOL     OW14236   6.485   5.835   4.426
 4446SOL    HW114237   6.559   5.826   4.359
 4446SOL    HW214238   6.485   5.929   4.462
 4447SOL     OW14239   4.981   3.777   4.902
 4447SOL    HW114240   4.922   3.704   4.936
 4447SOL    HW214241   4.943   3.865   4.930
 4448SOL     OW14242   2.701   3.500   6.630
 4448SOL    HW114243   2.610   3.509   6.590
 4448SOL    HW214244   2.726   3.403   6.635
 4449SOL     OW14245   0.145   2.074   5.773
 4449SOL    HW114246   0.157   1.998   5.709
 4449SOL    HW214247   0.210   2.146   5.750
 4450SOL     OW14248   4.006   3.324   3.304
 4450SOL    HW114249   3.995   3.230   3.335
 4450SOL    HW214250   4.065   3.325   3.223
 4451SOL     OW14251   0.678   5.553   1.102
 4451SOL    HW114252   0.581   5.532   1.092
 4451SOL    HW214253   0.691   5.652   1.101
 4452SOL     OW14254   0.901   3.989   6.475
 4452SOL    HW114255   0.898   4.012   6.378
 4452SOL    HW214256   0.910   3.890   6.486
 4453SOL     OW14257   5.610   0.961   0.746
 4453SOL    HW114258   5.516   0.929   0.746
 4453SOL    HW214259   5.670   0.889   0.781
 4454SOL     OW14260   6.241   3.428   2.062
 4454SOL    HW114261   6.281   3.356   2.005
 4454SOL    HW214262   6.304   3.452   2.136
 4455SOL     OW14263   4.842   2.549   2.443
 4455SOL    HW114264   4.883   2.589   2.361
 4455SOL    HW214265   4.888   2.586   2.524
 4456SOL     OW14266   6.860   5.766   2.739
 4456SOL    HW114267   6.764   5.745   2.758
 4456SOL    HW214268   6.872   5.780   2.641
 4457SOL     OW14269   4.924   2.676   6.325
 4457SOL    HW114270   4.995   2.691   6.257
 4457SOL    HW214271   4.953   2.605   6.389
 4458SOL     OW14272   4.515   1.995   1.410
 4458SOL    HW114273   4.431   2.034   1.446
 4458SOL    HW214274   4.504   1.896   1.400
 4459SOL     OW14275   6.482   5.059   6.143
 4459SOL    HW114276   6.504   5.147   6.184
 4459SOL    HW214277   6.448   4.997   6.214
 4460SOL     OW14278   1.770   0.017   0.290
 4460SOL    HW114279   1.839   0.065   0.236
 4460SOL    HW214280   1.787   0.035   0.387
 4461SOL     OW14281   2.204   0.028   3.342
 4461SOL    HW114282   2.196   0.000   3.247
 4461SOL    HW214283   2.255   6.979   3.393
 4462SOL     OW14284   0.355   3.091   1.445
 4462SOL    HW114285   0.415   3.036   1.387
 4462SOL    HW214286   0.271   3.041   1.463
 4463SOL     OW14287   0.647   3.718   6.491
 4463SOL    HW114288   0.747   3.716   6.484
 4463SOL    HW214289   0.611   3.788   6.429
 4464SOL     OW14290   6.996   3.578   0.984
 4464SOL    HW114291   6.999   3.507   0.914
 4464SOL    HW214292   7.009   3.667   0.942
 4465SOL     OW14293   5.863   4.593   1.479
 4465SOL    HW114294   5.801   4.514   1.488
 4465SOL    HW214295   5.817   4.675   1.513
 4466SOL     OW14296   7.012   3.194   3.796
 4466SOL    HW114297   0.054   3.119   3.772
 4466SOL    HW214298   7.000   3.253   3.716
 4467SOL     OW14299   1.254   0.635   4.321
 4467SOL    HW114300   1.211   0.569   4.383
 4467SOL    HW214301   1.266   0.593   4.231
 4468SOL     OW14302   0.829   1.393   0.490
 4468SOL    HW114303   0.890   1.467   0.463
 4468SOL    HW214304   0.864   1.347   0.571
 4469SOL     OW14305   4.977   6.778   0.536
 4469SOL    HW114306   4.929   6.690   0.534
 4469SOL    HW214307   5.067   6.768   0.494
 4470SOL     OW14308   4.737   4.362   1.205
 4470SOL    HW114309   4.811   4.297   1.223
 4470SOL    HW214310   4.775   4.444   1.163
 4471SOL     OW14311   6.524   2.233   1.730
 4471SOL    HW114312   6.480   2.319   1.758
 4471SOL    HW214313   6.455   2.162   1.717
 4472SOL     OW14314   2.123   5.340   1.586
 4472SOL    HW114315   2.036   5.352   1.540
 4472SOL    HW214316   2.145   5.422   1.639
 4473SOL     OW14317   5.592   1.095   0.252
 4473SOL    HW114318   5.646   1.097   0.336
 4473SOL    HW214319   5.562   1.001   0.234
 4474SOL     OW14320   7.006   1.680   4.998
 4474SOL    HW114321   6.921   1.706   4.952
 4474SOL    HW214322   0.059   1.676   4.931
 4475SOL     OW14323   1.535   3.223   0.931
 4475SOL    HW114324   1.607   3.279   0.971
 4475SOL    HW214325   1.496   3.270   0.852
 4476SOL     OW14326   3.473   6.493   2.853
 4476SOL    HW114327   3.410   6.545   2.911
 4476SOL    HW214328   3.421   6.443   2.784
 4477SOL     OW14329   1.498   2.184   0.980
 4477SOL    HW114330   1.459   2.199   0.889
 4477SOL    HW214331   1.443   2.116   1.029
 4478SOL     OW14332   1.321   4.439   0.760
 4478SOL    HW114333   1.320   4.410   0.856
 4478SOL    HW214334   1.345   4.361   0.702
 4479SOL     OW14335   1.016   5.762   6.169
 4479SOL    HW114336   0.928   5.805   6.188
 4479SOL    HW214337   1.047   5.712   6.250
 4480SOL     OW14338   6.809   3.119   3.069
 4480SOL    HW114339   6.881   3.189   3.073
 4480SOL    HW214340   6.760   3.118   3.156
 4481SOL     OW14341   0.760   0.866   3.965
 4481SOL    HW114342   0.852   0.883   3.930
 4481SOL    HW214343   0.749   0.767   3.981
 4482SOL     OW14344   0.794   4.187   3.235
 4482SOL    HW114345   0.842   4.123   3.175
 4482SOL    HW214346   0.813   4.163   3.330
 4483SOL     OW14347   6.396   4.459   0.963
 4483SOL    HW114348   6.417   4.366   0.993
 4483SOL    HW214349   6.464   4.489   0.896
 4484SOL     OW14350   3.669   3.841   6.696
 4484SOL    HW114351   3.764   3.837   6.664
 4484SOL    HW214352   3.608   3.812   6.622
 4485SOL     OW14353   4.302   6.832   5.314
 4485SOL    HW114354   4.398   6.846   5.287
 4485SOL    HW214355   4.255   6.780   5.243
 4486SOL     OW14356   6.204   3.602   4.174
 4486SOL    HW114357   6.257   3.630   4.254
 4486SOL    HW214358   6.129   3.543   4.204
 4487SOL     OW14359   3.457   2.705   6.081
 4487SOL    HW114360   3.386   2.746   6.139
 4487SOL    HW214361   3.546   2.722   6.122
 4488SOL     OW14362   6.775   2.517   6.601
 4488SOL    HW114363   6.684   2.483   6.579
 4488SOL    HW214364   6.836   2.503   6.523
 4489SOL     OW14365   0.551   2.115   3.922
 4489SOL    HW114366   0.582   2.209   3.934
 4489SOL    HW214367   0.520   2.078   4.009
 4490SOL     OW14368   6.652   2.036   3.770
 4490SOL    HW114369   6.746   2.012   3.743
 4490SOL    HW214370   6.593   2.032   3.690
 4491SOL     OW14371   1.979   5.065   2.222
 4491SOL    HW114372   2.063   5.024   2.186
 4491SOL    HW214373   2.001   5.117   2.305
 4492SOL     OW14374   5.447   3.832   5.049
 4492SOL    HW114375   5.482   3.739   5.038
 4492SOL    HW214376   5.412   3.865   4.961
 4493SOL     OW14377   6.084   5.078   3.710
 4493SOL    HW114378   6.014   5.030   3.762
 4493SOL    HW214379   6.164   5.092   3.768
 4494SOL     OW14380   5.184   3.019   2.058
 4494SOL    HW114381   5.243   3.036   2.138
 4494SOL    HW214382   5.097   3.066   2.072
 4495SOL     OW14383   5.839   4.399   2.373
 4495SOL    HW114384   5.761   4.373   2.430
 4495SOL    HW214385   5.809   4.404   2.278
 4496SOL     OW14386   6.171   3.413   6.023
 4496SOL    HW114387   6.126   3.467   6.094
 4496SOL    HW214388   6.128   3.432   5.934
 4497SOL     OW14389   6.193   0.166   0.743
 4497SOL    HW114390   6.205   0.180   0.841
 4497SOL    HW214391   6.220   0.249   0.693
 4498SOL     OW14392   1.284   4.709   6.171
 4498SOL    HW114393   1.280   4.733   6.268
 4498SOL    HW214394   1.224   4.770   6.119
 4499SOL     OW14395   5.883   3.963   0.371
 4499SOL    HW114396   5.872   4.008   0.459
 4499SOL    HW214397   5.977   3.928   0.363
 4500SOL     OW14398   3.196   3.883   1.636
 4500SOL    HW114399   3.097   3.896   1.635
 4500SOL    HW214400   3.241   3.970   1.615
 4501SOL     OW14401   1.504   5.419   4.815
 4501SOL    HW114402   1.572   5.480   4.776
 4501SOL    HW214403   1.455   5.466   4.888
 4502SOL     OW14404   5.532   2.724   0.428
 4502SOL    HW114405   5.499   2.786   0.357
 4502SOL    HW214406   5.497   2.754   0.517
 4503SOL     OW14407   1.170   4.127   2.469
 4503SOL    HW114408   1.120   4.047   2.437
 4503SOL    HW214409   1.211   4.108   2.558
 4504SOL     OW14410   4.435   2.190   3.952
 4504SOL    HW114411   4.408   2.266   3.894
 4504SOL    HW214412   4.519   2.148   3.916
 4505SOL     OW14413   2.496   5.594   0.044
 4505SOL    HW114414   2.503   5.601   0.143
 4505SOL    HW214415   2.558   5.660   0.001
 4506SOL     OW14416   3.563   6.015   5.984
 4506SOL    HW114417   3.640   5.957   6.010
 4506SOL    HW214418   3.586   6.066   5.901
 4507SOL     OW14419   6.199   4.030   2.623
 4507SOL    HW114420   6.263   3.975   2.570
 4507SOL    HW214421   6.197   3.998   2.718
 4508SOL     OW14422   1.767   4.793   1.331
 4508SOL    HW114423   1.690   4.749   1.376
 4508SOL    HW214424   1.826   4.836   1.399
 4509SOL     OW14425   1.142   2.858   3.777
 4509SOL    HW114426   1.125   2.867   3.678
 4509SOL    HW214427   1.184   2.942   3.811
 4510SOL     OW14428   2.657   0.306   6.818
 4510SOL    HW114429   2.617   0.268   6.902
 4510SOL    HW214430   2.724   0.377   6.843
 4511SOL     OW14431   0.124   2.618   0.167
 4511SOL    HW114432   0.171   2.636   0.253
 4511SOL    HW214433   0.191   2.615   0.092
 4512SOL     OW14434   2.176   3.915   0.612
 4512SOL    HW114435   2.237   3.936   0.536
 4512SOL    HW214436   2.187   3.819   0.639
 4513SOL     OW14437   6.250   1.904   2.427
 4513SOL    HW114438   6.321   1.840   2.456
 4513SOL    HW214439   6.161   1.859   2.430
 4514SOL     OW14440   1.699   0.301   4.472
 4514SOL    HW114441   1.758   0.237   4.423
 4514SOL    HW214442   1.678   0.379   4.413
 4515SOL     OW14443   0.405   4.096   0.536
 4515SOL    HW114444   0.502   4.071   0.526
 4515SOL    HW214445   0.356   4.074   0.452
 4516SOL     OW14446   0.219   0.055   3.922
 4516SOL    HW114447   0.308   0.091   3.949
 4516SOL    HW214448   0.184   0.107   3.844
 4517SOL     OW14449   2.660   0.543   0.100
 4517SOL    HW114450   2.636   0.446   0.090
 4517SOL    HW214451   2.759   0.552   0.109
 4518SOL     OW14452   0.905   1.080   3.559
 4518SOL    HW114453   0.815   1.121   3.573
 4518SOL    HW214454   0.897   1.003   3.495
 4519SOL     OW14455   0.117   2.489   4.243
 4519SOL    HW114456   0.130   2.575   4.192
 4519SOL    HW214457   0.049   2.433   4.196
 4520SOL     OW14458   6.882   3.753   3.284
 4520SOL    HW114459   6.815   3.827   3.295
 4520SOL    HW214460   6.915   3.724   3.373
 4521SOL     OW14461   5.020   1.511   6.445
 4521SOL    HW114462   4.947   1.549   6.389
 4521SOL    HW214463   5.101   1.570   6.439
 4522SOL     OW14464   5.160   6.720   3.434
 4522SOL    HW114465   5.128   6.770   3.354
 4522SOL    HW214466   5.148   6.777   3.516
 4523SOL     OW14467   4.973   1.776   5.665
 4523SOL    HW114468   4.945   1.863   5.624
 4523SOL    HW214469   5.020   1.794   5.752
 4524SOL     OW14470   5.894   1.701   5.223
 4524SOL    HW114471   5.974   1.690   5.282
 4524SOL    HW214472   5.875   1.616   5.175
 4525SOL     OW14473   0.357   1.425   4.239
 4525SOL    HW114474   0.374   1.375   4.155
 4525SOL    HW214475   0.264   1.461   4.238
 4526SOL     OW14476   2.543   2.032   0.812
 4526SOL    HW114477   2.596   1.949   0.830
 4526SOL    HW214478   2.602   2.112   0.823
 4527SOL     OW14479   4.654   0.110   2.963
 4527SOL    HW114480   4.611   0.028   2.926
 4527SOL    HW214481   4.588   0.185   2.967
 4528SOL     OW14482   4.458   0.337   6.415
 4528SOL    HW114483   4.399   0.375   6.486
 4528SOL    HW214484   4.524   0.406   6.386
 4529SOL     OW14485   2.837   6.966   4.028
 4529SOL    HW114486   2.783   0.023   4.061
 4529SOL    HW214487   2.844   6.897   4.100
 4530SOL     OW14488   6.433   2.382   4.261
 4530SOL    HW114489   6.390   2.418   4.344
 4530SOL    HW214490   6.512   2.437   4.238
 4531SOL     OW14491   0.255   4.199   3.407
 4531SOL    HW114492   0.264   4.146   3.491
 4531SOL    HW214493   0.225   4.139   3.333
 4532SOL     OW14494   0.558   2.066   0.581
 4532SOL    HW114495   0.472   2.115   0.592
 4532SOL    HW214496   0.611   2.072   0.666
 4533SOL     OW14497   3.648   6.152   1.937
 4533SOL    HW114498   3.701   6.072   1.907
 4533SOL    HW214499   3.555   6.146   1.901
 4534SOL     OW14500   6.453   3.981   6.494
 4534SOL    HW114501   6.491   3.912   6.556
 4534SOL    HW214502   6.395   4.044   6.545
 4535SOL     OW14503   4.774   1.897   2.371
 4535SOL    HW114504   4.746   1.926   2.463
 4535SOL    HW214505   4.717   1.943   2.303
 4536SOL     OW14506   6.714   6.862   3.466
 4536SOL    HW114507   6.796   6.812   3.436
 4536SOL    HW214508   6.661   6.804   3.528
 4537SOL     OW14509   5.222   3.024   5.304
 4537SOL    HW114510   5.237   2.997   5.209
 4537SOL    HW214511   5.130   3.063   5.314
 4538SOL     OW14512   3.372   1.775   1.500
 4538SOL    HW114513   3.428   1.704   1.457
 4538SOL    HW214514   3.414   1.865   1.482
 4539SOL     OW14515   2.335   3.807   1.110
 4539SOL    HW114516   2.435   3.798   1.105
 4539SOL    HW214517   2.311   3.877   1.178
 4540SOL     OW14518   3.657   3.229   4.224
 4540SOL    HW114519   3.701   3.230   4.134
 4540SOL    HW214520   3.566   3.189   4.216
 4541SOL     OW14521   6.028   1.182   1.563
 4541SOL    HW114522   6.002   1.108   1.501
 4541SOL    HW214523   6.110   1.227   1.530
 4542SOL     OW14524   5.631   6.351   3.489
 4542SOL    HW114525   5.540   6.372   3.453
 4542SOL    HW214526   5.700   6.373   3.420
 4543SOL     OW14527   5.050   2.898   2.817
 4543SOL    HW114528   5.123   2.930   2.757
 4543SOL    HW214529   5.069   2.804   2.846
 4544SOL     OW14530   5.339   4.751   0.174
 4544SOL    HW114531   5.405   4.682   0.205
 4544SOL    HW214532   5.375   4.842   0.192
 4545SOL     OW14533   4.700   3.700   0.761
 4545SOL    HW114534   4.799   3.712   0.775
 4545SOL    HW214535   4.667   3.629   0.823
 4546SOL     OW14536   0.877   6.047   0.417
 4546SOL    HW114537   0.852   6.013   0.327
 4546SOL    HW214538   0.970   6.019   0.439
 4547SOL     OW14539   4.433   1.593   2.537
 4547SOL    HW114540   4.465   1.538   2.460
 4547SOL    HW214541   4.350   1.551   2.576
 4548SOL     OW14542   1.333   2.991   4.476
 4548SOL    HW114543   1.377   2.941   4.551
 4548SOL    HW214544   1.382   3.077   4.461
 4549SOL     OW14545   5.852   1.590   3.001
 4549SOL    HW114546   5.936   1.537   3.011
 4549SOL    HW214547   5.861   1.676   3.051
 4550SOL     OW14548   1.806   5.073   5.869
 4550SOL    HW114549   1.728   5.105   5.815
 4550SOL    HW214550   1.891   5.100   5.824
 4551SOL     OW14551   6.080   3.318   1.059
 4551SOL    HW114552   5.986   3.299   1.087
 4551SOL    HW214553   6.095   3.282   0.967
 4552SOL     OW14554   0.153   3.713   5.170
 4552SOL    HW114555   0.170   3.745   5.077
 4552SOL    HW214556   0.073   3.759   5.208
 4553SOL     OW14557   5.300   5.211   6.863
 4553SOL    HW114558   5.247   5.219   6.779
 4553SOL    HW214559   5.293   5.117   6.898
 4554SOL     OW14560   6.563   6.016   4.053
 4554SOL    HW114561   6.482   6.033   4.109
 4554SOL    HW214562   6.543   6.041   3.958
 4555SOL     OW14563   4.019   2.675   6.939
 4555SOL    HW114564   4.062   2.721   6.862
 4555SOL    HW214565   3.964   2.740   6.991
 4556SOL     OW14566   3.777   0.708   5.010
 4556SOL    HW114567   3.876   0.714   5.022
 4556SOL    HW214568   3.754   0.719   4.913
 4557SOL     OW14569   5.013   1.084   3.778
 4557SOL    HW114570   4.988   1.100   3.873
 4557SOL    HW214571   5.106   1.117   3.761
 4558SOL     OW14572   0.239   3.914   6.996
 4558SOL    HW114573   0.275   3.946   6.908
 4558SOL    HW214574   0.155   3.963   7.018
 4559SOL     OW14575   1.666   6.720   1.465
 4559SOL    HW114576   1.674   6.793   1.534
 4559SOL    HW214577   1.570   6.694   1.454
 4560SOL     OW14578   5.794   2.437   3.930
 4560SOL    HW114579   5.724   2.371   3.905
 4560SOL    HW214580   5.884   2.395   3.923
 4561SOL     OW14581   2.420   6.177   6.697
 4561SOL    HW114582   2.486   6.229   6.751
 4561SOL    HW214583   2.465   6.139   6.616
 4562SOL     OW14584   3.064   4.250   5.839
 4562SOL    HW114585   2.967   4.223   5.837
 4562SOL    HW214586   3.076   4.335   5.788
 4563SOL     OW14587   5.518   2.829   6.846
 4563SOL    HW114588   5.463   2.905   6.810
 4563SOL    HW214589   5.473   2.792   6.928
 4564SOL     OW14590   6.598   5.157   0.343
 4564SOL    HW114591   6.622   5.174   0.247
 4564SOL    HW214592   6.615   5.061   0.365
 4565SOL     OW14593   4.329   0.913   4.226
 4565SOL    HW114594   4.396   0.940   4.157
 4565SOL    HW214595   4.254   0.864   4.182
 4566SOL     OW14596   1.861   0.341   1.342
 4566SOL    HW114597   1.890   0.264   1.285
 4566SOL    HW214598   1.911   0.423   1.316
 4567SOL     OW14599   6.033   2.715   0.333
 4567SOL    HW114600   6.040   2.814   0.340
 4567SOL    HW214601   5.966   2.682   0.401
 4568SOL     OW14602   4.280   4.778   4.012
 4568SOL    HW114603   4.217   4.842   4.056
 4568SOL    HW214604   4.295   4.699   4.070
 4569SOL     OW14605   1.975   1.429   3.592
 4569SOL    HW114606   2.056   1.383   3.628
 4569SOL    HW214607   1.893   1.386   3.631
 4570SOL     OW14608   5.564   5.876   5.064
 4570SOL    HW114609   5.619   5.958   5.049
 4570SOL    HW214610   5.545   5.867   5.162
 4571SOL     OW14611   3.813   2.979   4.015
 4571SOL    HW114612   3.831   2.978   4.113
 4571SOL    HW214613   3.812   3.073   3.982
 4572SOL     OW14614   2.536   5.064   1.126
 4572SOL    HW114615   2.548   5.006   1.046
 4572SOL    HW214616   2.568   5.016   1.207
 4573SOL     OW14617   5.149   6.927   1.953
 4573SOL    HW114618   5.161   6.862   1.877
 4573SOL    HW214619   5.219   6.910   2.022
 4574SOL     OW14620   0.066   4.940   2.059
 4574SOL    HW114621   0.040   4.865   2.120
 4574SOL    HW214622   0.138   4.909   1.997
 4575SOL     OW14623   6.086   5.889   1.479
 4575SOL    HW114624   6.047   5.975   1.513
 4575SOL    HW214625   6.012   5.825   1.457
 4576SOL     OW14626   3.664   6.013   4.523
 4576SOL    HW114627   3.613   5.929   4.504
 4576SOL    HW214628   3.602   6.091   4.521
 4577SOL     OW14629   2.520   4.714   3.748
 4577SOL    HW114630   2.546   4.805   3.716
 4577SOL    HW214631   2.577   4.688   3.825
 4578SOL     OW14632   5.933   6.234   3.607
 4578SOL    HW114633   5.967   6.141   3.595
 4578SOL    HW214634   5.846   6.231   3.655
 4579SOL     OW14635   4.443   1.574   2.911
 4579SOL    HW114636   4.386   1.497   2.884
 4579SOL    HW214637   4.515   1.589   2.843
 4580SOL     OW14638   0.487   5.010   0.257
 4580SOL    HW114639   0.544   5.074   0.204
 4580SOL    HW214640   0.515   4.916   0.237
 4581SOL     OW14641   2.830   5.417   4.499
 4581SOL    HW114642   2.780   5.347   4.549
 4581SOL    HW214643   2.798   5.508   4.528
 4582SOL     OW14644   5.051   6.078   2.712
 4582SOL    HW114645   5.088   6.136   2.639
 4582SOL    HW214646   5.127   6.038   2.763
 4583SOL     OW14647   3.825   6.766   5.327
 4583SOL    HW114648   3.732   6.742   5.298
 4583SOL    HW214649   3.852   6.853   5.285
 4584SOL     OW14650   6.904   5.305   5.383
 4584SOL    HW114651   6.822   5.300   5.326
 4584SOL    HW214652   6.883   5.352   5.469
 4585SOL     OW14653   3.427   6.860   2.072
 4585SOL    HW114654   3.381   6.922   2.135
 4585SOL    HW214655   3.523   6.887   2.063
 4586SOL     OW14656   1.452   6.152   1.642
 4586SOL    HW114657   1.466   6.179   1.547
 4586SOL    HW214658   1.530   6.182   1.697
 4587SOL     OW14659   3.282   4.492   1.164
 4587SOL    HW114660   3.305   4.407   1.116
 4587SOL    HW214661   3.360   4.554   1.159
 4588SOL     OW14662   3.418   4.087   4.938
 4588SOL    HW114663   3.322   4.113   4.944
 4588SOL    HW214664   3.425   3.993   4.903
 4589SOL     OW14665   1.958   2.009   3.950
 4589SOL    HW114666   2.026   1.936   3.953
 4589SOL    HW214667   1.964   2.055   3.861
 4590SOL     OW14668   4.066   6.621   2.591
 4590SOL    HW114669   3.968   6.622   2.613
 4590SOL    HW214670   4.110   6.700   2.633
 4591SOL     OW14671   4.586   5.918   4.740
 4591SOL    HW114672   4.493   5.887   4.759
 4591SOL    HW214673   4.649   5.874   4.804
 4592SOL     OW14674   3.263   2.199   6.034
 4592SOL    HW114675   3.316   2.124   5.997
 4592SOL    HW214676   3.299   2.286   6.001
 4593SOL     OW14677   4.970   5.174   1.587
 4593SOL    HW114678   5.023   5.242   1.535
 4593SOL    HW214679   4.873   5.187   1.570
 4594SOL     OW14680   4.684   1.955   2.636
 4594SOL    HW114681   4.749   1.975   2.710
 4594SOL    HW214682   4.602   2.011   2.648
 4595SOL     OW14683   4.055   3.125   5.177
 4595SOL    HW114684   3.984   3.196   5.176
 4595SOL    HW214685   4.132   3.156   5.234
 4596SOL     OW14686   4.627   1.003   2.444
 4596SOL    HW114687   4.564   1.025   2.369
 4596SOL    HW214688   4.714   1.050   2.429
 4597SOL     OW14689   6.897   3.682   6.504
 4597SOL    HW114690   6.992   3.685   6.534
 4597SOL    HW214691   6.836   3.693   6.582
 4598SOL     OW14692   2.449   3.776   0.103
 4598SOL    HW114693   2.364   3.733   0.072
 4598SOL    HW214694   2.488   3.830   0.028
 4599SOL     OW14695   3.170   4.594   0.652
 4599SOL    HW114696   3.267   4.590   0.626
 4599SOL    HW214697   3.148   4.517   0.711
 4600SOL     OW14698   2.483   3.536   0.874
 4600SOL    HW114699   2.498   3.557   0.971
 4600SOL    HW214700   2.466   3.438   0.863
 4601SOL     OW14701   1.882   5.580   3.313
 4601SOL    HW114702   1.875   5.566   3.411
 4601SOL    HW214703   1.792   5.604   3.276
 4602SOL     OW14704   1.152   0.229   1.611
 4602SOL    HW114705   1.123   0.277   1.529
 4602SOL    HW214706   1.191   0.140   1.587
 4603SOL     OW14707   2.418   1.475   1.205
 4603SOL    HW114708   2.439   1.441   1.113
 4603SOL    HW214709   2.498   1.467   1.263
 4604SOL     OW14710   1.147   6.699   3.004
 4604SOL    HW114711   1.208   6.663   2.933
 4604SOL    HW214712   1.052   6.693   2.973
 4605SOL     OW14713   5.565   6.630   5.578
 4605SOL    HW114714   5.661   6.634   5.607
 4605SOL    HW214715   5.507   6.673   5.647
 4606SOL     OW14716   6.003   6.268   4.807
 4606SOL    HW114717   5.966   6.262   4.715
 4606SOL    HW214718   5.934   6.241   4.873
 4607SOL     OW14719   2.538   3.117   0.565
 4607SOL    HW114720   2.573   3.171   0.489
 4607SOL    HW214721   2.478   3.174   0.622
 4608SOL     OW14722   1.712   3.495   5.914
 4608SOL    HW114723   1.651   3.552   5.969
 4608SOL    HW214724   1.736   3.413   5.966
 4609SOL     OW14725   3.424   7.002   0.171
 4609SOL    HW114726   3.338   0.031   0.162
 4609SOL    HW214727   3.413   6.908   0.137
 4610SOL     OW14728   6.666   3.587   0.832
 4610SOL    HW114729   6.619   3.504   0.862
 4610SOL    HW214730   6.657   3.657   0.902
 4611SOL     OW14731   1.662   4.747   5.633
 4611SOL    HW114732   1.675   4.811   5.558
 4611SOL    HW214733   1.699   4.786   5.718
 4612SOL     OW14734   1.255   0.466   6.741
 4612SOL    HW114735   1.162   0.436   6.760
 4612SOL    HW214736   1.312   0.386   6.723
 4613SOL     OW14737   4.151   4.797   1.504
 4613SOL    HW114738   4.137   4.895   1.497
 4613SOL    HW214739   4.246   4.774   1.482
 4614SOL     OW14740   1.996   4.098   0.638
 4614SOL    HW114741   2.067   4.028   0.629
 4614SOL    HW214742   2.037   4.184   0.666
 4615SOL     OW14743   5.821   2.975   6.576
 4615SOL    HW114744   5.817   2.979   6.676
 4615SOL    HW214745   5.799   2.882   6.545
 4616SOL     OW14746   5.191   0.590   6.510
 4616SOL    HW114747   5.264   0.535   6.550
 4616SOL    HW214748   5.197   0.587   6.410
 4617SOL     OW14749   0.683   4.191   1.924
 4617SOL    HW114750   0.622   4.113   1.939
 4617SOL    HW214751   0.711   4.229   2.012
 4618SOL     OW14752   1.472   2.506   6.418
 4618SOL    HW114753   1.479   2.417   6.373
 4618SOL    HW214754   1.427   2.571   6.357
 4619SOL     OW14755   3.999   0.990   4.158
 4619SOL    HW114756   3.950   0.950   4.081
 4619SOL    HW214757   4.087   1.026   4.128
 4620SOL     OW14758   1.470   5.634   0.730
 4620SOL    HW114759   1.485   5.731   0.712
 4620SOL    HW214760   1.535   5.580   0.676
 4621SOL     OW14761   6.633   1.111   0.186
 4621SOL    HW114762   6.650   1.207   0.206
 4621SOL    HW214763   6.555   1.079   0.239
 4622SOL     OW14764   1.811   4.343   0.599
 4622SOL    HW114765   1.771   4.435   0.601
 4622SOL    HW214766   1.833   4.314   0.693
 4623SOL     OW14767   6.607   3.372   3.997
 4623SOL    HW114768   6.509   3.388   4.010
 4623SOL    HW214769   6.638   3.300   4.059
 4624SOL     OW14770   4.362   6.401   5.585
 4624SOL    HW114771   4.274   6.447   5.576
 4624SOL    HW214772   4.360   6.315   5.533
 4625SOL     OW14773   0.733   4.285   6.239
 4625SOL    HW114774   0.722   4.341   6.321
 4625SOL    HW214775   0.669   4.208   6.242
 4626SOL     OW14776   6.753   4.741   2.170
 4626SOL    HW114777   6.716   4.833   2.156
 4626SOL    HW214778   6.685   4.684   2.215
 4627SOL     OW14779   2.354   6.790   4.606
 4627SOL    HW114780   2.276   6.789   4.543
 4627SOL    HW214781   2.410   6.871   4.588
 4628SOL     OW14782   6.350   2.452   1.769
 4628SOL    HW114783   6.309   2.410   1.850
 4628SOL    HW214784   6.325   2.548   1.765
 4629SOL     OW14785   4.615   5.431   3.889
 4629SOL    HW114786   4.642   5.335   3.887
 4629SOL    HW214787   4.587   5.456   3.982
 4630SOL     OW14788   2.796   5.974   2.763
 4630SOL    HW114789   2.853   5.988   2.844
 4630SOL    HW214790   2.755   5.883   2.767
 4631SOL     OW14791   1.637   0.639   2.394
 4631SOL    HW114792   1.557   0.604   2.443
 4631SOL    HW214793   1.662   0.729   2.431
 4632SOL     OW14794   5.868   6.276   4.551
 4632SOL    HW114795   5.791   6.245   4.494
 4632SOL    HW214796   5.946   6.295   4.492
 4633SOL     OW14797   4.602   3.067   6.052
 4633SOL    HW114798   4.700   3.086   6.043
 4633SOL    HW214799   4.559   3.140   6.105
 4634SOL     OW14800   2.419   3.532   0.283
 4634SOL    HW114801   2.465   3.621   0.275
 4634SOL    HW214802   2.417   3.504   0.378
 4635SOL     OW14803   4.797   3.030   1.447
 4635SOL    HW114804   4.780   3.007   1.543
 4635SOL    HW214805   4.741   3.109   1.421
 4636SOL     OW14806   1.256   5.307   1.678
 4636SOL    HW114807   1.252   5.399   1.638
 4636SOL    HW214808   1.225   5.240   1.610
 4637SOL     OW14809   0.281   0.869   5.321
 4637SOL    HW114810   0.335   0.821   5.390
 4637SOL    HW214811   0.207   0.919   5.365
 4638SOL     OW14812   4.556   5.329   5.597
 4638SOL    HW114813   4.468   5.321   5.644
 4638SOL    HW214814   4.545   5.386   5.515
 4639SOL     OW14815   6.783   2.704   5.403
 4639SOL    HW114816   6.756   2.708   5.307
 4639SOL    HW214817   6.870   2.750   5.416
 4640SOL     OW14818   0.413   5.947   3.188
 4640SOL    HW114819   0.323   5.908   3.207
 4640SOL    HW214820   0.480   5.909   3.253
 4641SOL     OW14821   2.285   3.853   5.392
 4641SOL    HW114822   2.266   3.933   5.449
 4641SOL    HW214823   2.339   3.881   5.312
 4642SOL     OW14824   5.867   5.376   4.574
 4642SOL    HW114825   5.911   5.321   4.645
 4642SOL    HW214826   5.865   5.324   4.489
 4643SOL     OW14827   4.386   3.813   1.226
 4643SOL    HW114828   4.468   3.761   1.249
 4643SOL    HW214829   4.399   3.859   1.138
 4644SOL     OW14830   3.391   4.964   5.614
 4644SOL    HW114831   3.315   5.028   5.610
 4644SOL    HW214832   3.389   4.915   5.701
 4645SOL     OW14833   1.629   5.733   4.822
 4645SOL    HW114834   1.648   5.820   4.867
 4645SOL    HW214835   1.713   5.679   4.815
 4646SOL     OW14836   3.504   1.374   0.989
 4646SOL    HW114837   3.446   1.408   1.062
 4646SOL    HW214838   3.454   1.304   0.937
 4647SOL     OW14839   6.288   0.557   5.313
 4647SOL    HW114840   6.204   0.579   5.362
 4647SOL    HW214841   6.268   0.488   5.244
 4648SOL     OW14842   2.356   6.415   3.718
 4648SOL    HW114843   2.347   6.494   3.779
 4648SOL    HW214844   2.309   6.433   3.632
 4649SOL     OW14845   5.585   4.867   6.212
 4649SOL    HW114846   5.513   4.844   6.146
 4649SOL    HW214847   5.635   4.947   6.179
 4650SOL     OW14848   6.519   4.569   1.491
 4650SOL    HW114849   6.587   4.570   1.564
 4650SOL    HW214850   6.560   4.533   1.407
 4651SOL     OW14851   6.344   1.435   1.053
 4651SOL    HW114852   6.345   1.437   1.153
 4651SOL    HW214853   6.428   1.390   1.020
 4652SOL     OW14854   0.254   6.514   5.682
 4652SOL    HW114855   0.271   6.484   5.588
 4652SOL    HW214856   0.232   6.434   5.739
 4653SOL     OW14857   1.878   4.677   0.393
 4653SOL    HW114858   1.880   4.746   0.321
 4653SOL    HW214859   1.907   4.718   0.480
 4654SOL     OW14860   1.808   1.590   0.326
 4654SOL    HW114861   1.766   1.596   0.236
 4654SOL    HW214862   1.907   1.575   0.316
 4655SOL     OW14863   0.301   4.663   4.888
 4655SOL    HW114864   0.221   4.713   4.919
 4655SOL    HW214865   0.305   4.574   4.933
 4656SOL     OW14866   2.408   0.170   2.761
 4656SOL    HW114867   2.381   0.159   2.665
 4656SOL    HW214868   2.428   0.267   2.779
 4657SOL     OW14869   6.462   1.135   5.307
 4657SOL    HW114870   6.384   1.153   5.247
 4657SOL    HW214871   6.517   1.218   5.315
 4658SOL     OW14872   5.299   6.827   3.746
 4658SOL    HW114873   5.386   6.830   3.698
 4658SOL    HW214874   5.308   6.871   3.835
 4659SOL     OW14875   2.196   3.128   3.424
 4659SOL    HW114876   2.190   3.222   3.458
 4659SOL    HW214877   2.159   3.065   3.493
 4660SOL     OW14878   6.925   1.321   5.020
 4660SOL    HW114879   6.951   1.330   5.116
 4660SOL    HW214880   6.927   1.411   4.976
 4661SOL     OW14881   3.320   3.143   3.693
 4661SOL    HW114882   3.381   3.100   3.626
 4661SOL    HW214883   3.372   3.208   3.748
 4662SOL     OW14884   6.648   6.898   4.649
 4662SOL    HW114885   6.682   6.979   4.697
 4662SOL    HW214886   6.626   6.826   4.715
 4663SOL     OW14887   0.771   1.740   2.865
 4663SOL    HW114888   0.702   1.678   2.828
 4663SOL    HW214889   0.776   1.822   2.808
 4664SOL     OW14890   3.171   5.178   0.240
 4664SOL    HW114891   3.261   5.188   0.198
 4664SOL    HW214892   3.102   5.216   0.179
 4665SOL     OW14893   5.886   1.064   6.305
 4665SOL    HW114894   5.805   1.046   6.250
 4665SOL    HW214895   5.883   1.009   6.388
 4666SOL     OW14896   1.607   1.091   0.739
 4666SOL    HW114897   1.514   1.120   0.716
 4666SOL    HW214898   1.673   1.151   0.694
 4667SOL     OW14899   0.289   6.204   3.870
 4667SOL    HW114900   0.228   6.132   3.902
 4667SOL    HW214901   0.384   6.180   3.892
 4668SOL     OW14902   6.052   1.185   4.836
 4668SOL    HW114903   5.997   1.203   4.755
 4668SOL    HW214904   6.084   1.090   4.836
 4669SOL     OW14905   2.252   2.236   2.066
 4669SOL    HW114906   2.338   2.202   2.029
 4669SOL    HW214907   2.234   2.327   2.029
 4670SOL     OW14908   2.740   2.274   4.648
 4670SOL    HW114909   2.806   2.321   4.706
 4670SOL    HW214910   2.761   2.293   4.552
 4671SOL     OW14911   6.382   2.340   2.738
 4671SOL    HW114912   6.478   2.331   2.766
 4671SOL    HW214913   6.326   2.364   2.818
 4672SOL     OW14914   2.865   2.402   5.263
 4672SOL    HW114915   2.795   2.420   5.195
 4672SOL    HW214916   2.952   2.383   5.217
 4673SOL     OW14917   5.405   0.778   2.471
 4673SOL    HW114918   5.343   0.743   2.400
 4673SOL    HW214919   5.404   0.878   2.470
 4674SOL     OW14920   4.402   0.066   5.570
 4674SOL    HW114921   4.342   0.020   5.635
 4674SOL    HW214922   4.350   0.090   5.488
 4675SOL     OW14923   0.789   4.119   5.845
 4675SOL    HW114924   0.823   4.028   5.869
 4675SOL    HW214925   0.864   4.185   5.851
 4676SOL     OW14926   1.347   4.540   3.642
 4676SOL    HW114927   1.271   4.493   3.687
 4676SOL    HW214928   1.341   4.638   3.659
 4677SOL     OW14929   1.288   3.555   1.007
 4677SOL    HW114930   1.305   3.485   1.076
 4677SOL    HW214931   1.375   3.585   0.968
 4678SOL     OW14932   1.373   2.001   1.149
 4678SOL    HW114933   1.440   1.939   1.190
 4678SOL    HW214934   1.307   1.947   1.097
 4679SOL     OW14935   4.575   0.136   2.023
 4679SOL    HW114936   4.499   0.185   2.063
 4679SOL    HW214937   4.581   0.044   2.063
 4680SOL     OW14938   2.964   0.998   6.906
 4680SOL    HW114939   2.886   1.014   6.966
 4680SOL    HW214940   3.044   1.048   6.940
 4681SOL     OW14941   5.054   5.361   1.955
 4681SOL    HW114942   5.098   5.272   1.945
 4681SOL    HW214943   5.004   5.383   1.871
 4682SOL     OW14944   3.649   3.438   6.750
 4682SOL    HW114945   3.602   3.452   6.837
 4682SOL    HW214946   3.729   3.498   6.744
 4683SOL     OW14947   0.065   3.933   3.935
 4683SOL    HW114948   0.147   3.876   3.930
 4683SOL    HW214949   0.020   3.918   4.024
 4684SOL     OW14950   4.926   0.523   5.819
 4684SOL    HW114951   4.994   0.516   5.747
 4684SOL    HW214952   4.843   0.473   5.793
 4685SOL     OW14953   2.939   3.710   4.429
 4685SOL    HW114954   2.952   3.629   4.372
 4685SOL    HW214955   2.890   3.685   4.512
 4686SOL     OW14956   1.546   6.663   6.079
 4686SOL    HW114957   1.578   6.672   5.985
 4686SOL    HW214958   1.447   6.646   6.079
 4687SOL     OW14959   1.334   6.870   2.461
 4687SOL    HW114960   1.301   6.837   2.550
 4687SOL    HW214961   1.279   6.948   2.432
 4688SOL     OW14962   4.898   2.328   4.451
 4688SOL    HW114963   4.886   2.427   4.453
 4688SOL    HW214964   4.811   2.284   4.473
 4689SOL     OW14965   6.566   1.219   1.300
 4689SOL    HW114966   6.467   1.228   1.292
 4689SOL    HW214967   6.589   1.131   1.341
 4690SOL     OW14968   3.595   2.175   1.179
 4690SOL    HW114969   3.683   2.154   1.135
 4690SOL    HW214970   3.521   2.129   1.129
 4691SOL     OW14971   6.105   2.930   1.739
 4691SOL    HW114972   6.075   3.022   1.762
 4691SOL    HW214973   6.034   2.884   1.687
 4692SOL     OW14974   6.604   2.753   3.060
 4692SOL    HW114975   6.532   2.731   2.994
 4692SOL    HW214976   6.693   2.737   3.017
 4693SOL     OW14977   0.186   0.389   3.787
 4693SOL    HW114978   0.121   0.420   3.856
 4693SOL    HW214979   0.220   0.467   3.735
 4694SOL     OW14980   1.728   6.617   5.592
 4694SOL    HW114981   1.687   6.530   5.619
 4694SOL    HW214982   1.793   6.601   5.518
 4695SOL     OW14983   1.598   4.643   2.000
 4695SOL    HW114984   1.567   4.583   2.074
 4695SOL    HW214985   1.697   4.636   1.990
 4696SOL     OW14986   2.047   6.314   5.958
 4696SOL    HW114987   2.052   6.243   6.028
 4696SOL    HW214988   1.976   6.381   5.984
 4697SOL     OW14989   4.296   5.928   1.332
 4697SOL    HW114990   4.199   5.947   1.319
 4697SOL    HW214991   4.317   5.835   1.301
 4698SOL     OW14992   5.877   1.459   4.775
 4698SOL    HW114993   5.930   1.504   4.847
 4698SOL    HW214994   5.812   1.396   4.816
 4699SOL     OW14995   0.947   1.704   3.130
 4699SOL    HW114996   0.893   1.672   3.052
 4699SOL    HW214997   0.986   1.625   3.177
 4700SOL     OW14998   6.583   2.028   3.487
 4700SOL    HW114999   6.567   1.997   3.393
 4700SOL    HW215000   6.615   2.123   3.485
 4701SOL     OW15001   2.411   2.690   1.803
 4701SOL    HW115002   2.511   2.683   1.793
 4701SOL    HW215003   2.383   2.785   1.786
 4702SOL     OW15004   5.940   4.672   1.223
 4702SOL    HW115005   6.002   4.749   1.234
 4702SOL    HW215006   5.913   4.637   1.313
 4703SOL     OW15007   6.893   5.278   4.250
 4703SOL    HW115008   6.923   5.184   4.230
 4703SOL    HW215009   6.872   5.325   4.164
 4704SOL     OW15010   1.470   4.729   4.076
 4704SOL    HW115011   1.383   4.755   4.035
 4704SOL    HW215012   1.512   4.809   4.120
 4705SOL     OW15013   3.179   2.389   1.301
 4705SOL    HW115014   3.116   2.315   1.278
 4705SOL    HW215015   3.201   2.386   1.399
 4706SOL     OW15016   2.251   1.813   1.021
 4706SOL    HW115017   2.164   1.766   1.007
 4706SOL    HW215018   2.289   1.787   1.109
 4707SOL     OW15019   2.027   5.779   2.177
 4707SOL    HW115020   2.014   5.861   2.233
 4707SOL    HW215021   2.106   5.727   2.211
 4708SOL     OW15022   1.838   2.906   6.655
 4708SOL    HW115023   1.851   2.825   6.712
 4708SOL    HW215024   1.926   2.937   6.620
 4709SOL     OW15025   6.207   3.669   4.633
 4709SOL    HW115026   6.107   3.669   4.640
 4709SOL    HW215027   6.247   3.696   4.720
 4710SOL     OW15028   6.217   4.453   5.940
 4710SOL    HW115029   6.208   4.516   5.863
 4710SOL    HW215030   6.199   4.359   5.908
 4711SOL     OW15031   4.647   4.253   2.920
 4711SOL    HW115032   4.591   4.328   2.883
 4711SOL    HW215033   4.645   4.175   2.858
 4712SOL     OW15034   4.359   4.883   5.861
 4712SOL    HW115035   4.292   4.939   5.811
 4712SOL    HW215036   4.311   4.818   5.920
 4713SOL     OW15037   5.852   4.418   1.701
 4713SOL    HW115038   5.792   4.374   1.634
 4713SOL    HW215039   5.811   4.505   1.729
 4714SOL     OW15040   4.908   2.194   5.665
 4714SOL    HW115041   4.866   2.120   5.717
 4714SOL    HW215042   4.851   2.276   5.673
 4715SOL     OW15043   0.272   1.265   1.818
 4715SOL    HW115044   0.298   1.310   1.903
 4715SOL    HW215045   0.269   1.166   1.832
 4716SOL     OW15046   3.916   4.413   5.487
 4716SOL    HW115047   3.957   4.339   5.433
 4716SOL    HW215048   3.817   4.401   5.490
 4717SOL     OW15049   1.312   4.434   6.203
 4717SOL    HW115050   1.370   4.390   6.134
 4717SOL    HW215051   1.310   4.533   6.187
 4718SOL     OW15052   4.906   3.686   2.311
 4718SOL    HW115053   4.901   3.727   2.220
 4718SOL    HW215054   4.898   3.586   2.303
 4719SOL     OW15055   5.521   4.179   3.807
 4719SOL    HW115056   5.470   4.146   3.887
 4719SOL    HW215057   5.505   4.118   3.730
 4720SOL     OW15058   1.198   1.733   5.849
 4720SOL    HW115059   1.168   1.726   5.754
 4720SOL    HW215060   1.196   1.642   5.891
 4721SOL     OW15061   0.258   2.702   2.269
 4721SOL    HW115062   0.247   2.747   2.358
 4721SOL    HW215063   0.183   2.638   2.255
 4722SOL     OW15064   1.407   5.404   5.868
 4722SOL    HW115065   1.385   5.485   5.923
 4722SOL    HW215066   1.339   5.333   5.884
 4723SOL     OW15067   3.422   4.630   6.159
 4723SOL    HW115068   3.410   4.724   6.191
 4723SOL    HW215069   3.339   4.578   6.176
 4724SOL     OW15070   0.626   0.685   4.237
 4724SOL    HW115071   0.588   0.608   4.287
 4724SOL    HW215072   0.632   0.662   4.140
 4725SOL     OW15073   5.400   5.867   1.230
 4725SOL    HW115074   5.425   5.963   1.220
 4725SOL    HW215075   5.455   5.812   1.167
 4726SOL     OW15076   1.948   2.384   6.103
 4726SOL    HW115077   1.953   2.436   6.188
 4726SOL    HW215078   1.943   2.286   6.124
 4727SOL     OW15079   6.703   5.111   1.894
 4727SOL    HW115080   6.730   5.023   1.856
 4727SOL    HW215081   6.689   5.177   1.820
 4728SOL     OW15082   4.157   0.937   3.473
 4728SOL    HW115083   4.224   0.863   3.460
 4728SOL    HW215084   4.127   0.939   3.568
 4729SOL     OW15085   0.308   0.789   3.223
 4729SOL    HW115086   0.361   0.721   3.273
 4729SOL    HW215087   0.363   0.872   3.212
 4730SOL     OW15088   2.865   1.105   3.196
 4730SOL    HW115089   2.917   1.163   3.133
 4730SOL    HW215090   2.789   1.158   3.234
 4731SOL     OW15091   3.604   6.708   2.791
 4731SOL    HW115092   3.534   6.777   2.769
 4731SOL    HW215093   3.560   6.621   2.811
 4732SOL     OW15094   0.434   4.863   4.329
 4732SOL    HW115095   0.339   4.889   4.311
 4732SOL    HW215096   0.437   4.803   4.409
 4733SOL     OW15097   2.245   4.204   3.516
 4733SOL    HW115098   2.220   4.128   3.455
 4733SOL    HW215099   2.255   4.169   3.609
 4734SOL     OW15100   4.702   4.698   6.115
 4734SOL    HW115101   4.650   4.618   6.146
 4734SOL    HW215102   4.681   4.716   6.019
 4735SOL     OW15103   6.952   0.987   5.191
 4735SOL    HW115104   6.974   0.974   5.288
 4735SOL    HW215105   6.889   1.064   5.181
 4736SOL     OW15106   6.059   0.183   4.308
 4736SOL    HW115107   6.095   0.257   4.252
 4736SOL    HW215108   6.135   0.128   4.342
 4737SOL     OW15109   1.788   5.023   0.269
 4737SOL    HW115110   1.778   5.064   0.360
 4737SOL    HW215111   1.742   5.079   0.201
 4738SOL     OW15112   0.210   6.044   3.632
 4738SOL    HW115113   0.242   6.063   3.539
 4738SOL    HW215114   0.249   6.112   3.695
 4739SOL     OW15115   5.773   3.580   3.065
 4739SOL    HW115116   5.818   3.515   3.127
 4739SOL    HW215117   5.798   3.673   3.091
 4740SOL     OW15118   1.757   6.331   0.688
 4740SOL    HW115119   1.777   6.272   0.610
 4740SOL    HW215120   1.699   6.407   0.659
 4741SOL     OW15121   5.617   4.295   2.531
 4741SOL    HW115122   5.559   4.242   2.468
 4741SOL    HW215123   5.630   4.243   2.615
 4742SOL     OW15124   2.160   5.623   1.992
 4742SOL    HW115125   2.093   5.676   2.043
 4742SOL    HW215126   2.223   5.578   2.055
 4743SOL     OW15127   2.786   3.026   0.355
 4743SOL    HW115128   2.738   3.110   0.328
 4743SOL    HW215129   2.741   2.986   0.435
 4744SOL     OW15130   2.971   1.709   5.726
 4744SOL    HW115131   2.954   1.656   5.809
 4744SOL    HW215132   2.962   1.650   5.646
 4745SOL     OW15133   4.490   5.916   4.309
 4745SOL    HW115134   4.535   5.968   4.382
 4745SOL    HW215135   4.503   5.819   4.325
 4746SOL     OW15136   5.679   1.646   0.830
 4746SOL    HW115137   5.593   1.610   0.795
 4746SOL    HW215138   5.660   1.726   0.888
 4747SOL     OW15139   0.869   3.129   2.588
 4747SOL    HW115140   0.843   3.185   2.510
 4747SOL    HW215141   0.967   3.136   2.603
 4748SOL     OW15142   1.802   6.721   0.610
 4748SOL    HW115143   1.866   6.759   0.543
 4748SOL    HW215144   1.771   6.631   0.580
 4749SOL     OW15145   4.055   1.189   0.022
 4749SOL    HW115146   4.104   1.169   6.957
 4749SOL    HW215147   4.030   1.103   0.067
 4750SOL     OW15148   0.885   2.282   4.877
 4750SOL    HW115149   0.826   2.320   4.806
 4750SOL    HW215150   0.970   2.334   4.881
 4751SOL     OW15151   1.726   3.763   6.314
 4751SOL    HW115152   1.822   3.743   6.295
 4751SOL    HW215153   1.720   3.841   6.376
 4752SOL     OW15154   1.660   5.654   1.100
 4752SOL    HW115155   1.621   5.571   1.062
 4752SOL    HW215156   1.750   5.671   1.059
 4753SOL     OW15157   0.144   1.304   6.839
 4753SOL    HW115158   0.058   1.260   6.816
 4753SOL    HW215159   0.143   1.399   6.809
 4754SOL     OW15160   1.458   0.643   6.788
 4754SOL    HW115161   1.376   0.599   6.750
 4754SOL    HW215162   1.518   0.572   6.826
 4755SOL     OW15163   2.985   6.865   3.269
 4755SOL    HW115164   2.908   6.865   3.205
 4755SOL    HW215165   2.952   6.889   3.361
 4756SOL     OW15166   5.622   2.237   1.081
 4756SOL    HW115167   5.636   2.189   1.168
 4756SOL    HW215168   5.707   2.280   1.053
 4757SOL     OW15169   1.974   3.235   0.880
 4757SOL    HW115170   2.022   3.320   0.856
 4757SOL    HW215171   2.020   3.192   0.958
 4758SOL     OW15172   6.576   3.716   6.613
 4758SOL    HW115173   6.609   3.636   6.564
 4758SOL    HW215174   6.579   3.698   6.712
 4759SOL     OW15175   6.896   3.925   6.685
 4759SOL    HW115176   6.849   3.945   6.599
 4759SOL    HW215177   6.975   3.867   6.666
 4760SOL     OW15178   0.874   2.719   6.983
 4760SOL    HW115179   0.959   2.714   6.930
 4760SOL    HW215180   0.882   2.794   0.029
 4761SOL     OW15181   3.091   6.039   7.019
 4761SOL    HW115182   3.132   6.130   0.011
 4761SOL    HW215183   3.112   6.005   6.928
 4762SOL     OW15184   3.288   0.699   2.910
 4762SOL    HW115185   3.302   0.602   2.896
 4762SOL    HW215186   3.273   0.744   2.822
 4763SOL     OW15187   5.019   4.828   4.647
 4763SOL    HW115188   5.076   4.850   4.567
 4763SOL    HW215189   4.990   4.913   4.691
 4764SOL     OW15190   3.159   3.631   4.122
 4764SOL    HW115191   3.154   3.573   4.041
 4764SOL    HW215192   3.236   3.694   4.113
 4765SOL     OW15193   6.709   5.281   6.511
 4765SOL    HW115194   6.655   5.202   6.483
 4765SOL    HW215195   6.802   5.272   6.474
 4766SOL     OW15196   3.455   1.799   3.045
 4766SOL    HW115197   3.381   1.733   3.052
 4766SOL    HW215198   3.419   1.892   3.053
 4767SOL     OW15199   4.590   0.498   6.165
 4767SOL    HW115200   4.623   0.556   6.239
 4767SOL    HW215201   4.639   0.412   6.165
 4768SOL     OW15202   2.197   0.221   5.286
 4768SOL    HW115203   2.141   0.287   5.336
 4768SOL    HW215204   2.284   0.262   5.262
 4769SOL     OW15205   4.644   0.718   2.113
 4769SOL    HW115206   4.551   0.688   2.134
 4769SOL    HW215207   4.643   0.814   2.086
 4770SOL     OW15208   2.945   1.467   3.848
 4770SOL    HW115209   3.028   1.432   3.805
 4770SOL    HW215210   2.866   1.415   3.815
 4771SOL     OW15211   4.022   4.902   6.400
 4771SOL    HW115212   3.933   4.921   6.440
 4771SOL    HW215213   4.047   4.975   6.337
 4772SOL     OW15214   3.855   2.462   6.790
 4772SOL    HW115215   3.833   2.493   6.698
 4772SOL    HW215216   3.891   2.539   6.843
 4773SOL     OW15217   0.128   4.915   4.412
 4773SOL    HW115218   0.074   4.953   4.337
 4773SOL    HW215219   0.114   4.816   4.416
 4774SOL     OW15220   2.168   3.983   0.070
 4774SOL    HW115221   2.188   3.886   0.056
 4774SOL    HW215222   2.080   3.992   0.117
 4775SOL     OW15223   1.883   3.145   2.602
 4775SOL    HW115224   1.873   3.244   2.604
 4775SOL    HW215225   1.952   3.119   2.535
 4776SOL     OW15226   4.640   5.595   1.268
 4776SOL    HW115227   4.573   5.538   1.221
 4776SOL    HW215228   4.607   5.689   1.272
 4777SOL     OW15229   1.545   3.899   1.620
 4777SOL    HW115230   1.628   3.952   1.637
 4777SOL    HW215231   1.563   3.802   1.637
 4778SOL     OW15232   5.801   3.281   2.767
 4778SOL    HW115233   5.772   3.374   2.788
 4778SOL    HW215234   5.878   3.255   2.825
 4779SOL     OW15235   6.281   1.678   2.677
 4779SOL    HW115236   6.321   1.688   2.587
 4779SOL    HW215237   6.181   1.681   2.670
 4780SOL     OW15238   1.315   1.294   5.211
 4780SOL    HW115239   1.265   1.346   5.280
 4780SOL    HW215240   1.397   1.255   5.252
 4781SOL     OW15241   2.445   5.743   3.048
 4781SOL    HW115242   2.458   5.815   3.117
 4781SOL    HW215243   2.364   5.689   3.072
 4782SOL     OW15244   6.259   6.227   6.660
 4782SOL    HW115245   6.216   6.294   6.721
 4782SOL    HW215246   6.343   6.193   6.703
 4783SOL     OW15247   5.550   4.756   3.282
 4783SOL    HW115248   5.552   4.661   3.312
 4783SOL    HW215249   5.638   4.799   3.303
 4784SOL     OW15250   4.883   4.257   4.634
 4784SOL    HW115251   4.979   4.267   4.660
 4784SOL    HW215252   4.855   4.162   4.646
 4785SOL     OW15253   5.782   6.054   0.217
 4785SOL    HW115254   5.707   6.116   0.242
 4785SOL    HW215255   5.747   5.961   0.208
 4786SOL     OW15256   1.381   4.691   3.142
 4786SOL    HW115257   1.359   4.616   3.204
 4786SOL    HW215258   1.475   4.683   3.111
 4787SOL     OW15259   4.112   2.078   2.652
 4787SOL    HW115260   4.022   2.035   2.667
 4787SOL    HW215261   4.139   2.127   2.735
 4788SOL     OW15262   2.365   0.579   4.755
 4788SOL    HW115263   2.277   0.555   4.714
 4788SOL    HW215264   2.440   0.545   4.698
 4789SOL     OW15265   4.839   5.803   6.666
 4789SOL    HW115266   4.745   5.822   6.696
 4789SOL    HW215267   4.836   5.750   6.582
 4790SOL     OW15268   5.699   6.890   6.922
 4790SOL    HW115269   5.686   6.902   6.824
 4790SOL    HW215270   5.772   6.823   6.938
 4791SOL     OW15271   4.669   2.437   3.140
 4791SOL    HW115272   4.675   2.508   3.069
 4791SOL    HW215273   4.750   2.379   3.137
 4792SOL     OW15274   3.345   2.862   0.576
 4792SOL    HW115275   3.381   2.770   0.585
 4792SOL    HW215276   3.275   2.864   0.504
 4793SOL     OW15277   0.916   0.939   6.890
 4793SOL    HW115278   0.900   1.018   6.829
 4793SOL    HW215279   0.868   0.860   6.853
 4794SOL     OW15280   5.687   1.116   1.621
 4794SOL    HW115281   5.732   1.123   1.710
 4794SOL    HW215282   5.745   1.064   1.558
 4795SOL     OW15283   6.595   2.115   4.576
 4795SOL    HW115284   6.508   2.113   4.527
 4795SOL    HW215285   6.615   2.209   4.604
 4796SOL     OW15286   4.732   3.891   0.571
 4796SOL    HW115287   4.642   3.887   0.528
 4796SOL    HW215288   4.740   3.819   0.640
 4797SOL     OW15289   1.297   5.985   4.727
 4797SOL    HW115290   1.351   6.059   4.765
 4797SOL    HW215291   1.355   5.904   4.712
 4798SOL     OW15292   0.339   5.850   6.216
 4798SOL    HW115293   0.329   5.842   6.315
 4798SOL    HW215294   0.408   5.785   6.184
 4799SOL     OW15295   5.149   1.299   4.645
 4799SOL    HW115296   5.070   1.353   4.675
 4799SOL    HW215297   5.176   1.327   4.553
 4800SOL     OW15298   1.551   3.070   4.211
 4800SOL    HW115299   1.628   3.135   4.211
 4800SOL    HW215300   1.561   3.006   4.287
 4801SOL     OW15301   0.108   1.829   0.809
 4801SOL    HW115302   0.096   1.855   0.905
 4801SOL    HW215303   0.181   1.761   0.801
 4802SOL     OW15304   1.536   6.934   1.884
 4802SOL    HW115305   1.483   6.915   1.967
 4802SOL    HW215306   1.558   0.011   1.880
 4803SOL     OW15307   0.432   6.805   1.156
 4803SOL    HW115308   0.437   6.903   1.135
 4803SOL    HW215309   0.338   6.780   1.176
 4804SOL     OW15310   4.572   4.879   0.122
 4804SOL    HW115311   4.499   4.814   0.147
 4804SOL    HW215312   4.531   4.967   0.100
 4805SOL     OW15313   6.668   6.925   1.216
 4805SOL    HW115314   6.752   6.925   1.271
 4805SOL    HW215315   6.589   6.936   1.276
 4806SOL     OW15316   0.269   1.911   3.731
 4806SOL    HW115317   0.244   1.983   3.667
 4806SOL    HW215318   0.345   1.857   3.693
 4807SOL     OW15319   1.139   0.125   2.948
 4807SOL    HW115320   1.071   0.100   3.016
 4807SOL    HW215321   1.218   0.063   2.955
 4808SOL     OW15322   6.308   1.689   0.713
 4808SOL    HW115323   6.286   1.780   0.748
 4808SOL    HW215324   6.407   1.673   0.718
 4809SOL     OW15325   4.734   6.810   0.870
 4809SOL    HW115326   4.811   6.873   0.879
 4809SOL    HW215327   4.648   6.861   0.872
 4810SOL     OW15328   1.993   6.867   5.597
 4810SOL    HW115329   1.917   6.931   5.589
 4810SOL    HW215330   2.078   6.918   5.608
 4811SOL     OW15331   4.955   4.375   4.332
 4811SOL    HW115332   4.903   4.299   4.371
 4811SOL    HW215333   5.051   4.350   4.324
 4812SOL     OW15334   6.663   4.919   3.447
 4812SOL    HW115335   6.698   5.000   3.494
 4812SOL    HW215336   6.715   4.903   3.363
 4813SOL     OW15337   5.822   3.562   2.811
 4813SOL    HW115338   5.748   3.607   2.761
 4813SOL    HW215339   5.809   3.574   2.909
 4814SOL     OW15340   0.096   2.797   1.603
 4814SOL    HW115341   0.124   2.864   1.672
 4814SOL    HW215342   0.118   2.705   1.635
 4815SOL     OW15343   4.850   1.245   3.610
 4815SOL    HW115344   4.861   1.191   3.694
 4815SOL    HW215345   4.903   1.202   3.536
 4816SOL     OW15346   6.063   4.293   4.375
 4816SOL    HW115347   6.146   4.242   4.399
 4816SOL    HW215348   6.059   4.304   4.275
 4817SOL     OW15349   5.679   1.437   6.712
 4817SOL    HW115350   5.757   1.415   6.654
 4817SOL    HW215351   5.704   1.509   6.777
 4818SOL     OW15352   0.007   6.338   3.178
 4818SOL    HW115353   0.020   6.373   3.086
 4818SOL    HW215354   6.935   6.300   3.186
 4819SOL     OW15355   0.839   3.025   1.299
 4819SOL    HW115356   0.922   3.027   1.243
 4819SOL    HW215357   0.774   3.093   1.265
 4820SOL     OW15358   5.879   3.153   1.856
 4820SOL    HW115359   5.903   3.078   1.918
 4820SOL    HW215360   5.782   3.148   1.832
 4821SOL     OW15361   0.284   5.647   3.678
 4821SOL    HW115362   0.359   5.664   3.741
 4821SOL    HW215363   0.226   5.728   3.671
 4822SOL     OW15364   2.777   5.674   4.890
 4822SOL    HW115365   2.788   5.772   4.910
 4822SOL    HW215366   2.774   5.660   4.791
 4823SOL     OW15367   1.164   1.988   0.220
 4823SOL    HW115368   1.215   1.902   0.224
 4823SOL    HW215369   1.118   1.996   0.132
 4824SOL     OW15370   6.127   2.272   6.796
 4824SOL    HW115371   6.164   2.341   6.858
 4824SOL    HW215372   6.199   2.241   6.734
 4825SOL     OW15373   0.967   5.678   3.652
 4825SOL    HW115374   0.937   5.763   3.697
 4825SOL    HW215375   1.066   5.679   3.641
 4826SOL     OW15376   4.573   6.645   0.513
 4826SOL    HW115377   4.573   6.719   0.446
 4826SOL    HW215378   4.479   6.624   0.540
 4827SOL     OW15379   5.678   1.150   2.050
 4827SOL    HW115380   5.587   1.131   2.089
 4827SOL    HW215381   5.684   1.247   2.026
 4828SOL     OW15382   5.242   1.111   5.831
 4828SOL    HW115383   5.190   1.055   5.766
 4828SOL    HW215384   5.179   1.154   5.896
 4829SOL     OW15385   4.810   5.668   4.871
 4829SOL    HW115386   4.753   5.660   4.952
 4829SOL    HW215387   4.806   5.582   4.819
 4830SOL     OW15388   1.691   6.305   2.975
 4830SOL    HW115389   1.664   6.225   2.922
 4830SOL    HW215390   1.790   6.303   2.990
 4831SOL     OW15391   2.775   4.008   6.141
 4831SOL    HW115392   2.820   4.083   6.189
 4831SOL    HW215393   2.689   4.039   6.101
 4832SOL     OW15394   3.896   3.317   3.736
 4832SOL    HW115395   3.950   3.281   3.812
 4832SOL    HW215396   3.935   3.403   3.705
 4833SOL     OW15397   5.984   2.355   5.229
 4833SOL    HW115398   6.070   2.306   5.240
 4833SOL    HW215399   5.944   2.374   5.318
 4834SOL     OW15400   1.131   4.191   0.850
 4834SOL    HW115401   1.217   4.235   0.878
 4834SOL    HW215402   1.128   4.098   0.886
 4835SOL     OW15403   0.556   3.549   6.306
 4835SOL    HW115404   0.562   3.600   6.391
 4835SOL    HW215405   0.619   3.590   6.239
 4836SOL     OW15406   3.951   0.354   5.751
 4836SOL    HW115407   3.918   0.397   5.667
 4836SOL    HW215408   3.970   0.424   5.819
 4837SOL     OW15409   1.630   3.535   4.530
 4837SOL    HW115410   1.554   3.563   4.588
 4837SOL    HW215411   1.697   3.486   4.585
 4838SOL     OW15412   1.674   4.482   6.112
 4838SOL    HW115413   1.743   4.414   6.139
 4838SOL    HW215414   1.609   4.439   6.049
 4839SOL     OW15415   2.747   0.880   1.906
 4839SOL    HW115416   2.726   0.870   2.003
 4839SOL    HW215417   2.707   0.965   1.872
 4840SOL     OW15418   5.354   2.411   3.546
 4840SOL    HW115419   5.421   2.377   3.481
 4840SOL    HW215420   5.264   2.414   3.502
 4841SOL     OW15421   2.807   4.987   3.440
 4841SOL    HW115422   2.897   5.012   3.475
 4841SOL    HW215423   2.778   4.901   3.481
 4842SOL     OW15424   4.010   5.274   3.379
 4842SOL    HW115425   4.009   5.369   3.411
 4842SOL    HW215426   3.918   5.236   3.387
 4843SOL     OW15427   5.717   2.563   6.879
 4843SOL    HW115428   5.736   2.632   6.948
 4843SOL    HW215429   5.641   2.505   6.909
 4844SOL     OW15430   0.915   4.685   6.600
 4844SOL    HW115431   0.835   4.695   6.541
 4844SOL    HW215432   0.910   4.751   6.675
 4845SOL     OW15433   5.809   4.280   5.412
 4845SOL    HW115434   5.750   4.353   5.448
 4845SOL    HW215435   5.779   4.255   5.320
 4846SOL     OW15436   6.225   3.998   4.387
 4846SOL    HW115437   6.251   3.972   4.294
 4846SOL    HW215438   6.172   3.924   4.429
 4847SOL     OW15439   2.089   6.833   6.493
 4847SOL    HW115440   2.092   6.778   6.577
 4847SOL    HW215441   2.041   6.782   6.422
 4848SOL     OW15442   5.008   1.461   3.106
 4848SOL    HW115443   5.076   1.503   3.166
 4848SOL    HW215444   5.014   1.503   3.015
 4849SOL     OW15445   1.529   5.574   1.549
 4849SOL    HW115446   1.438   5.555   1.587
 4849SOL    HW215447   1.599   5.538   1.610
 4850SOL     OW15448   3.277   0.143   2.432
 4850SOL    HW115449   3.211   0.150   2.507
 4850SOL    HW215450   3.363   0.186   2.459
 4851SOL     OW15451   4.444   4.737   6.900
 4851SOL    HW115452   4.508   4.734   6.976
 4851SOL    HW215453   4.351   4.724   6.934
 4852SOL     OW15454   4.294   3.926   5.809
 4852SOL    HW115455   4.292   3.950   5.712
 4852SOL    HW215456   4.382   3.885   5.831
 4853SOL     OW15457   4.358   0.252   2.644
 4853SOL    HW115458   4.395   0.181   2.584
 4853SOL    HW215459   4.406   0.251   2.732
 4854SOL     OW15460   3.740   6.714   1.617
 4854SOL    HW115461   3.697   6.707   1.527
 4854SOL    HW215462   3.674   6.752   1.682
 4855SOL     OW15463   4.404   5.033   5.437
 4855SOL    HW115464   4.322   5.065   5.483
 4855SOL    HW215465   4.380   4.960   5.373
 4856SOL     OW15466   0.537   2.842   3.012
 4856SOL    HW115467   0.518   2.938   2.993
 4856SOL    HW215468   0.568   2.831   3.106
 4857SOL     OW15469   2.740   1.084   5.901
 4857SOL    HW115470   2.789   1.055   5.819
 4857SOL    HW215471   2.696   1.005   5.944
 4858SOL     OW15472   2.937   5.431   5.267
 4858SOL    HW115473   2.956   5.462   5.174
 4858SOL    HW215474   2.969   5.337   5.278
 4859SOL     OW15475   6.933   5.367   3.293
 4859SOL    HW115476   6.856   5.361   3.230
 4859SOL    HW215477   6.951   5.463   3.316
 4860SOL     OW15478   4.015   5.347   0.675
 4860SOL    HW115479   4.100   5.309   0.638
 4860SOL    HW215480   3.950   5.361   0.600
 4861SOL     OW15481   5.186   4.672   4.451
 4861SOL    HW115482   5.156   4.703   4.361
 4861SOL    HW215483   5.106   4.651   4.508
 4862SOL     OW15484   1.625   5.136   3.982
 4862SOL    HW115485   1.550   5.199   4.001
 4862SOL    HW215486   1.618   5.057   4.042
 4863SOL     OW15487   6.022   1.627   1.948
 4863SOL    HW115488   6.116   1.603   1.924
 4863SOL    HW215489   6.020   1.720   1.985
 4864SOL     OW15490   2.794   3.173   1.798
 4864SOL    HW115491   2.838   3.192   1.886
 4864SOL    HW215492   2.859   3.125   1.739
 4865SOL     OW15493   3.560   6.961   5.110
 4865SOL    HW115494   3.636   6.906   5.075
 4865SOL    HW215495   3.487   6.962   5.042
 4866SOL     OW15496   1.487   5.068   1.697
 4866SOL    HW115497   1.510   5.012   1.776
 4866SOL    HW215498   1.411   5.027   1.646
 4867SOL     OW15499   5.563   4.425   6.040
 4867SOL    HW115500   5.516   4.363   6.103
 4867SOL    HW215501   5.635   4.374   5.992
 4868SOL     OW15502   1.729   5.969   1.859
 4868SOL    HW115503   1.679   6.011   1.934
 4868SOL    HW215504   1.786   5.894   1.894
 4869SOL     OW15505   0.499   1.790   1.596
 4869SOL    HW115506   0.401   1.805   1.612
 4869SOL    HW215507   0.519   1.802   1.499
 4870SOL     OW15508   5.987   1.489   1.648
 4870SOL    HW115509   5.946   1.400   1.669
 4870SOL    HW215510   6.066   1.504   1.708
 4871SOL     OW15511   1.420   2.085   5.412
 4871SOL    HW115512   1.369   2.091   5.498
 4871SOL    HW215513   1.432   2.177   5.375
 4872SOL     OW15514   2.447   2.555   2.727
 4872SOL    HW115515   2.485   2.528   2.815
 4872SOL    HW215516   2.392   2.638   2.738
 4873SOL     OW15517   1.021   6.649   5.739
 4873SOL    HW115518   1.089   6.579   5.762
 4873SOL    HW215519   1.066   6.738   5.732
 4874SOL     OW15520   6.229   1.918   4.620
 4874SOL    HW115521   6.272   1.957   4.701
 4874SOL    HW215522   6.279   1.948   4.539
 4875SOL     OW15523   0.042   3.407   0.787
 4875SOL    HW115524   0.122   3.434   0.733
 4875SOL    HW215525   0.039   3.308   0.796
 4876SOL     OW15526   6.863   1.452   0.143
 4876SOL    HW115527   6.855   1.383   0.071
 4876SOL    HW215528   6.899   1.410   0.226
 4877SOL     OW15529   4.314   2.096   2.147
 4877SOL    HW115530   4.248   2.032   2.107
 4877SOL    HW215531   4.284   2.119   2.240
 4878SOL     OW15532   1.210   2.614   2.701
 4878SOL    HW115533   1.147   2.540   2.678
 4878SOL    HW215534   1.286   2.615   2.636
 4879SOL     OW15535   3.331   6.636   3.025
 4879SOL    HW115536   3.401   6.655   3.094
 4879SOL    HW215537   3.241   6.650   3.066
 4880SOL     OW15538   0.171   2.492   6.016
 4880SOL    HW115539   0.144   2.544   6.097
 4880SOL    HW215540   0.103   2.422   5.996
 4881SOL     OW15541   2.988   6.222   5.981
 4881SOL    HW115542   2.966   6.182   6.070
 4881SOL    HW215543   2.936   6.176   5.909
 4882SOL     OW15544   5.843   6.229   6.374
 4882SOL    HW115545   5.799   6.234   6.284
 4882SOL    HW215546   5.916   6.160   6.372
 4883SOL     OW15547   6.262   5.876   0.347
 4883SOL    HW115548   6.170   5.835   0.351
 4883SOL    HW215549   6.259   5.967   0.387
 4884SOL     OW15550   4.567   6.183   2.181
 4884SOL    HW115551   4.620   6.186   2.265
 4884SOL    HW215552   4.625   6.153   2.105
 4885SOL     OW15553   0.891   0.063   1.826
 4885SOL    HW115554   0.952   0.061   1.904
 4885SOL    HW215555   0.924   7.019   1.756
 4886SOL     OW15556   6.213   1.222   5.690
 4886SOL    HW115557   6.113   1.226   5.681
 4886SOL    HW215558   6.248   1.315   5.704
 4887SOL     OW15559   0.282   2.836   5.743
 4887SOL    HW115560   0.357   2.796   5.796
 4887SOL    HW215561   0.318   2.908   5.684
 4888SOL     OW15562   4.499   6.053   1.001
 4888SOL    HW115563   4.448   5.968   1.008
 4888SOL    HW215564   4.439   6.131   1.020
 4889SOL     OW15565   1.189   3.301   6.039
 4889SOL    HW115566   1.249   3.317   5.960
 4889SOL    HW215567   1.217   3.216   6.085
 4890SOL     OW15568   6.154   0.459   3.863
 4890SOL    HW115569   6.212   0.500   3.793
 4890SOL    HW215570   6.145   0.361   3.844
 4891SOL     OW15571   0.407   4.951   0.782
 4891SOL    HW115572   0.413   5.017   0.856
 4891SOL    HW215573   0.420   4.859   0.819
 4892SOL     OW15574   1.847   5.491   1.802
 4892SOL    HW115575   1.832   5.392   1.812
 4892SOL    HW215576   1.856   5.532   1.893
 4893SOL     OW15577   6.807   4.584   6.552
 4893SOL    HW115578   6.815   4.540   6.641
 4893SOL    HW215579   6.884   4.557   6.494
 4894SOL     OW15580   0.065   6.661   3.548
 4894SOL    HW115581   0.165   6.657   3.541
 4894SOL    HW215582   0.038   6.729   3.616
 4895SOL     OW15583   6.583   3.590   6.868
 4895SOL    HW115584   6.659   3.537   6.828
 4895SOL    HW215585   6.577   3.570   6.966
 4896SOL     OW15586   4.497   1.143   5.179
 4896SOL    HW115587   4.512   1.240   5.161
 4896SOL    HW215588   4.580   1.092   5.158
 4897SOL     OW15589   2.755   6.113   0.245
 4897SOL    HW115590   2.775   6.045   0.314
 4897SOL    HW215591   2.759   6.071   0.154
 4898SOL     OW15592   4.740   3.003   4.685
 4898SOL    HW115593   4.644   2.977   4.673
 4898SOL    HW215594   4.770   3.058   4.607
 4899SOL     OW15595   0.453   3.170   4.227
 4899SOL    HW115596   0.441   3.125   4.316
 4899SOL    HW215597   0.406   3.259   4.228
 4900SOL     OW15598   0.358   6.699   6.556
 4900SOL    HW115599   0.434   6.747   6.601
 4900SOL    HW215600   0.327   6.625   6.615
 4901SOL     OW15601   6.541   6.595   3.056
 4901SOL    HW115602   6.634   6.629   3.040
 4901SOL    HW215603   6.487   6.605   2.971
 4902SOL     OW15604   3.065   5.958   0.266
 4902SOL    HW115605   3.030   6.009   0.187
 4902SOL    HW215606   3.163   5.940   0.253
 4903SOL     OW15607   5.903   4.594   6.799
 4903SOL    HW115608   5.955   4.548   6.726
 4903SOL    HW215609   5.862   4.677   6.762
 4904SOL     OW15610   2.777   0.687   3.905
 4904SOL    HW115611   2.690   0.641   3.888
 4904SOL    HW215612   2.834   0.682   3.822
 4905SOL     OW15613   5.955   4.367   3.250
 4905SOL    HW115614   5.982   4.436   3.316
 4905SOL    HW215615   5.856   4.369   3.238
 4906SOL     OW15616   5.283   0.334   2.007
 4906SOL    HW115617   5.264   0.320   2.105
 4906SOL    HW215618   5.354   0.402   1.996
 4907SOL     OW15619   3.071   2.805   1.375
 4907SOL    HW115620   3.141   2.811   1.446
 4907SOL    HW215621   3.108   2.756   1.296
 4908SOL     OW15622   5.131   4.392   6.071
 4908SOL    HW115623   5.042   4.426   6.104
 4908SOL    HW215624   5.127   4.293   6.061
 4909SOL     OW15625   6.279   6.684   5.320
 4909SOL    HW115626   6.324   6.738   5.249
 4909SOL    HW215627   6.217   6.743   5.372
 4910SOL     OW15628   5.637   0.129   5.488
 4910SOL    HW115629   5.609   0.224   5.499
 4910SOL    HW215630   5.723   0.125   5.438
 4911SOL     OW15631   0.093   3.357   0.055
 4911SOL    HW115632   0.037   3.432   0.021
 4911SOL    HW215633   0.170   3.393   0.106
 4912SOL     OW15634   1.726   3.171   1.978
 4912SOL    HW115635   1.636   3.134   2.001
 4912SOL    HW215636   1.778   3.185   2.063
 4913SOL     OW15637   2.904   3.515   2.047
 4913SOL    HW115638   2.984   3.507   1.986
 4913SOL    HW215639   2.900   3.608   2.083
 4914SOL     OW15640   1.179   0.130   2.413
 4914SOL    HW115641   1.252   0.167   2.470
 4914SOL    HW215642   1.092   0.169   2.441
 4915SOL     OW15643   4.183   6.563   3.772
 4915SOL    HW115644   4.217   6.469   3.770
 4915SOL    HW215645   4.261   6.626   3.772
 4916SOL     OW15646   1.845   1.691   1.832
 4916SOL    HW115647   1.911   1.617   1.820
 4916SOL    HW215648   1.893   1.774   1.861
 4917SOL     OW15649   0.560   5.622   6.638
 4917SOL    HW115650   0.530   5.689   6.706
 4917SOL    HW215651   0.544   5.658   6.546
 4918SOL     OW15652   2.237   6.503   4.013
 4918SOL    HW115653   2.202   6.416   3.977
 4918SOL    HW215654   2.190   6.579   3.968
 4919SOL     OW15655   2.194   2.912   1.257
 4919SOL    HW115656   2.216   2.922   1.354
 4919SOL    HW215657   2.166   2.817   1.239
 4920SOL     OW15658   3.767   2.201   6.180
 4920SOL    HW115659   3.709   2.275   6.214
 4920SOL    HW215660   3.713   2.118   6.167
 4921SOL     OW15661   6.687   4.357   1.746
 4921SOL    HW115662   6.721   4.448   1.723
 4921SOL    HW215663   6.619   4.364   1.819
 4922SOL     OW15664   1.306   3.601   5.912
 4922SOL    HW115665   1.348   3.606   6.002
 4922SOL    HW215666   1.322   3.511   5.872
 4923SOL     OW15667   3.900   2.175   0.184
 4923SOL    HW115668   3.971   2.242   0.162
 4923SOL    HW215669   3.919   2.089   0.135
 4924SOL     OW15670   1.047   3.031   4.530
 4924SOL    HW115671   1.114   3.034   4.456
 4924SOL    HW215672   0.967   3.086   4.504
 4925SOL     OW15673   4.710   4.883   4.896
 4925SOL    HW115674   4.792   4.941   4.895
 4925SOL    HW215675   4.654   4.903   4.816
 4926SOL     OW15676   4.101   3.734   0.785
 4926SOL    HW115677   4.191   3.776   0.771
 4926SOL    HW215678   4.096   3.697   0.878
 4927SOL     OW15679   3.036   3.120   2.209
 4927SOL    HW115680   3.094   3.085   2.135
 4927SOL    HW215681   2.941   3.127   2.177
 4928SOL     OW15682   6.710   1.901   5.734
 4928SOL    HW115683   6.718   1.811   5.778
 4928SOL    HW215684   6.616   1.935   5.745
 4929SOL     OW15685   1.226   4.435   4.173
 4929SOL    HW115686   1.297   4.483   4.225
 4929SOL    HW215687   1.267   4.358   4.124
 4930SOL     OW15688   0.853   3.257   0.469
 4930SOL    HW115689   0.857   3.357   0.460
 4930SOL    HW215690   0.828   3.217   0.382
 4931SOL     OW15691   5.523   6.711   0.901
 4931SOL    HW115692   5.611   6.685   0.940
 4931SOL    HW215693   5.538   6.767   0.819
 4932SOL     OW15694   3.123   2.050   0.913
 4932SOL    HW115695   3.153   1.994   0.836
 4932SOL    HW215696   3.027   2.030   0.934
 4933SOL     OW15697   2.400   0.144   4.906
 4933SOL    HW115698   2.406   0.110   4.812
 4933SOL    HW215699   2.340   0.225   4.908
 4934SOL     OW15700   1.611   6.386   5.613
 4934SOL    HW115701   1.514   6.413   5.618
 4934SOL    HW215702   1.622   6.296   5.655
 4935SOL     OW15703   1.049   2.773   0.993
 4935SOL    HW115704   1.040   2.737   1.085
 4935SOL    HW215705   1.145   2.772   0.965
 4936SOL     OW15706   6.582   3.778   1.343
 4936SOL    HW115707   6.486   3.754   1.330
 4936SOL    HW215708   6.634   3.696   1.364
 4937SOL     OW15709   0.958   3.460   5.281
 4937SOL    HW115710   1.051   3.436   5.309
 4937SOL    HW215711   0.916   3.517   5.352
 4938SOL     OW15712   3.041   3.801   1.095
 4938SOL    HW115713   3.063   3.712   1.055
 4938SOL    HW215714   2.973   3.848   1.037
 4939SOL     OW15715   1.133   1.585   1.746
 4939SOL    HW115716   1.231   1.597   1.762
 4939SOL    HW215717   1.091   1.675   1.728
 4940SOL     OW15718   1.710   1.435   5.278
 4940SOL    HW115719   1.626   1.477   5.242
 4940SOL    HW215720   1.695   1.405   5.372
 4941SOL     OW15721   3.024   2.011   6.118
 4941SOL    HW115722   3.075   2.081   6.168
 4941SOL    HW215723   3.036   2.025   6.020
 4942SOL     OW15724   0.494   0.918   2.570
 4942SOL    HW115725   0.472   0.866   2.653
 4942SOL    HW215726   0.518   1.012   2.594
 4943SOL     OW15727   5.223   2.086   6.784
 4943SOL    HW115728   5.268   2.112   6.699
 4943SOL    HW215729   5.213   2.166   6.843
 4944SOL     OW15730   0.943   4.721   0.464
 4944SOL    HW115731   1.026   4.691   0.510
 4944SOL    HW215732   0.864   4.680   0.509
 4945SOL     OW15733   2.589   0.478   6.576
 4945SOL    HW115734   2.569   0.437   6.666
 4945SOL    HW215735   2.653   0.554   6.588
 4946SOL     OW15736   2.037   5.725   0.056
 4946SOL    HW115737   1.984   5.752   0.137
 4946SOL    HW215738   2.124   5.774   0.056
 4947SOL     OW15739   1.275   0.135   1.225
 4947SOL    HW115740   1.304   0.191   1.146
 4947SOL    HW215741   1.290   0.187   1.309
 4948SOL     OW15742   1.563   3.517   2.127
 4948SOL    HW115743   1.556   3.495   2.030
 4948SOL    HW215744   1.529   3.610   2.143
 4949SOL     OW15745   6.151   4.899   6.841
 4949SOL    HW115746   6.191   4.946   6.920
 4949SOL    HW215747   6.221   4.891   6.769
 4950SOL     OW15748   4.069   3.762   5.856
 4950SOL    HW115749   4.138   3.816   5.808
 4950SOL    HW215750   4.103   3.738   5.947
 4951SOL     OW15751   4.520   5.200   3.409
 4951SOL    HW115752   4.567   5.284   3.381
 4951SOL    HW215753   4.430   5.196   3.365
 4952SOL     OW15754   0.786   0.754   6.255
 4952SOL    HW115755   0.756   0.680   6.315
 4952SOL    HW215756   0.722   0.831   6.261
 4953SOL     OW15757   1.011   1.430   6.076
 4953SOL    HW115758   1.001   1.396   6.170
 4953SOL    HW215759   0.975   1.523   6.070
 4954SOL     OW15760   3.620   3.470   5.935
 4954SOL    HW115761   3.636   3.373   5.948
 4954SOL    HW215762   3.703   3.515   5.903
 4955SOL     OW15763   4.027   6.267   0.004
 4955SOL    HW115764   4.009   6.345   6.965
 4955SOL    HW215765   4.117   6.229   7.004
 4956SOL     OW15766   2.491   0.350   3.799
 4956SOL    HW115767   2.454   0.389   3.883
 4956SOL    HW215768   2.472   0.412   3.723
 4957SOL     OW15769   5.982   5.466   0.345
 4957SOL    HW115770   5.960   5.429   0.255
 4957SOL    HW215771   5.904   5.455   0.406
 4958SOL     OW15772   3.062   5.212   0.915
 4958SOL    HW115773   3.004   5.149   0.864
 4958SOL    HW215774   3.118   5.162   0.981
 4959SOL     OW15775   2.050   1.457   2.634
 4959SOL    HW115776   2.073   1.496   2.545
 4959SOL    HW215777   2.091   1.514   2.706
 4960SOL     OW15778   5.393   3.942   4.797
 4960SOL    HW115779   5.320   3.882   4.765
 4960SOL    HW215780   5.395   4.025   4.741
 4961SOL     OW15781   4.041   3.315   2.663
 4961SOL    HW115782   3.953   3.321   2.711
 4961SOL    HW215783   4.092   3.400   2.675
 4962SOL     OW15784   1.531   2.729   0.695
 4962SOL    HW115785   1.561   2.821   0.722
 4962SOL    HW215786   1.483   2.734   0.607
 4963SOL     OW15787   0.345   3.947   6.747
 4963SOL    HW115788   0.281   3.899   6.687
 4963SOL    HW215789   0.411   3.999   6.691
 4964SOL     OW15790   1.305   5.375   3.645
 4964SOL    HW115791   1.250   5.313   3.700
 4964SOL    HW215792   1.396   5.385   3.687
 4965SOL     OW15793   2.591   0.015   2.885
 4965SOL    HW115794   2.537   0.025   2.802
 4965SOL    HW215795   2.561   0.084   2.952
 4966SOL     OW15796   3.892   6.846   5.603
 4966SOL    HW115797   3.883   6.845   5.504
 4966SOL    HW215798   3.973   6.795   5.630
 4967SOL     OW15799   4.596   4.613   3.041
 4967SOL    HW115800   4.528   4.548   3.075
 4967SOL    HW215801   4.598   4.693   3.101
 4968SOL     OW15802   6.541   2.997   3.153
 4968SOL    HW115803   6.583   2.920   3.106
 4968SOL    HW215804   6.462   2.965   3.205
 4969SOL     OW15805   1.672   5.483   4.009
 4969SOL    HW115806   1.596   5.530   4.055
 4969SOL    HW215807   1.745   5.467   4.076
 4970SOL     OW15808   2.544   0.698   0.815
 4970SOL    HW115809   2.542   0.634   0.738
 4970SOL    HW215810   2.531   0.647   0.901
 4971SOL     OW15811   0.450   6.346   2.374
 4971SOL    HW115812   0.363   6.346   2.324
 4971SOL    HW215813   0.467   6.255   2.412
 4972SOL     OW15814   0.440   3.527   0.976
 4972SOL    HW115815   0.361   3.589   0.975
 4972SOL    HW215816   0.413   3.439   0.936
 4973SOL     OW15817   5.152   2.512   0.104
 4973SOL    HW115818   5.167   2.599   0.150
 4973SOL    HW215819   5.165   2.437   0.169
 4974SOL     OW15820   3.299   0.522   5.336
 4974SOL    HW115821   3.310   0.480   5.427
 4974SOL    HW215822   3.208   0.562   5.329
 4975SOL     OW15823   5.874   4.063   0.871
 4975SOL    HW115824   5.784   4.090   0.839
 4975SOL    HW215825   5.915   4.138   0.923
 4976SOL     OW15826   1.880   0.335   4.112
 4976SOL    HW115827   1.787   0.351   4.148
 4976SOL    HW215828   1.875   0.320   4.013
 4977SOL     OW15829   1.223   3.426   4.366
 4977SOL    HW115830   1.140   3.462   4.409
 4977SOL    HW215831   1.252   3.488   4.293
 4978SOL     OW15832   6.645   5.506   4.504
 4978SOL    HW115833   6.668   5.597   4.470
 4978SOL    HW215834   6.562   5.511   4.560
 4979SOL     OW15835   3.440   6.580   5.984
 4979SOL    HW115836   3.463   6.518   5.909
 4979SOL    HW215837   3.421   6.671   5.948
 4980SOL     OW15838   5.545   3.047   4.127
 4980SOL    HW115839   5.621   3.075   4.069
 4980SOL    HW215840   5.556   3.087   4.218
 4981SOL     OW15841   3.102   0.029   3.015
 4981SOL    HW115842   3.134   6.972   2.960
 4981SOL    HW215843   3.006   0.049   2.991
 4982SOL     OW15844   3.694   1.900   4.988
 4982SOL    HW115845   3.622   1.969   4.978
 4982SOL    HW215846   3.782   1.940   4.962
 4983SOL     OW15847   5.300   3.891   3.424
 4983SOL    HW115848   5.222   3.844   3.382
 4983SOL    HW215849   5.378   3.889   3.362
 4984SOL     OW15850   4.996   3.625   5.202
 4984SOL    HW115851   5.034   3.705   5.157
 4984SOL    HW215852   4.908   3.602   5.160
 4985SOL     OW15853   4.689   0.141   2.416
 4985SOL    HW115854   4.727   0.233   2.411
 4985SOL    HW215855   4.750   0.077   2.368
 4986SOL     OW15856   1.290   5.714   1.185
 4986SOL    HW115857   1.359   5.775   1.145
 4986SOL    HW215858   1.302   5.621   1.149
 4987SOL     OW15859   2.013   4.233   2.024
 4987SOL    HW115860   1.986   4.140   1.997
 4987SOL    HW215861   1.948   4.299   1.986
 4988SOL     OW15862   6.334   4.808   4.009
 4988SOL    HW115863   6.336   4.821   4.108
 4988SOL    HW215864   6.249   4.764   3.982
 4989SOL     OW15865   6.782   0.418   4.431
 4989SOL    HW115866   6.773   0.490   4.499
 4989SOL    HW215867   6.835   0.342   4.470
 4990SOL     OW15868   4.579   1.613   5.886
 4990SOL    HW115869   4.499   1.553   5.877
 4990SOL    HW215870   4.655   1.575   5.833
 4991SOL     OW15871   2.273   5.175   5.395
 4991SOL    HW115872   2.341   5.174   5.468
 4991SOL    HW215873   2.229   5.085   5.390
 4992SOL     OW15874   2.773   2.774   5.336
 4992SOL    HW115875   2.740   2.682   5.315
 4992SOL    HW215876   2.697   2.830   5.368
 4993SOL     OW15877   2.457   5.278   3.637
 4993SOL    HW115878   2.535   5.214   3.634
 4993SOL    HW215879   2.394   5.257   3.563
 4994SOL     OW15880   3.227   4.892   5.945
 4994SOL    HW115881   3.316   4.852   5.924
 4994SOL    HW215882   3.238   4.989   5.968
 4995SOL     OW15883   0.385   2.197   6.384
 4995SOL    HW115884   0.356   2.184   6.479
 4995SOL    HW215885   0.477   2.160   6.372
 4996SOL     OW15886   0.124   0.857   4.795
 4996SOL    HW115887   0.213   0.811   4.792
 4996SOL    HW215888   0.133   0.941   4.849
 4997SOL     OW15889   3.686   1.859   1.101
 4997SOL    HW115890   3.596   1.854   1.144
 4997SOL    HW215891   3.750   1.801   1.151
 4998SOL     OW15892   1.277   4.019   3.138
 4998SOL    HW115893   1.194   3.996   3.188
 4998SOL    HW215894   1.354   3.966   3.174
 4999SOL     OW15895   6.970   3.009   3.321
 4999SOL    HW115896   6.912   3.042   3.396
 4999SOL    HW215897   6.914   3.000   3.238
 5000SOL     OW15898   2.755   6.358   2.956
 5000SOL    HW115899   2.781   6.448   2.921
 5000SOL    HW215900   2.717   6.303   2.882
 5001SOL     OW15901   0.098   6.014   2.992
 5001SOL    HW115902   0.175   6.077   2.985
 5001SOL    HW215903   0.112   5.954   3.071
 5002SOL     OW15904   1.400   5.284   4.025
 5002SOL    HW115905   1.420   5.325   3.936
 5002SOL    HW215906   1.382   5.357   4.092
 5003SOL     OW15907   4.022   1.311   1.313
 5003SOL    HW115908   3.925   1.301   1.291
 5003SOL    HW215909   4.031   1.361   1.399
 5004SOL     OW15910   3.625   6.071   0.460
 5004SOL    HW115911   3.713   6.114   0.478
 5004SOL    HW215912   3.581   6.114   0.381
 5005SOL     OW15913   4.315   3.143   0.828
 5005SOL    HW115914   4.271   3.198   0.756
 5005SOL    HW215915   4.259   3.063   0.848
 5006SOL     OW15916   4.557   0.780   2.592
 5006SOL    HW115917   4.468   0.773   2.545
 5006SOL    HW215918   4.614   0.846   2.544
 5007SOL     OW15919   6.713   5.225   3.152
 5007SOL    HW115920   6.645   5.298   3.143
 5007SOL    HW215921   6.668   5.136   3.149
 5008SOL     OW15922   4.531   0.330   3.831
 5008SOL    HW115923   4.613   0.386   3.835
 5008SOL    HW215924   4.488   0.327   3.922
 5009SOL     OW15925   0.813   1.826   6.277
 5009SOL    HW115926   0.749   1.800   6.350
 5009SOL    HW215927   0.825   1.925   6.277
 5010SOL     OW15928   5.335   4.554   0.859
 5010SOL    HW115929   5.310   4.499   0.939
 5010SOL    HW215930   5.434   4.569   0.859
 5011SOL     OW15931   1.669   1.938   5.369
 5011SOL    HW115932   1.747   2.000   5.379
 5011SOL    HW215933   1.584   1.988   5.385
 5012SOL     OW15934   5.831   2.532   5.426
 5012SOL    HW115935   5.903   2.599   5.448
 5012SOL    HW215936   5.822   2.467   5.501
 5013SOL     OW15937   6.174   5.647   5.590
 5013SOL    HW115938   6.185   5.671   5.686
 5013SOL    HW215939   6.167   5.547   5.581
 5014SOL     OW15940   6.068   2.975   0.536
 5014SOL    HW115941   6.083   2.881   0.565
 5014SOL    HW215942   6.149   3.010   0.490
 5015SOL     OW15943   6.603   5.185   4.374
 5015SOL    HW115944   6.683   5.245   4.384
 5015SOL    HW215945   6.627   5.108   4.316
 5016SOL     OW15946   1.270   1.853   6.477
 5016SOL    HW115947   1.368   1.839   6.464
 5016SOL    HW215948   1.245   1.945   6.446
 5017SOL     OW15949   1.197   2.973   1.886
 5017SOL    HW115950   1.233   2.930   1.803
 5017SOL    HW215951   1.134   2.911   1.931
 5018SOL     OW15952   0.480   0.479   0.652
 5018SOL    HW115953   0.385   0.510   0.658
 5018SOL    HW215954   0.527   0.527   0.578
 5019SOL     OW15955   2.013   4.241   3.999
 5019SOL    HW115956   2.071   4.271   4.075
 5019SOL    HW215957   1.918   4.233   4.031
 5020SOL     OW15958   1.576   0.072   2.727
 5020SOL    HW115959   1.582   0.116   2.638
 5020SOL    HW215960   1.661   0.024   2.748
 5021SOL     OW15961   2.353   0.355   1.374
 5021SOL    HW115962   2.430   0.417   1.391
 5021SOL    HW215963   2.368   0.306   1.288
 5022SOL     OW15964   0.011   3.319   1.709
 5022SOL    HW115965   6.958   3.386   1.711
 5022SOL    HW215966   0.040   3.304   1.615
 5023SOL     OW15967   0.753   2.069   3.090
 5023SOL    HW115968   0.714   2.152   3.050
 5023SOL    HW215969   0.850   2.084   3.109
 5024SOL     OW15970   4.140   4.074   0.113
 5024SOL    HW115971   4.105   4.167   0.118
 5024SOL    HW215972   4.233   4.071   0.149
 5025SOL     OW15973   4.666   2.251   4.606
 5025SOL    HW115974   4.730   2.288   4.674
 5025SOL    HW215975   4.572   2.265   4.638
 5026SOL     OW15976   5.292   5.899   4.963
 5026SOL    HW115977   5.364   5.844   4.921
 5026SOL    HW215978   5.332   5.965   5.026
 5027SOL     OW15979   5.426   6.312   1.407
 5027SOL    HW115980   5.388   6.310   1.499
 5027SOL    HW215981   5.524   6.333   1.411
 5028SOL     OW15982   0.183   1.930   2.534
 5028SOL    HW115983   0.244   1.914   2.457
 5028SOL    HW215984   0.227   1.899   2.619
 5029SOL     OW15985   5.974   2.766   3.024
 5029SOL    HW115986   6.056   2.816   2.995
 5029SOL    HW215987   5.895   2.826   3.019
 5030SOL     OW15988   0.840   3.163   0.889
 5030SOL    HW115989   0.926   3.121   0.861
 5030SOL    HW215990   0.771   3.092   0.905
 5031SOL     OW15991   5.839   0.753   6.255
 5031SOL    HW115992   5.870   0.660   6.276
 5031SOL    HW215993   5.824   0.762   6.157
 5032SOL     OW15994   2.143   4.711   6.637
 5032SOL    HW115995   2.230   4.683   6.596
 5032SOL    HW215996   2.139   4.681   6.732
 5033SOL     OW15997   2.080   6.854   3.987
 5033SOL    HW115998   2.029   6.909   3.920
 5033SOL    HW215999   2.120   6.914   4.056
 5034SOL     OW16000   4.247   6.172   3.455
 5034SOL    HW116001   4.338   6.131   3.448
 5034SOL    HW216002   4.178   6.106   3.426
 5035SOL     OW16003   1.781   3.795   3.959
 5035SOL    HW116004   1.771   3.894   3.974
 5035SOL    HW216005   1.746   3.746   4.039
 5036SOL     OW16006   1.474   2.829   4.680
 5036SOL    HW116007   1.535   2.860   4.752
 5036SOL    HW216008   1.509   2.744   4.640
 5037SOL     OW16009   5.187   4.690   1.215
 5037SOL    HW116010   5.108   4.659   1.268
 5037SOL    HW216011   5.213   4.782   1.244
 5038SOL     OW16012   3.162   3.738   4.673
 5038SOL    HW116013   3.079   3.688   4.697
 5038SOL    HW216014   3.178   3.729   4.574
 5039SOL     OW16015   0.128   2.894   6.582
 5039SOL    HW116016   0.164   2.813   6.629
 5039SOL    HW216017   0.173   2.975   6.618
 5040SOL     OW16018   0.943   1.581   4.946
 5040SOL    HW116019   0.984   1.490   4.949
 5040SOL    HW216020   0.942   1.614   4.851
 5041SOL     OW16021   6.610   2.454   1.101
 5041SOL    HW116022   6.616   2.416   1.193
 5041SOL    HW216023   6.675   2.530   1.091
 5042SOL     OW16024   1.020   1.696   5.634
 5042SOL    HW116025   1.028   1.763   5.561
 5042SOL    HW216026   0.986   1.610   5.596
 5043SOL     OW16027   2.575   6.994   1.553
 5043SOL    HW116028   2.569   6.915   1.492
 5043SOL    HW216029   2.491   0.027   1.547
 5044SOL     OW16030   0.085   6.184   1.233
 5044SOL    HW116031   0.064   6.186   1.135
 5044SOL    HW216032   0.067   6.092   1.269
 5045SOL     OW16033   5.877   2.831   2.233
 5045SOL    HW116034   5.794   2.885   2.220
 5045SOL    HW216035   5.903   2.833   2.329
 5046SOL     OW16036   4.156   3.267   1.848
 5046SOL    HW116037   4.189   3.362   1.842
 5046SOL    HW216038   4.066   3.261   1.803
 5047SOL     OW16039   2.428   4.462   3.804
 5047SOL    HW116040   2.464   4.442   3.896
 5047SOL    HW216041   2.467   4.548   3.772
 5048SOL     OW16042   1.594   6.782   5.842
 5048SOL    HW116043   1.614   6.879   5.846
 5048SOL    HW216044   1.551   6.760   5.754
 5049SOL     OW16045   3.918   1.745   6.538
 5049SOL    HW116046   4.003   1.702   6.568
 5049SOL    HW216047   3.876   1.794   6.614
 5050SOL     OW16048   1.013   0.016   1.187
 5050SOL    HW116049   1.106   0.052   1.180
 5050SOL    HW216050   0.979   0.029   1.280
 5051SOL     OW16051   4.356   4.186   0.894
 5051SOL    HW116052   4.266   4.220   0.922
 5051SOL    HW216053   4.420   4.196   0.970
 5052SOL     OW16054   1.997   3.698   4.453
 5052SOL    HW116055   2.038   3.637   4.385
 5052SOL    HW216056   1.898   3.690   4.451
 5053SOL     OW16057   6.897   0.784   0.527
 5053SOL    HW116058   6.802   0.808   0.545
 5053SOL    HW216059   6.937   0.852   0.466
 5054SOL     OW16060   4.164   5.534   2.942
 5054SOL    HW116061   4.240   5.566   2.886
 5054SOL    HW216062   4.092   5.496   2.884
 5055SOL     OW16063   6.178   4.264   5.754
 5055SOL    HW116064   6.217   4.235   5.666
 5055SOL    HW216065   6.113   4.196   5.786
 5056SOL     OW16066   6.479   5.064   3.227
 5056SOL    HW116067   6.487   4.977   3.275
 5056SOL    HW216068   6.449   5.136   3.290
 5057SOL     OW16069   6.695   6.482   2.615
 5057SOL    HW116070   6.750   6.437   2.686
 5057SOL    HW216071   6.736   6.570   2.593
 5058SOL     OW16072   2.897   5.771   5.823
 5058SOL    HW116073   2.837   5.850   5.836
 5058SOL    HW216074   2.883   5.706   5.898
 5059SOL     OW16075   6.539   6.670   2.483
 5059SOL    HW116076   6.564   6.585   2.530
 5059SOL    HW216077   6.510   6.738   2.551
 5060SOL     OW16078   6.770   2.965   0.135
 5060SOL    HW116079   6.797   2.885   0.082
 5060SOL    HW216080   6.838   3.038   0.122
 5061SOL     OW16081   5.568   3.256   0.823
 5061SOL    HW116082   5.542   3.329   0.759
 5061SOL    HW216083   5.487   3.225   0.873
 5062SOL     OW16084   6.712   0.263   0.013
 5062SOL    HW116085   6.795   0.317   7.015
 5062SOL    HW216086   6.632   0.323   0.010
 5063SOL     OW16087   1.248   6.549   2.491
 5063SOL    HW116088   1.177   6.609   2.456
 5063SOL    HW216089   1.206   6.466   2.528
 5064SOL     OW16090   5.323   4.289   6.783
 5064SOL    HW116091   5.297   4.193   6.783
 5064SOL    HW216092   5.338   4.319   6.877
 5065SOL     OW16093   1.899   7.001   5.915
 5065SOL    HW116094   1.879   6.996   6.013
 5065SOL    HW216095   1.912   6.909   5.879
 5066SOL     OW16096   5.123   4.501   0.421
 5066SOL    HW116097   5.061   4.554   0.480
 5066SOL    HW216098   5.216   4.535   0.432
 5067SOL     OW16099   5.280   0.930   6.571
 5067SOL    HW116100   5.377   0.909   6.581
 5067SOL    HW216101   5.255   0.923   6.474
 5068SOL     OW16102   3.163   4.930   1.381
 5068SOL    HW116103   3.149   4.868   1.303
 5068SOL    HW216104   3.132   4.885   1.465
 5069SOL     OW16105   0.161   5.328   3.164
 5069SOL    HW116106   0.072   5.344   3.208
 5069SOL    HW216107   0.218   5.273   3.225
 5070SOL     OW16108   5.218   2.544   3.227
 5070SOL    HW116109   5.212   2.582   3.319
 5070SOL    HW216110   5.261   2.611   3.166
 5071SOL     OW16111   4.766   0.875   1.765
 5071SOL    HW116112   4.764   0.848   1.862
 5071SOL    HW216113   4.807   0.965   1.757
 5072SOL     OW16114   0.859   4.194   2.410
 5072SOL    HW116115   0.830   4.112   2.459
 5072SOL    HW216116   0.896   4.169   2.321
 5073SOL     OW16117   4.386   2.441   3.203
 5073SOL    HW116118   4.393   2.421   3.301
 5073SOL    HW216119   4.477   2.457   3.166
 5074SOL     OW16120   4.043   3.366   4.944
 5074SOL    HW116121   4.029   3.298   5.017
 5074SOL    HW216122   4.121   3.423   4.967
 5075SOL     OW16123   6.416   0.352   4.149
 5075SOL    HW116124   6.484   0.385   4.084
 5075SOL    HW216125   6.324   0.368   4.113
 5076SOL     OW16126   5.557   0.398   0.241
 5076SOL    HW116127   5.508   0.350   0.168
 5076SOL    HW216128   5.507   0.480   0.267
 5077SOL     OW16129   0.312   1.304   2.835
 5077SOL    HW116130   0.224   1.257   2.825
 5077SOL    HW216131   0.380   1.240   2.871
 5078SOL     OW16132   0.258   1.945   4.774
 5078SOL    HW116133   0.245   1.977   4.868
 5078SOL    HW216134   0.179   1.971   4.718
 5079SOL     OW16135   4.876   5.070   4.722
 5079SOL    HW116136   4.954   5.129   4.740
 5079SOL    HW216137   4.798   5.126   4.693
 5080SOL     OW16138   4.723   0.370   5.724
 5080SOL    HW116139   4.726   0.324   5.635
 5080SOL    HW216140   4.630   0.402   5.741
 5081SOL     OW16141   3.223   3.414   3.278
 5081SOL    HW116142   3.209   3.453   3.369
 5081SOL    HW216143   3.296   3.346   3.281
 5082SOL     OW16144   0.848   2.220   5.252
 5082SOL    HW116145   0.865   2.131   5.210
 5082SOL    HW216146   0.807   2.282   5.185
 5083SOL     OW16147   1.026   3.900   2.438
 5083SOL    HW116148   1.040   3.834   2.364
 5083SOL    HW216149   1.035   3.854   2.526
 5084SOL     OW16150   1.526   5.712   2.590
 5084SOL    HW116151   1.459   5.699   2.518
 5084SOL    HW216152   1.575   5.798   2.574
 5085SOL     OW16153   6.410   3.168   0.752
 5085SOL    HW116154   6.391   3.265   0.734
 5085SOL    HW216155   6.455   3.128   0.672
 5086SOL     OW16156   6.349   4.880   4.772
 5086SOL    HW116157   6.396   4.890   4.860
 5086SOL    HW216158   6.331   4.971   4.733
 5087SOL     OW16159   5.455   5.451   5.940
 5087SOL    HW116160   5.549   5.416   5.938
 5087SOL    HW216161   5.436   5.502   5.856
 5088SOL     OW16162   5.563   0.923   6.632
 5088SOL    HW116163   5.603   0.841   6.674
 5088SOL    HW216164   5.587   0.927   6.535
 5089SOL     OW16165   5.485   3.257   4.404
 5089SOL    HW116166   5.436   3.186   4.454
 5089SOL    HW216167   5.580   3.228   4.390
 5090SOL     OW16168   1.010   4.491   6.944
 5090SOL    HW116169   0.983   4.470   6.850
 5090SOL    HW216170   0.951   4.441   7.007
 5091SOL     OW16171   0.793   5.921   4.003
 5091SOL    HW116172   0.820   5.934   3.908
 5091SOL    HW216173   0.787   6.010   4.048
 5092SOL     OW16174   3.676   2.983   0.481
 5092SOL    HW116175   3.706   3.033   0.399
 5092SOL    HW216176   3.590   2.937   0.461
 5093SOL     OW16177   0.881   1.028   2.463
 5093SOL    HW116178   0.830   0.944   2.444
 5093SOL    HW216179   0.890   1.040   2.562
 5094SOL     OW16180   0.812   0.385   6.149
 5094SOL    HW116181   0.863   0.420   6.070
 5094SOL    HW216182   0.714   0.401   6.134
 5095SOL     OW16183   3.314   6.198   5.233
 5095SOL    HW116184   3.265   6.157   5.309
 5095SOL    HW216185   3.251   6.215   5.157
 5096SOL     OW16186   3.275   5.757   2.078
 5096SOL    HW116187   3.338   5.802   2.141
 5096SOL    HW216188   3.299   5.783   1.984
 5097SOL     OW16189   0.577   2.311   6.836
 5097SOL    HW116190   0.532   2.342   6.920
 5097SOL    HW216191   0.653   2.372   6.814
 5098SOL     OW16192   1.412   2.593   2.938
 5098SOL    HW116193   1.367   2.610   2.851
 5098SOL    HW216194   1.492   2.535   2.924
 5099SOL     OW16195   0.988   1.664   4.396
 5099SOL    HW116196   0.909   1.629   4.446
 5099SOL    HW216197   1.072   1.642   4.447
 5100SOL     OW16198   4.819   4.627   5.499
 5100SOL    HW116199   4.798   4.623   5.597
 5100SOL    HW216200   4.784   4.545   5.454
 5101SOL     OW16201   5.582   6.241   0.267
 5101SOL    HW116202   5.517   6.209   0.336
 5101SOL    HW216203   5.541   6.316   0.215
 5102SOL     OW16204   3.801   6.129   3.588
 5102SOL    HW116205   3.784   6.112   3.685
 5102SOL    HW216206   3.725   6.181   3.550
 5103SOL     OW16207   1.916   1.924   3.519
 5103SOL    HW116208   1.863   1.845   3.549
 5103SOL    HW216209   1.945   1.977   3.598
 5104SOL     OW16210   0.789   0.531   0.727
 5104SOL    HW116211   0.727   0.579   0.788
 5104SOL    HW216212   0.884   0.556   0.749
 5105SOL     OW16213   1.357   3.407   0.438
 5105SOL    HW116214   1.444   3.368   0.469
 5105SOL    HW216215   1.309   3.340   0.382
 5106SOL     OW16216   2.202   6.682   2.221
 5106SOL    HW116217   2.159   6.694   2.311
 5106SOL    HW216218   2.145   6.724   2.151
 5107SOL     OW16219   1.576   0.036   5.854
 5107SOL    HW116220   1.479   0.022   5.871
 5107SOL    HW216221   1.599   0.132   5.864
 5108SOL     OW16222   3.784   3.580   4.401
 5108SOL    HW116223   3.757   3.619   4.489
 5108SOL    HW216224   3.865   3.524   4.413
 5109SOL     OW16225   0.781   2.315   2.146
 5109SOL    HW116226   0.803   2.413   2.144
 5109SOL    HW216227   0.711   2.296   2.076
 5110SOL     OW16228   1.256   5.831   5.424
 5110SOL    HW116229   1.190   5.884   5.477
 5110SOL    HW216230   1.207   5.778   5.354
 5111SOL     OW16231   1.111   1.050   6.584
 5111SOL    HW116232   1.034   1.072   6.644
 5111SOL    HW216233   1.146   0.959   6.607
 5112SOL     OW16234   0.611   6.995   3.312
 5112SOL    HW116235   0.702   6.988   3.353
 5112SOL    HW216236   0.620   7.012   3.214
 5113SOL     OW16237   0.344   1.769   6.556
 5113SOL    HW116238   0.278   1.746   6.485
 5113SOL    HW216239   0.304   1.836   6.619
 5114SOL     OW16240   4.967   5.449   6.350
 5114SOL    HW116241   4.992   5.358   6.318
 5114SOL    HW216242   5.023   5.518   6.302
 5115SOL     OW16243   2.624   3.877   5.299
 5115SOL    HW116244   2.597   3.785   5.328
 5115SOL    HW216245   2.546   3.923   5.256
 5116SOL     OW16246   6.630   3.870   1.591
 5116SOL    HW116247   6.545   3.887   1.641
 5116SOL    HW216248   6.609   3.850   1.496
 5117SOL     OW16249   2.501   5.641   2.434
 5117SOL    HW116250   2.465   5.732   2.413
 5117SOL    HW216251   2.464   5.575   2.369
 5118SOL     OW16252   4.236   6.812   1.770
 5118SOL    HW116253   4.187   6.729   1.741
 5118SOL    HW216254   4.272   6.859   1.689
 5119SOL     OW16255   6.587   0.966   3.238
 5119SOL    HW116256   6.547   0.981   3.148
 5119SOL    HW216257   6.678   0.925   3.229
 5120SOL     OW16258   3.753   1.285   1.157
 5120SOL    HW116259   3.779   1.208   1.099
 5120SOL    HW216260   3.683   1.339   1.110
 5121SOL     OW16261   0.677   3.764   4.306
 5121SOL    HW116262   0.735   3.814   4.370
 5121SOL    HW216263   0.649   3.825   4.232
 5122SOL     OW16264   2.640   5.707   2.820
 5122SOL    HW116265   2.727   5.659   2.832
 5122SOL    HW216266   2.583   5.694   2.901
 5123SOL     OW16267   6.333   3.207   1.930
 5123SOL    HW116268   6.351   3.144   1.854
 5123SOL    HW216269   6.315   3.154   2.013
 5124SOL     OW16270   3.539   6.782   6.779
 5124SOL    HW116271   3.565   6.790   6.683
 5124SOL    HW216272   3.565   6.866   6.827
 5125SOL     OW16273   0.640   2.122   6.308
 5125SOL    HW116274   0.680   2.141   6.397
 5125SOL    HW216275   0.713   2.113   6.240
 5126SOL     OW16276   4.196   1.467   0.583
 5126SOL    HW116277   4.180   1.514   0.497
 5126SOL    HW216278   4.159   1.374   0.579
 5127SOL     OW16279   4.901   3.678   5.840
 5127SOL    HW116280   4.814   3.629   5.850
 5127SOL    HW216281   4.948   3.644   5.758
 5128SOL     OW16282   0.410   0.594   0.237
 5128SOL    HW116283   0.427   0.570   0.141
 5128SOL    HW216284   0.317   0.567   0.262
 5129SOL     OW16285   4.501   2.533   3.799
 5129SOL    HW116286   4.404   2.507   3.800
 5129SOL    HW216287   4.530   2.554   3.893
 5130SOL     OW16288   1.749   6.576   4.754
 5130SOL    HW116289   1.677   6.568   4.684
 5130SOL    HW216290   1.809   6.496   4.749
 5131SOL     OW16291   3.485   5.189   2.754
 5131SOL    HW116292   3.484   5.096   2.716
 5131SOL    HW216293   3.426   5.192   2.834
 5132SOL     OW16294   3.184   1.475   6.013
 5132SOL    HW116295   3.183   1.375   6.016
 5132SOL    HW216296   3.091   1.510   6.023
 5133SOL     OW16297   3.312   3.726   6.254
 5133SOL    HW116298   3.250   3.787   6.206
 5133SOL    HW216299   3.265   3.682   6.330
 5134SOL     OW16300   5.299   6.009   1.568
 5134SOL    HW116301   5.342   5.933   1.518
 5134SOL    HW216302   5.370   6.065   1.610
 5135SOL     OW16303   0.942   3.113   2.212
 5135SOL    HW116304   1.039   3.094   2.223
 5135SOL    HW216305   0.909   3.071   2.127
 5136SOL     OW16306   0.028   0.270   5.115
 5136SOL    HW116307   0.108   0.327   5.099
 5136SOL    HW216308   0.041   0.180   5.072
 5137SOL     OW16309   5.385   1.171   3.474
 5137SOL    HW116310   5.390   1.258   3.524
 5137SOL    HW216311   5.315   1.178   3.403
 5138SOL     OW16312   3.573   3.439   2.963
 5138SOL    HW116313   3.656   3.470   3.009
 5138SOL    HW216314   3.570   3.478   2.871
 5139SOL     OW16315   5.222   0.843   4.646
 5139SOL    HW116316   5.137   0.837   4.594
 5139SOL    HW216317   5.263   0.752   4.655
 5140SOL     OW16318   2.627   3.560   5.643
 5140SOL    HW116319   2.679   3.484   5.604
 5140SOL    HW216320   2.563   3.525   5.711
 5141SOL     OW16321   0.723   2.709   1.814
 5141SOL    HW116322   0.738   2.788   1.756
 5141SOL    HW216323   0.808   2.659   1.826
 5142SOL     OW16324   6.882   6.136   2.984
 5142SOL    HW116325   6.866   6.129   3.082
 5142SOL    HW216326   6.971   6.096   2.962
 5143SOL     OW16327   6.064   5.819   2.461
 5143SOL    HW116328   5.971   5.805   2.428
 5143SOL    HW216329   6.117   5.735   2.451
 5144SOL     OW16330   1.625   2.645   5.297
 5144SOL    HW116331   1.607   2.707   5.220
 5144SOL    HW216332   1.715   2.665   5.335
 5145SOL     OW16333   0.854   5.178   6.538
 5145SOL    HW116334   0.775   5.141   6.586
 5145SOL    HW216335   0.894   5.253   6.591
 5146SOL     OW16336   5.332   6.191   6.324
 5146SOL    HW116337   5.279   6.275   6.309
 5146SOL    HW216338   5.380   6.198   6.411
 5147SOL     OW16339   3.976   0.953   3.249
 5147SOL    HW116340   4.042   0.930   3.320
 5147SOL    HW216341   3.989   1.048   3.221
 5148SOL     OW16342   6.166   1.208   0.773
 5148SOL    HW116343   6.249   1.265   0.768
 5148SOL    HW216344   6.120   1.211   0.684
 5149SOL     OW16345   2.730   0.047   3.710
 5149SOL    HW116346   2.652   0.109   3.698
 5149SOL    HW216347   2.771   0.063   3.799
 5150SOL     OW16348   7.016   0.992   4.227
 5150SOL    HW116349   6.966   1.037   4.302
 5150SOL    HW216350   0.014   0.897   4.251
 5151SOL     OW16351   5.093   4.675   2.059
 5151SOL    HW116352   5.091   4.587   2.010
 5151SOL    HW216353   5.186   4.694   2.089
 5152SOL     OW16354   2.195   1.299   0.559
 5152SOL    HW116355   2.109   1.342   0.531
 5152SOL    HW216356   2.175   1.217   0.613
 5153SOL     OW16357   2.231   1.824   0.089
 5153SOL    HW116358   2.305   1.758   0.073
 5153SOL    HW216359   2.223   1.842   0.188
 5154SOL     OW16360   0.921   3.007   6.635
 5154SOL    HW116361   0.991   3.073   6.605
 5154SOL    HW216362   0.933   2.921   6.586
 5155SOL     OW16363   1.575   0.844   0.206
 5155SOL    HW116364   1.567   0.921   0.269
 5155SOL    HW216365   1.568   0.876   0.111
 5156SOL     OW16366   5.328   3.580   5.600
 5156SOL    HW116367   5.297   3.650   5.536
 5156SOL    HW216368   5.324   3.616   5.694
 5157SOL     OW16369   3.484   1.014   2.159
 5157SOL    HW116370   3.573   0.979   2.130
 5157SOL    HW216371   3.491   1.113   2.174
 5158SOL     OW16372   1.194   3.428   1.987
 5158SOL    HW116373   1.229   3.345   1.942
 5158SOL    HW216374   1.185   3.411   2.085
 5159SOL     OW16375   6.401   3.224   5.980
 5159SOL    HW116376   6.353   3.297   6.028
 5159SOL    HW216377   6.416   3.147   6.042
 5160SOL     OW16378   6.080   1.307   3.365
 5160SOL    HW116379   6.142   1.385   3.362
 5160SOL    HW216380   6.055   1.280   3.272
 5161SOL     OW16381   1.343   2.030   6.748
 5161SOL    HW116382   1.247   2.012   6.727
 5161SOL    HW216383   1.386   1.947   6.784
 5162SOL     OW16384   0.156   0.604   5.991
 5162SOL    HW116385   0.225   0.671   6.019
 5162SOL    HW216386   0.198   0.514   5.984
 5163SOL     OW16387   3.521   1.566   1.408
 5163SOL    HW116388   3.540   1.470   1.386
 5163SOL    HW216389   3.604   1.620   1.394
 5164SOL     OW16390   2.420   2.718   0.173
 5164SOL    HW116391   2.347   2.784   0.159
 5164SOL    HW216392   2.383   2.625   0.169
 5165SOL     OW16393   1.263   5.575   5.289
 5165SOL    HW116394   1.316   5.512   5.232
 5165SOL    HW216395   1.208   5.635   5.231
 5166SOL     OW16396   6.400   5.707   6.022
 5166SOL    HW116397   6.374   5.649   6.099
 5166SOL    HW216398   6.422   5.799   6.055
 5167SOL     OW16399   5.938   3.109   5.783
 5167SOL    HW116400   5.876   3.031   5.793
 5167SOL    HW216401   6.010   3.104   5.852
 5168SOL     OW16402   5.488   1.121   3.197
 5168SOL    HW116403   5.568   1.119   3.258
 5168SOL    HW216404   5.488   1.039   3.140
 5169SOL     OW16405   4.908   5.836   4.686
 5169SOL    HW116406   4.868   5.790   4.765
 5169SOL    HW216407   4.926   5.769   4.614
 5170SOL     OW16408   2.667   3.052   6.748
 5170SOL    HW116409   2.765   3.035   6.740
 5170SOL    HW216410   2.643   3.136   6.701
 5171SOL     OW16411   1.338   6.433   5.671
 5171SOL    HW116412   1.336   6.334   5.687
 5171SOL    HW216413   1.302   6.480   5.751
 5172SOL     OW16414   4.984   5.094   5.806
 5172SOL    HW116415   4.897   5.127   5.770
 5172SOL    HW216416   4.971   5.053   5.896
 5173SOL     OW16417   4.528   6.301   4.042
 5173SOL    HW116418   4.508   6.208   4.010
 5173SOL    HW216419   4.530   6.364   3.964
 5174SOL     OW16420   0.878   5.937   3.738
 5174SOL    HW116421   0.955   5.994   3.768
 5174SOL    HW216422   0.815   5.992   3.683
 5175SOL     OW16423   2.715   1.960   6.055
 5175SOL    HW116424   2.729   2.051   6.017
 5175SOL    HW216425   2.800   1.929   6.099
 5176SOL     OW16426   5.823   6.796   5.877
 5176SOL    HW116427   5.746   6.813   5.938
 5176SOL    HW216428   5.814   6.853   5.795
 5177SOL     OW16429   4.892   4.970   1.106
 5177SOL    HW116430   4.897   4.969   1.006
 5177SOL    HW216431   4.809   4.922   1.136
 5178SOL     OW16432   1.027   3.938   1.247
 5178SOL    HW116433   0.964   3.983   1.184
 5178SOL    HW216434   1.084   3.874   1.196
 5179SOL     OW16435   3.942   5.460   2.762
 5179SOL    HW116436   3.891   5.467   2.847
 5179SOL    HW216437   3.892   5.507   2.689
 5180SOL     OW16438   3.139   5.208   2.147
 5180SOL    HW116439   3.133   5.307   2.162
 5180SOL    HW216440   3.061   5.178   2.093
 5181SOL     OW16441   6.801   1.663   5.432
 5181SOL    HW116442   6.762   1.610   5.506
 5181SOL    HW216443   6.793   1.761   5.453
 5182SOL     OW16444   2.407   5.895   2.353
 5182SOL    HW116445   2.427   5.923   2.259
 5182SOL    HW216446   2.404   5.976   2.412
 5183SOL     OW16447   5.311   1.722   3.055
 5183SOL    HW116448   5.347   1.638   3.014
 5183SOL    HW216449   5.377   1.796   3.043
 5184SOL     OW16450   3.061   1.296   1.759
 5184SOL    HW116451   3.159   1.307   1.769
 5184SOL    HW216452   3.041   1.215   1.703
 5185SOL     OW16453   6.199   0.664   1.310
 5185SOL    HW116454   6.229   0.748   1.354
 5185SOL    HW216455   6.185   0.593   1.379
 5186SOL     OW16456   6.248   2.460   6.584
 5186SOL    HW116457   6.216   2.519   6.659
 5186SOL    HW216458   6.177   2.392   6.565
 5187SOL     OW16459   1.273   4.753   4.906
 5187SOL    HW116460   1.371   4.737   4.908
 5187SOL    HW216461   1.225   4.666   4.910
 5188SOL     OW16462   6.877   0.536   1.492
 5188SOL    HW116463   6.916   0.582   1.412
 5188SOL    HW216464   6.788   0.574   1.513
 5189SOL     OW16465   5.473   6.199   6.083
 5189SOL    HW116466   5.420   6.189   6.167
 5189SOL    HW216467   5.415   6.179   6.004
 5190SOL     OW16468   1.067   5.212   0.854
 5190SOL    HW116469   1.060   5.114   0.839
 5190SOL    HW216470   0.976   5.250   0.872
 5191SOL     OW16471   3.088   3.937   1.330
 5191SOL    HW116472   3.097   3.862   1.265
 5191SOL    HW216473   3.163   4.002   1.316
 5192SOL     OW16474   0.644   4.616   2.515
 5192SOL    HW116475   0.664   4.524   2.548
 5192SOL    HW216476   0.627   4.677   2.593
 5193SOL     OW16477   3.706   0.714   4.739
 5193SOL    HW116478   3.703   0.621   4.776
 5193SOL    HW216479   3.613   0.747   4.724
 5194SOL     OW16480   4.062   1.560   5.483
 5194SOL    HW116481   4.098   1.653   5.492
 5194SOL    HW216482   3.963   1.562   5.488
 5195SOL     OW16483   2.157   0.887   5.002
 5195SOL    HW116484   2.248   0.855   4.976
 5195SOL    HW216485   2.110   0.925   4.923
 5196SOL     OW16486   6.064   6.015   2.803
 5196SOL    HW116487   6.158   6.042   2.824
 5196SOL    HW216488   6.031   5.953   2.874
 5197SOL     OW16489   2.768   3.818   5.687
 5197SOL    HW116490   2.736   3.730   5.651
 5197SOL    HW216491   2.732   3.893   5.632
 5198SOL     OW16492   6.964   5.586   3.601
 5198SOL    HW116493   6.872   5.557   3.627
 5198SOL    HW216494   0.004   5.506   3.594
 5199SOL     OW16495   0.848   5.374   1.198
 5199SOL    HW116496   0.919   5.417   1.252
 5199SOL    HW216497   0.774   5.439   1.182
 5200SOL     OW16498   0.210   4.429   5.808
 5200SOL    HW116499   0.161   4.341   5.809
 5200SOL    HW216500   0.307   4.412   5.794
 5201SOL     OW16501   1.137   5.515   4.502
 5201SOL    HW116502   1.066   5.570   4.459
 5201SOL    HW216503   1.118   5.504   4.599
 5202SOL     OW16504   7.008   4.987   1.700
 5202SOL    HW116505   7.012   5.087   1.704
 5202SOL    HW216506   0.079   4.950   1.717
 5203SOL     OW16507   7.009   3.093   0.078
 5203SOL    HW116508   0.019   3.184   0.051
 5203SOL    HW216509   0.068   3.038   0.105
 5204SOL     OW16510   5.426   5.349   6.278
 5204SOL    HW116511   5.401   5.280   6.346
 5204SOL    HW216512   5.362   5.346   6.202
 5205SOL     OW16513   2.439   5.932   0.484
 5205SOL    HW116514   2.441   6.009   0.547
 5205SOL    HW216515   2.532   5.898   0.469
 5206SOL     OW16516   0.155   4.507   4.584
 5206SOL    HW116517   0.186   4.452   4.507
 5206SOL    HW216518   0.206   4.481   4.666
 5207SOL     OW16519   1.307   6.423   1.979
 5207SOL    HW116520   1.372   6.473   2.036
 5207SOL    HW216521   1.346   6.410   1.888
 5208SOL     OW16522   4.709   1.953   0.573
 5208SOL    HW116523   4.769   1.882   0.536
 5208SOL    HW216524   4.671   2.008   0.499
 5209SOL     OW16525   6.382   5.230   3.459
 5209SOL    HW116526   6.422   5.321   3.449
 5209SOL    HW216527   6.423   5.184   3.538
 5210SOL     OW16528   5.132   3.340   3.718
 5210SOL    HW116529   5.169   3.289   3.795
 5210SOL    HW216530   5.047   3.297   3.688
 5211SOL     OW16531   2.748   4.346   1.650
 5211SOL    HW116532   2.789   4.390   1.729
 5211SOL    HW216533   2.793   4.378   1.567
 5212SOL     OW16534   0.354   7.015   6.356
 5212SOL    HW116535   0.433   7.003   6.416
 5212SOL    HW216536   0.272   0.012   6.412
 5213SOL     OW16537   4.788   2.019   6.704
 5213SOL    HW116538   4.821   2.038   6.796
 5213SOL    HW216539   4.860   1.974   6.651
 5214SOL     OW16540   4.810   2.270   0.014
 5214SOL    HW116541   4.832   2.348   0.072
 5214SOL    HW216542   4.821   2.295   6.938
 5215SOL     OW16543   5.930   5.851   4.585
 5215SOL    HW116544   6.001   5.889   4.644
 5215SOL    HW216545   5.951   5.871   4.489
 5216SOL     OW16546   2.908   6.382   1.358
 5216SOL    HW116547   2.830   6.362   1.298
 5216SOL    HW216548   2.946   6.296   1.392
 5217SOL     OW16549   2.998   5.654   3.900
 5217SOL    HW116550   2.914   5.679   3.948
 5217SOL    HW216551   3.033   5.568   3.936
 5218SOL     OW16552   0.848   0.476   3.684
 5218SOL    HW116553   0.898   0.434   3.760
 5218SOL    HW216554   0.856   0.575   3.689
 5219SOL     OW16555   2.855   6.568   1.100
 5219SOL    HW116556   2.867   6.502   1.174
 5219SOL    HW216557   2.933   6.562   1.037
 5220SOL     OW16558   0.850   6.615   2.225
 5220SOL    HW116559   0.823   6.644   2.133
 5220SOL    HW216560   0.797   6.533   2.250
 5221SOL     OW16561   4.671   0.682   0.161
 5221SOL    HW116562   4.695   0.585   0.169
 5221SOL    HW216563   4.721   0.722   0.084
 5222SOL     OW16564   6.649   5.439   2.317
 5222SOL    HW116565   6.557   5.413   2.287
 5222SOL    HW216566   6.650   5.537   2.336
 5223SOL     OW16567   4.424   6.459   1.554
 5223SOL    HW116568   4.353   6.474   1.486
 5223SOL    HW216569   4.391   6.488   1.644
 5224SOL     OW16570   5.561   0.333   3.269
 5224SOL    HW116571   5.565   0.355   3.366
 5224SOL    HW216572   5.473   0.290   3.249
 5225SOL     OW16573   6.962   6.851   6.137
 5225SOL    HW116574   6.881   6.802   6.103
 5225SOL    HW216575   0.023   6.814   6.093
 5226SOL     OW16576   2.246   0.933   3.525
 5226SOL    HW116577   2.259   0.854   3.585
 5226SOL    HW216578   2.257   0.904   3.430
 5227SOL     OW16579   5.568   3.957   4.309
 5227SOL    HW116580   5.568   3.860   4.336
 5227SOL    HW216581   5.482   3.999   4.338
 5228SOL     OW16582   5.014   6.935   2.426
 5228SOL    HW116583   5.050   6.842   2.417
 5228SOL    HW216584   4.934   6.945   2.366
 5229SOL     OW16585   0.961   3.844   3.785
 5229SOL    HW116586   1.001   3.852   3.876
 5229SOL    HW216587   0.999   3.914   3.724
 5230SOL     OW16588   0.452   1.296   6.518
 5230SOL    HW116589   0.464   1.356   6.439
 5230SOL    HW216590   0.433   1.351   6.599
 5231SOL     OW16591   3.084   3.841   3.418
 5231SOL    HW116592   3.033   3.768   3.464
 5231SOL    HW216593   3.090   3.821   3.321
 5232SOL     OW16594   5.295   2.850   4.692
 5232SOL    HW116595   5.390   2.817   4.695
 5232SOL    HW216596   5.240   2.797   4.757
 5233SOL     OW16597   0.665   0.194   2.581
 5233SOL    HW116598   0.692   0.280   2.625
 5233SOL    HW216599   0.672   0.120   2.647
 5234SOL     OW16600   3.504   4.179   1.435
 5234SOL    HW116601   3.598   4.166   1.403
 5234SOL    HW216602   3.484   4.277   1.438
 5235SOL     OW16603   0.865   1.525   1.766
 5235SOL    HW116604   0.963   1.528   1.743
 5235SOL    HW216605   0.849   1.455   1.835
 5236SOL     OW16606   6.454   2.862   0.644
 5236SOL    HW116607   6.490   2.931   0.581
 5236SOL    HW216608   6.438   2.904   0.734
 5237SOL     OW16609   1.610   2.009   2.450
 5237SOL    HW116610   1.685   1.962   2.496
 5237SOL    HW216611   1.556   2.059   2.518
 5238SOL     OW16612   1.813   3.544   1.842
 5238SOL    HW116613   1.763   3.470   1.796
 5238SOL    HW216614   1.900   3.558   1.796
 5239SOL     OW16615   3.007   3.067   5.226
 5239SOL    HW116616   3.022   2.972   5.256
 5239SOL    HW216617   3.053   3.082   5.139
 5240SOL     OW16618   4.043   2.058   3.698
 5240SOL    HW116619   4.139   2.072   3.673
 5240SOL    HW216620   4.029   2.087   3.793
 5241SOL     OW16621   4.599   5.907   5.074
 5241SOL    HW116622   4.576   5.991   5.025
 5241SOL    HW216623   4.540   5.898   5.154
 5242SOL     OW16624   3.063   0.525   6.229
 5242SOL    HW116625   3.074   0.606   6.286
 5242SOL    HW216626   3.060   0.552   6.133
 5243SOL     OW16627   1.609   3.533   0.108
 5243SOL    HW116628   1.561   3.607   0.154
 5243SOL    HW216629   1.696   3.568   0.072
 5244SOL     OW16630   6.184   3.007   6.791
 5244SOL    HW116631   6.283   3.018   6.783
 5244SOL    HW216632   6.151   3.064   6.867
 5245SOL     OW16633   4.334   4.236   5.817
 5245SOL    HW116634   4.422   4.258   5.775
 5245SOL    HW216635   4.260   4.264   5.756
 5246SOL     OW16636   1.402   3.419   3.481
 5246SOL    HW116637   1.337   3.462   3.417
 5246SOL    HW216638   1.365   3.331   3.511
 5247SOL     OW16639   0.635   4.026   6.926
 5247SOL    HW116640   0.550   4.068   6.893
 5247SOL    HW216641   0.617   3.931   6.953
 5248SOL     OW16642   4.856   1.250   0.607
 5248SOL    HW116643   4.870   1.217   0.700
 5248SOL    HW216644   4.873   1.349   0.604
 5249SOL     OW16645   0.701   5.270   0.277
 5249SOL    HW116646   0.770   5.243   0.344
 5249SOL    HW216647   0.737   5.260   0.185
 5250SOL     OW16648   1.130   1.414   5.351
 5250SOL    HW116649   1.150   1.423   5.449
 5250SOL    HW216650   1.038   1.447   5.333
 5251SOL     OW16651   0.790   2.090   1.618
 5251SOL    HW116652   0.746   2.030   1.685
 5251SOL    HW216653   0.761   2.064   1.526
 5252SOL     OW16654   5.600   5.495   1.430
 5252SOL    HW116655   5.697   5.475   1.419
 5252SOL    HW216656   5.551   5.413   1.458
 5253SOL     OW16657   5.738   3.167   4.383
 5253SOL    HW116658   5.814   3.123   4.335
 5253SOL    HW216659   5.773   3.232   4.450
 5254SOL     OW16660   5.283   0.580   4.689
 5254SOL    HW116661   5.248   0.538   4.773
 5254SOL    HW216662   5.383   0.585   4.694
 5255SOL     OW16663   2.186   5.634   2.340
 5255SOL    HW116664   2.232   5.549   2.316
 5255SOL    HW216665   2.193   5.649   2.439
 5256SOL     OW16666   4.933   6.186   2.162
 5256SOL    HW116667   4.919   6.253   2.089
 5256SOL    HW216668   5.026   6.150   2.158
 5257SOL     OW16669   2.458   1.775   1.927
 5257SOL    HW116670   2.448   1.733   2.017
 5257SOL    HW216671   2.480   1.872   1.938
 5258SOL     OW16672   5.500   1.982   1.621
 5258SOL    HW116673   5.486   1.960   1.525
 5258SOL    HW216674   5.585   1.940   1.653
 5259SOL     OW16675   5.900   5.002   1.361
 5259SOL    HW116676   5.854   4.930   1.412
 5259SOL    HW216677   5.979   4.964   1.313
 5260SOL     OW16678   5.382   3.477   1.881
 5260SOL    HW116679   5.448   3.418   1.928
 5260SOL    HW216680   5.303   3.491   1.940
 5261SOL     OW16681   2.267   2.741   5.007
 5261SOL    HW116682   2.294   2.830   5.043
 5261SOL    HW216683   2.325   2.717   4.930
 5262SOL     OW16684   1.304   0.616   2.021
 5262SOL    HW116685   1.256   0.674   1.956
 5262SOL    HW216686   1.402   0.637   2.019
 5263SOL     OW16687   1.411   6.638   6.451
 5263SOL    HW116688   1.472   6.564   6.481
 5263SOL    HW216689   1.358   6.609   6.372
 5264SOL     OW16690   1.305   0.569   0.710
 5264SOL    HW116691   1.332   0.645   0.650
 5264SOL    HW216692   1.370   0.562   0.786
 5265SOL     OW16693   5.010   4.906   3.827
 5265SOL    HW116694   4.977   4.961   3.905
 5265SOL    HW216695   5.106   4.884   3.841
 5266SOL     OW16696   1.148   6.545   1.385
 5266SOL    HW116697   1.237   6.582   1.415
 5266SOL    HW216698   1.135   6.565   1.288
 5267SOL     OW16699   3.507   3.305   4.769
 5267SOL    HW116700   3.606   3.290   4.772
 5267SOL    HW216701   3.488   3.395   4.730
 5268SOL     OW16702   5.788   4.232   6.504
 5268SOL    HW116703   5.714   4.165   6.504
 5268SOL    HW216704   5.756   4.318   6.544
 5269SOL     OW16705   2.743   4.982   5.548
 5269SOL    HW116706   2.676   4.932   5.492
 5269SOL    HW216707   2.752   5.075   5.513
 5270SOL     OW16708   0.154   1.101   2.758
 5270SOL    HW116709   0.152   1.052   2.845
 5270SOL    HW216710   0.116   1.043   2.686
 5271SOL     OW16711   5.734   3.883   4.842
 5271SOL    HW116712   5.724   3.866   4.940
 5271SOL    HW216713   5.830   3.871   4.816
 5272SOL     OW16714   2.111   2.455   3.463
 5272SOL    HW116715   2.177   2.524   3.492
 5272SOL    HW216716   2.075   2.479   3.373
 5273SOL     OW16717   6.951   0.921   5.506
 5273SOL    HW116718   6.975   0.933   5.602
 5273SOL    HW216719   6.857   0.951   5.491
 5274SOL     OW16720   0.630   5.012   5.034
 5274SOL    HW116721   0.559   5.082   5.038
 5274SOL    HW216722   0.597   4.935   4.980
 5275SOL     OW16723   2.244   6.379   6.715
 5275SOL    HW116724   2.300   6.297   6.730
 5275SOL    HW216725   2.150   6.352   6.696
 5276SOL     OW16726   0.045   0.849   6.950
 5276SOL    HW116727   6.977   0.896   6.945
 5276SOL    HW216728   0.118   0.915   6.931
 5277SOL     OW16729   0.966   0.852   1.133
 5277SOL    HW116730   0.866   0.843   1.136
 5277SOL    HW216731   0.992   0.941   1.170
 5278SOL     OW16732   6.990   4.807   6.811
 5278SOL    HW116733   6.983   4.822   6.712
 5278SOL    HW216734   0.039   4.736   6.828
 5279SOL     OW16735   2.556   6.264   0.151
 5279SOL    HW116736   2.576   6.362   0.149
 5279SOL    HW216737   2.629   6.216   0.200
 5280SOL     OW16738   4.844   6.380   6.002
 5280SOL    HW116739   4.793   6.300   6.035
 5280SOL    HW216740   4.934   6.351   5.971
 5281SOL     OW16741   2.224   6.248   4.551
 5281SOL    HW116742   2.254   6.342   4.568
 5281SOL    HW216743   2.145   6.248   4.490
 5282SOL     OW16744   6.550   6.026   1.178
 5282SOL    HW116745   6.571   5.998   1.085
 5282SOL    HW216746   6.452   6.046   1.185
 5283SOL     OW16747   1.618   0.426   4.209
 5283SOL    HW116748   1.535   0.379   4.178
 5283SOL    HW216749   1.596   0.521   4.231
 5284SOL     OW16750   4.915   3.227   1.873
 5284SOL    HW116751   4.973   3.263   1.946
 5284SOL    HW216752   4.848   3.164   1.912
 5285SOL     OW16753   2.192   1.325   4.150
 5285SOL    HW116754   2.208   1.232   4.115
 5285SOL    HW216755   2.211   1.391   4.078
 5286SOL     OW16756   0.399   2.869   1.743
 5286SOL    HW116757   0.405   2.852   1.841
 5286SOL    HW216758   0.311   2.912   1.722
 5287SOL     OW16759   0.149   5.803   2.123
 5287SOL    HW116760   0.075   5.867   2.104
 5287SOL    HW216761   0.115   5.729   2.181
 5288SOL     OW16762   4.136   0.662   1.680
 5288SOL    HW116763   4.109   0.611   1.598
 5288SOL    HW216764   4.134   0.601   1.759
 5289SOL     OW16765   1.252   5.257   6.637
 5289SOL    HW116766   1.266   5.306   6.723
 5289SOL    HW216767   1.287   5.164   6.646
 5290SOL     OW16768   2.018   2.464   5.360
 5290SOL    HW116769   1.991   2.374   5.393
 5290SOL    HW216770   2.082   2.454   5.284
 5291SOL     OW16771   2.924   6.308   4.536
 5291SOL    HW116772   2.970   6.274   4.618
 5291SOL    HW216773   2.919   6.408   4.539
 5292SOL     OW16774   0.811   4.236   4.281
 5292SOL    HW116775   0.774   4.171   4.347
 5292SOL    HW216776   0.900   4.269   4.312
 5293SOL     OW16777   2.522   0.555   3.627
 5293SOL    HW116778   2.547   0.565   3.531
 5293SOL    HW216779   2.442   0.612   3.646
 5294SOL     OW16780   5.148   0.158   4.156
 5294SOL    HW116781   5.087   0.079   4.154
 5294SOL    HW216782   5.180   0.179   4.064
 5295SOL     OW16783   2.010   0.160   1.173
 5295SOL    HW116784   2.009   0.092   1.246
 5295SOL    HW216785   2.102   0.199   1.165
 5296SOL     OW16786   4.702   5.014   2.035
 5296SOL    HW116787   4.765   4.938   2.017
 5296SOL    HW216788   4.707   5.080   1.960
 5297SOL     OW16789   3.636   5.018   5.930
 5297SOL    HW116790   3.604   5.108   5.901
 5297SOL    HW216791   3.663   5.022   6.026
 5298SOL     OW16792   3.533   0.967   6.986
 5298SOL    HW116793   3.601   0.905   0.004
 5298SOL    HW216794   3.454   0.914   6.954
 5299SOL     OW16795   1.620   0.146   1.157
 5299SOL    HW116796   1.568   0.169   1.239
 5299SOL    HW216797   1.679   0.068   1.175
 5300SOL     OW16798   2.772   4.952   6.759
 5300SOL    HW116799   2.736   4.864   6.726
 5300SOL    HW216800   2.769   5.019   6.686
 5301SOL     OW16801   6.269   0.111   5.730
 5301SOL    HW116802   6.311   0.057   5.656
 5301SOL    HW216803   6.238   0.049   5.802
 5302SOL     OW16804   4.896   5.772   3.430
 5302SOL    HW116805   4.867   5.698   3.370
 5302SOL    HW216806   4.990   5.757   3.459
 5303SOL     OW16807   1.818   6.427   5.130
 5303SOL    HW116808   1.754   6.452   5.202
 5303SOL    HW216809   1.883   6.359   5.165
 5304SOL     OW16810   0.495   0.202   3.263
 5304SOL    HW116811   0.433   0.179   3.187
 5304SOL    HW216812   0.531   0.118   3.303
 5305SOL     OW16813   6.371   5.433   4.639
 5305SOL    HW116814   6.336   5.459   4.729
 5305SOL    HW216815   6.363   5.334   4.627
 5306SOL     OW16816   0.594   1.703   6.469
 5306SOL    HW116817   0.509   1.720   6.519
 5306SOL    HW216818   0.647   1.632   6.516
 5307SOL     OW16819   1.014   1.161   1.507
 5307SOL    HW116820   0.926   1.208   1.499
 5307SOL    HW216821   1.079   1.220   1.555
 5308SOL     OW16822   2.263   4.571   3.238
 5308SOL    HW116823   2.195   4.502   3.262
 5308SOL    HW216824   2.232   4.661   3.269
 5309SOL     OW16825   6.329   6.135   2.868
 5309SOL    HW116826   6.332   6.143   2.768
 5309SOL    HW216827   6.421   6.142   2.905
 5310SOL     OW16828   6.245   2.067   3.647
 5310SOL    HW116829   6.297   1.983   3.653
 5310SOL    HW216830   6.166   2.062   3.710
 5311SOL     OW16831   6.084   0.306   0.219
 5311SOL    HW116832   6.125   0.256   0.143
 5311SOL    HW216833   5.997   0.346   0.190
 5312SOL     OW16834   5.294   6.394   1.187
 5312SOL    HW116835   5.340   6.361   1.269
 5312SOL    HW216836   5.309   6.492   1.177
 5313SOL     OW16837   0.786   6.739   5.377
 5313SOL    HW116838   0.763   6.655   5.327
 5313SOL    HW216839   0.755   6.730   5.472
 5314SOL     OW16840   5.634   1.799   2.446
 5314SOL    HW116841   5.676   1.708   2.456
 5314SOL    HW216842   5.705   1.869   2.449
 5315SOL     OW16843   4.316   1.769   3.616
 5315SOL    HW116844   4.381   1.836   3.654
 5315SOL    HW216845   4.225   1.787   3.653
 5316SOL     OW16846   0.263   3.048   5.234
 5316SOL    HW116847   0.306   2.958   5.223
 5316SOL    HW216848   0.285   3.105   5.154
 5317SOL     OW16849   5.579   2.838   1.655
 5317SOL    HW116850   5.502   2.899   1.635
 5317SOL    HW216851   5.590   2.831   1.754
 5318SOL     OW16852   6.960   4.749   6.132
 5318SOL    HW116853   6.914   4.665   6.102
 5318SOL    HW216854   6.988   4.739   6.227
 5319SOL     OW16855   4.199   5.610   2.415
 5319SOL    HW116856   4.176   5.679   2.346
 5319SOL    HW216857   4.241   5.656   2.494
 5320SOL     OW16858   4.605   6.056   0.144
 5320SOL    HW116859   4.629   5.976   0.089
 5320SOL    HW216860   4.506   6.066   0.147
 5321SOL     OW16861   1.652   4.144   5.181
 5321SOL    HW116862   1.661   4.242   5.164
 5321SOL    HW216863   1.729   4.096   5.139
 5322SOL     OW16864   4.471   5.771   1.744
 5322SOL    HW116865   4.421   5.749   1.828
 5322SOL    HW216866   4.428   5.848   1.698
 5323SOL     OW16867   3.807   0.150   6.123
 5323SOL    HW116868   3.737   0.081   6.104
 5323SOL    HW216869   3.897   0.111   6.106
 5324SOL     OW16870   0.906   0.923   1.804
 5324SOL    HW116871   0.886   0.946   1.709
 5324SOL    HW216872   0.934   1.005   1.854
 5325SOL     OW16873   2.067   2.992   4.197
 5325SOL    HW116874   2.013   2.943   4.129
 5325SOL    HW216875   2.138   2.932   4.233
 5326SOL     OW16876   6.039   0.325   1.139
 5326SOL    HW116877   5.976   0.250   1.122
 5326SOL    HW216878   6.133   0.293   1.127
 5327SOL     OW16879   0.156   2.158   6.201
 5327SOL    HW116880   0.163   2.071   6.151
 5327SOL    HW216881   0.230   2.164   6.267
 5328SOL     OW16882   3.437   5.192   0.771
 5328SOL    HW116883   3.444   5.252   0.851
 5328SOL    HW216884   3.529   5.165   0.742
 5329SOL     OW16885   2.384   5.862   6.166
 5329SOL    HW116886   2.336   5.777   6.140
 5329SOL    HW216887   2.380   5.872   6.266
 5330SOL     OW16888   2.538   5.343   0.713
 5330SOL    HW116889   2.534   5.325   0.811
 5330SOL    HW216890   2.554   5.441   0.697
 5331SOL     OW16891   6.222   1.495   6.806
 5331SOL    HW116892   6.240   1.536   6.716
 5331SOL    HW216893   6.146   1.430   6.798
 5332SOL     OW16894   1.091   4.885   2.446
 5332SOL    HW116895   1.178   4.869   2.492
 5332SOL    HW216896   1.090   4.838   2.357
 5333SOL     OW16897   0.842   6.444   4.360
 5333SOL    HW116898   0.875   6.535   4.386
 5333SOL    HW216899   0.757   6.425   4.409
 5334SOL     OW16900   3.047   6.767   5.394
 5334SOL    HW116901   3.010   6.723   5.312
 5334SOL    HW216902   2.972   6.806   5.447
 5335SOL     OW16903   5.936   6.747   0.894
 5335SOL    HW116904   5.971   6.830   0.937
 5335SOL    HW216905   5.947   6.754   0.795
 5336SOL     OW16906   1.230   3.744   1.374
 5336SOL    HW116907   1.194   3.750   1.281
 5336SOL    HW216908   1.322   3.784   1.376
 5337SOL     OW16909   5.489   5.065   1.711
 5337SOL    HW116910   5.499   4.967   1.723
 5337SOL    HW216911   5.579   5.108   1.705
 5338SOL     OW16912   5.329   2.743   0.980
 5338SOL    HW116913   5.307   2.658   1.029
 5338SOL    HW216914   5.333   2.819   1.045
 5339SOL     OW16915   6.117   0.431   1.988
 5339SOL    HW116916   6.104   0.508   2.050
 5339SOL    HW216917   6.205   0.388   2.006
 5340SOL     OW16918   4.906   2.430   0.252
 5340SOL    HW116919   4.959   2.503   0.295
 5340SOL    HW216920   4.821   2.416   0.303
 5341SOL     OW16921   4.143   0.509   1.077
 5341SOL    HW116922   4.180   0.599   1.104
 5341SOL    HW216923   4.130   0.507   0.978
 5342SOL     OW16924   2.181   0.087   6.152
 5342SOL    HW116925   2.123   0.027   6.207
 5342SOL    HW216926   2.158   0.183   6.172
 5343SOL     OW16927   2.813   3.974   1.343
 5343SOL    HW116928   2.906   3.945   1.364
 5343SOL    HW216929   2.771   3.908   1.281
 5344SOL     OW16930   2.091   2.595   2.915
 5344SOL    HW116931   2.090   2.499   2.886
 5344SOL    HW216932   1.998   2.629   2.924
 5345SOL     OW16933   5.291   0.661   3.295
 5345SOL    HW116934   5.381   0.656   3.339
 5345SOL    HW216935   5.280   0.584   3.233
 5346SOL     OW16936   3.480   0.725   4.078
 5346SOL    HW116937   3.461   0.822   4.091
 5346SOL    HW216938   3.425   0.670   4.140
 5347SOL     OW16939   6.898   1.148   2.308
 5347SOL    HW116940   6.862   1.182   2.395
 5347SOL    HW216941   6.932   1.225   2.253
 5348SOL     OW16942   6.454   2.187   0.078
 5348SOL    HW116943   6.553   2.172   0.075
 5348SOL    HW216944   6.412   2.119   0.138
 5349SOL     OW16945   5.190   0.778   0.505
 5349SOL    HW116946   5.244   0.856   0.474
 5349SOL    HW216947   5.093   0.802   0.501
 5350SOL     OW16948   2.939   0.816   6.695
 5350SOL    HW116949   3.038   0.807   6.694
 5350SOL    HW216950   2.912   0.872   6.774
 5351SOL     OW16951   4.597   1.428   2.394
 5351SOL    HW116952   4.618   1.364   2.468
 5351SOL    HW216953   4.536   1.384   2.328
 5352SOL     OW16954   3.721   0.648   3.956
 5352SOL    HW116955   3.654   0.698   4.011
 5352SOL    HW216956   3.681   0.625   3.868
 5353SOL     OW16957   6.323   0.114   6.162
 5353SOL    HW116958   6.285   0.113   6.070
 5353SOL    HW216959   6.261   0.161   6.224
 5354SOL     OW16960   0.663   2.932   1.631
 5354SOL    HW116961   0.573   2.961   1.662
 5354SOL    HW216962   0.654   2.880   1.546
 5355SOL     OW16963   4.791   1.323   5.683
 5355SOL    HW116964   4.707   1.316   5.630
 5355SOL    HW216965   4.845   1.239   5.672
 5356SOL     OW16966   6.858   3.783   1.696
 5356SOL    HW116967   6.893   3.714   1.633
 5356SOL    HW216968   6.769   3.815   1.665
 5357SOL     OW16969   4.049   5.397   0.179
 5357SOL    HW116970   4.010   5.444   0.099
 5357SOL    HW216971   4.089   5.310   0.150
 5358SOL     OW16972   5.455   4.407   1.401
 5358SOL    HW116973   5.407   4.340   1.457
 5358SOL    HW216974   5.476   4.488   1.457
 5359SOL     OW16975   3.287   0.402   5.589
 5359SOL    HW116976   3.347   0.360   5.656
 5359SOL    HW216977   3.207   0.344   5.574
 5360SOL     OW16978   4.146   2.201   0.440
 5360SOL    HW116979   4.204   2.249   0.505
 5360SOL    HW216980   4.202   2.147   0.378
 5361SOL     OW16981   0.439   1.427   6.749
 5361SOL    HW116982   0.341   1.448   6.757
 5361SOL    HW216983   0.467   1.370   6.825
 5362SOL     OW16984   4.377   6.093   3.929
 5362SOL    HW116985   4.321   6.161   3.883
 5362SOL    HW216986   4.415   6.029   3.862
 5363SOL     OW16987   0.680   5.811   4.677
 5363SOL    HW116988   0.614   5.817   4.602
 5363SOL    HW216989   0.655   5.735   4.737
 5364SOL     OW16990   0.838   5.914   6.701
 5364SOL    HW116991   0.838   5.817   6.676
 5364SOL    HW216992   0.853   5.970   6.619
 5365SOL     OW16993   3.889   2.395   6.037
 5365SOL    HW116994   3.861   2.312   6.084
 5365SOL    HW216995   3.978   2.380   5.992
 5366SOL     OW16996   3.961   4.044   5.690
 5366SOL    HW116997   3.984   3.990   5.771
 5366SOL    HW216998   3.964   3.986   5.609
 5367SOL     OW16999   0.516   3.914   0.884
 5367SOL    HW117000   0.520   4.014   0.879
 5367SOL    HW217001   0.420   3.884   0.879
 5368SOL     OW17002   0.475   6.913   3.571
 5368SOL    HW117003   0.532   6.936   3.492
 5368SOL    HW217004   0.409   6.986   3.587
 5369SOL     OW17005   1.809   3.600   2.468
 5369SOL    HW117006   1.846   3.531   2.405
 5369SOL    HW217007   1.749   3.662   2.417
 5370SOL     OW17008   3.677   2.861   1.994
 5370SOL    HW117009   3.733   2.916   2.056
 5370SOL    HW217010   3.686   2.764   2.018
 5371SOL     OW17011   2.273   4.305   4.943
 5371SOL    HW117012   2.273   4.372   5.017
 5371SOL    HW217013   2.284   4.213   4.981
 5372SOL     OW17014   3.763   6.468   2.404
 5372SOL    HW117015   3.683   6.431   2.451
 5372SOL    HW217016   3.754   6.453   2.305
 5373SOL     OW17017   2.626   4.983   3.930
 5373SOL    HW117018   2.578   5.008   3.845
 5373SOL    HW217019   2.720   4.955   3.908
 5374SOL     OW17020   3.348   2.249   0.645
 5374SOL    HW117021   3.257   2.285   0.661
 5374SOL    HW217022   3.398   2.245   0.732
 5375SOL     OW17023   1.654   4.306   4.588
 5375SOL    HW117024   1.561   4.343   4.586
 5375SOL    HW217025   1.688   4.297   4.494
 5376SOL     OW17026   3.218   5.020   6.340
 5376SOL    HW117027   3.173   4.943   6.293
 5376SOL    HW217028   3.245   4.991   6.432
 5377SOL     OW17029   1.069   2.105   1.638
 5377SOL    HW117030   1.065   2.204   1.652
 5377SOL    HW217031   0.976   2.067   1.640
 5378SOL     OW17032   5.002   6.940   6.630
 5378SOL    HW117033   4.993   6.938   6.730
 5378SOL    HW217034   5.029   0.011   6.601
 5379SOL     OW17035   6.997   0.294   0.135
 5379SOL    HW117036   6.940   0.359   0.084
 5379SOL    HW217037   6.986   0.202   0.095
 5380SOL     OW17038   1.995   1.516   4.927
 5380SOL    HW117039   2.035   1.606   4.941
 5380SOL    HW217040   1.952   1.513   4.837
 5381SOL     OW17041   5.879   3.825   1.983
 5381SOL    HW117042   5.788   3.829   2.024
 5381SOL    HW217043   5.948   3.830   2.056
 5382SOL     OW17044   2.379   6.206   1.438
 5382SOL    HW117045   2.284   6.195   1.410
 5382SOL    HW217046   2.386   6.278   1.508
 5383SOL     OW17047   2.276   2.422   4.915
 5383SOL    HW117048   2.262   2.335   4.868
 5383SOL    HW217049   2.372   2.430   4.943
 5384SOL     OW17050   5.476   6.669   5.017
 5384SOL    HW117051   5.467   6.767   5.000
 5384SOL    HW217052   5.425   6.618   4.948
 5385SOL     OW17053   3.425   4.097   2.399
 5385SOL    HW117054   3.397   4.121   2.306
 5385SOL    HW217055   3.344   4.094   2.458
 5386SOL     OW17056   5.673   6.185   5.662
 5386SOL    HW117057   5.751   6.238   5.696
 5386SOL    HW217058   5.664   6.101   5.716
 5387SOL     OW17059   4.282   4.959   0.470
 5387SOL    HW117060   4.269   4.912   0.558
 5387SOL    HW217061   4.251   5.054   0.478
 5388SOL     OW17062   5.800   5.590   3.465
 5388SOL    HW117063   5.728   5.540   3.513
 5388SOL    HW217064   5.885   5.583   3.517
 5389SOL     OW17065   5.677   3.397   1.449
 5389SOL    HW117066   5.737   3.321   1.474
 5389SOL    HW217067   5.646   3.443   1.532
 5390SOL     OW17068   6.584   4.975   6.792
 5390SOL    HW117069   6.627   4.981   6.702
 5390SOL    HW217070   6.612   4.890   6.837
 5391SOL     OW17071   3.189   5.125   6.963
 5391SOL    HW117072   3.181   5.223   6.950
 5391SOL    HW217073   3.132   5.077   6.896
 5392SOL     OW17074   0.696   2.370   3.128
 5392SOL    HW117075   0.729   2.373   3.222
 5392SOL    HW217076   0.757   2.422   3.069
 5393SOL     OW17077   6.528   0.291   6.252
 5393SOL    HW117078   6.458   0.219   6.254
 5393SOL    HW217079   6.523   0.345   6.336
 5394SOL     OW17080   2.258   3.781   6.310
 5394SOL    HW117081   2.312   3.854   6.266
 5394SOL    HW217082   2.293   3.692   6.280
 5395SOL     OW17083   4.701   0.487   1.671
 5395SOL    HW117084   4.631   0.447   1.730
 5395SOL    HW217085   4.780   0.425   1.665
 5396SOL     OW17086   4.534   2.066   1.143
 5396SOL    HW117087   4.554   1.976   1.102
 5396SOL    HW217088   4.538   2.059   1.242
 5397SOL     OW17089   1.302   2.133   1.777
 5397SOL    HW117090   1.281   2.124   1.874
 5397SOL    HW217091   1.218   2.125   1.724
 5398SOL     OW17092   3.076   3.521   2.274
 5398SOL    HW117093   3.037   3.488   2.188
 5398SOL    HW217094   3.020   3.490   2.351
 5399SOL     OW17095   0.415   5.274   0.353
 5399SOL    HW117096   0.503   5.318   0.340
 5399SOL    HW217097   0.420   5.179   0.321
 5400SOL     OW17098   2.575   3.938   6.939
 5400SOL    HW117099   2.645   3.880   6.898
 5400SOL    HW217100   2.584   4.031   6.903
 5401SOL     OW17101   6.139   1.556   0.897
 5401SOL    HW117102   6.191   1.613   0.834
 5401SOL    HW217103   6.202   1.497   0.948
 5402SOL     OW17104   0.679   5.902   1.886
 5402SOL    HW117105   0.745   5.875   1.955
 5402SOL    HW217106   0.635   5.820   1.848
 5403SOL     OW17107   0.455   2.400   6.060
 5403SOL    HW117108   0.463   2.305   6.090
 5403SOL    HW217109   0.359   2.428   6.064
 5404SOL     OW17110   0.523   2.404   2.909
 5404SOL    HW117111   0.560   2.354   2.831
 5404SOL    HW217112   0.587   2.397   2.986
 5405SOL     OW17113   6.340   4.065   4.930
 5405SOL    HW117114   6.284   4.148   4.934
 5405SOL    HW217115   6.396   4.059   5.013
 5406SOL     OW17116   2.200   0.057   3.078
 5406SOL    HW117117   2.288   0.097   3.103
 5406SOL    HW217118   2.198   0.037   2.980
 5407SOL     OW17119   4.001   3.006   6.434
 5407SOL    HW117120   3.926   3.029   6.372
 5407SOL    HW217121   4.082   2.981   6.380
 5408SOL     OW17122   4.609   1.158   6.841
 5408SOL    HW117123   4.570   1.123   6.927
 5408SOL    HW217124   4.553   1.126   6.764
 5409SOL     OW17125   4.399   0.573   1.830
 5409SOL    HW117126   4.474   0.626   1.870
 5409SOL    HW217127   4.432   0.483   1.803
 5410SOL     OW17128   1.683   2.720   2.793
 5410SOL    HW117129   1.747   2.716   2.717
 5410SOL    HW217130   1.733   2.735   2.878
 5411SOL     OW17131   3.136   5.062   5.034
 5411SOL    HW117132   3.225   5.018   5.025
 5411SOL    HW217133   3.069   5.011   4.979
 5412SOL     OW17134   6.675   1.748   2.502
 5412SOL    HW117135   6.752   1.804   2.470
 5412SOL    HW217136   6.710   1.666   2.546
 5413SOL     OW17137   1.471   6.596   2.158
 5413SOL    HW117138   1.526   6.680   2.165
 5413SOL    HW217139   1.507   6.527   2.221
 5414SOL     OW17140   4.401   0.220   5.868
 5414SOL    HW117141   4.338   0.150   5.835
 5414SOL    HW217142   4.404   0.218   5.968
 5415SOL     OW17143   6.379   3.563   2.956
 5415SOL    HW117144   6.331   3.479   2.932
 5415SOL    HW217145   6.335   3.641   2.911
 5416SOL     OW17146   4.073   5.081   4.557
 5416SOL    HW117147   4.027   5.137   4.488
 5416SOL    HW217148   4.080   4.987   4.524
 5417SOL     OW17149   2.708   6.682   5.690
 5417SOL    HW117150   2.796   6.730   5.695
 5417SOL    HW217151   2.668   6.676   5.781
 5418SOL     OW17152   3.457   1.493   3.312
 5418SOL    HW117153   3.515   1.441   3.374
 5418SOL    HW217154   3.512   1.559   3.261
 5419SOL     OW17155   3.269   4.574   0.233
 5419SOL    HW117156   3.348   4.625   0.269
 5419SOL    HW217157   3.287   4.476   0.238
 5420SOL     OW17158   1.247   2.338   2.623
 5420SOL    HW117159   1.307   2.406   2.581
 5420SOL    HW217160   1.176   2.311   2.557
 5421SOL     OW17161   2.566   2.937   0.750
 5421SOL    HW117162   2.633   2.863   0.738
 5421SOL    HW217163   2.563   2.992   0.667
 5422SOL     OW17164   0.741   3.180   0.127
 5422SOL    HW117165   0.652   3.141   0.104
 5422SOL    HW217166   0.732   3.278   0.143
 5423SOL     OW17167   3.855   3.302   5.604
 5423SOL    HW117168   3.877   3.365   5.679
 5423SOL    HW217169   3.881   3.209   5.629
 5424SOL     OW17170   5.661   3.275   5.257
 5424SOL    HW117171   5.676   3.320   5.345
 5424SOL    HW217172   5.566   3.242   5.252
 5425SOL     OW17173   5.169   1.664   5.015
 5425SOL    HW117174   5.102   1.610   4.963
 5425SOL    HW217175   5.200   1.612   5.094
 5426SOL     OW17176   0.544   0.114   4.549
 5426SOL    HW117177   0.557   0.098   4.646
 5426SOL    HW217178   0.449   0.095   4.524
 5427SOL     OW17179   4.049   6.802   0.205
 5427SOL    HW117180   4.105   6.767   0.130
 5427SOL    HW217181   3.953   6.783   0.186
 5428SOL     OW17182   1.928   0.273   0.493
 5428SOL    HW117183   1.869   0.350   0.519
 5428SOL    HW217184   1.892   0.189   0.535
 5429SOL     OW17185   1.008   2.396   5.970
 5429SOL    HW117186   0.981   2.483   6.011
 5429SOL    HW217187   1.071   2.412   5.894
 5430SOL     OW17188   2.342   2.667   5.249
 5430SOL    HW117189   2.322   2.569   5.248
 5430SOL    HW217190   2.323   2.706   5.159
 5431SOL     OW17191   2.989   5.404   4.274
 5431SOL    HW117192   3.022   5.329   4.216
 5431SOL    HW217193   2.945   5.366   4.355
 5432SOL     OW17194   6.239   4.152   0.831
 5432SOL    HW117195   6.315   4.191   0.779
 5432SOL    HW217196   6.226   4.205   0.915
 5433SOL     OW17197   1.755   1.702   3.541
 5433SOL    HW117198   1.743   1.614   3.494
 5433SOL    HW217199   1.666   1.743   3.560
 5434SOL     OW17200   1.943   6.257   5.288
 5434SOL    HW117201   1.927   6.164   5.318
 5434SOL    HW217202   1.994   6.307   5.359
 5435SOL     OW17203   4.445   2.107   1.892
 5435SOL    HW117204   4.394   2.084   1.975
 5435SOL    HW217205   4.439   2.031   1.827
 5436SOL     OW17206   5.470   4.080   3.555
 5436SOL    HW117207   5.457   3.990   3.515
 5436SOL    HW217208   5.394   4.139   3.529
 5437SOL     OW17209   3.457   4.874   6.228
 5437SOL    HW117210   3.425   4.969   6.223
 5437SOL    HW217211   3.557   4.873   6.221
 5438SOL     OW17212   6.555   1.349   0.345
 5438SOL    HW117213   6.497   1.380   0.269
 5438SOL    HW217214   6.625   1.418   0.364
 5439SOL     OW17215   1.732   2.304   0.683
 5439SOL    HW117216   1.668   2.246   0.733
 5439SOL    HW217217   1.683   2.351   0.609
 5440SOL     OW17218   2.122   0.551   0.767
 5440SOL    HW117219   2.169   0.539   0.679
 5440SOL    HW217220   2.070   0.469   0.789
 5441SOL     OW17221   3.712   1.717   5.206
 5441SOL    HW117222   3.716   1.781   5.129
 5441SOL    HW217223   3.662   1.758   5.282
 5442SOL     OW17224   3.992   1.158   1.772
 5442SOL    HW117225   3.963   1.108   1.691
 5442SOL    HW217226   4.080   1.203   1.754
 5443SOL     OW17227   0.752   6.438   5.350
 5443SOL    HW117228   0.782   6.384   5.272
 5443SOL    HW217229   0.821   6.434   5.422
 5444SOL     OW17230   0.484   0.647   3.769
 5444SOL    HW117231   0.544   0.716   3.730
 5444SOL    HW217232   0.398   0.645   3.718
 5445SOL     OW17233   5.770   3.285   2.128
 5445SOL    HW117234   5.802   3.190   2.123
 5445SOL    HW217235   5.843   3.345   2.095
 5446SOL     OW17236   6.538   6.500   5.802
 5446SOL    HW117237   6.625   6.488   5.850
 5446SOL    HW217238   6.463   6.498   5.868
 5447SOL     OW17239   3.486   2.667   1.350
 5447SOL    HW117240   3.548   2.618   1.288
 5447SOL    HW217241   3.391   2.655   1.319
 5448SOL     OW17242   5.238   1.699   6.437
 5448SOL    HW117243   5.268   1.715   6.531
 5448SOL    HW217244   5.280   1.767   6.377
 5449SOL     OW17245   6.834   3.093   6.851
 5449SOL    HW117246   6.853   3.048   6.764
 5449SOL    HW217247   6.902   3.066   6.919
 5450SOL     OW17248   1.954   6.049   0.845
 5450SOL    HW117249   2.043   6.091   0.867
 5450SOL    HW217250   1.901   6.038   0.929
 5451SOL     OW17251   2.644   0.265   2.469
 5451SOL    HW117252   2.645   0.327   2.390
 5451SOL    HW217253   2.551   0.230   2.482
 5452SOL     OW17254   2.866   3.894   5.909
 5452SOL    HW117255   2.808   3.920   5.987
 5452SOL    HW217256   2.809   3.851   5.839
 5453SOL     OW17257   0.423   5.561   5.539
 5453SOL    HW117258   0.462   5.648   5.509
 5453SOL    HW217259   0.334   5.578   5.582
 5454SOL     OW17260   0.899   3.902   6.068
 5454SOL    HW117261   0.965   3.827   6.071
 5454SOL    HW217262   0.932   3.977   6.125
 5455SOL     OW17263   6.022   1.848   1.275
 5455SOL    HW117264   5.928   1.821   1.252
 5455SOL    HW217265   6.040   1.940   1.240
 5456SOL     OW17266   3.910   6.982   1.132
 5456SOL    HW117267   3.874   7.013   1.044
 5456SOL    HW217268   3.975   0.028   1.167
 5457SOL     OW17269   6.446   3.229   1.260
 5457SOL    HW117270   6.392   3.146   1.269
 5457SOL    HW217271   6.456   3.272   1.350
 5458SOL     OW17272   1.436   4.182   5.772
 5458SOL    HW117273   1.395   4.092   5.780
 5458SOL    HW217274   1.421   4.218   5.680
 5459SOL     OW17275   2.077   4.442   5.795
 5459SOL    HW117276   2.014   4.365   5.797
 5459SOL    HW217277   2.034   4.522   5.835
 5460SOL     OW17278   4.122   0.586   4.597
 5460SOL    HW117279   4.180   0.666   4.614
 5460SOL    HW217280   4.043   0.612   4.541
 5461SOL     OW17281   3.844   6.589   4.653
 5461SOL    HW117282   3.831   6.563   4.557
 5461SOL    HW217283   3.899   6.672   4.658
 5462SOL     OW17284   0.039   0.909   2.323
 5462SOL    HW117285   0.070   0.873   2.235
 5462SOL    HW217286   0.015   1.006   2.312
 5463SOL     OW17287   6.884   3.089   1.011
 5463SOL    HW117288   6.934   3.139   1.082
 5463SOL    HW217289   6.786   3.104   1.022
 5464SOL     OW17290   1.449   6.469   4.348
 5464SOL    HW117291   1.483   6.546   4.294
 5464SOL    HW217292   1.517   6.396   4.347
 5465SOL     OW17293   2.448   6.079   6.036
 5465SOL    HW117294   2.420   6.003   6.094
 5465SOL    HW217295   2.506   6.141   6.089
 5466SOL     OW17296   4.610   6.547   3.783
 5466SOL    HW117297   4.686   6.483   3.770
 5466SOL    HW217298   4.638   6.620   3.844
 5467SOL     OW17299   6.510   1.436   1.537
 5467SOL    HW117300   6.545   1.500   1.605
 5467SOL    HW217301   6.577   1.364   1.521
 5468SOL     OW17302   4.532   1.505   6.360
 5468SOL    HW117303   4.599   1.438   6.393
 5468SOL    HW217304   4.444   1.488   6.404
 5469SOL     OW17305   4.862   4.593   1.150
 5469SOL    HW117306   4.908   4.626   1.233
 5469SOL    HW217307   4.930   4.567   1.082
 5470SOL     OW17308   0.484   4.947   3.416
 5470SOL    HW117309   0.407   4.906   3.465
 5470SOL    HW217310   0.450   5.015   3.351
 5471SOL     OW17311   6.538   3.571   2.597
 5471SOL    HW117312   6.579   3.526   2.677
 5471SOL    HW217313   6.449   3.529   2.579
 5472SOL     OW17314   3.527   5.368   5.595
 5472SOL    HW117315   3.527   5.412   5.505
 5472SOL    HW217316   3.447   5.308   5.603
 5473SOL     OW17317   2.435   4.369   4.068
 5473SOL    HW117318   2.381   4.293   4.102
 5473SOL    HW217319   2.483   4.414   4.144
 5474SOL     OW17320   1.364   6.381   2.860
 5474SOL    HW117321   1.286   6.338   2.906
 5474SOL    HW217322   1.448   6.361   2.911
 5475SOL     OW17323   3.121   1.964   2.044
 5475SOL    HW117324   3.193   1.978   1.976
 5475SOL    HW217325   3.035   2.002   2.010
 5476SOL     OW17326   1.970   3.210   6.711
 5476SOL    HW117327   2.018   3.174   6.631
 5476SOL    HW217328   1.900   3.145   6.740
 5477SOL     OW17329   2.075   2.421   2.323
 5477SOL    HW117330   1.981   2.386   2.322
 5477SOL    HW217331   2.140   2.345   2.322
 5478SOL     OW17332   0.326   5.421   5.037
 5478SOL    HW117333   0.255   5.397   5.103
 5478SOL    HW217334   0.361   5.512   5.058
 5479SOL     OW17335   4.560   0.163   4.929
 5479SOL    HW117336   4.557   0.250   4.979
 5479SOL    HW217337   4.653   0.129   4.927
 5480SOL     OW17338   0.171   1.943   6.020
 5480SOL    HW117339   0.157   1.974   5.926
 5480SOL    HW217340   0.263   1.904   6.029
 5481SOL     OW17341   4.565   6.760   3.059
 5481SOL    HW117342   4.535   6.737   2.967
 5481SOL    HW217343   4.486   6.790   3.114
 5482SOL     OW17344   1.388   6.085   1.982
 5482SOL    HW117345   1.307   6.130   1.945
 5482SOL    HW217346   1.407   6.002   1.930
 5483SOL     OW17347   0.763   2.502   6.794
 5483SOL    HW117348   0.857   2.514   6.825
 5483SOL    HW217349   0.755   2.533   6.699
 5484SOL     OW17350   5.009   6.652   5.266
 5484SOL    HW117351   4.942   6.698   5.325
 5484SOL    HW217352   5.013   6.699   5.178
 5485SOL     OW17353   3.494   0.467   4.374
 5485SOL    HW117354   3.581   0.513   4.391
 5485SOL    HW217355   3.418   0.530   4.390
 5486SOL     OW17356   3.020   5.736   4.244
 5486SOL    HW117357   3.046   5.642   4.266
 5486SOL    HW217358   2.927   5.737   4.206
 5487SOL     OW17359   3.814   5.945   5.174
 5487SOL    HW117360   3.769   6.014   5.118
 5487SOL    HW217361   3.880   5.895   5.118
 5488SOL     OW17362   4.632   2.341   6.318
 5488SOL    HW117363   4.607   2.326   6.223
 5488SOL    HW217364   4.671   2.257   6.356
 5489SOL     OW17365   6.753   2.566   3.948
 5489SOL    HW117366   6.764   2.499   3.875
 5489SOL    HW217367   6.832   2.627   3.950
 5490SOL     OW17368   0.779   5.098   1.511
 5490SOL    HW117369   0.815   5.013   1.473
 5490SOL    HW217370   0.843   5.133   1.580
 5491SOL     OW17371   0.116   3.935   0.577
 5491SOL    HW117372   0.031   3.892   0.547
 5491SOL    HW217373   0.095   4.008   0.642
 5492SOL     OW17374   1.195   1.638   6.960
 5492SOL    HW117375   1.200   1.730   6.999
 5492SOL    HW217376   1.231   1.640   6.867
 5493SOL     OW17377   4.563   3.813   5.564
 5493SOL    HW117378   4.512   3.875   5.505
 5493SOL    HW217379   4.628   3.760   5.508
 5494SOL     OW17380   5.959   1.903   4.675
 5494SOL    HW117381   5.931   1.968   4.746
 5494SOL    HW217382   6.057   1.912   4.658
 5495SOL     OW17383   5.684   1.164   0.009
 5495SOL    HW117384   5.614   1.176   6.959
 5495SOL    HW217385   5.640   1.155   0.098
 5496SOL     OW17386   4.113   6.485   6.104
 5496SOL    HW117387   4.015   6.478   6.121
 5496SOL    HW217388   4.130   6.484   6.005
 5497SOL     OW17389   0.970   0.408   5.907
 5497SOL    HW117390   0.952   0.404   5.809
 5497SOL    HW217391   1.015   0.494   5.930
 5498SOL     OW17392   6.993   5.955   1.960
 5498SOL    HW117393   6.896   5.935   1.946
 5498SOL    HW217394   0.014   5.983   1.874
 5499SOL     OW17395   2.469   0.098   3.520
 5499SOL    HW117396   2.400   0.153   3.473
 5499SOL    HW217397   2.439   0.080   3.614
 5500SOL     OW17398   0.784   6.257   1.466
 5500SOL    HW117399   0.693   6.238   1.503
 5500SOL    HW217400   0.819   6.342   1.506
 5501SOL     OW17401   4.831   3.618   1.155
 5501SOL    HW117402   4.862   3.575   1.239
 5501SOL    HW217403   4.847   3.556   1.078
 5502SOL     OW17404   4.475   3.323   0.505
 5502SOL    HW117405   4.402   3.266   0.544
 5502SOL    HW217406   4.456   3.340   0.409
 5503SOL     OW17407   5.960   2.812   1.266
 5503SOL    HW117408   5.871   2.772   1.288
 5503SOL    HW217409   5.956   2.853   1.175
 5504SOL     OW17410   3.706   2.528   0.152
 5504SOL    HW117411   3.782   2.579   0.194
 5504SOL    HW217412   3.689   2.563   0.060
 5505SOL     OW17413   2.852   5.540   2.891
 5505SOL    HW117414   2.865   5.465   2.826
 5505SOL    HW217415   2.927   5.539   2.958
 5506SOL     OW17416   6.572   3.042   6.865
 5506SOL    HW117417   6.517   3.118   6.831
 5506SOL    HW217418   6.667   3.071   6.875
 5507SOL     OW17419   4.077   6.019   6.727
 5507SOL    HW117420   4.120   6.049   6.642
 5507SOL    HW217421   3.980   6.046   6.727
 5508SOL     OW17422   6.665   3.027   6.094
 5508SOL    HW117423   6.566   3.015   6.103
 5508SOL    HW217424   6.705   3.042   6.185
 5509SOL     OW17425   6.278   4.150   0.445
 5509SOL    HW117426   6.205   4.212   0.416
 5509SOL    HW217427   6.314   4.180   0.534
 5510SOL     OW17428   5.129   6.367   6.826
 5510SOL    HW117429   5.162   6.276   6.850
 5510SOL    HW217430   5.031   6.373   6.843
 5511SOL     OW17431   0.674   2.963   5.852
 5511SOL    HW117432   0.593   2.977   5.908
 5511SOL    HW217433   0.659   2.888   5.788
 5512SOL     OW17434   3.291   0.061   2.155
 5512SOL    HW117435   3.321   0.128   2.087
 5512SOL    HW217436   3.314   0.093   2.246
 5513SOL     OW17437   3.813   4.876   6.583
 5513SOL    HW117438   3.872   4.857   6.662
 5513SOL    HW217439   3.769   4.792   6.553
 5514SOL     OW17440   3.930   1.884   0.138
 5514SOL    HW117441   4.026   1.892   0.164
 5514SOL    HW217442   3.904   1.787   0.139
 5515SOL     OW17443   3.510   4.900   2.635
 5515SOL    HW117444   3.596   4.904   2.584
 5515SOL    HW217445   3.441   4.851   2.581
 5516SOL     OW17446   1.284   2.755   5.789
 5516SOL    HW117447   1.381   2.740   5.804
 5516SOL    HW217448   1.269   2.787   5.696
 5517SOL     OW17449   1.374   2.100   4.822
 5517SOL    HW117450   1.315   2.169   4.780
 5517SOL    HW217451   1.332   2.068   4.907
 5518SOL     OW17452   4.040   3.795   5.469
 5518SOL    HW117453   3.957   3.785   5.415
 5518SOL    HW217454   4.053   3.714   5.526
 5519SOL     OW17455   5.238   2.532   5.509
 5519SOL    HW117456   5.185   2.451   5.482
 5519SOL    HW217457   5.206   2.611   5.456
 5520SOL     OW17458   4.602   5.849   1.393
 5520SOL    HW117459   4.514   5.866   1.437
 5520SOL    HW217460   4.675   5.887   1.450
 5521SOL     OW17461   4.957   0.070   2.057
 5521SOL    HW117462   5.025   0.007   2.017
 5521SOL    HW217463   4.955   0.154   2.003
 5522SOL     OW17464   5.077   6.132   6.553
 5522SOL    HW117465   5.135   6.100   6.478
 5522SOL    HW217466   5.125   6.121   6.640
 5523SOL     OW17467   5.488   1.599   0.427
 5523SOL    HW117468   5.392   1.575   0.415
 5523SOL    HW217469   5.540   1.570   0.346
 5524SOL     OW17470   2.295   1.897   2.345
 5524SOL    HW117471   2.219   1.952   2.312
 5524SOL    HW217472   2.333   1.940   2.428
 5525SOL     OW17473   6.447   1.278   0.769
 5525SOL    HW117474   6.478   1.372   0.775
 5525SOL    HW217475   6.517   1.223   0.723
 5526SOL     OW17476   4.700   4.210   4.175
 5526SOL    HW117477   4.733   4.130   4.227
 5526SOL    HW217478   4.766   4.231   4.103
 5527SOL     OW17479   6.632   0.125   2.685
 5527SOL    HW117480   6.547   0.077   2.665
 5527SOL    HW217481   6.636   0.211   2.634
 5528SOL     OW17482   2.065   1.498   0.305
 5528SOL    HW117483   2.083   1.447   0.221
 5528SOL    HW217484   2.150   1.537   0.340
 5529SOL     OW17485   3.434   0.798   1.764
 5529SOL    HW117486   3.526   0.778   1.798
 5529SOL    HW217487   3.382   0.846   1.834
 5530SOL     OW17488   1.061   1.443   1.400
 5530SOL    HW117489   1.023   1.352   1.418
 5530SOL    HW217490   1.139   1.435   1.338
 5531SOL     OW17491   1.048   4.113   6.852
 5531SOL    HW117492   1.139   4.146   6.829
 5531SOL    HW217493   0.979   4.163   6.801
 5532SOL     OW17494   0.267   4.854   5.868
 5532SOL    HW117495   0.203   4.918   5.912
 5532SOL    HW217496   0.216   4.790   5.811
 5533SOL     OW17497   3.485   1.004   4.099
 5533SOL    HW117498   3.426   1.084   4.103
 5533SOL    HW217499   3.560   1.020   4.034
 5534SOL     OW17500   1.449   0.027   4.452
 5534SOL    HW117501   1.405   0.117   4.448
 5534SOL    HW217502   1.497   0.018   4.540
 5535SOL     OW17503   1.032   1.562   2.766
 5535SOL    HW117504   0.992   1.536   2.854
 5535SOL    HW217505   1.032   1.661   2.757
 5536SOL     OW17506   4.586   0.845   4.701
 5536SOL    HW117507   4.615   0.938   4.723
 5536SOL    HW217508   4.554   0.842   4.606
 5537SOL     OW17509   2.620   2.291   2.826
 5537SOL    HW117510   2.587   2.369   2.880
 5537SOL    HW217511   2.720   2.296   2.819
 5538SOL     OW17512   3.578   5.563   3.965
 5538SOL    HW117513   3.654   5.603   3.914
 5538SOL    HW217514   3.612   5.494   4.029
 5539SOL     OW17515   2.331   3.929   0.392
 5539SOL    HW117516   2.384   3.849   0.420
 5539SOL    HW217517   2.358   3.956   0.299
 5540SOL     OW17518   3.870   5.376   1.483
 5540SOL    HW117519   3.812   5.406   1.559
 5540SOL    HW217520   3.820   5.308   1.428
 5541SOL     OW17521   4.680   0.507   6.460
 5541SOL    HW117522   4.766   0.551   6.436
 5541SOL    HW217523   4.698   0.428   6.519
 5542SOL     OW17524   5.413   3.843   6.572
 5542SOL    HW117525   5.499   3.894   6.583
 5542SOL    HW217526   5.423   3.752   6.611
 5543SOL     OW17527   0.675   3.039   4.647
 5543SOL    HW117528   0.682   3.054   4.746
 5543SOL    HW217529   0.716   3.117   4.599
 5544SOL     OW17530   5.168   6.753   0.362
 5544SOL    HW117531   5.183   6.840   0.316
 5544SOL    HW217532   5.106   6.697   0.307
 5545SOL     OW17533   2.648   2.393   1.836
 5545SOL    HW117534   2.592   2.370   1.916
 5545SOL    HW217535   2.745   2.393   1.862
 5546SOL     OW17536   3.217   6.067   4.534
 5546SOL    HW117537   3.176   5.976   4.538
 5546SOL    HW217538   3.185   6.122   4.611
 5547SOL     OW17539   2.980   5.093   3.991
 5547SOL    HW117540   2.977   5.125   3.896
 5547SOL    HW217541   3.044   5.149   4.043
 5548SOL     OW17542   6.416   1.531   4.282
 5548SOL    HW117543   6.332   1.586   4.286
 5548SOL    HW217544   6.490   1.587   4.243
 5549SOL     OW17545   3.789   4.920   5.464
 5549SOL    HW117546   3.698   4.951   5.435
 5549SOL    HW217547   3.789   4.903   5.562
 5550SOL     OW17548   2.999   5.697   1.693
 5550SOL    HW117549   2.917   5.640   1.693
 5550SOL    HW217550   3.005   5.747   1.779
 5551SOL     OW17551   0.736   1.123   2.216
 5551SOL    HW117552   0.716   1.203   2.274
 5551SOL    HW217553   0.820   1.080   2.248
 5552SOL     OW17554   2.294   2.555   2.007
 5552SOL    HW117555   2.340   2.611   1.939
 5552SOL    HW217556   2.341   2.564   2.095
 5553SOL     OW17557   4.727   6.780   6.062
 5553SOL    HW117558   4.628   6.771   6.074
 5553SOL    HW217559   4.760   6.708   6.000
 5554SOL     OW17560   3.178   0.122   6.151
 5554SOL    HW117561   3.255   0.158   6.099
 5554SOL    HW217562   3.097   0.179   6.137
 5555SOL     OW17563   0.906   5.987   1.577
 5555SOL    HW117564   0.820   5.953   1.540
 5555SOL    HW217565   0.949   6.048   1.510
 5556SOL     OW17566   0.241   1.314   4.915
 5556SOL    HW117567   0.340   1.310   4.905
 5556SOL    HW217568   0.214   1.268   4.999
 5557SOL     OW17569   3.599   0.758   2.741
 5557SOL    HW117570   3.634   0.846   2.773
 5557SOL    HW217571   3.504   0.768   2.712
 5558SOL     OW17572   5.374   2.427   6.672
 5558SOL    HW117573   5.413   2.384   6.590
 5558SOL    HW217574   5.275   2.411   6.675
 5559SOL     OW17575   3.544   1.277   1.329
 5559SOL    HW117576   3.470   1.229   1.282
 5559SOL    HW217577   3.631   1.254   1.286
 5560SOL     OW17578   0.070   2.627   4.727
 5560SOL    HW117579   0.026   2.537   4.728
 5560SOL    HW217580   0.001   2.699   4.728
 5561SOL     OW17581   1.907   4.970   2.520
 5561SOL    HW117582   1.860   5.048   2.478
 5561SOL    HW217583   1.839   4.905   2.554
 5562SOL     OW17584   4.793   2.955   0.290
 5562SOL    HW117585   4.733   2.982   0.215
 5562SOL    HW217586   4.754   2.875   0.337
 5563SOL     OW17587   4.163   4.573   0.995
 5563SOL    HW117588   4.152   4.485   1.041
 5563SOL    HW217589   4.105   4.641   1.040
 5564SOL     OW17590   6.064   0.835   2.417
 5564SOL    HW117591   5.996   0.783   2.469
 5564SOL    HW217592   6.025   0.863   2.330
 5565SOL     OW17593   1.836   2.699   5.839
 5565SOL    HW117594   1.829   2.599   5.839
 5565SOL    HW217595   1.932   2.726   5.848
 5566SOL     OW17596   2.359   4.265   0.596
 5566SOL    HW117597   2.440   4.304   0.552
 5566SOL    HW217598   2.292   4.240   0.526
 5567SOL     OW17599   1.127   6.117   3.028
 5567SOL    HW117600   1.205   6.114   3.090
 5567SOL    HW217601   1.113   6.211   2.997
 5568SOL     OW17602   4.568   2.741   6.808
 5568SOL    HW117603   4.624   2.815   6.843
 5568SOL    HW217604   4.495   2.721   6.874
 5569SOL     OW17605   4.360   1.442   5.877
 5569SOL    HW117606   4.343   1.426   5.780
 5569SOL    HW217607   4.280   1.485   5.919
 5570SOL     OW17608   1.723   1.604   5.814
 5570SOL    HW117609   1.681   1.686   5.853
 5570SOL    HW217610   1.810   1.629   5.771
 5571SOL     OW17611   0.616   4.908   6.960
 5571SOL    HW117612   0.706   4.913   6.915
 5571SOL    HW217613   0.618   4.836   0.010
 5572SOL     OW17614   1.254   3.546   5.105
 5572SOL    HW117615   1.348   3.543   5.069
 5572SOL    HW217616   1.190   3.562   5.030
 5573SOL     OW17617   0.179   4.224   6.680
 5573SOL    HW117618   0.118   4.222   6.601
 5573SOL    HW217619   0.142   4.165   6.752
 5574SOL     OW17620   1.858   5.903   4.535
 5574SOL    HW117621   1.763   5.883   4.511
 5574SOL    HW217622   1.869   5.898   4.635
 5575SOL     OW17623   1.107   1.864   2.753
 5575SOL    HW117624   1.164   1.866   2.835
 5575SOL    HW217625   1.143   1.927   2.685
 5576SOL     OW17626   5.063   6.655   6.763
 5576SOL    HW117627   5.007   6.577   6.736
 5576SOL    HW217628   5.054   6.728   6.695
 5577SOL     OW17629   1.632   5.262   5.417
 5577SOL    HW117630   1.714   5.309   5.382
 5577SOL    HW217631   1.642   5.247   5.515
 5578SOL     OW17632   4.013   1.897   6.303
 5578SOL    HW117633   3.935   1.860   6.252
 5578SOL    HW217634   4.018   1.852   6.392
 5579SOL     OW17635   4.988   4.740   2.607
 5579SOL    HW117636   4.959   4.660   2.554
 5579SOL    HW217637   5.012   4.713   2.700
 5580SOL     OW17638   6.483   1.013   2.382
 5580SOL    HW117639   6.388   1.024   2.411
 5580SOL    HW217640   6.538   0.978   2.457
 5581SOL     OW17641   3.432   3.074   0.732
 5581SOL    HW117642   3.423   2.985   0.686
 5581SOL    HW217643   3.528   3.101   0.735
 5582SOL     OW17644   3.011   3.839   5.395
 5582SOL    HW117645   3.067   3.760   5.371
 5582SOL    HW217646   2.948   3.860   5.320
 5583SOL     OW17647   4.223   1.164   6.563
 5583SOL    HW117648   4.263   1.256   6.557
 5583SOL    HW217649   4.137   1.162   6.512
 5584SOL     OW17650   5.343   3.463   4.835
 5584SOL    HW117651   5.291   3.397   4.890
 5584SOL    HW217652   5.360   3.425   4.744
 5585SOL     OW17653   0.267   0.808   3.911
 5585SOL    HW117654   0.338   0.877   3.898
 5585SOL    HW217655   0.178   0.853   3.921
 5586SOL     OW17656   1.647   0.848   0.567
 5586SOL    HW117657   1.738   0.863   0.607
 5586SOL    HW217658   1.618   0.930   0.518
 5587SOL     OW17659   4.062   0.137   3.099
 5587SOL    HW117660   3.963   0.129   3.092
 5587SOL    HW217661   4.092   0.112   3.191
 5588SOL     OW17662   4.307   5.885   0.372
 5588SOL    HW117663   4.329   5.852   0.464
 5588SOL    HW217664   4.314   5.810   0.307
 5589SOL     OW17665   1.115   2.498   6.385
 5589SOL    HW117666   1.162   2.447   6.313
 5589SOL    HW217667   1.035   2.545   6.345
 5590SOL     OW17668   5.817   0.034   3.691
 5590SOL    HW117669   5.851   7.014   3.606
 5590SOL    HW217670   5.801   0.132   3.677
 5591SOL     OW17671   5.093   1.250   6.060
 5591SOL    HW117672   4.999   1.281   6.052
 5591SOL    HW217673   5.140   1.302   6.132
 5592SOL     OW17674   1.064   3.569   2.919
 5592SOL    HW117675   0.986   3.631   2.921
 5592SOL    HW217676   1.125   3.588   2.996
 5593SOL     OW17677   2.570   3.619   5.382
 5593SOL    HW117678   2.572   3.606   5.482
 5593SOL    HW217679   2.506   3.553   5.342
 5594SOL     OW17680   3.075   0.948   5.976
 5594SOL    HW117681   3.157   1.005   5.965
 5594SOL    HW217682   3.054   0.903   5.889
 5595SOL     OW17683   6.507   3.617   1.096
 5595SOL    HW117684   6.427   3.561   1.116
 5595SOL    HW217685   6.481   3.713   1.093
 5596SOL     OW17686   5.200   4.258   4.342
 5596SOL    HW117687   5.295   4.283   4.361
 5596SOL    HW217688   5.198   4.170   4.294
 5597SOL     OW17689   0.250   2.248   6.711
 5597SOL    HW117690   0.343   2.238   6.745
 5597SOL    HW217691   0.185   2.224   6.783
 5598SOL     OW17692   7.003   0.136   3.232
 5598SOL    HW117693   6.958   0.073   3.295
 5598SOL    HW217694   0.062   0.090   3.191
 5599SOL     OW17695   4.935   3.407   2.283
 5599SOL    HW117696   4.937   3.313   2.251
 5599SOL    HW217697   4.909   3.410   2.379
 5600SOL     OW17698   2.166   3.576   2.259
 5600SOL    HW117699   2.114   3.502   2.302
 5600SOL    HW217700   2.178   3.556   2.161
 5601SOL     OW17701   5.163   2.610   6.627
 5601SOL    HW117702   5.164   2.701   6.586
 5601SOL    HW217703   5.151   2.618   6.726
 5602SOL     OW17704   5.350   1.235   2.787
 5602SOL    HW117705   5.404   1.159   2.824
 5602SOL    HW217706   5.410   1.297   2.737
 5603SOL     OW17707   3.579   1.672   6.742
 5603SOL    HW117708   3.651   1.654   6.809
 5603SOL    HW217709   3.619   1.680   6.651
 5604SOL     OW17710   1.982   4.354   4.279
 5604SOL    HW117711   1.950   4.272   4.327
 5604SOL    HW217712   2.070   4.383   4.317
 5605SOL     OW17713   3.413   6.826   4.313
 5605SOL    HW117714   3.454   6.736   4.332
 5605SOL    HW217715   3.448   6.861   4.226
 5606SOL     OW17716   4.198   4.812   0.685
 5606SOL    HW117717   4.107   4.787   0.719
 5606SOL    HW217718   4.266   4.748   0.721
 5607SOL     OW17719   1.747   1.941   1.533
 5607SOL    HW117720   1.693   1.977   1.610
 5607SOL    HW217721   1.831   1.995   1.524
 5608SOL     OW17722   6.620   6.240   3.816
 5608SOL    HW117723   6.586   6.306   3.748
 5608SOL    HW217724   6.679   6.173   3.770
 5609SOL     OW17725   0.213   0.858   0.548
 5609SOL    HW117726   0.173   0.901   0.629
 5609SOL    HW217727   0.304   0.896   0.532
 5610SOL     OW17728   5.365   6.492   6.364
 5610SOL    HW117729   5.333   6.465   6.455
 5610SOL    HW217730   5.459   6.527   6.370
 5611SOL     OW17731   0.184   3.833   1.767
 5611SOL    HW117732   0.144   3.802   1.853
 5611SOL    HW217733   0.124   3.900   1.724
 5612SOL     OW17734   5.228   2.093   1.195
 5612SOL    HW117735   5.314   2.110   1.147
 5612SOL    HW217736   5.159   2.157   1.164
 5613SOL     OW17737   6.865   4.975   5.157
 5613SOL    HW117738   6.845   5.065   5.119
 5613SOL    HW217739   6.952   4.978   5.206
 5614SOL     OW17740   6.245   2.282   4.559
 5614SOL    HW117741   6.252   2.248   4.652
 5614SOL    HW217742   6.148   2.300   4.538
 5615SOL     OW17743   0.886   3.736   3.049
 5615SOL    HW117744   0.858   3.721   3.144
 5615SOL    HW217745   0.809   3.715   2.988
 5616SOL     OW17746   1.479   3.066   2.063
 5616SOL    HW117747   1.499   3.082   2.160
 5616SOL    HW217748   1.393   3.016   2.054
 5617SOL     OW17749   0.886   5.389   5.458
 5617SOL    HW117750   0.970   5.422   5.501
 5617SOL    HW217751   0.896   5.395   5.358
 5618SOL     OW17752   5.152   1.516   3.548
 5618SOL    HW117753   5.205   1.530   3.632
 5618SOL    HW217754   5.165   1.593   3.486
 5619SOL     OW17755   3.724   3.985   4.113
 5619SOL    HW117756   3.756   3.945   4.027
 5619SOL    HW217757   3.626   4.003   4.106
 5620SOL     OW17758   5.031   4.220   5.243
 5620SOL    HW117759   4.972   4.236   5.322
 5620SOL    HW217760   5.092   4.299   5.230
 5621SOL     OW17761   0.641   3.460   0.427
 5621SOL    HW117762   0.661   3.437   0.522
 5621SOL    HW217763   0.719   3.509   0.388
 5622SOL     OW17764   5.620   5.249   4.226
 5622SOL    HW117765   5.538   5.198   4.254
 5622SOL    HW217766   5.622   5.338   4.272
 5623SOL     OW17767   4.653   4.305   3.472
 5623SOL    HW117768   4.682   4.229   3.531
 5623SOL    HW217769   4.638   4.387   3.529
 5624SOL     OW17770   4.798   3.997   4.324
 5624SOL    HW117771   4.724   3.998   4.391
 5624SOL    HW217772   4.886   3.994   4.372
 5625SOL     OW17773   3.984   0.495   6.491
 5625SOL    HW117774   3.915   0.479   6.562
 5625SOL    HW217775   4.008   0.408   6.448
 5626SOL     OW17776   1.873   4.268   5.887
 5626SOL    HW117777   1.882   4.284   5.986
 5626SOL    HW217778   1.888   4.171   5.868
 5627SOL     OW17779   0.887   5.406   0.900
 5627SOL    HW117780   0.964   5.467   0.920
 5627SOL    HW217781   0.832   5.394   0.982
 5628SOL     OW17782   1.123   2.749   6.787
 5628SOL    HW117783   1.129   2.649   6.789
 5628SOL    HW217784   1.087   2.778   6.698
 5629SOL     OW17785   0.924   3.411   4.867
 5629SOL    HW117786   0.997   3.343   4.857
 5629SOL    HW217787   0.965   3.502   4.877
 5630SOL     OW17788   0.445   4.241   6.788
 5630SOL    HW117789   0.352   4.278   6.781
 5630SOL    HW217790   0.468   4.193   6.703
 5631SOL     OW17791   2.391   0.779   3.731
 5631SOL    HW117792   2.319   0.799   3.798
 5631SOL    HW217793   2.435   0.864   3.704
 5632SOL     OW17794   2.604   6.260   6.170
 5632SOL    HW117795   2.696   6.291   6.195
 5632SOL    HW217796   2.536   6.306   6.227
 5633SOL     OW17797   1.690   5.145   5.152
 5633SOL    HW117798   1.627   5.142   5.074
 5633SOL    HW217799   1.645   5.190   5.229
 5634SOL     OW17800   1.439   0.071   1.629
 5634SOL    HW117801   1.379   7.014   1.610
 5634SOL    HW217802   1.478   0.061   1.720
 5635SOL     OW17803   4.199   0.655   3.233
 5635SOL    HW117804   4.133   0.725   3.207
 5635SOL    HW217805   4.273   0.651   3.165
 5636SOL     OW17806   5.103   0.333   4.801
 5636SOL    HW117807   5.125   0.236   4.810
 5636SOL    HW217808   5.168   0.387   4.855
 5637SOL     OW17809   5.858   6.865   5.415
 5637SOL    HW117810   5.832   6.957   5.386
 5637SOL    HW217811   5.820   6.798   5.351
 5638SOL     OW17812   1.781   6.508   0.186
 5638SOL    HW117813   1.829   6.486   0.102
 5638SOL    HW217814   1.768   6.607   0.193
 5639SOL     OW17815   3.409   0.028   1.587
 5639SOL    HW117816   3.356   0.076   1.656
 5639SOL    HW217817   3.468   6.981   1.631
 5640SOL     OW17818   4.557   6.470   4.239
 5640SOL    HW117819   4.544   6.559   4.196
 5640SOL    HW217820   4.561   6.399   4.169
 5641SOL     OW17821   6.530   5.120   3.698
 5641SOL    HW117822   6.561   5.086   3.787
 5641SOL    HW217823   6.602   5.174   3.656
 5642SOL     OW17824   1.950   1.739   6.536
 5642SOL    HW117825   1.979   1.826   6.498
 5642SOL    HW217826   2.014   1.711   6.608
 5643SOL     OW17827   5.064   2.385   3.492
 5643SOL    HW117828   4.996   2.437   3.440
 5643SOL    HW217829   5.048   2.287   3.479
 5644SOL     OW17830   2.489   0.654   5.697
 5644SOL    HW117831   2.510   0.684   5.604
 5644SOL    HW217832   2.550   0.579   5.722
 5645SOL     OW17833   0.143   6.064   4.247
 5645SOL    HW117834   0.136   6.079   4.346
 5645SOL    HW217835   0.052   6.066   4.207
 5646SOL     OW17836   6.241   0.959   2.188
 5646SOL    HW117837   6.190   1.031   2.234
 5646SOL    HW217838   6.266   0.889   2.255
 5647SOL     OW17839   5.686   3.262   6.651
 5647SOL    HW117840   5.717   3.330   6.717
 5647SOL    HW217841   5.765   3.224   6.603
 5648SOL     OW17842   1.722   1.695   4.407
 5648SOL    HW117843   1.706   1.793   4.410
 5648SOL    HW217844   1.635   1.646   4.406
 5649SOL     OW17845   6.911   0.754   4.726
 5649SOL    HW117846   6.828   0.805   4.748
 5649SOL    HW217847   6.991   0.802   4.762
 5650SOL     OW17848   6.040   4.449   6.150
 5650SOL    HW117849   6.092   4.466   6.067
 5650SOL    HW217850   6.100   4.458   6.230
 5651SOL     OW17851   5.992   0.713   2.965
 5651SOL    HW117852   5.954   0.623   2.944
 5651SOL    HW217853   6.060   0.705   3.038
 5652SOL     OW17854   3.920   4.159   6.238
 5652SOL    HW117855   3.980   4.131   6.313
 5652SOL    HW217856   3.881   4.079   6.194
 5653SOL     OW17857   2.310   6.967   5.556
 5653SOL    HW117858   2.387   7.007   5.605
 5653SOL    HW217859   2.290   6.876   5.593
 5654SOL     OW17860   3.181   6.780   6.968
 5654SOL    HW117861   3.261   6.773   0.007
 5654SOL    HW217862   3.160   6.689   6.931
 5655SOL     OW17863   5.927   5.044   1.855
 5655SOL    HW117864   5.914   4.945   1.860
 5655SOL    HW217865   5.903   5.086   1.943
 5656SOL     OW17866   3.002   4.572   6.531
 5656SOL    HW117867   2.919   4.549   6.480
 5656SOL    HW217868   3.018   4.670   6.526
 5657SOL     OW17869   5.207   5.325   1.696
 5657SOL    HW117870   5.260   5.303   1.614
 5657SOL    HW217871   5.237   5.266   1.771
 5658SOL     OW17872   4.432   6.708   6.055
 5658SOL    HW117873   4.381   6.646   5.995
 5658SOL    HW217874   4.387   6.797   6.058
 5659SOL     OW17875   2.953   3.258   2.702
 5659SOL    HW117876   3.052   3.265   2.701
 5659SOL    HW217877   2.924   3.197   2.776
 5660SOL     OW17878   0.989   4.647   1.931
 5660SOL    HW117879   0.919   4.657   2.001
 5660SOL    HW217880   0.947   4.616   1.845
 5661SOL     OW17881   5.807   5.530   5.218
 5661SOL    HW117882   5.888   5.529   5.277
 5661SOL    HW217883   5.820   5.598   5.145
 5662SOL     OW17884   1.615   4.413   5.090
 5662SOL    HW117885   1.593   4.473   5.168
 5662SOL    HW217886   1.710   4.427   5.063
 5663SOL     OW17887   2.466   3.479   0.564
 5663SOL    HW117888   2.492   3.549   0.629
 5663SOL    HW217889   2.381   3.435   0.593
 5664SOL     OW17890   6.161   6.998   1.283
 5664SOL    HW117891   6.143   0.044   1.355
 5664SOL    HW217892   6.260   6.983   1.275
 5665SOL     OW17893   1.089   0.482   6.165
 5665SOL    HW117894   1.098   0.548   6.090
 5665SOL    HW217895   0.996   0.446   6.167
 5666SOL     OW17896   4.618   6.056   6.274
 5666SOL    HW117897   4.716   6.061   6.294
 5666SOL    HW217898   4.600   6.099   6.186
 5667SOL     OW17899   5.375   5.004   3.387
 5667SOL    HW117900   5.296   4.958   3.345
 5667SOL    HW217901   5.408   5.075   3.326
 5668SOL     OW17902   6.544   2.672   6.296
 5668SOL    HW117903   6.454   2.643   6.264
 5668SOL    HW217904   6.603   2.690   6.217
 5669SOL     OW17905   0.981   2.019   5.624
 5669SOL    HW117906   1.072   2.053   5.602
 5669SOL    HW217907   0.950   1.956   5.552
 5670SOL     OW17908   1.386   2.566   2.493
 5670SOL    HW117909   1.314   2.551   2.426
 5670SOL    HW217910   1.439   2.648   2.468
 5671SOL     OW17911   0.375   0.805   5.871
 5671SOL    HW117912   0.333   0.834   5.786
 5671SOL    HW217913   0.466   0.846   5.879
 5672SOL     OW17914   4.216   4.695   6.024
 5672SOL    HW117915   4.126   4.733   6.042
 5672SOL    HW217916   4.212   4.595   6.031
 5673SOL     OW17917   2.083   6.026   1.522
 5673SOL    HW117918   2.144   5.953   1.550
 5673SOL    HW217919   2.118   6.068   1.438
 5674SOL     OW17920   0.542   2.839   0.175
 5674SOL    HW117921   0.581   2.803   0.091
 5674SOL    HW217922   0.489   2.767   0.221
 5675SOL     OW17923   4.246   1.436   5.633
 5675SOL    HW117924   4.211   1.491   5.558
 5675SOL    HW217925   4.174   1.420   5.700
 5676SOL     OW17926   2.425   5.964   2.077
 5676SOL    HW117927   2.491   5.918   2.018
 5676SOL    HW217928   2.337   5.969   2.031
 5677SOL     OW17929   5.910   0.820   3.386
 5677SOL    HW117930   5.975   0.810   3.461
 5677SOL    HW217931   5.958   0.818   3.299
 5678SOL     OW17932   1.382   5.295   2.660
 5678SOL    HW117933   1.311   5.272   2.727
 5678SOL    HW217934   1.446   5.360   2.699
 5679SOL     OW17935   4.182   6.064   5.858
 5679SOL    HW117936   4.245   6.046   5.782
 5679SOL    HW217937   4.233   6.073   5.943
 5680SOL     OW17938   0.964   0.492   6.511
 5680SOL    HW117939   0.980   0.461   6.605
 5680SOL    HW217940   1.040   0.550   6.481
 5681SOL     OW17941   3.130   3.195   0.406
 5681SOL    HW117942   3.132   3.184   0.505
 5681SOL    HW217943   3.186   3.125   0.363
 5682SOL     OW17944   2.111   4.669   4.464
 5682SOL    HW117945   2.076   4.596   4.523
 5682SOL    HW217946   2.175   4.725   4.516
 5683SOL     OW17947   3.187   3.536   4.976
 5683SOL    HW117948   3.206   3.467   4.906
 5683SOL    HW217949   3.272   3.561   5.022
 5684SOL     OW17950   3.166   3.970   2.536
 5684SOL    HW117951   3.114   3.976   2.621
 5684SOL    HW217952   3.175   3.875   2.509
 5685SOL     OW17953   6.456   0.454   1.866
 5685SOL    HW117954   6.404   0.524   1.916
 5685SOL    HW217955   6.553   0.465   1.887
 5686SOL     OW17956   3.318   4.736   6.416
 5686SOL    HW117957   3.368   4.654   6.444
 5686SOL    HW217958   3.376   4.793   6.358
 5687SOL     OW17959   4.816   6.954   5.777
 5687SOL    HW117960   4.758   6.928   5.700
 5687SOL    HW217961   4.817   6.880   5.844
 5688SOL     OW17962   5.549   1.197   2.332
 5688SOL    HW117963   5.635   1.147   2.348
 5688SOL    HW217964   5.479   1.163   2.394
 5689SOL     OW17965   3.842   3.319   5.157
 5689SOL    HW117966   3.767   3.253   5.164
 5689SOL    HW217967   3.835   3.385   5.232
 5690SOL     OW17968   3.350   0.423   3.383
 5690SOL    HW117969   3.383   0.517   3.386
 5690SOL    HW217970   3.263   0.420   3.334
 5691SOL     OW17971   3.153   0.155   4.508
 5691SOL    HW117972   3.251   0.165   4.489
 5691SOL    HW217973   3.100   0.182   4.428
 5692SOL     OW17974   6.088   2.754   0.686
 5692SOL    HW117975   6.150   2.773   0.762
 5692SOL    HW217976   5.994   2.755   0.718
 5693SOL     OW17977   5.617   3.471   1.722
 5693SOL    HW117978   5.549   3.540   1.748
 5693SOL    HW217979   5.708   3.511   1.723
 5694SOL     OW17980   1.715   2.542   4.942
 5694SOL    HW117981   1.694   2.491   5.025
 5694SOL    HW217982   1.796   2.598   4.957
 5695SOL     OW17983   1.859   3.375   3.014
 5695SOL    HW117984   1.807   3.302   2.969
 5695SOL    HW217985   1.956   3.363   2.996
 5696SOL     OW17986   3.366   1.478   6.758
 5696SOL    HW117987   3.397   1.390   6.723
 5696SOL    HW217988   3.377   1.548   6.688
 5697SOL     OW17989   6.416   3.868   1.059
 5697SOL    HW117990   6.319   3.883   1.044
 5697SOL    HW217991   6.469   3.917   0.990
 5698SOL     OW17992   2.069   4.804   4.224
 5698SOL    HW117993   2.070   4.750   4.309
 5698SOL    HW217994   2.163   4.823   4.196
 5699SOL     OW17995   1.197   2.217   5.606
 5699SOL    HW117996   1.272   2.199   5.669
 5699SOL    HW217997   1.161   2.309   5.622
 5700SOL     OW17998   1.743   5.198   4.326
 5700SOL    HW117999   1.812   5.171   4.393
 5700SOL    HW218000   1.780   5.186   4.234
 5701SOL     OW18001   5.042   2.128   2.443
 5701SOL    HW118002   5.010   2.033   2.444
 5701SOL    HW218003   4.964   2.190   2.458
 5702SOL     OW18004   4.150   0.794   0.030
 5702SOL    HW118005   4.181   0.851   6.974
 5702SOL    HW218006   4.228   0.744   0.069
 5703SOL     OW18007   4.728   4.160   2.470
 5703SOL    HW118008   4.641   4.146   2.515
 5703SOL    HW218009   4.758   4.255   2.481
 5704SOL     OW18010   5.710   3.367   3.698
 5704SOL    HW118011   5.794   3.316   3.717
 5704SOL    HW218012   5.712   3.454   3.747
 5705SOL     OW18013   6.366   1.041   4.173
 5705SOL    HW118014   6.460   1.063   4.201
 5705SOL    HW218015   6.367   1.004   4.080
 5706SOL     OW18016   2.128   1.404   5.558
 5706SOL    HW118017   2.059   1.333   5.569
 5706SOL    HW218018   2.083   1.493   5.550
 5707SOL     OW18019   4.400   0.395   1.466
 5707SOL    HW118020   4.428   0.486   1.496
 5707SOL    HW218021   4.300   0.387   1.473
 5708SOL     OW18022   1.102   6.806   0.416
 5708SOL    HW118023   1.122   6.792   0.513
 5708SOL    HW218024   1.072   6.900   0.400
 5709SOL     OW18025   0.395   2.785   0.940
 5709SOL    HW118026   0.391   2.706   0.879
 5709SOL    HW218027   0.302   2.813   0.964
 5710SOL     OW18028   3.090   5.270   6.337
 5710SOL    HW118029   3.090   5.320   6.424
 5710SOL    HW218030   3.125   5.178   6.352
 5711SOL     OW18031   5.154   1.257   5.403
 5711SOL    HW118032   5.214   1.201   5.346
 5711SOL    HW218033   5.062   1.217   5.404
 5712SOL     OW18034   5.076   0.016   6.015
 5712SOL    HW118035   5.103   0.108   5.985
 5712SOL    HW218036   5.009   0.024   6.089
 5713SOL     OW18037   0.350   3.451   2.680
 5713SOL    HW118038   0.330   3.392   2.758
 5713SOL    HW218039   0.325   3.545   2.702
 5714SOL     OW18040   2.399   0.576   1.121
 5714SOL    HW118041   2.329   0.648   1.116
 5714SOL    HW218042   2.442   0.577   1.211
 5715SOL     OW18043   0.549   5.818   4.016
 5715SOL    HW118044   0.641   5.858   4.015
 5715SOL    HW218045   0.542   5.749   3.944
 5716SOL     OW18046   1.202   2.701   4.700
 5716SOL    HW118047   1.277   2.764   4.684
 5716SOL    HW218048   1.236   2.619   4.746
 5717SOL     OW18049   0.342   4.387   5.305
 5717SOL    HW118050   0.398   4.469   5.289
 5717SOL    HW218051   0.263   4.412   5.361
 5718SOL     OW18052   2.387   5.645   5.950
 5718SOL    HW118053   2.436   5.727   5.922
 5718SOL    HW218054   2.453   5.573   5.971
 5719SOL     OW18055   1.533   1.032   0.422
 5719SOL    HW118056   1.521   1.089   0.341
 5719SOL    HW218057   1.452   1.037   0.479
 5720SOL     OW18058   2.090   5.811   4.056
 5720SOL    HW118059   2.053   5.771   3.972
 5720SOL    HW218060   2.109   5.908   4.042
 5721SOL     OW18061   6.094   5.344   6.804
 5721SOL    HW118062   6.174   5.405   6.806
 5721SOL    HW218063   6.088   5.301   6.714
 5722SOL     OW18064   5.364   1.019   3.980
 5722SOL    HW118065   5.310   0.942   4.014
 5722SOL    HW218066   5.308   1.074   3.917
 5723SOL     OW18067   6.068   5.213   0.701
 5723SOL    HW118068   6.091   5.310   0.710
 5723SOL    HW218069   6.132   5.169   0.639
 5724SOL     OW18070   4.714   2.839   5.899
 5724SOL    HW118071   4.649   2.903   5.939
 5724SOL    HW218072   4.700   2.748   5.938
 5725SOL     OW18073   6.112   6.885   5.508
 5725SOL    HW118074   6.016   6.870   5.487
 5725SOL    HW218075   6.146   6.962   5.453
 5726SOL     OW18076   4.418   5.857   5.270
 5726SOL    HW118077   4.482   5.865   5.346
 5726SOL    HW218078   4.325   5.874   5.303
 5727SOL     OW18079   5.232   3.088   3.488
 5727SOL    HW118080   5.298   3.142   3.540
 5727SOL    HW218081   5.156   3.146   3.460
 5728SOL     OW18082   3.572   1.004   5.209
 5728SOL    HW118083   3.607   0.959   5.291
 5728SOL    HW218084   3.542   0.935   5.143
 5729SOL     OW18085   3.056   1.903   4.056
 5729SOL    HW118086   3.135   1.842   4.064
 5729SOL    HW218087   3.086   1.997   4.074
 5730SOL     OW18088   4.138   4.885   0.136
 5730SOL    HW118089   4.156   4.859   0.231
 5730SOL    HW218090   4.177   4.816   0.074
 5731SOL     OW18091   4.541   1.397   5.075
 5731SOL    HW118092   4.477   1.467   5.105
 5731SOL    HW218093   4.635   1.428   5.094
 5732SOL     OW18094   6.753   3.884   4.462
 5732SOL    HW118095   6.716   3.864   4.371
 5732SOL    HW218096   6.734   3.979   4.486
 5733SOL     OW18097   2.045   6.375   0.641
 5733SOL    HW118098   2.082   6.398   0.731
 5733SOL    HW218099   1.951   6.406   0.635
 5734SOL     OW18100   1.694   0.309   6.452
 5734SOL    HW118101   1.606   0.353   6.470
 5734SOL    HW218102   1.697   0.220   6.498
 5735SOL     OW18103   5.465   1.362   0.992
 5735SOL    HW118104   5.439   1.281   0.940
 5735SOL    HW218105   5.564   1.379   0.981
 5736SOL     OW18106   4.053   3.680   6.387
 5736SOL    HW118107   4.098   3.675   6.476
 5736SOL    HW218108   3.973   3.620   6.387
 5737SOL     OW18109   5.436   5.358   2.320
 5737SOL    HW118110   5.426   5.318   2.412
 5737SOL    HW218111   5.520   5.324   2.278
 5738SOL     OW18112   3.160   1.688   1.281
 5738SOL    HW118113   3.153   1.711   1.378
 5738SOL    HW218114   3.075   1.713   1.234
 5739SOL     OW18115   2.038   1.052   5.958
 5739SOL    HW118116   1.993   1.000   5.884
 5739SOL    HW218117   2.096   0.990   6.010
 5740SOL     OW18118   5.477   2.877   2.500
 5740SOL    HW118119   5.543   2.895   2.573
 5740SOL    HW218120   5.493   2.787   2.461
 5741SOL     OW18121   1.508   3.470   4.006
 5741SOL    HW118122   1.551   3.416   4.079
 5741SOL    HW218123   1.464   3.408   3.941
 5742SOL     OW18124   6.547   4.549   2.249
 5742SOL    HW118125   6.500   4.467   2.280
 5742SOL    HW218126   6.529   4.564   2.152
 5743SOL     OW18127   3.178   6.352   6.257
 5743SOL    HW118128   3.274   6.377   6.245
 5743SOL    HW218129   3.123   6.397   6.186
 5744SOL     OW18130   5.319   5.543   3.985
 5744SOL    HW118131   5.332   5.539   4.084
 5744SOL    HW218132   5.396   5.500   3.938
 5745SOL     OW18133   2.164   3.930   2.530
 5745SOL    HW118134   2.193   3.920   2.434
 5745SOL    HW218135   2.244   3.954   2.586
 5746SOL     OW18136   5.229   0.772   3.741
 5746SOL    HW118137   5.131   0.763   3.722
 5746SOL    HW218138   5.262   0.857   3.702
 5747SOL     OW18139   1.118   6.540   1.817
 5747SOL    HW118140   1.133   6.473   1.744
 5747SOL    HW218141   1.183   6.523   1.891
 5748SOL     OW18142   6.435   6.961   0.159
 5748SOL    HW118143   6.416   6.886   0.223
 5748SOL    HW218144   6.532   6.962   0.137
 5749SOL     OW18145   1.838   6.112   6.203
 5749SOL    HW118146   1.824   6.039   6.270
 5749SOL    HW218147   1.931   6.105   6.166
 5750SOL     OW18148   6.139   2.369   4.140
 5750SOL    HW118149   6.236   2.346   4.146
 5750SOL    HW218150   6.118   2.442   4.205
 5751SOL     OW18151   7.016   3.844   4.443
 5751SOL    HW118152   0.054   3.883   4.514
 5751SOL    HW218153   6.920   3.864   4.464
 5752SOL     OW18154   5.725   1.717   6.526
 5752SOL    HW118155   5.710   1.815   6.508
 5752SOL    HW218156   5.646   1.665   6.495
 5753SOL     OW18157   3.724   3.615   3.877
 5753SOL    HW118158   3.740   3.621   3.976
 5753SOL    HW218159   3.802   3.655   3.828
 5754SOL     OW18160   6.100   0.795   0.755
 5754SOL    HW118161   6.173   0.764   0.693
 5754SOL    HW218162   6.141   0.837   0.836
 5755SOL     OW18163   0.952   4.118   6.236
 5755SOL    HW118164   1.036   4.170   6.247
 5755SOL    HW218165   0.874   4.181   6.232
 5756SOL     OW18166   5.382   0.198   1.798
 5756SOL    HW118167   5.329   0.238   1.873
 5756SOL    HW218168   5.416   0.272   1.739
 5757SOL     OW18169   1.486   1.899   4.020
 5757SOL    HW118170   1.579   1.913   4.054
 5757SOL    HW218171   1.446   1.819   4.064
 5758SOL     OW18172   6.413   6.956   2.951
 5758SOL    HW118173   6.419   7.009   3.035
 5758SOL    HW218174   6.318   6.931   2.934
 5759SOL     OW18175   3.087   6.659   3.120
 5759SOL    HW118176   3.056   6.733   3.180
 5759SOL    HW218177   3.017   6.643   3.050
 5760SOL     OW18178   0.441   2.419   0.059
 5760SOL    HW118179   0.415   2.327   0.089
 5760SOL    HW218180   0.539   2.432   0.071
 5761SOL     OW18181   0.064   6.666   5.337
 5761SOL    HW118182   0.015   6.666   5.424
 5761SOL    HW218183   0.001   6.639   5.263
 5762SOL     OW18184   0.506   6.534   5.973
 5762SOL    HW118185   0.554   6.553   6.059
 5762SOL    HW218186   0.548   6.454   5.929
 5763SOL     OW18187   4.772   0.541   6.882
 5763SOL    HW118188   4.765   0.443   6.897
 5763SOL    HW218189   4.825   0.558   6.798
 5764SOL     OW18190   4.013   6.114   3.779
 5764SOL    HW118191   3.942   6.171   3.737
 5764SOL    HW218192   4.055   6.164   3.855
 5765SOL     OW18193   6.563   6.793   2.763
 5765SOL    HW118194   6.505   6.713   2.777
 5765SOL    HW218195   6.528   6.869   2.818
 5766SOL     OW18196   0.959   0.622   4.545
 5766SOL    HW118197   0.901   0.625   4.626
 5766SOL    HW218198   0.924   0.686   4.477
 5767SOL     OW18199   6.267   0.041   0.499
 5767SOL    HW118200   6.259   0.065   0.596
 5767SOL    HW218201   6.255   6.963   0.488
 5768SOL     OW18202   1.316   0.339   5.085
 5768SOL    HW118203   1.249   0.265   5.087
 5768SOL    HW218204   1.271   0.426   5.106
 5769SOL     OW18205   1.163   2.093   6.315
 5769SOL    HW118206   1.118   2.116   6.228
 5769SOL    HW218207   1.103   2.119   6.391
 5770SOL     OW18208   1.359   3.431   2.437
 5770SOL    HW118209   1.454   3.407   2.416
 5770SOL    HW218210   1.354   3.527   2.462
 5771SOL     OW18211   2.701   6.348   3.226
 5771SOL    HW118212   2.708   6.448   3.222
 5771SOL    HW218213   2.732   6.308   3.140
 5772SOL     OW18214   2.593   0.964   3.425
 5772SOL    HW118215   2.649   1.005   3.497
 5772SOL    HW218216   2.513   1.021   3.409
 5773SOL     OW18217   5.491   0.355   3.983
 5773SOL    HW118218   5.589   0.375   3.975
 5773SOL    HW218219   5.440   0.441   3.982
 5774SOL     OW18220   1.160   6.399   3.447
 5774SOL    HW118221   1.151   6.318   3.505
 5774SOL    HW218222   1.070   6.437   3.428
 5775SOL     OW18223   5.828   4.745   2.390
 5775SOL    HW118224   5.814   4.759   2.488
 5775SOL    HW218225   5.836   4.648   2.370
 5776SOL     OW18226   3.714   0.852   4.320
 5776SOL    HW118227   3.759   0.940   4.310
 5776SOL    HW218228   3.631   0.863   4.376
 5777SOL     OW18229   0.238   0.648   1.908
 5777SOL    HW118230   0.175   0.675   1.835
 5777SOL    HW218231   0.330   0.638   1.870
 5778SOL     OW18232   0.231   1.041   6.912
 5778SOL    HW118233   0.227   1.134   6.874
 5778SOL    HW218234   0.317   0.998   6.885
 5779SOL     OW18235   5.948   1.471   0.186
 5779SOL    HW118236   5.968   1.389   0.133
 5779SOL    HW218237   6.012   1.544   0.161
 5780SOL     OW18238   5.201   4.999   4.516
 5780SOL    HW118239   5.272   4.954   4.461
 5780SOL    HW218240   5.127   5.029   4.455
 5781SOL     OW18241   1.337   6.074   5.711
 5781SOL    HW118242   1.334   5.978   5.739
 5781SOL    HW218243   1.399   6.083   5.632
 5782SOL     OW18244   5.144   1.166   1.708
 5782SOL    HW118245   5.147   1.226   1.788
 5782SOL    HW218246   5.198   1.084   1.726
 5783SOL     OW18247   1.995   1.985   6.454
 5783SOL    HW118248   2.065   2.036   6.503
 5783SOL    HW218249   1.905   2.006   6.492
 5784SOL     OW18250   6.653   6.162   0.492
 5784SOL    HW118251   6.680   6.066   0.502
 5784SOL    HW218252   6.724   6.220   0.532
 5785SOL     OW18253   1.892   1.129   2.345
 5785SOL    HW118254   1.885   1.155   2.441
 5785SOL    HW218255   1.979   1.161   2.308
 5786SOL     OW18256   5.334   4.691   2.348
 5786SOL    HW118257   5.265   4.759   2.374
 5786SOL    HW218258   5.368   4.646   2.430
 5787SOL     OW18259   2.371   2.586   6.347
 5787SOL    HW118260   2.453   2.593   6.403
 5787SOL    HW218261   2.392   2.613   6.253
 5788SOL     OW18262   3.112   1.073   4.213
 5788SOL    HW118263   3.107   1.099   4.117
 5788SOL    HW218264   3.182   1.128   4.259
 5789SOL     OW18265   3.468   4.809   5.843
 5789SOL    HW118266   3.535   4.875   5.878
 5789SOL    HW218267   3.486   4.719   5.883
 5790SOL     OW18268   1.864   3.214   3.833
 5790SOL    HW118269   1.949   3.174   3.867
 5790SOL    HW218270   1.864   3.312   3.852
 5791SOL     OW18271   1.358   1.178   3.563
 5791SOL    HW118272   1.370   1.261   3.509
 5791SOL    HW218273   1.303   1.199   3.644
 5792SOL     OW18274   1.102   1.175   3.222
 5792SOL    HW118275   1.026   1.114   3.202
 5792SOL    HW218276   1.083   1.226   3.306
 5793SOL     OW18277   6.592   1.373   5.306
 5793SOL    HW118278   6.584   1.431   5.225
 5793SOL    HW218279   6.545   1.416   5.383
 5794SOL     OW18280   0.170   3.818   6.585
 5794SOL    HW118281   0.156   3.720   6.595
 5794SOL    HW218282   0.196   3.840   6.491
 5795SOL     OW18283   6.814   4.391   7.014
 5795SOL    HW118284   6.734   4.333   7.000
 5795SOL    HW218285   6.792   4.465   0.058
 5796SOL     OW18286   2.979   2.055   0.552
 5796SOL    HW118287   2.975   2.067   0.453
 5796SOL    HW218288   2.907   1.991   0.581
 5797SOL     OW18289   3.077   3.293   5.681
 5797SOL    HW118290   3.066   3.384   5.643
 5797SOL    HW218291   3.062   3.224   5.610
 5798SOL     OW18292   6.101   4.689   3.927
 5798SOL    HW118293   6.090   4.733   3.838
 5798SOL    HW218294   6.011   4.667   3.964
 5799SOL     OW18295   5.166   0.168   3.878
 5799SOL    HW118296   5.223   0.086   3.881
 5799SOL    HW218297   5.075   0.145   3.845
 5800SOL     OW18298   5.598   6.538   6.508
 5800SOL    HW118299   5.535   6.584   6.571
 5800SOL    HW218300   5.668   6.490   6.561
 5801SOL     OW18301   1.732   0.996   2.158
 5801SOL    HW118302   1.791   1.040   2.225
 5801SOL    HW218303   1.768   0.906   2.134
 5802SOL     OW18304   0.353   2.826   4.390
 5802SOL    HW118305   0.293   2.878   4.328
 5802SOL    HW218306   0.302   2.751   4.430
 5803SOL     OW18307   1.312   4.601   1.111
 5803SOL    HW118308   1.362   4.514   1.113
 5803SOL    HW218309   1.232   4.592   1.051
 5804SOL     OW18310   0.180   3.081   6.785
 5804SOL    HW118311   0.229   3.122   6.862
 5804SOL    HW218312   0.136   3.153   6.731
 5805SOL     OW18313   4.475   3.417   6.867
 5805SOL    HW118314   4.458   3.414   6.768
 5805SOL    HW218315   4.567   3.383   6.885
 5806SOL     OW18316   5.740   6.240   6.100
 5806SOL    HW118317   5.757   6.323   6.048
 5806SOL    HW218318   5.641   6.222   6.103
 5807SOL     OW18319   2.516   4.428   1.478
 5807SOL    HW118320   2.431   4.430   1.424
 5807SOL    HW218321   2.535   4.334   1.506
 5808SOL     OW18322   6.413   1.827   3.610
 5808SOL    HW118323   6.512   1.816   3.610
 5808SOL    HW218324   6.376   1.807   3.701
 5809SOL     OW18325   1.069   3.450   3.511
 5809SOL    HW118326   1.127   3.486   3.438
 5809SOL    HW218327   0.985   3.414   3.471
 5810SOL     OW18328   3.481   1.794   2.550
 5810SOL    HW118329   3.402   1.760   2.599
 5810SOL    HW218330   3.476   1.894   2.542
 5811SOL     OW18331   2.863   6.960   1.329
 5811SOL    HW118332   2.839   0.037   1.335
 5811SOL    HW218333   2.786   6.908   1.292
 5812SOL     OW18334   4.797   0.779   4.424
 5812SOL    HW118335   4.758   0.704   4.370
 5812SOL    HW218336   4.875   0.819   4.375
 5813SOL     OW18337   1.365   2.284   5.161
 5813SOL    HW118338   1.362   2.203   5.102
 5813SOL    HW218339   1.289   2.282   5.226
 5814SOL     OW18340   0.707   5.154   1.252
 5814SOL    HW118341   0.744   5.242   1.224
 5814SOL    HW218342   0.702   5.149   1.352
 5815SOL     OW18343   4.326   6.253   5.078
 5815SOL    HW118344   4.318   6.353   5.088
 5815SOL    HW218345   4.259   6.209   5.138
 5816SOL     OW18346   5.419   6.184   6.626
 5816SOL    HW118347   5.402   6.277   6.659
 5816SOL    HW218348   5.353   6.121   6.667
 5817SOL     OW18349   6.278   2.547   6.276
 5817SOL    HW118350   6.227   2.517   6.356
 5817SOL    HW218351   6.224   2.529   6.193
 5818SOL     OW18352   5.970   6.409   5.143
 5818SOL    HW118353   5.926   6.319   5.141
 5818SOL    HW218354   5.917   6.473   5.087
 5819SOL     OW18355   6.692   0.961   1.380
 5819SOL    HW118356   6.727   0.894   1.314
 5819SOL    HW218357   6.631   0.915   1.444
 5820SOL     OW18358   5.263   4.694   1.593
 5820SOL    HW118359   5.232   4.614   1.645
 5820SOL    HW218360   5.189   4.760   1.585
 5821SOL     OW18361   2.931   6.604   2.878
 5821SOL    HW118362   2.844   6.654   2.868
 5821SOL    HW218363   2.960   6.570   2.789
 5822SOL     OW18364   0.394   0.635   2.839
 5822SOL    HW118365   0.403   0.571   2.915
 5822SOL    HW218366   0.304   0.625   2.797
 5823SOL     OW18367   1.479   2.522   3.608
 5823SOL    HW118368   1.569   2.481   3.594
 5823SOL    HW218369   1.474   2.561   3.700
 5824SOL     OW18370   4.907   0.815   3.750
 5824SOL    HW118371   4.956   0.902   3.744
 5824SOL    HW218372   4.857   0.799   3.665
 5825SOL     OW18373   2.987   1.461   1.467
 5825SOL    HW118374   2.958   1.499   1.554
 5825SOL    HW218375   3.087   1.454   1.464
 5826SOL     OW18376   0.447   6.612   2.934
 5826SOL    HW118377   0.426   6.593   2.838
 5826SOL    HW218378   0.442   6.527   2.987
 5827SOL     OW18379   1.715   5.282   6.053
 5827SOL    HW118380   1.746   5.212   5.988
 5827SOL    HW218381   1.731   5.249   6.146
 5828SOL     OW18382   6.627   1.688   1.383
 5828SOL    HW118383   6.598   1.737   1.301
 5828SOL    HW218384   6.546   1.662   1.437
 5829SOL     OW18385   2.010   0.663   1.816
 5829SOL    HW118386   1.944   0.646   1.743
 5829SOL    HW218387   2.061   0.746   1.797
 5830SOL     OW18388   1.084   1.017   6.318
 5830SOL    HW118389   1.096   1.005   6.417
 5830SOL    HW218390   1.039   0.936   6.281
 5831SOL     OW18391   5.822   5.662   2.706
 5831SOL    HW118392   5.863   5.573   2.687
 5831SOL    HW218393   5.726   5.651   2.730
 5832SOL     OW18394   3.781   3.638   4.137
 5832SOL    HW118395   3.794   3.737   4.145
 5832SOL    HW218396   3.782   3.596   4.228
 5833SOL     OW18397   3.046   3.130   4.666
 5833SOL    HW118398   3.051   3.064   4.592
 5833SOL    HW218399   3.009   3.086   4.748
 5834SOL     OW18400   5.590   1.216   6.445
 5834SOL    HW118401   5.531   1.147   6.404
 5834SOL    HW218402   5.643   1.262   6.373
 5835SOL     OW18403   5.551   2.757   4.292
 5835SOL    HW118404   5.522   2.707   4.211
 5835SOL    HW218405   5.561   2.854   4.269
 5836SOL     OW18406   3.728   6.696   4.081
 5836SOL    HW118407   3.789   6.684   4.159
 5836SOL    HW218408   3.708   6.793   4.069
 5837SOL     OW18409   4.017   4.319   6.830
 5837SOL    HW118410   3.982   4.266   6.907
 5837SOL    HW218411   3.940   4.351   6.774
 5838SOL     OW18412   0.317   1.534   5.864
 5838SOL    HW118413   0.292   1.527   5.960
 5838SOL    HW218414   0.234   1.543   5.809
 5839SOL     OW18415   6.932   2.692   2.438
 5839SOL    HW118416   6.961   2.757   2.508
 5839SOL    HW218417   6.961   2.725   2.348
 5840SOL     OW18418   2.986   5.724   0.376
 5840SOL    HW118419   3.021   5.795   0.315
 5840SOL    HW218420   3.010   5.745   0.471
 5841SOL     OW18421   6.412   2.319   3.370
 5841SOL    HW118422   6.345   2.245   3.359
 5841SOL    HW218423   6.423   2.367   3.284
 5842SOL     OW18424   3.952   2.304   1.080
 5842SOL    HW118425   3.963   2.324   1.177
 5842SOL    HW218426   4.037   2.267   1.043
 5843SOL     OW18427   0.267   1.908   1.679
 5843SOL    HW118428   0.289   1.960   1.761
 5843SOL    HW218429   0.173   1.929   1.651
 5844SOL     OW18430   1.779   5.931   6.393
 5844SOL    HW118431   1.682   5.916   6.375
 5844SOL    HW218432   1.800   5.904   6.487
 5845SOL     OW18433   2.261   2.847   4.290
 5845SOL    HW118434   2.308   2.759   4.278
 5845SOL    HW218435   2.244   2.862   4.387
 5846SOL     OW18436   0.627   3.485   0.075
 5846SOL    HW118437   0.684   3.451   0.000
 5846SOL    HW218438   0.612   3.583   0.064
 5847SOL     OW18439   1.338   2.426   4.315
 5847SOL    HW118440   1.359   2.396   4.222
 5847SOL    HW218441   1.395   2.374   4.379
 5848SOL     OW18442   1.041   4.780   3.426
 5848SOL    HW118443   1.070   4.798   3.520
 5848SOL    HW218444   1.097   4.834   3.363
 5849SOL     OW18445   2.112   0.191   5.728
 5849SOL    HW118446   2.143   0.187   5.824
 5849SOL    HW218447   2.027   0.140   5.718
 5850SOL     OW18448   0.802   5.132   3.032
 5850SOL    HW118449   0.795   5.033   3.045
 5850SOL    HW218450   0.898   5.158   3.023
 5851SOL     OW18451   6.806   3.483   1.731
 5851SOL    HW118452   6.839   3.528   1.648
 5851SOL    HW218453   6.706   3.488   1.734
 5852SOL     OW18454   4.050   6.292   2.647
 5852SOL    HW118455   4.058   6.202   2.606
 5852SOL    HW218456   4.045   6.362   2.576
 5853SOL     OW18457   5.202   3.833   5.190
 5853SOL    HW118458   5.231   3.878   5.106
 5853SOL    HW218459   5.193   3.902   5.263
 5854SOL     OW18460   1.331   1.260   6.889
 5854SOL    HW118461   1.279   1.265   6.804
 5854SOL    HW218462   1.373   1.170   6.898
 5855SOL     OW18463   1.771   1.777   5.113
 5855SOL    HW118464   1.827   1.826   5.179
 5855SOL    HW218465   1.674   1.796   5.130
 5856SOL     OW18466   0.814   6.691   3.306
 5856SOL    HW118467   0.743   6.703   3.375
 5856SOL    HW218468   0.903   6.680   3.351
 5857SOL     OW18469   0.603   2.343   5.153
 5857SOL    HW118470   0.606   2.253   5.110
 5857SOL    HW218471   0.585   2.412   5.083
 5858SOL     OW18472   3.028   0.406   4.032
 5858SOL    HW118473   3.073   0.439   3.949
 5858SOL    HW218474   3.070   0.320   4.060
 5859SOL     OW18475   5.664   4.907   2.120
 5859SOL    HW118476   5.585   4.851   2.144
 5859SOL    HW218477   5.638   4.971   2.047
 5860SOL     OW18478   6.889   4.770   0.309
 5860SOL    HW118479   6.983   4.802   0.324
 5860SOL    HW218480   6.884   4.721   0.222
 5861SOL     OW18481   6.349   2.076   4.419
 5861SOL    HW118482   6.305   2.162   4.444
 5861SOL    HW218483   6.364   2.073   4.320
 5862SOL     OW18484   6.095   5.404   4.210
 5862SOL    HW118485   6.053   5.495   4.207
 5862SOL    HW218486   6.192   5.412   4.231
 5863SOL     OW18487   1.818   1.538   0.630
 5863SOL    HW118488   1.839   1.529   0.533
 5863SOL    HW218489   1.863   1.619   0.667
 5864SOL     OW18490   4.869   5.386   0.239
 5864SOL    HW118491   4.787   5.376   0.296
 5864SOL    HW218492   4.877   5.306   0.179
 5865SOL     OW18493   4.650   0.130   3.346
 5865SOL    HW118494   4.720   0.118   3.416
 5865SOL    HW218495   4.672   0.073   3.267
 5866SOL     OW18496   3.405   1.974   6.514
 5866SOL    HW118497   3.325   1.937   6.468
 5866SOL    HW218498   3.483   1.973   6.452
 5867SOL     OW18499   6.751   2.833   1.998
 5867SOL    HW118500   6.665   2.783   2.005
 5867SOL    HW218501   6.756   2.879   1.910
 5868SOL     OW18502   0.184   6.121   5.491
 5868SOL    HW118503   0.086   6.143   5.499
 5868SOL    HW218504   0.194   6.026   5.461
 5869SOL     OW18505   2.309   5.171   4.832
 5869SOL    HW118506   2.296   5.262   4.870
 5869SOL    HW218507   2.371   5.176   4.753
 5870SOL     OW18508   5.379   5.864   4.066
 5870SOL    HW118509   5.305   5.797   4.054
 5870SOL    HW218510   5.444   5.830   4.134
 5871SOL     OW18511   3.617   4.419   1.067
 5871SOL    HW118512   3.703   4.433   1.116
 5871SOL    HW218513   3.569   4.507   1.057
 5872SOL     OW18514   4.259   5.691   3.749
 5872SOL    HW118515   4.231   5.606   3.795
 5872SOL    HW218516   4.338   5.730   3.797
 5873SOL     OW18517   2.347   3.364   1.118
 5873SOL    HW118518   2.312   3.347   1.210
 5873SOL    HW218519   2.366   3.277   1.073
 5874SOL     OW18520   0.592   4.663   6.083
 5874SOL    HW118521   0.557   4.751   6.050
 5874SOL    HW218522   0.662   4.630   6.020
 5875SOL     OW18523   4.065   2.568   1.567
 5875SOL    HW118524   3.976   2.607   1.543
 5875SOL    HW218525   4.059   2.528   1.659
 5876SOL     OW18526   3.950   4.342   6.026
 5876SOL    HW118527   3.882   4.331   5.954
 5876SOL    HW218528   3.939   4.268   6.093
 5877SOL     OW18529   5.677   6.380   3.092
 5877SOL    HW118530   5.757   6.395   3.151
 5877SOL    HW218531   5.688   6.293   3.043
 5878SOL     OW18532   5.010   3.622   2.897
 5878SOL    HW118533   5.007   3.648   2.800
 5878SOL    HW218534   5.008   3.522   2.904
 5879SOL     OW18535   3.107   4.468   5.668
 5879SOL    HW118536   3.143   4.554   5.704
 5879SOL    HW218537   3.131   4.460   5.571
 5880SOL     OW18538   5.924   2.331   0.607
 5880SOL    HW118539   5.859   2.399   0.638
 5880SOL    HW218540   5.885   2.239   0.618
 5881SOL     OW18541   0.848   6.341   3.422
 5881SOL    HW118542   0.858   6.385   3.333
 5881SOL    HW218543   0.752   6.315   3.436
 5882SOL     OW18544   1.107   5.973   4.925
 5882SOL    HW118545   1.042   5.899   4.940
 5882SOL    HW218546   1.168   5.949   4.849
 5883SOL     OW18547   0.178   5.654   6.803
 5883SOL    HW118548   0.123   5.737   6.813
 5883SOL    HW218549   0.183   5.607   6.892
 5884SOL     OW18550   0.844   0.672   1.527
 5884SOL    HW118551   0.862   0.770   1.520
 5884SOL    HW218552   0.818   0.649   1.621
 5885SOL     OW18553   6.700   6.074   1.764
 5885SOL    HW118554   6.673   6.157   1.813
 5885SOL    HW218555   6.798   6.078   1.743
 5886SOL     OW18556   1.814   4.434   3.247
 5886SOL    HW118557   1.739   4.378   3.211
 5886SOL    HW218558   1.894   4.376   3.261
 5887SOL     OW18559   2.277   3.637   1.536
 5887SOL    HW118560   2.277   3.735   1.521
 5887SOL    HW218561   2.336   3.593   1.468
 5888SOL     OW18562   3.330   6.240   2.191
 5888SOL    HW118563   3.374   6.329   2.206
 5888SOL    HW218564   3.273   6.245   2.109
 5889SOL     OW18565   4.452   0.914   1.773
 5889SOL    HW118566   4.423   0.988   1.712
 5889SOL    HW218567   4.549   0.924   1.795
 5890SOL     OW18568   2.495   4.942   3.392
 5890SOL    HW118569   2.454   4.988   3.313
 5890SOL    HW218570   2.509   4.845   3.370
 5891SOL     OW18571   2.422   2.987   6.870
 5891SOL    HW118572   2.378   3.009   6.783
 5891SOL    HW218573   2.517   3.017   6.868
 5892SOL     OW18574   0.564   2.429   1.630
 5892SOL    HW118575   0.656   2.452   1.601
 5892SOL    HW218576   0.555   2.444   1.729
 5893SOL     OW18577   0.057   6.615   1.292
 5893SOL    HW118578   0.076   6.711   1.271
 5893SOL    HW218579   0.112   6.587   1.371
 5894SOL     OW18580   3.112   5.405   6.881
 5894SOL    HW118581   3.020   5.400   6.918
 5894SOL    HW218582   3.111   5.378   6.785
 5895SOL     OW18583   5.948   2.791   4.055
 5895SOL    HW118584   5.895   2.727   4.111
 5895SOL    HW218585   6.043   2.793   4.087
 5896SOL     OW18586   5.492   2.420   0.764
 5896SOL    HW118587   5.526   2.371   0.683
 5896SOL    HW218588   5.411   2.473   0.738
 5897SOL     OW18589   3.344   3.458   0.162
 5897SOL    HW118590   3.322   3.462   0.259
 5897SOL    HW218591   3.260   3.466   0.108
 5898SOL     OW18592   4.133   0.647   6.707
 5898SOL    HW118593   4.095   0.628   6.797
 5898SOL    HW218594   4.078   0.602   6.637
 5899SOL     OW18595   0.361   0.274   0.489
 5899SOL    HW118596   0.391   0.343   0.555
 5899SOL    HW218597   0.266   0.250   0.507
 5900SOL     OW18598   5.347   5.971   2.532
 5900SOL    HW118599   5.284   6.046   2.555
 5900SOL    HW218600   5.441   6.003   2.541
 5901SOL     OW18601   0.957   0.334   4.702
 5901SOL    HW118602   0.950   0.278   4.785
 5901SOL    HW218603   0.969   0.274   4.622
 5902SOL     OW18604   4.245   3.532   5.969
 5902SOL    HW118605   4.262   3.591   5.890
 5902SOL    HW218606   4.221   3.587   6.048
 5903SOL     OW18607   5.214   0.884   6.323
 5903SOL    HW118608   5.241   0.789   6.314
 5903SOL    HW218609   5.139   0.903   6.260
 5904SOL     OW18610   0.076   5.610   1.634
 5904SOL    HW118611   7.015   5.650   1.593
 5904SOL    HW218612   0.086   5.642   1.728
 5905SOL     OW18613   6.643   1.929   4.789
 5905SOL    HW118614   6.653   1.998   4.718
 5905SOL    HW218615   6.547   1.925   4.819
 5906SOL     OW18616   4.025   0.405   4.773
 5906SOL    HW118617   4.043   0.307   4.767
 5906SOL    HW218618   4.086   0.454   4.711
 5907SOL     OW18619   1.335   3.333   5.804
 5907SOL    HW118620   1.265   3.331   5.733
 5907SOL    HW218621   1.374   3.241   5.815
 5908SOL     OW18622   4.631   3.190   6.746
 5908SOL    HW118623   4.689   3.181   6.665
 5908SOL    HW218624   4.627   3.102   6.794
 5909SOL     OW18625   6.990   5.084   3.002
 5909SOL    HW118626   6.934   5.160   3.034
 5909SOL    HW218627   0.026   5.051   3.078
 5910SOL     OW18628   2.228   4.305   2.428
 5910SOL    HW118629   2.193   4.238   2.363
 5910SOL    HW218630   2.235   4.264   2.518
 5911SOL     OW18631   0.004   1.365   5.272
 5911SOL    HW118632   6.961   1.356   5.349
 5911SOL    HW218633   0.076   1.297   5.281
 5912SOL     OW18634   0.801   3.545   5.869
 5912SOL    HW118635   0.732   3.539   5.797
 5912SOL    HW218636   0.886   3.582   5.830
 5913SOL     OW18637   1.614   3.009   5.097
 5913SOL    HW118638   1.697   3.001   5.152
 5913SOL    HW218639   1.588   2.919   5.062
 5914SOL     OW18640   0.732   5.570   0.260
 5914SOL    HW118641   0.725   5.471   0.266
 5914SOL    HW218642   0.645   5.608   0.228
 5915SOL     OW18643   5.726   4.161   4.850
 5915SOL    HW118644   5.719   4.063   4.833
 5915SOL    HW218645   5.705   4.211   4.766
 5916SOL     OW18646   3.732   1.085   6.858
 5916SOL    HW118647   3.737   1.039   6.769
 5916SOL    HW218648   3.664   1.040   6.915
 5917SOL     OW18649   3.504   3.638   2.062
 5917SOL    HW118650   3.454   3.655   2.147
 5917SOL    HW218651   3.496   3.541   2.038
 5918SOL     OW18652   3.161   2.164   4.021
 5918SOL    HW118653   3.177   2.156   3.923
 5918SOL    HW218654   3.247   2.150   4.070
 5919SOL     OW18655   1.458   1.482   6.062
 5919SOL    HW118656   1.528   1.532   6.113
 5919SOL    HW218657   1.497   1.447   5.977
 5920SOL     OW18658   2.327   3.854   6.778
 5920SOL    HW118659   2.302   3.864   6.682
 5920SOL    HW218660   2.405   3.913   6.799
 5921SOL     OW18661   3.726   6.258   4.142
 5921SOL    HW118662   3.745   6.312   4.060
 5921SOL    HW218663   3.799   6.271   4.209
 5922SOL     OW18664   6.873   5.439   2.123
 5922SOL    HW118665   6.793   5.445   2.182
 5922SOL    HW218666   6.900   5.343   2.112
 5923SOL     OW18667   0.932   0.084   3.145
 5923SOL    HW118668   0.995   0.124   3.212
 5923SOL    HW218669   0.873   0.155   3.108
 5924SOL     OW18670   5.887   2.114   4.837
 5924SOL    HW118671   5.803   2.089   4.885
 5924SOL    HW218672   5.899   2.214   4.841
 5925SOL     OW18673   6.536   6.444   0.969
 5925SOL    HW118674   6.478   6.458   0.888
 5925SOL    HW218675   6.565   6.533   1.005
 5926SOL     OW18676   3.124   6.851   2.175
 5926SOL    HW118677   3.117   6.846   2.275
 5926SOL    HW218678   3.178   6.931   2.150
 5927SOL     OW18679   1.915   5.406   1.112
 5927SOL    HW118680   1.820   5.416   1.082
 5927SOL    HW218681   1.970   5.370   1.036
 5928SOL     OW18682   6.115   6.234   0.929
 5928SOL    HW118683   6.191   6.181   0.966
 5928SOL    HW218684   6.056   6.264   1.004
 5929SOL     OW18685   0.306   0.352   6.446
 5929SOL    HW118686   0.215   0.314   6.429
 5929SOL    HW218687   0.309   0.394   6.536
 5930SOL     OW18688   6.821   1.613   4.627
 5930SOL    HW118689   6.914   1.613   4.589
 5930SOL    HW218690   6.777   1.526   4.605
 5931SOL     OW18691   6.041   4.519   0.514
 5931SOL    HW118692   6.033   4.556   0.422
 5931SOL    HW218693   6.037   4.593   0.581
 5932SOL     OW18694   2.521   0.351   1.006
 5932SOL    HW118695   2.485   0.436   1.044
 5932SOL    HW218696   2.602   0.323   1.059
 5933SOL     OW18697   5.435   2.343   3.276
 5933SOL    HW118698   5.469   2.285   3.202
 5933SOL    HW218699   5.369   2.408   3.240
 5934SOL     OW18700   4.148   3.544   1.795
 5934SOL    HW118701   4.058   3.500   1.803
 5934SOL    HW218702   4.141   3.639   1.827
 5935SOL     OW18703   3.768   3.260   2.819
 5935SOL    HW118704   3.688   3.240   2.876
 5935SOL    HW218705   3.737   3.300   2.732
 5936SOL     OW18706   6.508   5.672   0.026
 5936SOL    HW118707   6.460   5.745   6.998
 5936SOL    HW218708   6.589   5.645   6.995
 5937SOL     OW18709   0.867   3.802   0.959
 5937SOL    HW118710   0.923   3.728   0.997
 5937SOL    HW218711   0.772   3.772   0.950
 5938SOL     OW18712   2.843   4.932   1.341
 5938SOL    HW118713   2.756   4.888   1.363
 5938SOL    HW218714   2.918   4.868   1.360
 5939SOL     OW18715   0.416   0.060   2.465
 5939SOL    HW118716   0.502   0.103   2.491
 5939SOL    HW218717   0.431   0.002   2.384
 5940SOL     OW18718   4.247   4.899   2.740
 5940SOL    HW118719   4.151   4.875   2.726
 5940SOL    HW218720   4.253   4.978   2.801
 5941SOL     OW18721   6.225   2.996   4.004
 5941SOL    HW118722   6.163   2.956   3.936
 5941SOL    HW218723   6.245   2.928   4.074
 5942SOL     OW18724   0.165   1.738   5.183
 5942SOL    HW118725   0.092   1.691   5.133
 5942SOL    HW218726   0.248   1.740   5.128
 5943SOL     OW18727   1.568   6.079   1.302
 5943SOL    HW118728   1.605   6.046   1.215
 5943SOL    HW218729   1.641   6.082   1.370
 5944SOL     OW18730   5.232   3.015   3.048
 5944SOL    HW118731   5.243   2.977   3.140
 5944SOL    HW218732   5.156   2.970   3.002
 5945SOL     OW18733   6.442   6.023   6.049
 5945SOL    HW118734   6.482   6.097   5.994
 5945SOL    HW218735   6.347   6.046   6.071
 5946SOL     OW18736   4.232   2.285   5.482
 5946SOL    HW118737   4.169   2.318   5.552
 5946SOL    HW218738   4.289   2.213   5.520
 5947SOL     OW18739   6.008   3.894   2.843
 5947SOL    HW118740   5.978   3.953   2.918
 5947SOL    HW218741   5.957   3.917   2.760
 5948SOL     OW18742   2.362   5.440   3.132
 5948SOL    HW118743   2.427   5.455   3.206
 5948SOL    HW218744   2.270   5.458   3.164
 5949SOL     OW18745   5.093   4.080   3.119
 5949SOL    HW118746   5.087   3.982   3.098
 5949SOL    HW218747   5.030   4.130   3.060
 5950SOL     OW18748   0.408   1.794   5.023
 5950SOL    HW118749   0.414   1.894   5.015
 5950SOL    HW218750   0.383   1.756   4.934
 5951SOL     OW18751   2.341   0.508   3.282
 5951SOL    HW118752   2.308   0.444   3.351
 5951SOL    HW218753   2.285   0.591   3.285
 5952SOL     OW18754   0.226   6.657   4.173
 5952SOL    HW118755   0.196   6.583   4.113
 5952SOL    HW218756   0.175   6.740   4.152
 5953SOL     OW18757   1.538   3.939   5.944
 5953SOL    HW118758   1.632   3.966   5.927
 5953SOL    HW218759   1.497   3.906   5.859
 5954SOL     OW18760   1.158   4.136   6.513
 5954SOL    HW118761   1.200   4.054   6.473
 5954SOL    HW218762   1.064   4.115   6.539
 5955SOL     OW18763   3.698   5.228   1.991
 5955SOL    HW118764   3.681   5.132   2.015
 5955SOL    HW218765   3.653   5.249   1.905
 5956SOL     OW18766   0.328   1.669   0.788
 5956SOL    HW118767   0.344   1.581   0.834
 5956SOL    HW218768   0.407   1.728   0.803
 5957SOL     OW18769   4.048   6.695   6.312
 5957SOL    HW118770   4.074   6.657   6.223
 5957SOL    HW218771   3.963   6.747   6.303
 5958SOL     OW18772   0.885   5.850   2.053
 5958SOL    HW118773   0.926   5.809   2.134
 5958SOL    HW218774   0.958   5.876   1.989
 5959SOL     OW18775   1.569   0.465   5.554
 5959SOL    HW118776   1.632   0.447   5.629
 5959SOL    HW218777   1.565   0.564   5.537
 5960SOL     OW18778   3.437   5.892   5.238
 5960SOL    HW118779   3.390   5.804   5.233
 5960SOL    HW218780   3.399   5.953   5.169
 5961SOL     OW18781   2.986   0.692   5.058
 5961SOL    HW118782   2.950   0.699   4.965
 5961SOL    HW218783   3.072   0.744   5.064
 5962SOL     OW18784   5.701   4.213   3.437
 5962SOL    HW118785   5.629   4.143   3.434
 5962SOL    HW218786   5.738   4.218   3.530
 5963SOL     OW18787   4.252   4.153   1.625
 5963SOL    HW118788   4.160   4.163   1.665
 5963SOL    HW218789   4.321   4.174   1.695
 5964SOL     OW18790   1.668   3.281   4.985
 5964SOL    HW118791   1.604   3.255   4.913
 5964SOL    HW218792   1.666   3.211   5.057
 5965SOL     OW18793   1.857   2.361   4.564
 5965SOL    HW118794   1.779   2.381   4.624
 5965SOL    HW218795   1.924   2.306   4.614
 5966SOL     OW18796   1.431   5.576   4.130
 5966SOL    HW118797   1.392   5.573   4.221
 5966SOL    HW218798   1.428   5.670   4.095
 5967SOL     OW18799   5.163   5.785   1.034
 5967SOL    HW118800   5.083   5.757   1.086
 5967SOL    HW218801   5.242   5.730   1.062
 5968SOL     OW18802   1.865   1.969   4.365
 5968SOL    HW118803   1.799   1.954   4.292
 5968SOL    HW218804   1.956   1.980   4.326
 5969SOL     OW18805   0.741   2.256   2.748
 5969SOL    HW118806   0.721   2.322   2.676
 5969SOL    HW218807   0.792   2.300   2.822
 5970SOL     OW18808   2.069   4.378   3.383
 5970SOL    HW118809   2.015   4.452   3.423
 5970SOL    HW218810   2.129   4.340   3.452
 5971SOL     OW18811   3.162   5.949   3.528
 5971SOL    HW118812   3.192   5.930   3.621
 5971SOL    HW218813   3.194   6.040   3.500
 5972SOL     OW18814   5.163   0.088   1.535
 5972SOL    HW118815   5.164   0.016   1.465
 5972SOL    HW218816   5.248   0.084   1.588
 5973SOL     OW18817   2.796   4.712   3.555
 5973SOL    HW118818   2.809   4.644   3.627
 5973SOL    HW218819   2.721   4.683   3.496
 5974SOL     OW18820   0.578   4.083   6.593
 5974SOL    HW118821   0.676   4.084   6.573
 5974SOL    HW218822   0.527   4.080   6.507
 5975SOL     OW18823   2.055   2.329   6.506
 5975SOL    HW118824   2.123   2.360   6.573
 5975SOL    HW218825   2.102   2.301   6.422
 5976SOL     OW18826   3.279   4.134   4.256
 5976SOL    HW118827   3.275   4.230   4.285
 5976SOL    HW218828   3.188   4.094   4.258
 5977SOL     OW18829   0.509   3.862   2.904
 5977SOL    HW118830   0.432   3.903   2.952
 5977SOL    HW218831   0.478   3.826   2.816
 5978SOL     OW18832   5.163   4.993   1.141
 5978SOL    HW118833   5.182   5.025   1.048
 5978SOL    HW218834   5.066   4.971   1.150
 5979SOL     OW18835   1.224   1.309   1.657
 5979SOL    HW118836   1.267   1.286   1.745
 5979SOL    HW218837   1.190   1.403   1.660
 5980SOL     OW18838   5.795   2.435   5.036
 5980SOL    HW118839   5.708   2.421   5.084
 5980SOL    HW218840   5.869   2.393   5.089
 5981SOL     OW18841   3.472   2.022   0.787
 5981SOL    HW118842   3.396   2.005   0.725
 5981SOL    HW218843   3.553   2.046   0.735
 5982SOL     OW18844   6.243   2.687   6.776
 5982SOL    HW118845   6.182   2.749   6.826
 5982SOL    HW218846   6.255   2.602   6.829
 5983SOL     OW18847   0.409   1.118   4.206
 5983SOL    HW118848   0.416   1.040   4.269
 5983SOL    HW218849   0.316   1.155   4.211
 5984SOL     OW18850   0.271   0.192   6.149
 5984SOL    HW118851   0.213   0.120   6.112
 5984SOL    HW218852   0.340   0.152   6.208
 5985SOL     OW18853   6.066   3.523   3.769
 5985SOL    HW118854   6.165   3.515   3.764
 5985SOL    HW218855   6.026   3.432   3.781
 5986SOL     OW18856   3.608   3.380   2.284
 5986SOL    HW118857   3.593   3.444   2.209
 5986SOL    HW218858   3.584   3.288   2.254
 5987SOL     OW18859   3.843   0.232   4.973
 5987SOL    HW118860   3.805   0.320   5.003
 5987SOL    HW218861   3.923   0.249   4.916
 5988SOL     OW18862   3.070   6.618   5.808
 5988SOL    HW118863   3.150   6.615   5.867
 5988SOL    HW218864   3.028   6.708   5.813
 5989SOL     OW18865   3.212   1.464   6.401
 5989SOL    HW118866   3.118   1.428   6.402
 5989SOL    HW218867   3.227   1.516   6.485
 5990SOL     OW18868   2.527   6.180   3.342
 5990SOL    HW118869   2.587   6.229   3.279
 5990SOL    HW218870   2.583   6.126   3.406
 5991SOL     OW18871   4.035   4.979   2.982
 5991SOL    HW118872   3.998   5.062   3.023
 5991SOL    HW218873   3.979   4.953   2.903
 5992SOL     OW18874   3.897   1.756   3.931
 5992SOL    HW118875   3.804   1.789   3.947
 5992SOL    HW218876   3.955   1.779   4.010
 5993SOL     OW18877   2.761   5.741   4.165
 5993SOL    HW118878   2.703   5.661   4.174
 5993SOL    HW218879   2.710   5.815   4.120
 5994SOL     OW18880   6.256   2.615   0.530
 5994SOL    HW118881   6.227   2.603   0.435
 5994SOL    HW218882   6.186   2.665   0.580
 5995SOL     OW18883   0.292   3.686   1.562
 5995SOL    HW118884   0.253   3.746   1.632
 5995SOL    HW218885   0.357   3.737   1.506
 5996SOL     OW18886   1.308   5.902   6.117
 5996SOL    HW118887   1.241   5.828   6.118
 5996SOL    HW218888   1.267   5.983   6.074
 5997SOL     OW18889   0.423   0.249   1.298
 5997SOL    HW118890   0.384   0.320   1.358
 5997SOL    HW218891   0.503   0.208   1.343
 5998SOL     OW18892   5.100   3.489   3.217
 5998SOL    HW118893   5.117   3.410   3.159
 5998SOL    HW218894   5.010   3.480   3.260
 5999SOL     OW18895   2.233   3.069   2.884
 5999SOL    HW118896   2.183   3.153   2.865
 5999SOL    HW218897   2.331   3.088   2.887
 6000SOL     OW18898   5.263   1.233   3.782
 6000SOL    HW118899   5.209   1.303   3.829
 6000SOL    HW218900   5.319   1.276   3.710
 6001SOL     OW18901   5.163   1.348   0.190
 6001SOL    HW118902   5.122   1.363   0.100
 6001SOL    HW218903   5.252   1.305   0.179
 6002SOL     OW18904   2.311   0.073   2.069
 6002SOL    HW118905   2.397   0.031   2.096
 6002SOL    HW218906   2.274   0.025   1.989
 6003SOL     OW18907   5.257   4.545   3.775
 6003SOL    HW118908   5.338   4.514   3.726
 6003SOL    HW218909   5.263   4.516   3.871
 6004SOL     OW18910   0.736   3.649   2.009
 6004SOL    HW118911   0.812   3.607   1.959
 6004SOL    HW218912   0.743   3.748   2.004
 6005SOL     OW18913   2.470   6.501   2.350
 6005SOL    HW118914   2.477   6.600   2.338
 6005SOL    HW218915   2.561   6.460   2.341
 6006SOL     OW18916   2.201   6.168   6.368
 6006SOL    HW118917   2.144   6.246   6.391
 6006SOL    HW218918   2.144   6.086   6.358
 6007SOL     OW18919   5.504   3.658   4.690
 6007SOL    HW118920   5.593   3.624   4.719
 6007SOL    HW218921   5.483   3.742   4.739
 6008SOL     OW18922   5.093   3.962   2.200
 6008SOL    HW118923   5.140   3.876   2.178
 6008SOL    HW218924   4.995   3.950   2.186
 6009SOL     OW18925   3.454   1.685   4.915
 6009SOL    HW118926   3.383   1.641   4.971
 6009SOL    HW218927   3.478   1.773   4.957
 6010SOL     OW18928   1.699   5.194   3.480
 6010SOL    HW118929   1.726   5.287   3.504
 6010SOL    HW218930   1.668   5.146   3.563
 6011SOL     OW18931   6.621   2.315   1.397
 6011SOL    HW118932   6.697   2.251   1.408
 6011SOL    HW218933   6.629   2.389   1.464
 6012SOL     OW18934   0.968   2.356   0.911
 6012SOL    HW118935   1.052   2.303   0.925
 6012SOL    HW218936   0.889   2.303   0.942
 6013SOL     OW18937   5.344   1.072   2.490
 6013SOL    HW118938   5.323   1.134   2.566
 6013SOL    HW218939   5.264   1.065   2.430
 6014SOL     OW18940   6.143   1.778   0.257
 6014SOL    HW118941   6.109   1.763   0.164
 6014SOL    HW218942   6.066   1.774   0.321
 6015SOL     OW18943   6.158   6.790   4.470
 6015SOL    HW118944   6.242   6.741   4.493
 6015SOL    HW218945   6.130   6.847   4.547
 6016SOL     OW18946   1.199   0.133   5.622
 6016SOL    HW118947   1.107   0.096   5.616
 6016SOL    HW218948   1.251   0.106   5.541
 6017SOL     OW18949   0.320   3.459   2.397
 6017SOL    HW118950   0.235   3.495   2.358
 6017SOL    HW218951   0.324   3.482   2.494
 6018SOL     OW18952   3.350   4.814   1.836
 6018SOL    HW118953   3.329   4.746   1.766
 6018SOL    HW218954   3.449   4.823   1.845
 6019SOL     OW18955   6.996   6.939   3.690
 6019SOL    HW118956   6.902   6.924   3.660
 6019SOL    HW218957   6.998   6.953   3.789
 6020SOL     OW18958   2.419   6.356   2.924
 6020SOL    HW118959   2.453   6.269   2.888
 6020SOL    HW218960   2.485   6.428   2.906
 6021SOL     OW18961   2.889   0.781   3.489
 6021SOL    HW118962   2.898   0.826   3.401
 6021SOL    HW218963   2.837   0.840   3.551
 6022SOL     OW18964   3.408   2.028   5.802
 6022SOL    HW118965   3.470   1.956   5.835
 6022SOL    HW218966   3.322   1.987   5.772
 6023SOL     OW18967   0.590   1.980   1.784
 6023SOL    HW118968   0.500   1.992   1.828
 6023SOL    HW218969   0.581   1.915   1.709
 6024SOL     OW18970   6.144   5.025   2.065
 6024SOL    HW118971   6.221   5.070   2.019
 6024SOL    HW218972   6.126   4.937   2.021
 6025SOL     OW18973   4.444   2.369   2.360
 6025SOL    HW118974   4.512   2.298   2.342
 6025SOL    HW218975   4.431   2.425   2.278
 6026SOL     OW18976   0.976   4.048   5.458
 6026SOL    HW118977   0.926   4.017   5.377
 6026SOL    HW218978   0.962   4.147   5.470
 6027SOL     OW18979   3.923   4.160   0.345
 6027SOL    HW118980   3.915   4.190   0.440
 6027SOL    HW218981   3.874   4.074   0.333
 6028SOL     OW18982   1.023   3.911   5.726
 6028SOL    HW118983   1.036   3.966   5.643
 6028SOL    HW218984   1.054   3.963   5.806
 6029SOL     OW18985   1.188   5.299   1.379
 6029SOL    HW118986   1.285   5.324   1.381
 6029SOL    HW218987   1.133   5.382   1.367
 6030SOL     OW18988   1.941   6.463   1.843
 6030SOL    HW118989   1.877   6.507   1.779
 6030SOL    HW218990   1.962   6.371   1.811
 6031SOL     OW18991   4.247   0.836   4.577
 6031SOL    HW118992   4.201   0.832   4.488
 6031SOL    HW218993   4.346   0.830   4.564
 6032SOL     OW18994   1.225   2.462   2.284
 6032SOL    HW118995   1.294   2.448   2.213
 6032SOL    HW218996   1.180   2.376   2.305
 6033SOL     OW18997   6.947   6.855   4.411
 6033SOL    HW118998   6.847   6.865   4.403
 6033SOL    HW218999   6.967   6.782   4.475
 6034SOL     OW19000   2.616   4.641   4.499
 6034SOL    HW119001   2.710   4.634   4.534
 6034SOL    HW219002   2.553   4.649   4.576
 6035SOL     OW19003   4.819   0.222   3.849
 6035SOL    HW119004   4.860   0.313   3.850
 6035SOL    HW219005   4.803   0.192   3.943
 6036SOL     OW19006   5.250   0.892   5.399
 6036SOL    HW119007   5.228   0.796   5.383
 6036SOL    HW219008   5.257   0.940   5.311
 6037SOL     OW19009   0.152   5.317   4.863
 6037SOL    HW119010   0.238   5.343   4.907
 6037SOL    HW219011   0.106   5.247   4.918
 6038SOL     OW19012   0.166   3.554   6.562
 6038SOL    HW119013   0.213   3.550   6.473
 6038SOL    HW219014   0.231   3.530   6.634
 6039SOL     OW19015   3.206   3.501   3.886
 6039SOL    HW119016   3.168   3.431   3.826
 6039SOL    HW219017   3.184   3.592   3.850
 6040SOL     OW19018   1.552   0.837   0.871
 6040SOL    HW119019   1.592   0.748   0.848
 6040SOL    HW219020   1.599   0.909   0.821
 6041SOL     OW19021   0.466   3.108   6.584
 6041SOL    HW119022   0.523   3.064   6.655
 6041SOL    HW219023   0.455   3.204   6.606
 6042SOL     OW19024   5.821   5.731   4.973
 6042SOL    HW119025   5.830   5.685   4.884
 6042SOL    HW219026   5.725   5.752   4.990
 6043SOL     OW19027   6.812   4.795   3.232
 6043SOL    HW119028   6.841   4.804   3.137
 6043SOL    HW219029   6.731   4.737   3.237
 6044SOL     OW19030   1.381   0.769   0.550
 6044SOL    HW119031   1.478   0.787   0.530
 6044SOL    HW219032   1.334   0.855   0.567
 6045SOL     OW19033   5.872   3.594   6.541
 6045SOL    HW119034   5.820   3.650   6.605
 6045SOL    HW219035   5.956   3.562   6.584
 6046SOL     OW19036   0.954   3.627   6.909
 6046SOL    HW119037   0.946   3.722   6.878
 6046SOL    HW219038   0.955   3.566   6.830
 6047SOL     OW19039   1.172   6.462   4.988
 6047SOL    HW119040   1.167   6.505   5.078
 6047SOL    HW219041   1.196   6.365   4.998
 6048SOL     OW19042   5.058   6.280   4.278
 6048SOL    HW119043   5.089   6.200   4.227
 6048SOL    HW219044   4.958   6.281   4.283
 6049SOL     OW19045   6.956   5.700   0.522
 6049SOL    HW119046   7.007   5.678   0.439
 6049SOL    HW219047   6.951   5.619   0.580
 6050SOL     OW19048   5.435   4.341   5.225
 6050SOL    HW119049   5.402   4.271   5.162
 6050SOL    HW219050   5.358   4.375   5.280
 6051SOL     OW19051   2.855   1.856   3.240
 6051SOL    HW119052   2.824   1.830   3.331
 6051SOL    HW219053   2.955   1.855   3.237
 6052SOL     OW19054   0.522   2.123   6.654
 6052SOL    HW119055   0.552   2.198   6.712
 6052SOL    HW219056   0.530   2.037   6.705
 6053SOL     OW19057   0.715   0.584   6.448
 6053SOL    HW119058   0.660   0.503   6.426
 6053SOL    HW219059   0.810   0.555   6.466
 6054SOL     OW19060   0.493   3.841   6.162
 6054SOL    HW119061   0.453   3.887   6.082
 6054SOL    HW219062   0.575   3.792   6.133
 6055SOL     OW19063   5.738   6.663   2.804
 6055SOL    HW119064   5.739   6.758   2.773
 6055SOL    HW219065   5.752   6.602   2.726
 6056SOL     OW19066   5.156   2.858   6.508
 6056SOL    HW119067   5.110   2.868   6.420
 6056SOL    HW219068   5.253   2.884   6.498
 6057SOL     OW19069   4.950   0.873   6.487
 6057SOL    HW119070   5.050   0.881   6.487
 6057SOL    HW219071   4.924   0.787   6.444
 6058SOL     OW19072   5.259   2.573   5.797
 6058SOL    HW119073   5.270   2.558   5.699
 6058SOL    HW219074   5.168   2.608   5.816
 6059SOL     OW19075   0.132   6.227   6.653
 6059SOL    HW119076   0.216   6.206   6.602
 6059SOL    HW219077   0.133   6.323   6.680
 6060SOL     OW19078   3.206   5.915   6.519
 6060SOL    HW119079   3.241   5.966   6.440
 6060SOL    HW219080   3.162   5.831   6.487
 6061SOL     OW19081   2.211   1.279   6.795
 6061SOL    HW119082   2.295   1.324   6.764
 6061SOL    HW219083   2.132   1.330   6.761
 6062SOL     OW19084   1.189   6.855   3.219
 6062SOL    HW119085   1.179   6.798   3.138
 6062SOL    HW219086   1.122   6.827   3.288
 6063SOL     OW19087   5.950   6.223   6.920
 6063SOL    HW119088   5.929   6.251   7.014
 6063SOL    HW219089   5.988   6.301   6.870
 6064SOL     OW19090   0.741   5.577   2.114
 6064SOL    HW119091   0.752   5.648   2.045
 6064SOL    HW219092   0.644   5.569   2.138
 6065SOL     OW19093   5.045   6.820   1.247
 6065SOL    HW119094   5.111   6.872   1.193
 6065SOL    HW219095   4.999   6.753   1.189
 6066SOL     OW19096   4.751   2.059   5.833
 6066SOL    HW119097   4.716   2.127   5.898
 6066SOL    HW219098   4.768   1.973   5.881
 6067SOL     OW19099   5.434   1.512   6.914
 6067SOL    HW119100   5.343   1.474   6.900
 6067SOL    HW219101   5.502   1.453   6.872
 6068SOL     OW19102   4.916   0.916   5.253
 6068SOL    HW119103   4.915   0.852   5.330
 6068SOL    HW219104   4.996   0.899   5.196
 6069SOL     OW19105   0.162   5.136   3.509
 6069SOL    HW119106   0.135   5.231   3.523
 6069SOL    HW219107   0.149   5.112   3.412
 6070SOL     OW19108   4.971   3.547   1.365
 6070SOL    HW119109   5.029   3.608   1.419
 6070SOL    HW219110   4.895   3.515   1.421
 6071SOL     OW19111   5.414   0.769   5.095
 6071SOL    HW119112   5.395   0.671   5.087
 6071SOL    HW219113   5.466   0.786   5.178
 6072SOL     OW19114   6.062   1.048   1.803
 6072SOL    HW119115   5.977   1.021   1.847
 6072SOL    HW219116   6.042   1.098   1.718
 6073SOL     OW19117   5.911   0.991   0.829
 6073SOL    HW119118   5.961   1.021   0.910
 6073SOL    HW219119   5.816   1.023   0.834
 6074SOL     OW19120   0.287   0.974   5.663
 6074SOL    HW119121   0.281   1.072   5.679
 6074SOL    HW219122   0.357   0.955   5.595
 6075SOL     OW19123   5.286   3.260   5.868
 6075SOL    HW119124   5.228   3.184   5.837
 6075SOL    HW219125   5.357   3.278   5.801
 6076SOL     OW19126   3.126   0.512   3.811
 6076SOL    HW119127   3.200   0.578   3.810
 6076SOL    HW219128   3.048   0.548   3.760
 6077SOL     OW19129   5.041   5.111   3.222
 6077SOL    HW119130   5.076   5.191   3.272
 6077SOL    HW219131   4.941   5.108   3.230
 6078SOL     OW19132   2.275   4.855   4.604
 6078SOL    HW119133   2.372   4.837   4.624
 6078SOL    HW219134   2.227   4.876   4.689
 6079SOL     OW19135   3.231   2.016   0.630
 6079SOL    HW119136   3.139   2.032   0.594
 6079SOL    HW219137   3.286   2.099   0.618
 6080SOL     OW19138   6.359   3.435   3.676
 6080SOL    HW119139   6.389   3.351   3.722
 6080SOL    HW219140   6.309   3.411   3.593
 6081SOL     OW19141   0.952   4.497   1.711
 6081SOL    HW119142   1.015   4.540   1.647
 6081SOL    HW219143   0.924   4.407   1.677
 6082SOL     OW19144   4.781   1.699   5.404
 6082SOL    HW119145   4.830   1.772   5.451
 6082SOL    HW219146   4.839   1.618   5.397
 6083SOL     OW19147   1.660   6.443   6.853
 6083SOL    HW119148   1.627   6.509   6.921
 6083SOL    HW219149   1.760   6.442   6.855
 6084SOL     OW19150   0.183   6.073   6.115
 6084SOL    HW119151   0.245   5.996   6.131
 6084SOL    HW219152   0.212   6.150   6.171
 6085SOL     OW19153   5.494   4.813   1.878
 6085SOL    HW119154   5.494   4.717   1.849
 6085SOL    HW219155   5.459   4.820   1.971
 6086SOL     OW19156   3.133   2.066   1.788
 6086SOL    HW119157   3.134   1.974   1.749
 6086SOL    HW219158   3.227   2.100   1.794
 6087SOL     OW19159   3.373   0.794   0.282
 6087SOL    HW119160   3.287   0.842   0.302
 6087SOL    HW219161   3.392   0.799   0.184
 6088SOL     OW19162   0.745   1.000   4.609
 6088SOL    HW119163   0.796   1.047   4.682
 6088SOL    HW219164   0.785   0.909   4.594
 6089SOL     OW19165   7.009   3.344   1.197
 6089SOL    HW119166   0.049   3.418   1.166
 6089SOL    HW219167   6.914   3.366   1.175
 6090SOL     OW19168   6.533   6.678   4.269
 6090SOL    HW119169   6.557   6.652   4.176
 6090SOL    HW219170   6.573   6.767   4.291
 6091SOL     OW19171   6.789   2.014   2.291
 6091SOL    HW119172   6.736   1.945   2.243
 6091SOL    HW219173   6.738   2.047   2.370
 6092SOL     OW19174   0.538   3.013   1.224
 6092SOL    HW119175   0.568   2.919   1.206
 6092SOL    HW219176   0.449   3.027   1.181
 6093SOL     OW19177   0.910   4.322   0.704
 6093SOL    HW119178   0.831   4.349   0.759
 6093SOL    HW219179   0.986   4.297   0.764
 6094SOL     OW19180   0.493   1.328   1.152
 6094SOL    HW119181   0.457   1.408   1.103
 6094SOL    HW219182   0.512   1.255   1.086
 6095SOL     OW19183   0.586   3.890   5.121
 6095SOL    HW119184   0.534   3.874   5.205
 6095SOL    HW219185   0.530   3.940   5.056
 6096SOL     OW19186   5.686   2.099   2.747
 6096SOL    HW119187   5.602   2.153   2.734
 6096SOL    HW219188   5.738   2.100   2.662
 6097SOL     OW19189   3.925   1.258   2.613
 6097SOL    HW119190   3.905   1.327   2.544
 6097SOL    HW219191   3.864   1.180   2.599
 6098SOL     OW19192   0.506   1.002   6.838
 6098SOL    HW119193   0.485   0.943   6.917
 6098SOL    HW219194   0.551   0.947   6.767
 6099SOL     OW19195   5.673   4.261   4.597
 6099SOL    HW119196   5.643   4.337   4.539
 6099SOL    HW219197   5.769   4.241   4.579
 6100SOL     OW19198   0.048   2.995   1.417
 6100SOL    HW119199   0.079   2.916   1.471
 6100SOL    HW219200   6.969   2.991   1.405
 6101SOL     OW19201   6.436   6.209   3.422
 6101SOL    HW119202   6.509   6.144   3.399
 6101SOL    HW219203   6.360   6.159   3.464
 6102SOL     OW19204   3.826   6.039   4.757
 6102SOL    HW119205   3.775   6.080   4.832
 6102SOL    HW219206   3.773   6.046   4.672
 6103SOL     OW19207   5.231   1.810   4.780
 6103SOL    HW119208   5.311   1.770   4.734
 6103SOL    HW219209   5.215   1.763   4.867
 6104SOL     OW19210   2.413   2.749   1.351
 6104SOL    HW119211   2.373   2.705   1.432
 6104SOL    HW219212   2.352   2.736   1.273
 6105SOL     OW19213   3.527   5.297   5.005
 6105SOL    HW119214   3.570   5.212   5.033
 6105SOL    HW219215   3.428   5.286   5.005
 6106SOL     OW19216   2.032   5.396   4.160
 6106SOL    HW119217   1.994   5.312   4.120
 6106SOL    HW219218   1.958   5.454   4.193
 6107SOL     OW19219   1.831   4.868   6.188
 6107SOL    HW119220   1.791   4.841   6.100
 6107SOL    HW219221   1.774   4.834   6.262
 6108SOL     OW19222   5.506   1.707   4.796
 6108SOL    HW119223   5.600   1.740   4.798
 6108SOL    HW219224   5.504   1.611   4.827
 6109SOL     OW19225   0.592   4.668   1.953
 6109SOL    HW119226   0.621   4.714   1.869
 6109SOL    HW219227   0.672   4.632   2.001
 6110SOL     OW19228   3.320   2.094   3.745
 6110SOL    HW119229   3.262   2.013   3.743
 6110SOL    HW219230   3.380   2.094   3.664
 6111SOL     OW19231   0.695   4.689   3.615
 6111SOL    HW119232   0.709   4.632   3.534
 6111SOL    HW219233   0.720   4.783   3.595
 6112SOL     OW19234   1.825   0.764   1.200
 6112SOL    HW119235   1.737   0.763   1.249
 6112SOL    HW219236   1.852   0.858   1.183
 6113SOL     OW19237   0.827   5.092   5.805
 6113SOL    HW119238   0.889   5.157   5.849
 6113SOL    HW219239   0.875   5.006   5.789
 6114SOL     OW19240   3.892   4.503   1.169
 6114SOL    HW119241   3.943   4.586   1.190
 6114SOL    HW219242   3.894   4.441   1.247
 6115SOL     OW19243   0.070   4.235   2.650
 6115SOL    HW119244   0.011   4.278   2.582
 6115SOL    HW219245   0.049   4.137   2.655
 6116SOL     OW19246   4.304   2.313   1.177
 6116SOL    HW119247   4.244   2.245   1.134
 6116SOL    HW219248   4.370   2.346   1.110
 6117SOL     OW19249   5.290   6.325   4.459
 6117SOL    HW119250   5.345   6.304   4.378
 6117SOL    HW219251   5.193   6.316   4.437
 6118SOL     OW19252   6.635   0.100   3.417
 6118SOL    HW119253   6.682   0.012   3.427
 6118SOL    HW219254   6.544   0.093   3.457
 6119SOL     OW19255   5.854   5.318   5.025
 6119SOL    HW119256   5.791   5.309   4.948
 6119SOL    HW219257   5.837   5.403   5.073
 6120SOL     OW19258   2.566   1.988   2.476
 6120SOL    HW119259   2.514   1.992   2.562
 6120SOL    HW219260   2.640   2.055   2.479
 6121SOL     OW19261   0.006   1.889   3.253
 6121SOL    HW119262   0.093   1.866   3.296
 6121SOL    HW219263   0.006   1.985   3.226
 6122SOL     OW19264   3.913   5.568   4.076
 6122SOL    HW119265   3.890   5.662   4.102
 6122SOL    HW219266   3.911   5.510   4.157
 6123SOL     OW19267   6.806   2.097   2.756
 6123SOL    HW119268   6.757   2.049   2.830
 6123SOL    HW219269   6.782   2.194   2.758
 6124SOL     OW19270   2.938   0.179   4.951
 6124SOL    HW119271   2.957   0.227   5.037
 6124SOL    HW219272   2.887   0.095   4.970
 6125SOL     OW19273   1.331   4.360   2.696
 6125SOL    HW119274   1.315   4.342   2.793
 6125SOL    HW219275   1.259   4.420   2.661
 6126SOL     OW19276   3.530   6.931   3.126
 6126SOL    HW119277   3.526   6.837   3.160
 6126SOL    HW219278   3.442   6.976   3.141
 6127SOL     OW19279   1.913   5.669   0.964
 6127SOL    HW119280   1.936   5.581   0.923
 6127SOL    HW219281   1.996   5.724   0.971
 6128SOL     OW19282   5.601   4.161   2.100
 6128SOL    HW119283   5.576   4.231   2.166
 6128SOL    HW219284   5.681   4.111   2.135
 6129SOL     OW19285   6.620   3.821   3.600
 6129SOL    HW119286   6.611   3.877   3.682
 6129SOL    HW219287   6.665   3.875   3.528
 6130SOL     OW19288   6.085   3.215   2.718
 6130SOL    HW119289   6.084   3.313   2.735
 6130SOL    HW219290   6.015   3.193   2.650
 6131SOL     OW19291   0.087   1.606   5.427
 6131SOL    HW119292   0.110   1.648   5.339
 6131SOL    HW219293   7.016   1.565   5.421
 6132SOL     OW19294   7.002   2.849   0.446
 6132SOL    HW119295   7.016   2.752   0.462
 6132SOL    HW219296   0.034   2.902   0.514
 6133SOL     OW19297   1.449   4.692   0.715
 6133SOL    HW119298   1.409   4.600   0.719
 6133SOL    HW219299   1.380   4.759   0.741
 6134SOL     OW19300   4.502   4.217   6.102
 6134SOL    HW119301   4.421   4.230   6.044
 6134SOL    HW219302   4.534   4.123   6.092
 6135SOL     OW19303   5.659   6.283   2.034
 6135SOL    HW119304   5.734   6.322   1.982
 6135SOL    HW219305   5.595   6.355   2.061
 6136SOL     OW19306   1.451   2.189   2.303
 6136SOL    HW119307   1.511   2.268   2.293
 6136SOL    HW219308   1.505   2.109   2.330
 6137SOL     OW19309   2.957   0.301   6.095
 6137SOL    HW119310   3.012   0.360   6.155
 6137SOL    HW219311   2.862   0.301   6.126
 6138SOL     OW19312   4.594   0.635   3.570
 6138SOL    HW119313   4.641   0.604   3.652
 6138SOL    HW219314   4.637   0.719   3.536
 6139SOL     OW19315   2.614   6.265   3.831
 6139SOL    HW119316   2.519   6.251   3.802
 6139SOL    HW219317   2.669   6.290   3.751
 6140SOL     OW19318   2.241   5.608   1.466
 6140SOL    HW119319   2.165   5.621   1.530
 6140SOL    HW219320   2.208   5.562   1.384
 6141SOL     OW19321   0.633   6.342   4.491
 6141SOL    HW119322   0.660   6.348   4.587
 6141SOL    HW219323   0.535   6.327   4.485
 6142SOL     OW19324   0.206   2.936   4.099
 6142SOL    HW119325   0.300   2.943   4.067
 6142SOL    HW219326   0.167   3.027   4.111
 6143SOL     OW19327   6.654   5.736   6.610
 6143SOL    HW119328   6.727   5.762   6.674
 6143SOL    HW219329   6.606   5.818   6.580
 6144SOL     OW19330   0.412   5.734   4.850
 6144SOL    HW119331   0.330   5.758   4.799
 6144SOL    HW219332   0.405   5.769   4.943
 6145SOL     OW19333   5.687   5.228   3.560
 6145SOL    HW119334   5.676   5.130   3.577
 6145SOL    HW219335   5.782   5.247   3.532
 6146SOL     OW19336   5.934   1.787   3.878
 6146SOL    HW119337   5.846   1.813   3.920
 6146SOL    HW219338   5.925   1.698   3.833
 6147SOL     OW19339   1.364   3.962   3.721
 6147SOL    HW119340   1.343   3.978   3.818
 6147SOL    HW219341   1.420   3.879   3.713
 6148SOL     OW19342   5.920   6.725   3.695
 6148SOL    HW119343   5.931   6.637   3.650
 6148SOL    HW219344   5.902   6.796   3.627
 6149SOL     OW19345   0.920   5.681   4.407
 6149SOL    HW119346   0.882   5.759   4.358
 6149SOL    HW219347   0.847   5.616   4.428
 6150SOL     OW19348   4.632   6.917   6.439
 6150SOL    HW119349   4.715   6.862   6.443
 6150SOL    HW219350   4.615   6.959   6.528
 6151SOL     OW19351   3.767   0.461   4.802
 6151SOL    HW119352   3.728   0.370   4.790
 6151SOL    HW219353   3.867   0.455   4.798
 6152SOL     OW19354   6.290   3.683   6.395
 6152SOL    HW119355   6.330   3.699   6.485
 6152SOL    HW219356   6.354   3.630   6.339
 6153SOL     OW19357   3.958   5.737   5.776
 6153SOL    HW119358   4.029   5.700   5.715
 6153SOL    HW219359   3.900   5.800   5.725
 6154SOL     OW19360   5.246   2.717   3.464
 6154SOL    HW119361   5.152   2.752   3.468
 6154SOL    HW219362   5.276   2.691   3.556
 6155SOL     OW19363   3.063   4.873   4.643
 6155SOL    HW119364   3.161   4.886   4.625
 6155SOL    HW219365   3.050   4.849   4.739
 6156SOL     OW19366   5.599   0.549   4.310
 6156SOL    HW119367   5.502   0.553   4.286
 6156SOL    HW219368   5.642   0.636   4.287
 6157SOL     OW19369   1.305   0.238   4.537
 6157SOL    HW119370   1.235   0.295   4.494
 6157SOL    HW219371   1.264   0.186   4.612
 6158SOL     OW19372   4.908   6.384   0.280
 6158SOL    HW119373   4.930   6.375   0.377
 6158SOL    HW219374   4.932   6.299   0.233
 6159SOL     OW19375   4.372   3.521   6.322
 6159SOL    HW119376   4.382   3.601   6.381
 6159SOL    HW219377   4.360   3.439   6.379
 6160SOL     OW19378   6.223   4.948   0.511
 6160SOL    HW119379   6.251   5.032   0.466
 6160SOL    HW219380   6.301   4.906   0.557
 6161SOL     OW19381   5.281   0.655   6.213
 6161SOL    HW119382   5.254   0.723   6.145
 6161SOL    HW219383   5.377   0.630   6.200
 6162SOL     OW19384   5.580   5.991   3.630
 6162SOL    HW119385   5.527   5.940   3.698
 6162SOL    HW219386   5.517   6.028   3.561
 6163SOL     OW19387   0.296   3.970   3.034
 6163SOL    HW119388   0.256   4.039   2.973
 6163SOL    HW219389   0.252   3.974   3.123
 6164SOL     OW19390   4.726   3.489   1.452
 6164SOL    HW119391   4.663   3.493   1.530
 6164SOL    HW219392   4.736   3.394   1.423
 6165SOL     OW19393   3.620   0.044   1.082
 6165SOL    HW119394   3.563   0.115   1.040
 6165SOL    HW219395   3.698   0.087   1.128
 6166SOL     OW19396   3.333   0.629   0.800
 6166SOL    HW119397   3.241   0.662   0.823
 6166SOL    HW219398   3.342   0.533   0.829
 6167SOL     OW19399   0.449   5.294   3.512
 6167SOL    HW119400   0.352   5.303   3.492
 6167SOL    HW219401   0.463   5.299   3.611
 6168SOL     OW19402   0.229   2.420   1.902
 6168SOL    HW119403   0.250   2.393   1.808
 6168SOL    HW219404   0.311   2.456   1.946
 6169SOL     OW19405   1.855   4.275   1.112
 6169SOL    HW119406   1.875   4.232   1.024
 6169SOL    HW219407   1.897   4.366   1.115
 6170SOL     OW19408   5.591   2.338   3.729
 6170SOL    HW119409   5.502   2.340   3.682
 6170SOL    HW219410   5.584   2.281   3.810
 6171SOL     OW19411   5.977   2.617   6.346
 6171SOL    HW119412   6.021   2.686   6.405
 6171SOL    HW219413   5.926   2.663   6.274
 6172SOL     OW19414   0.032   4.543   3.271
 6172SOL    HW119415   6.995   4.582   3.199
 6172SOL    HW219416   7.000   4.538   3.356
 6173SOL     OW19417   5.461   6.467   2.485
 6173SOL    HW119418   5.519   6.459   2.566
 6173SOL    HW219419   5.385   6.529   2.506
 6174SOL     OW19420   0.454   2.071   3.470
 6174SOL    HW119421   0.360   2.073   3.503
 6174SOL    HW219422   0.512   2.123   3.532
 6175SOL     OW19423   4.554   2.342   6.586
 6175SOL    HW119424   4.466   2.380   6.615
 6175SOL    HW219425   4.556   2.337   6.486
 6176SOL     OW19426   2.478   5.073   5.959
 6176SOL    HW119427   2.510   5.083   6.053
 6176SOL    HW219428   2.550   5.035   5.903
 6177SOL     OW19429   6.074   5.292   1.328
 6177SOL    HW119430   6.030   5.311   1.240
 6177SOL    HW219431   6.088   5.194   1.338
 6178SOL     OW19432   4.248   4.594   1.893
 6178SOL    HW119433   4.274   4.585   1.989
 6178SOL    HW219434   4.305   4.534   1.837
 6179SOL     OW19435   4.851   5.234   4.444
 6179SOL    HW119436   4.889   5.326   4.446
 6179SOL    HW219437   4.765   5.232   4.495
 6180SOL     OW19438   1.456   3.302   6.308
 6180SOL    HW119439   1.434   3.204   6.310
 6180SOL    HW219440   1.384   3.353   6.354
 6181SOL     OW19441   0.270   6.391   0.253
 6181SOL    HW119442   0.216   6.353   0.328
 6181SOL    HW219443   0.261   6.491   0.252
 6182SOL     OW19444   2.648   2.552   5.904
 6182SOL    HW119445   2.683   2.625   5.847
 6182SOL    HW219446   2.697   2.551   5.992
 6183SOL     OW19447   0.233   0.572   0.615
 6183SOL    HW119448   0.224   0.660   0.569
 6183SOL    HW219449   0.156   0.513   0.592
 6184SOL     OW19450   3.796   6.593   5.041
 6184SOL    HW119451   3.718   6.550   5.087
 6184SOL    HW219452   3.844   6.525   4.986
 6185SOL     OW19453   3.451   3.213   3.361
 6185SOL    HW119454   3.497   3.125   3.372
 6185SOL    HW219455   3.517   3.281   3.328
 6186SOL     OW19456   1.023   1.159   1.905
 6186SOL    HW119457   1.095   1.176   1.972
 6186SOL    HW219458   0.954   1.232   1.911
 6187SOL     OW19459   3.644   2.199   5.691
 6187SOL    HW119460   3.646   2.296   5.668
 6187SOL    HW219461   3.612   2.187   5.785
 6188SOL     OW19462   0.592   1.567   5.859
 6188SOL    HW119463   0.603   1.490   5.921
 6188SOL    HW219464   0.494   1.589   5.850
 6189SOL     OW19465   6.781   5.144   0.935
 6189SOL    HW119466   6.712   5.095   0.987
 6189SOL    HW219467   6.761   5.136   0.837
 6190SOL     OW19468   1.202   3.196   3.596
 6190SOL    HW119469   1.186   3.113   3.543
 6190SOL    HW219470   1.163   3.274   3.547
 6191SOL     OW19471   2.528   4.863   0.185
 6191SOL    HW119472   2.591   4.923   0.138
 6191SOL    HW219473   2.579   4.790   0.232
 6192SOL     OW19474   2.520   1.568   0.883
 6192SOL    HW119475   2.457   1.573   0.806
 6192SOL    HW219476   2.552   1.474   0.895
 6193SOL     OW19477   4.565   5.269   6.747
 6193SOL    HW119478   4.631   5.283   6.673
 6193SOL    HW219479   4.608   5.287   6.835
 6194SOL     OW19480   5.385   7.015   6.102
 6194SOL    HW119481   5.301   0.047   6.090
 6194SOL    HW219482   5.457   0.056   6.137
 6195SOL     OW19483   5.184   5.401   5.731
 6195SOL    HW119484   5.215   5.395   5.636
 6195SOL    HW219485   5.176   5.309   5.769
 6196SOL     OW19486   6.845   3.982   2.828
 6196SOL    HW119487   6.815   3.892   2.862
 6196SOL    HW219488   6.783   4.052   2.863
 6197SOL     OW19489   0.272   5.397   1.302
 6197SOL    HW119490   0.343   5.465   1.319
 6197SOL    HW219491   0.257   5.389   1.203
 6198SOL     OW19492   6.451   2.056   5.745
 6198SOL    HW119493   6.499   2.117   5.682
 6198SOL    HW219494   6.476   2.079   5.840
 6199SOL     OW19495   2.272   6.979   5.917
 6199SOL    HW119496   2.210   6.901   5.907
 6199SOL    HW219497   2.235   0.023   5.984
 6200SOL     OW19498   1.821   6.730   6.789
 6200SOL    HW119499   1.887   6.799   6.820
 6200SOL    HW219500   1.852   6.639   6.818
 6201SOL     OW19501   1.042   4.932   3.663
 6201SOL    HW119502   1.024   4.983   3.747
 6201SOL    HW219503   0.985   4.968   3.589
 6202SOL     OW19504   4.813   1.624   1.731
 6202SOL    HW119505   4.832   1.556   1.660
 6202SOL    HW219506   4.869   1.604   1.812
 6203SOL     OW19507   0.574   1.275   2.651
 6203SOL    HW119508   0.503   1.340   2.623
 6203SOL    HW219509   0.664   1.311   2.626
 6204SOL     OW19510   1.011   6.048   4.546
 6204SOL    HW119511   0.960   6.018   4.466
 6204SOL    HW219512   1.014   5.975   4.614
 6205SOL     OW19513   0.302   4.451   3.288
 6205SOL    HW119514   0.208   4.486   3.278
 6205SOL    HW219515   0.299   4.361   3.332
 6206SOL     OW19516   5.455   2.333   4.084
 6206SOL    HW119517   5.379   2.344   4.020
 6206SOL    HW219518   5.508   2.252   4.060
 6207SOL     OW19519   1.605   5.975   3.207
 6207SOL    HW119520   1.692   5.980   3.158
 6207SOL    HW219521   1.544   5.912   3.160
 6208SOL     OW19522   4.152   4.321   6.488
 6208SOL    HW119523   4.105   4.393   6.437
 6208SOL    HW219524   4.251   4.336   6.483
 6209SOL     OW19525   3.269   1.090   2.815
 6209SOL    HW119526   3.171   1.109   2.819
 6209SOL    HW219527   3.315   1.164   2.765
 6210SOL     OW19528   5.207   0.277   4.392
 6210SOL    HW119529   5.114   0.296   4.423
 6210SOL    HW219530   5.207   0.263   4.293
 6211SOL     OW19531   5.178   2.722   5.341
 6211SOL    HW119532   5.210   2.817   5.348
 6211SOL    HW219533   5.231   2.674   5.272
 6212SOL     OW19534   4.859   4.036   4.948
 6212SOL    HW119535   4.827   4.131   4.955
 6212SOL    HW219536   4.821   3.982   5.023
 6213SOL     OW19537   5.253   5.723   0.752
 6213SOL    HW119538   5.234   5.626   0.759
 6213SOL    HW219539   5.196   5.774   0.817
 6214SOL     OW19540   6.629   6.280   6.177
 6214SOL    HW119541   6.561   6.208   6.190
 6214SOL    HW219542   6.694   6.278   6.252
 6215SOL     OW19543   5.371   2.596   5.177
 6215SOL    HW119544   5.469   2.602   5.197
 6215SOL    HW219545   5.348   2.502   5.152
 6216SOL     OW19546   5.438   2.835   6.340
 6216SOL    HW119547   5.488   2.790   6.267
 6216SOL    HW219548   5.462   2.793   6.428
 6217SOL     OW19549   0.428   4.265   2.191
 6217SOL    HW119550   0.385   4.179   2.167
 6217SOL    HW219551   0.384   4.304   2.272
 6218SOL     OW19552   5.169   6.758   1.754
 6218SOL    HW119553   5.212   6.673   1.785
 6218SOL    HW219554   5.127   6.743   1.664
 6219SOL     OW19555   2.560   0.663   0.321
 6219SOL    HW119556   2.617   0.598   0.272
 6219SOL    HW219557   2.472   0.673   0.274
 6220SOL     OW19558   2.326   0.857   2.735
 6220SOL    HW119559   2.234   0.888   2.761
 6220SOL    HW219560   2.391   0.931   2.750
 6221SOL     OW19561   4.168   5.334   5.205
 6221SOL    HW119562   4.261   5.369   5.195
 6221SOL    HW219563   4.164   5.240   5.171
 6222SOL     OW19564   0.307   0.979   1.948
 6222SOL    HW119565   0.377   1.020   2.006
 6222SOL    HW219566   0.346   0.958   1.858
 6223SOL     OW19567   6.453   4.815   3.602
 6223SOL    HW119568   6.491   4.896   3.558
 6223SOL    HW219569   6.462   4.822   3.701
 6224SOL     OW19570   4.063   0.094   7.011
 6224SOL    HW119571   3.997   0.036   0.038
 6224SOL    HW219572   4.020   0.181   6.987
 6225SOL     OW19573   5.954   5.174   6.146
 6225SOL    HW119574   5.866   5.220   6.163
 6225SOL    HW219575   5.999   5.155   6.233
 6226SOL     OW19576   1.639   0.971   4.054
 6226SOL    HW119577   1.696   0.926   3.985
 6226SOL    HW219578   1.574   1.033   4.010
 6227SOL     OW19579   2.402   4.051   5.838
 6227SOL    HW119580   2.438   4.073   5.748
 6227SOL    HW219581   2.378   3.954   5.842
 6228SOL     OW19582   1.282   3.076   4.102
 6228SOL    HW119583   1.378   3.085   4.131
 6228SOL    HW219584   1.233   3.020   4.169
 6229SOL     OW19585   0.291   5.127   4.476
 6229SOL    HW119586   0.234   5.046   4.463
 6229SOL    HW219587   0.341   5.147   4.392
 6230SOL     OW19588   1.031   0.859   0.873
 6230SOL    HW119589   1.015   0.886   0.968
 6230SOL    HW219590   1.120   0.894   0.843
 6231SOL     OW19591   1.314   5.819   5.801
 6231SOL    HW119592   1.380   5.756   5.761
 6231SOL    HW219593   1.314   5.809   5.901
 6232SOL     OW19594   3.771   1.052   6.269
 6232SOL    HW119595   3.795   1.090   6.179
 6232SOL    HW219596   3.781   0.953   6.267
 6233SOL     OW19597   6.889   3.968   1.334
 6233SOL    HW119598   6.884   3.987   1.432
 6233SOL    HW219599   6.912   3.872   1.319
 6234SOL     OW19600   4.508   4.808   2.594
 6234SOL    HW119601   4.465   4.899   2.593
 6234SOL    HW219602   4.444   4.742   2.554
 6235SOL     OW19603   0.805   1.222   1.234
 6235SOL    HW119604   0.806   1.232   1.134
 6235SOL    HW219605   0.758   1.299   1.275
 6236SOL     OW19606   6.036   6.274   1.810
 6236SOL    HW119607   6.074   6.351   1.862
 6236SOL    HW219608   5.982   6.216   1.871
 6237SOL     OW19609   4.465   0.928   3.284
 6237SOL    HW119610   4.403   0.881   3.347
 6237SOL    HW219611   4.417   0.950   3.199
 6238SOL     OW19612   2.119   6.640   3.269
 6238SOL    HW119613   2.188   6.572   3.242
 6238SOL    HW219614   2.137   6.671   3.362
 6239SOL     OW19615   4.474   1.590   4.014
 6239SOL    HW119616   4.506   1.588   4.108
 6239SOL    HW219617   4.530   1.654   3.961
 6240SOL     OW19618   4.143   3.409   4.121
 6240SOL    HW119619   4.129   3.484   4.056
 6240SOL    HW219620   4.133   3.444   4.214
 6241SOL     OW19621   4.031   0.384   2.994
 6241SOL    HW119622   4.031   0.389   2.894
 6241SOL    HW219623   4.052   0.290   3.023
 6242SOL     OW19624   3.242   1.992   4.568
 6242SOL    HW119625   3.164   2.014   4.510
 6242SOL    HW219626   3.215   1.922   4.635
 6243SOL     OW19627   3.435   0.282   0.222
 6243SOL    HW119628   3.396   0.289   0.314
 6243SOL    HW219629   3.510   0.216   0.223
 6244SOL     OW19630   5.441   2.407   1.435
 6244SOL    HW119631   5.489   2.321   1.454
 6244SOL    HW219632   5.345   2.388   1.416
 6245SOL     OW19633   6.844   4.955   1.478
 6245SOL    HW119634   6.925   4.966   1.536
 6245SOL    HW219635   6.850   4.869   1.428
 6246SOL     OW19636   0.842   6.196   5.149
 6246SOL    HW119637   0.942   6.196   5.152
 6246SOL    HW219638   0.810   6.120   5.092
 6247SOL     OW19639   5.935   4.793   2.046
 6247SOL    HW119640   5.979   4.737   2.116
 6247SOL    HW219641   5.849   4.830   2.083
 6248SOL     OW19642   4.472   2.638   5.840
 6248SOL    HW119643   4.493   2.693   5.759
 6248SOL    HW219644   4.373   2.631   5.851
 6249SOL     OW19645   5.684   2.602   3.199
 6249SOL    HW119646   5.629   2.652   3.132
 6249SOL    HW219647   5.695   2.507   3.168
 6250SOL     OW19648   5.154   6.842   5.012
 6250SOL    HW119649   5.168   6.802   4.921
 6250SOL    HW219650   5.057   6.844   5.033
 6251SOL     OW19651   2.833   1.032   4.164
 6251SOL    HW119652   2.909   0.969   4.146
 6251SOL    HW219653   2.831   1.103   4.093
 6252SOL     OW19654   2.685   4.706   0.353
 6252SOL    HW119655   2.772   4.694   0.400
 6252SOL    HW219656   2.614   4.654   0.401
 6253SOL     OW19657   4.709   6.007   4.122
 6253SOL    HW119658   4.631   5.967   4.171
 6253SOL    HW219659   4.793   5.962   4.151
 6254SOL     OW19660   6.781   6.802   1.952
 6254SOL    HW119661   6.695   6.839   1.988
 6254SOL    HW219662   6.762   6.746   1.872
 6255SOL     OW19663   3.115   0.288   1.236
 6255SOL    HW119664   3.152   0.274   1.328
 6255SOL    HW219665   3.096   0.200   1.194
 6256SOL     OW19666   0.152   4.585   2.060
 6256SOL    HW119667   0.113   4.652   2.123
 6256SOL    HW219668   0.251   4.586   2.067
 6257SOL     OW19669   3.921   4.159   0.633
 6257SOL    HW119670   3.990   4.089   0.651
 6257SOL    HW219671   3.957   4.248   0.660
 6258SOL     OW19672   4.361   5.162   3.885
 6258SOL    HW119673   4.426   5.216   3.833
 6258SOL    HW219674   4.373   5.065   3.865
 6259SOL     OW19675   5.011   6.971   4.514
 6259SOL    HW119676   5.087   6.977   4.450
 6259SOL    HW219677   4.956   6.890   4.493
 6260SOL     OW19678   3.502   2.178   6.861
 6260SOL    HW119679   3.513   2.200   6.958
 6260SOL    HW219680   3.592   2.162   6.820
 6261SOL     OW19681   4.581   6.211   1.570
 6261SOL    HW119682   4.671   6.201   1.527
 6261SOL    HW219683   4.545   6.302   1.552
 6262SOL     OW19684   6.057   2.040   3.855
 6262SOL    HW119685   6.127   2.035   3.927
 6262SOL    HW219686   6.020   1.949   3.840
 6263SOL     OW19687   6.526   6.211   5.876
 6263SOL    HW119688   6.530   6.211   5.776
 6263SOL    HW219689   6.616   6.237   5.913
 6264SOL     OW19690   0.940   6.255   0.711
 6264SOL    HW119691   0.873   6.326   0.690
 6264SOL    HW219692   0.943   6.189   0.636
 6265SOL     OW19693   3.822   6.172   6.678
 6265SOL    HW119694   3.874   6.245   6.634
 6265SOL    HW219695   3.744   6.211   6.727
 6266SOL     OW19696   3.033   5.133   3.714
 6266SOL    HW119697   2.941   5.167   3.696
 6266SOL    HW219698   3.078   5.111   3.628
 6267SOL     OW19699   0.449   6.559   3.843
 6267SOL    HW119700   0.387   6.634   3.867
 6267SOL    HW219701   0.442   6.486   3.911
 6268SOL     OW19702   3.400   2.044   1.026
 6268SOL    HW119703   3.440   2.032   0.935
 6268SOL    HW219704   3.305   2.073   1.018
 6269SOL     OW19705   0.263   5.327   0.569
 6269SOL    HW119706   0.342   5.345   0.627
 6269SOL    HW219707   0.293   5.308   0.476
 6270SOL     OW19708   1.461   5.846   1.044
 6270SOL    HW119709   1.531   5.782   1.076
 6270SOL    HW219710   1.434   5.822   0.951
 6271SOL     OW19711   6.726   3.363   5.673
 6271SOL    HW119712   6.813   3.374   5.625
 6271SOL    HW219713   6.659   3.427   5.634
 6272SOL     OW19714   6.724   0.891   0.937
 6272SOL    HW119715   6.665   0.964   0.970
 6272SOL    HW219716   6.700   0.869   0.842
 6273SOL     OW19717   0.566   6.742   2.270
 6273SOL    HW119718   0.565   6.681   2.190
 6273SOL    HW219719   0.542   6.690   2.352
 6274SOL     OW19720   3.386   5.985   4.313
 6274SOL    HW119721   3.289   6.006   4.326
 6274SOL    HW219722   3.416   5.923   4.386
 6275SOL     OW19723   3.236   5.386   1.277
 6275SOL    HW119724   3.228   5.299   1.228
 6275SOL    HW219725   3.201   5.375   1.370
 6276SOL     OW19726   2.174   4.540   2.702
 6276SOL    HW119727   2.227   4.459   2.682
 6276SOL    HW219728   2.107   4.519   2.773
 6277SOL     OW19729   5.385   1.890   1.397
 6277SOL    HW119730   5.416   1.909   1.304
 6277SOL    HW219731   5.353   1.796   1.403
 6278SOL     OW19732   3.957   3.342   0.044
 6278SOL    HW119733   3.977   3.440   0.048
 6278SOL    HW219734   3.864   3.325   0.077
 6279SOL     OW19735   0.817   6.358   1.916
 6279SOL    HW119736   0.900   6.360   1.971
 6279SOL    HW219737   0.825   6.288   1.846
 6280SOL     OW19738   5.121   1.022   0.202
 6280SOL    HW119739   5.157   1.043   0.111
 6280SOL    HW219740   5.078   1.104   0.241
 6281SOL     OW19741   5.726   3.824   6.121
 6281SOL    HW119742   5.753   3.804   6.027
 6281SOL    HW219743   5.728   3.739   6.175
 6282SOL     OW19744   0.113   4.670   5.738
 6282SOL    HW119745   0.052   4.660   5.659
 6282SOL    HW219746   0.148   4.580   5.765
 6283SOL     OW19747   3.116   6.421   4.354
 6283SOL    HW119748   3.211   6.432   4.384
 6283SOL    HW219749   3.070   6.355   4.413
 6284SOL     OW19750   2.266   4.539   6.247
 6284SOL    HW119751   2.170   4.553   6.224
 6284SOL    HW219752   2.316   4.625   6.235
 6285SOL     OW19753   1.770   4.561   4.323
 6285SOL    HW119754   1.780   4.633   4.254
 6285SOL    HW219755   1.830   4.484   4.300
 6286SOL     OW19756   1.006   3.476   6.676
 6286SOL    HW119757   0.914   3.451   6.645
 6286SOL    HW219758   1.055   3.394   6.706
 6287SOL     OW19759   3.695   5.076   4.593
 6287SOL    HW119760   3.643   5.152   4.631
 6287SOL    HW219761   3.635   5.022   4.533
 6288SOL     OW19762   3.253   4.022   5.880
 6288SOL    HW119763   3.211   4.003   5.968
 6288SOL    HW219764   3.186   4.066   5.820
 6289SOL     OW19765   2.864   5.420   5.969
 6289SOL    HW119766   2.853   5.369   5.884
 6289SOL    HW219767   2.958   5.451   5.977
 6290SOL     OW19768   6.859   0.676   3.079
 6290SOL    HW119769   6.808   0.592   3.099
 6290SOL    HW219770   6.875   0.726   3.164
 6291SOL     OW19771   3.186   3.239   1.845
 6291SOL    HW119772   3.232   3.250   1.757
 6291SOL    HW219773   3.141   3.324   1.871
 6292SOL     OW19774   0.898   3.986   4.789
 6292SOL    HW119775   0.998   3.975   4.796
 6292SOL    HW219776   0.876   4.083   4.792
 6293SOL     OW19777   3.246   1.747   0.532
 6293SOL    HW119778   3.225   1.844   0.547
 6293SOL    HW219779   3.243   1.728   0.434
 6294SOL     OW19780   1.045   0.147   2.037
 6294SOL    HW119781   1.143   0.142   2.055
 6294SOL    HW219782   1.005   0.222   2.089
 6295SOL     OW19783   4.585   3.081   5.719
 6295SOL    HW119784   4.663   3.140   5.743
 6295SOL    HW219785   4.512   3.093   5.787
 6296SOL     OW19786   6.694   2.347   0.346
 6296SOL    HW119787   6.619   2.359   0.412
 6296SOL    HW219788   6.694   2.424   0.282
 6297SOL     OW19789   0.460   1.440   4.674
 6297SOL    HW119790   0.458   1.536   4.646
 6297SOL    HW219791   0.499   1.433   4.765
 6298SOL     OW19792   0.087   1.005   6.566
 6298SOL    HW119793   0.071   1.007   6.467
 6298SOL    HW219794   0.060   1.093   6.605
 6299SOL     OW19795   3.276   1.748   3.902
 6299SOL    HW119796   3.289   1.722   3.806
 6299SOL    HW219797   3.349   1.707   3.957
 6300SOL     OW19798   2.723   2.238   0.781
 6300SOL    HW119799   2.807   2.291   0.793
 6300SOL    HW219800   2.720   2.201   0.688
 6301SOL     OW19801   4.497   6.071   0.472
 6301SOL    HW119802   4.582   6.082   0.419
 6301SOL    HW219803   4.424   6.039   0.411
 6302SOL     OW19804   1.688   3.574   0.565
 6302SOL    HW119805   1.736   3.656   0.595
 6302SOL    HW219806   1.714   3.497   0.623
 6303SOL     OW19807   6.543   4.563   5.221
 6303SOL    HW119808   6.452   4.579   5.182
 6303SOL    HW219809   6.609   4.625   5.178
 6304SOL     OW19810   1.930   2.710   4.966
 6304SOL    HW119811   1.936   2.806   4.991
 6304SOL    HW219812   2.019   2.666   4.978
 6305SOL     OW19813   1.176   6.201   5.054
 6305SOL    HW119814   1.206   6.169   5.144
 6305SOL    HW219815   1.149   6.122   4.998
 6306SOL     OW19816   1.501   4.531   4.278
 6306SOL    HW119817   1.598   4.542   4.299
 6306SOL    HW219818   1.471   4.606   4.220
 6307SOL     OW19819   3.912   3.144   2.424
 6307SOL    HW119820   3.998   3.101   2.394
 6307SOL    HW219821   3.933   3.229   2.473
 6308SOL     OW19822   1.529   0.786   1.150
 6308SOL    HW119823   1.574   0.809   1.064
 6308SOL    HW219824   1.448   0.843   1.162
 6309SOL     OW19825   1.958   6.004   5.051
 6309SOL    HW119826   1.912   6.037   5.134
 6309SOL    HW219827   1.967   5.905   5.055
 6310SOL     OW19828   0.771   6.929   2.350
 6310SOL    HW119829   0.695   6.864   2.341
 6310SOL    HW219830   0.845   6.902   2.289
 6311SOL     OW19831   5.388   1.365   5.891
 6311SOL    HW119832   5.333   1.281   5.892
 6311SOL    HW219833   5.484   1.341   5.904
 6312SOL     OW19834   4.391   4.718   1.498
 6312SOL    HW119835   4.407   4.625   1.533
 6312SOL    HW219836   4.447   4.732   1.417
 6313SOL     OW19837   5.166   5.364   3.283
 6313SOL    HW119838   5.252   5.333   3.242
 6313SOL    HW219839   5.118   5.425   3.220
 6314SOL     OW19840   1.604   5.481   2.718
 6314SOL    HW119841   1.699   5.483   2.689
 6314SOL    HW219842   1.555   5.557   2.674
 6315SOL     OW19843   2.013   2.496   3.222
 6315SOL    HW119844   1.919   2.509   3.193
 6315SOL    HW219845   2.050   2.413   3.181
 6316SOL     OW19846   4.881   0.766   5.484
 6316SOL    HW119847   4.923   0.804   5.566
 6316SOL    HW219848   4.793   0.725   5.507
 6317SOL     OW19849   4.798   3.899   3.254
 6317SOL    HW119850   4.722   3.889   3.317
 6317SOL    HW219851   4.856   3.975   3.282
 6318SOL     OW19852   5.513   6.424   0.079
 6318SOL    HW119853   5.576   6.366   0.027
 6318SOL    HW219854   5.426   6.431   0.030
 6319SOL     OW19855   4.858   2.390   4.028
 6319SOL    HW119856   4.888   2.401   3.933
 6319SOL    HW219857   4.855   2.293   4.051
 6320SOL     OW19858   5.749   2.729   6.477
 6320SOL    HW119859   5.661   2.693   6.508
 6320SOL    HW219860   5.811   2.653   6.459
 6321SOL     OW19861   0.461   3.239   6.881
 6321SOL    HW119862   0.554   3.231   6.845
 6321SOL    HW219863   0.456   3.200   6.973
 6322SOL     OW19864   1.977   0.872   2.591
 6322SOL    HW119865   2.002   0.968   2.606
 6322SOL    HW219866   1.880   0.866   2.568
 6323SOL     OW19867   1.761   5.993   1.059
 6323SOL    HW119868   1.683   5.954   1.011
 6323SOL    HW219869   1.806   5.922   1.113
 6324SOL     OW19870   5.265   4.171   2.310
 6324SOL    HW119871   5.216   4.226   2.379
 6324SOL    HW219872   5.198   4.121   2.254
 6325SOL     OW19873   0.842   3.296   3.452
 6325SOL    HW119874   0.822   3.236   3.529
 6325SOL    HW219875   0.774   3.281   3.380
 6326SOL     OW19876   5.493   5.715   4.773
 6326SOL    HW119877   5.563   5.758   4.716
 6326SOL    HW219878   5.405   5.720   4.727
 6327SOL     OW19879   0.744   0.787   2.458
 6327SOL    HW119880   0.728   0.693   2.431
 6327SOL    HW219881   0.656   0.833   2.473
 6328SOL     OW19882   4.030   3.657   4.719
 6328SOL    HW119883   4.060   3.703   4.803
 6328SOL    HW219884   4.066   3.705   4.640
 6329SOL     OW19885   0.087   3.211   4.378
 6329SOL    HW119886   7.019   3.246   4.411
 6329SOL    HW219887   0.076   3.177   4.285
 6330SOL     OW19888   4.362   1.710   3.334
 6330SOL    HW119889   4.428   1.634   3.337
 6330SOL    HW219890   4.328   1.728   3.427
 6331SOL     OW19891   1.489   2.951   3.519
 6331SOL    HW119892   1.527   3.030   3.470
 6331SOL    HW219893   1.390   2.948   3.506
 6332SOL     OW19894   4.298   1.995   0.311
 6332SOL    HW119895   4.287   2.060   0.236
 6332SOL    HW219896   4.393   1.964   0.315
 6333SOL     OW19897   6.062   1.737   0.004
 6333SOL    HW119898   5.986   1.799   0.021
 6333SOL    HW219899   6.038   1.675   6.949
 6334SOL     OW19900   2.827   1.288   1.909
 6334SOL    HW119901   2.916   1.285   1.862
 6334SOL    HW219902   2.836   1.338   1.995
 6335SOL     OW19903   5.950   2.256   5.565
 6335SOL    HW119904   5.957   2.163   5.529
 6335SOL    HW219905   5.853   2.283   5.568
 6336SOL     OW19906   1.141   5.616   5.969
 6336SOL    HW119907   1.092   5.678   6.030
 6336SOL    HW219908   1.098   5.526   5.973
 6337SOL     OW19909   6.292   0.563   6.055
 6337SOL    HW119910   6.379   0.515   6.065
 6337SOL    HW219911   6.310   0.661   6.047
 6338SOL     OW19912   1.348   1.110   2.268
 6338SOL    HW119913   1.278   1.042   2.292
 6338SOL    HW219914   1.406   1.073   2.195
 6339SOL     OW19915   0.797   4.151   3.520
 6339SOL    HW119916   0.764   4.066   3.560
 6339SOL    HW219917   0.734   4.225   3.544
 6340SOL     OW19918   2.698   5.693   6.908
 6340SOL    HW119919   2.683   5.650   6.819
 6340SOL    HW219920   2.774   5.759   6.901
 6341SOL     OW19921   1.176   4.666   2.955
 6341SOL    HW119922   1.237   4.650   3.033
 6341SOL    HW219923   1.081   4.650   2.982
 6342SOL     OW19924   2.665   6.761   1.235
 6342SOL    HW119925   2.737   6.692   1.226
 6342SOL    HW219926   2.598   6.730   1.302
 6343SOL     OW19927   1.748   3.833   7.018
 6343SOL    HW119928   1.704   3.792   6.938
 6343SOL    HW219929   1.720   3.928   0.006
 6344SOL     OW19930   1.965   1.073   4.315
 6344SOL    HW119931   1.942   1.161   4.274
 6344SOL    HW219932   1.881   1.027   4.345
 6345SOL     OW19933   6.940   3.679   3.820
 6345SOL    HW119934   6.937   3.687   3.919
 6345SOL    HW219935   7.020   3.626   3.792
 6346SOL     OW19936   0.764   4.613   3.984
 6346SOL    HW119937   0.709   4.685   4.027
 6346SOL    HW219938   0.721   4.524   4.001
 6347SOL     OW19939   1.773   1.624   2.214
 6347SOL    HW119940   1.863   1.590   2.187
 6347SOL    HW219941   1.749   1.586   2.304
 6348SOL     OW19942   0.693   2.494   0.092
 6348SOL    HW119943   0.762   2.565   0.075
 6348SOL    HW219944   0.734   2.404   0.080
 6349SOL     OW19945   6.060   1.121   1.010
 6349SOL    HW119946   6.094   1.144   0.919
 6349SOL    HW219947   6.069   1.200   1.071
 6350SOL     OW19948   0.197   0.147   1.366
 6350SOL    HW119949   0.132   0.223   1.380
 6350SOL    HW219950   0.275   0.180   1.313
 6351SOL     OW19951   6.273   2.387   2.486
 6351SOL    HW119952   6.305   2.377   2.580
 6351SOL    HW219953   6.295   2.305   2.433
 6352SOL     OW19954   3.524   0.734   5.119
 6352SOL    HW119955   3.611   0.729   5.069
 6352SOL    HW219956   3.461   0.666   5.083
 6353SOL     OW19957   4.077   6.284   5.501
 6353SOL    HW119958   4.081   6.196   5.548
 6353SOL    HW219959   3.986   6.323   5.510
 6354SOL     OW19960   6.253   4.666   3.517
 6354SOL    HW119961   6.328   4.730   3.539
 6354SOL    HW219962   6.170   4.696   3.563
 6355SOL     OW19963   4.470   6.531   6.897
 6355SOL    HW119964   4.475   6.524   6.798
 6355SOL    HW219965   4.538   6.470   6.938
 6356SOL     OW19966   6.994   6.938   6.902
 6356SOL    HW119967   0.035   6.991   6.844
 6356SOL    HW219968   6.904   6.932   6.859
 6357SOL     OW19969   4.909   2.049   3.148
 6357SOL    HW119970   4.979   1.979   3.159
 6357SOL    HW219971   4.873   2.046   3.055
 6358SOL     OW19972   1.378   0.827   5.158
 6358SOL    HW119973   1.390   0.813   5.060
 6358SOL    HW219974   1.297   0.882   5.175
 6359SOL     OW19975   6.831   4.267   1.318
 6359SOL    HW119976   6.846   4.168   1.323
 6359SOL    HW219977   6.888   4.313   1.387
 6360SOL     OW19978   3.116   2.590   0.671
 6360SOL    HW119979   3.097   2.521   0.602
 6360SOL    HW219980   3.116   2.681   0.629
 6361SOL     OW19981   0.207   1.825   3.412
 6361SOL    HW119982   0.179   1.782   3.497
 6361SOL    HW219983   0.305   1.811   3.397
 6362SOL     OW19984   1.710   5.209   0.457
 6362SOL    HW119985   1.645   5.242   0.388
 6362SOL    HW219986   1.661   5.156   0.526
 6363SOL     OW19987   0.564   1.831   1.318
 6363SOL    HW119988   0.474   1.840   1.274
 6363SOL    HW219989   0.628   1.787   1.255
 6364SOL     OW19990   2.904   2.279   3.449
 6364SOL    HW119991   2.806   2.298   3.435
 6364SOL    HW219992   2.952   2.295   3.363
 6365SOL     OW19993   5.987   6.850   2.155
 6365SOL    HW119994   5.952   6.933   2.110
 6365SOL    HW219995   5.913   6.784   2.165
 6366SOL     OW19996   6.802   1.585   5.167
 6366SOL    HW119997   6.895   1.571   5.135
 6366SOL    HW219998   6.802   1.600   5.266
 6367SOL     OW19999   1.856   3.482   4.651
 6367SOL    HW120000   1.936   3.500   4.593
 6367SOL    HW220001   1.875   3.403   4.709
 6368SOL     OW20002   5.559   3.587   4.975
 6368SOL    HW120003   5.496   3.540   4.912
 6368SOL    HW220004   5.547   3.550   5.067
 6369SOL     OW20005   2.994   3.958   0.674
 6369SOL    HW120006   2.956   4.037   0.625
 6369SOL    HW220007   3.085   3.938   0.639
 6370SOL     OW20008   6.208   3.290   4.702
 6370SOL    HW120009   6.294   3.250   4.731
 6370SOL    HW220010   6.145   3.295   4.780
 6371SOL     OW20011   5.933   4.253   1.062
 6371SOL    HW120012   5.919   4.344   1.024
 6371SOL    HW220013   6.021   4.250   1.110
 6372SOL     OW20014   5.782   1.452   1.935
 6372SOL    HW120015   5.870   1.491   1.909
 6372SOL    HW220016   5.712   1.524   1.937
 6373SOL     OW20017   5.716   1.855   1.691
 6373SOL    HW120018   5.776   1.814   1.623
 6373SOL    HW220019   5.647   1.789   1.719
 6374SOL     OW20020   3.725   3.382   6.223
 6374SOL    HW120021   3.799   3.415   6.281
 6374SOL    HW220022   3.708   3.447   6.149
 6375SOL     OW20023   5.099   1.309   1.967
 6375SOL    HW120024   5.068   1.278   2.057
 6375SOL    HW220025   5.054   1.395   1.943
 6376SOL     OW20026   3.270   6.465   6.721
 6376SOL    HW120027   3.358   6.485   6.765
 6376SOL    HW220028   3.198   6.461   6.791
 6377SOL     OW20029   0.447   1.839   0.354
 6377SOL    HW120030   0.534   1.820   0.307
 6377SOL    HW220031   0.417   1.756   0.401
 6378SOL     OW20032   6.226   3.742   2.772
 6378SOL    HW120033   6.153   3.799   2.809
 6378SOL    HW220034   6.242   3.767   2.677
 6379SOL     OW20035   2.312   4.213   6.862
 6379SOL    HW120036   2.404   4.217   6.823
 6379SOL    HW220037   2.315   4.171   6.952
 6380SOL     OW20038   1.977   2.578   4.453
 6380SOL    HW120039   1.968   2.645   4.526
 6380SOL    HW220040   1.941   2.490   4.484
 6381SOL     OW20041   3.434   4.564   0.734
 6381SOL    HW120042   3.524   4.549   0.693
 6381SOL    HW220043   3.430   4.657   0.770
 6382SOL     OW20044   2.087   1.222   1.181
 6382SOL    HW120045   2.092   1.296   1.249
 6382SOL    HW220046   2.142   1.247   1.101
 6383SOL     OW20047   2.838   2.076   1.943
 6383SOL    HW120048   2.833   2.096   1.845
 6383SOL    HW220049   2.863   2.159   1.993
 6384SOL     OW20050   0.823   1.331   1.949
 6384SOL    HW120051   0.738   1.283   1.926
 6384SOL    HW220052   0.805   1.398   2.020
 6385SOL     OW20053   0.402   3.537   1.758
 6385SOL    HW120054   0.365   3.580   1.676
 6385SOL    HW220055   0.434   3.445   1.736
 6386SOL     OW20056   3.151   4.728   1.182
 6386SOL    HW120057   3.147   4.780   1.097
 6386SOL    HW220058   3.204   4.644   1.167
 6387SOL     OW20059   6.341   1.864   5.612
 6387SOL    HW120060   6.389   1.932   5.666
 6387SOL    HW220061   6.382   1.859   5.521
 6388SOL     OW20062   6.628   4.971   2.115
 6388SOL    HW120063   6.546   4.996   2.167
 6388SOL    HW220064   6.653   5.047   2.055
 6389SOL     OW20065   6.622   0.501   0.468
 6389SOL    HW120066   6.630   0.589   0.420
 6389SOL    HW220067   6.712   0.458   0.474
 6390SOL     OW20068   4.327   6.370   0.289
 6390SOL    HW120069   4.420   6.376   0.325
 6390SOL    HW220070   4.315   6.281   0.244
 6391SOL     OW20071   0.665   1.708   4.925
 6391SOL    HW120072   0.593   1.713   4.995
 6391SOL    HW220073   0.736   1.645   4.956
 6392SOL     OW20074   4.369   6.373   3.081
 6392SOL    HW120075   4.368   6.414   3.172
 6392SOL    HW220076   4.275   6.369   3.046
 6393SOL     OW20077   2.170   4.199   0.395
 6393SOL    HW120078   2.136   4.114   0.433
 6393SOL    HW220079   2.096   4.266   0.389
 6394SOL     OW20080   1.448   5.381   1.848
 6394SOL    HW120081   1.406   5.445   1.912
 6394SOL    HW220082   1.378   5.338   1.791
 6395SOL     OW20083   1.320   3.345   4.772
 6395SOL    HW120084   1.325   3.435   4.730
 6395SOL    HW220085   1.400   3.291   4.744
 6396SOL     OW20086   1.304   3.930   4.042
 6396SOL    HW120087   1.226   3.868   4.049
 6396SOL    HW220088   1.387   3.878   4.024
 6397SOL     OW20089   0.948   3.507   4.444
 6397SOL    HW120090   0.853   3.504   4.413
 6397SOL    HW220091   0.954   3.564   4.526
 6398SOL     OW20092   0.257   0.256   2.302
 6398SOL    HW120093   0.311   0.186   2.348
 6398SOL    HW220094   0.303   0.284   2.218
 6399SOL     OW20095   2.347   6.835   6.393
 6399SOL    HW120096   2.249   6.832   6.412
 6399SOL    HW220097   2.362   6.819   6.295
 6400SOL     OW20098   1.501   6.786   2.973
 6400SOL    HW120099   1.458   6.739   2.897
 6400SOL    HW220100   1.526   6.720   3.044
 6401SOL     OW20101   3.935   4.988   1.123
 6401SOL    HW120102   3.992   5.068   1.105
 6401SOL    HW220103   3.923   4.977   1.222
 6402SOL     OW20104   3.307   3.284   6.446
 6402SOL    HW120105   3.277   3.379   6.436
 6402SOL    HW220106   3.393   3.270   6.397
 6403SOL     OW20107   3.929   5.257   6.089
 6403SOL    HW120108   3.932   5.357   6.098
 6403SOL    HW220109   3.968   5.215   6.170
 6404SOL     OW20110   4.848   6.275   6.457
 6404SOL    HW120111   4.833   6.273   6.359
 6404SOL    HW220112   4.944   6.252   6.477
 6405SOL     OW20113   4.086   1.092   3.734
 6405SOL    HW120114   4.055   1.176   3.689
 6405SOL    HW220115   4.181   1.075   3.708
 6406SOL     OW20116   0.201   3.102   2.301
 6406SOL    HW120117   0.288   3.074   2.260
 6406SOL    HW220118   0.180   3.195   2.274
 6407SOL     OW20119   0.623   6.981   2.748
 6407SOL    HW120120   0.540   6.977   2.804
 6407SOL    HW220121   0.622   6.907   2.682
 6408SOL     OW20122   0.326   1.043   2.367
 6408SOL    HW120123   0.354   0.988   2.446
 6408SOL    HW220124   0.255   0.995   2.316
 6409SOL     OW20125   6.446   4.423   4.042
 6409SOL    HW120126   6.404   4.419   4.132
 6409SOL    HW220127   6.515   4.495   4.040
 6410SOL     OW20128   2.280   0.657   6.939
 6410SOL    HW120129   2.314   0.580   6.886
 6410SOL    HW220130   2.202   0.699   6.892
 6411SOL     OW20131   1.527   2.098   4.314
 6411SOL    HW120132   1.429   2.094   4.295
 6411SOL    HW220133   1.555   2.012   4.359
 6412SOL     OW20134   4.608   0.024   0.246
 6412SOL    HW120135   4.589   0.120   0.266
 6412SOL    HW220136   4.683   7.012   0.304
 6413SOL     OW20137   4.500   6.092   3.425
 6413SOL    HW120138   4.537   6.035   3.352
 6413SOL    HW220139   4.488   6.185   3.392
 6414SOL     OW20140   3.610   0.221   6.869
 6414SOL    HW120141   3.643   0.286   6.937
 6414SOL    HW220142   3.607   0.130   6.909
 6415SOL     OW20143   6.949   1.723   3.654
 6415SOL    HW120144   7.007   1.668   3.593
 6415SOL    HW220145   6.956   1.687   3.747
 6416SOL     OW20146   2.784   4.101   0.810
 6416SOL    HW120147   2.718   4.111   0.735
 6416SOL    HW220148   2.838   4.018   0.795
 6417SOL     OW20149   5.040   3.088   5.591
 6417SOL    HW120150   5.004   3.085   5.497
 6417SOL    HW220151   5.089   3.173   5.605
 6418SOL     OW20152   4.766   5.860   7.017
 6418SOL    HW120153   4.731   5.835   6.927
 6418SOL    HW220154   4.816   5.783   0.036
 6419SOL     OW20155   1.742   6.828   6.552
 6419SOL    HW120156   1.751   6.782   6.640
 6419SOL    HW220157   1.727   6.760   6.480
 6420SOL     OW20158   2.577   5.003   3.649
 6420SOL    HW120159   2.663   5.052   3.640
 6420SOL    HW220160   2.546   4.972   3.559
 6421SOL     OW20161   4.482   6.386   2.024
 6421SOL    HW120162   4.475   6.326   1.944
 6421SOL    HW220163   4.512   6.333   2.103
 6422SOL     OW20164   0.998   0.953   5.715
 6422SOL    HW120165   1.045   1.018   5.655
 6422SOL    HW220166   0.953   1.004   5.789
 6423SOL     OW20167   1.019   3.544   4.017
 6423SOL    HW120168   0.988   3.520   3.925
 6423SOL    HW220169   1.048   3.460   4.065
 6424SOL     OW20170   6.008   4.087   5.850
 6424SOL    HW120171   5.973   4.059   5.939
 6424SOL    HW220172   5.936   4.076   5.781
 6425SOL     OW20173   0.960   0.381   3.938
 6425SOL    HW120174   1.037   0.426   3.982
 6425SOL    HW220175   0.877   0.396   3.993
 6426SOL     OW20176   3.173   5.234   4.090
 6426SOL    HW120177   3.233   5.195   4.160
 6426SOL    HW220178   3.227   5.286   4.024
 6427SOL     OW20179   3.418   3.401   2.521
 6427SOL    HW120180   3.345   3.468   2.537
 6427SOL    HW220181   3.463   3.420   2.434
 6428SOL     OW20182   6.912   3.578   6.946
 6428SOL    HW120183   6.859   3.657   6.913
 6428SOL    HW220184   7.009   3.599   6.941
 6429SOL     OW20185   3.176   1.423   4.654
 6429SOL    HW120186   3.223   1.335   4.653
 6429SOL    HW220187   3.213   1.482   4.582
 6430SOL     OW20188   6.227   1.298   4.134
 6430SOL    HW120189   6.262   1.204   4.132
 6430SOL    HW220190   6.221   1.329   4.228
 6431SOL     OW20191   3.700   5.446   3.226
 6431SOL    HW120192   3.689   5.485   3.317
 6431SOL    HW220193   3.673   5.350   3.227
 6432SOL     OW20194   3.567   3.340   0.363
 6432SOL    HW120195   3.635   3.378   0.426
 6432SOL    HW220196   3.475   3.357   0.398
 6433SOL     OW20197   4.221   5.511   6.178
 6433SOL    HW120198   4.122   5.516   6.165
 6433SOL    HW220199   4.267   5.513   6.090
 6434SOL     OW20200   6.251   4.518   6.728
 6434SOL    HW120201   6.177   4.472   6.680
 6434SOL    HW220202   6.299   4.580   6.665
 6435SOL     OW20203   4.543   0.880   0.341
 6435SOL    HW120204   4.582   0.957   0.393
 6435SOL    HW220205   4.608   0.850   0.272
 6436SOL     OW20206   1.125   1.433   3.703
 6436SOL    HW120207   1.159   1.500   3.636
 6436SOL    HW220208   1.173   1.446   3.790
 6437SOL     OW20209   0.983   2.780   6.502
 6437SOL    HW120210   1.077   2.802   6.476
 6437SOL    HW220211   0.950   2.704   6.446
 6438SOL     OW20212   0.943   5.570   1.614
 6438SOL    HW120213   0.851   5.533   1.626
 6438SOL    HW220214   0.953   5.605   1.520
 6439SOL     OW20215   3.997   5.749   3.063
 6439SOL    HW120216   4.050   5.674   3.025
 6439SOL    HW220217   4.033   5.773   3.154
 6440SOL     OW20218   2.208   2.415   5.163
 6440SOL    HW120219   2.222   2.435   5.067
 6440SOL    HW220220   2.290   2.372   5.201
 6441SOL     OW20221   1.677   1.263   2.024
 6441SOL    HW120222   1.603   1.326   2.051
 6441SOL    HW220223   1.690   1.195   2.096
 6442SOL     OW20224   2.970   2.257   4.180
 6442SOL    HW120225   2.885   2.278   4.132
 6442SOL    HW220226   3.042   2.237   4.113
 6443SOL     OW20227   2.501   1.680   6.146
 6443SOL    HW120228   2.418   1.629   6.124
 6443SOL    HW220229   2.546   1.708   6.061
 6444SOL     OW20230   6.626   4.119   5.497
 6444SOL    HW120231   6.649   4.167   5.582
 6444SOL    HW220232   6.653   4.023   5.504
 6445SOL     OW20233   3.130   3.053   3.370
 6445SOL    HW120234   3.088   3.089   3.454
 6445SOL    HW220235   3.212   3.001   3.394
 6446SOL     OW20236   0.411   0.467   1.662
 6446SOL    HW120237   0.362   0.399   1.715
 6446SOL    HW220238   0.504   0.434   1.643
 6447SOL     OW20239   0.523   3.980   2.018
 6447SOL    HW120240   0.434   4.016   2.045
 6447SOL    HW220241   0.511   3.889   1.978
 6448SOL     OW20242   3.805   4.352   1.379
 6448SOL    HW120243   3.728   4.415   1.373
 6448SOL    HW220244   3.851   4.362   1.467
 6449SOL     OW20245   4.451   6.515   6.585
 6449SOL    HW120246   4.457   6.580   6.509
 6449SOL    HW220247   4.496   6.430   6.560
 6450SOL     OW20248   4.399   3.777   0.829
 6450SOL    HW120249   4.374   3.681   0.841
 6450SOL    HW220250   4.433   3.814   0.915
 6451SOL     OW20251   4.411   3.671   1.582
 6451SOL    HW120252   4.329   3.632   1.541
 6451SOL    HW220253   4.388   3.756   1.629
 6452SOL     OW20254   4.880   1.841   4.022
 6452SOL    HW120255   4.890   1.940   4.019
 6452SOL    HW220256   4.810   1.812   3.957
 6453SOL     OW20257   3.090   0.675   3.180
 6453SOL    HW120258   3.020   0.746   3.176
 6453SOL    HW220259   3.135   0.667   3.091
 6454SOL     OW20260   4.808   3.474   5.620
 6454SOL    HW120261   4.825   3.383   5.656
 6454SOL    HW220262   4.721   3.509   5.655
 6455SOL     OW20263   0.115   3.497   5.368
 6455SOL    HW120264   0.059   3.420   5.340
 6455SOL    HW220265   0.159   3.537   5.288
 6456SOL     OW20266   6.059   2.165   2.951
 6456SOL    HW120267   6.139   2.106   2.941
 6456SOL    HW220268   6.065   2.214   3.038
 6457SOL     OW20269   1.750   6.204   3.602
 6457SOL    HW120270   1.847   6.210   3.578
 6457SOL    HW220271   1.706   6.292   3.585
 6458SOL     OW20272   1.212   0.034   4.695
 6458SOL    HW120273   1.199   6.970   4.643
 6458SOL    HW220274   1.128   0.057   4.744
 6459SOL     OW20275   0.121   3.204   3.471
 6459SOL    HW120276   0.126   3.144   3.391
 6459SOL    HW220277   0.174   3.164   3.546
 6460SOL     OW20278   1.569   5.191   5.703
 6460SOL    HW120279   1.499   5.174   5.634
 6460SOL    HW220280   1.532   5.252   5.774
 6461SOL     OW20281   6.369   0.561   2.272
 6461SOL    HW120282   6.353   0.606   2.360
 6461SOL    HW220283   6.311   0.480   2.265
 6462SOL     OW20284   2.779   4.187   5.665
 6462SOL    HW120285   2.714   4.121   5.629
 6462SOL    HW220286   2.870   4.169   5.627
 6463SOL     OW20287   4.793   3.465   1.782
 6463SOL    HW120288   4.827   3.374   1.809
 6463SOL    HW220289   4.701   3.456   1.746
 6464SOL     OW20290   0.921   3.444   3.233
 6464SOL    HW120291   0.884   3.419   3.144
 6464SOL    HW220292   0.894   3.375   3.301
 6465SOL     OW20293   2.740   1.245   2.604
 6465SOL    HW120294   2.644   1.235   2.579
 6465SOL    HW220295   2.787   1.302   2.537
 6466SOL     OW20296   6.152   5.055   0.081
 6466SOL    HW120297   6.057   5.062   0.048
 6466SOL    HW220298   6.182   5.144   0.115
 6467SOL     OW20299   3.022   3.564   5.956
 6467SOL    HW120300   3.002   3.631   6.028
 6467SOL    HW220301   3.117   3.575   5.927
 6468SOL     OW20302   0.808   0.823   6.626
 6468SOL    HW120303   0.815   0.908   6.572
 6468SOL    HW220304   0.815   0.744   6.565
 6469SOL     OW20305   3.122   0.977   0.890
 6469SOL    HW120306   3.141   0.887   0.851
 6469SOL    HW220307   3.055   1.025   0.834
 6470SOL     OW20308   6.109   1.230   6.710
 6470SOL    HW120309   6.068   1.149   6.667
 6470SOL    HW220310   6.062   1.248   6.797
 6471SOL     OW20311   0.233   6.494   5.233
 6471SOL    HW120312   0.295   6.448   5.297
 6471SOL    HW220313   0.185   6.568   5.280
 6472SOL     OW20314   1.249   5.913   0.665
 6472SOL    HW120315   1.209   5.930   0.755
 6472SOL    HW220316   1.197   5.841   0.618
 6473SOL     OW20317   3.248   1.381   3.449
 6473SOL    HW120318   3.207   1.312   3.389
 6473SOL    HW220319   3.334   1.413   3.409
 6474SOL     OW20320   4.303   0.391   4.591
 6474SOL    HW120321   4.237   0.466   4.587
 6474SOL    HW220322   4.332   0.377   4.685
 6475SOL     OW20323   5.721   5.940   4.240
 6475SOL    HW120324   5.808   5.929   4.192
 6475SOL    HW220325   5.667   6.012   4.197
 6476SOL     OW20326   5.458   4.287   4.145
 6476SOL    HW120327   5.399   4.342   4.086
 6476SOL    HW220328   5.531   4.345   4.182
 6477SOL     OW20329   1.158   6.988   0.916
 6477SOL    HW120330   1.205   6.930   0.982
 6477SOL    HW220331   1.060   6.988   0.935
 6478SOL     OW20332   2.048   6.488   0.056
 6478SOL    HW120333   2.136   6.443   0.047
 6478SOL    HW220334   2.030   6.507   0.153
 6479SOL     OW20335   4.624   5.185   4.587
 6479SOL    HW120336   4.585   5.094   4.568
 6479SOL    HW220337   4.553   5.254   4.573
 6480SOL     OW20338   2.664   0.488   4.827
 6480SOL    HW120339   2.687   0.392   4.813
 6480SOL    HW220340   2.617   0.498   4.915
 6481SOL     OW20341   4.046   3.679   1.309
 6481SOL    HW120342   3.987   3.615   1.358
 6481SOL    HW220343   4.120   3.709   1.369
 6482SOL     OW20344   5.469   3.259   3.879
 6482SOL    HW120345   5.461   3.299   3.788
 6482SOL    HW220346   5.379   3.224   3.908
 6483SOL     OW20347   2.053   6.563   5.619
 6483SOL    HW120348   2.083   6.571   5.524
 6483SOL    HW220349   1.961   6.525   5.622
 6484SOL     OW20350   3.642   0.550   3.719
 6484SOL    HW120351   3.688   0.478   3.667
 6484SOL    HW220352   3.545   0.551   3.695
 6485SOL     OW20353   2.532   4.828   5.391
 6485SOL    HW120354   2.479   4.878   5.459
 6485SOL    HW220355   2.473   4.807   5.313
 6486SOL     OW20356   6.791   3.604   2.488
 6486SOL    HW120357   6.701   3.561   2.502
 6486SOL    HW220358   6.837   3.614   2.577
 6487SOL     OW20359   6.157   5.930   4.694
 6487SOL    HW120360   6.143   6.028   4.677
 6487SOL    HW220361   6.255   5.909   4.686
 6488SOL     OW20362   3.950   5.232   3.055
 6488SOL    HW120363   3.906   5.292   2.988
 6488SOL    HW220364   3.987   5.288   3.130
 6489SOL     OW20365   6.575   3.833   5.232
 6489SOL    HW120366   6.506   3.904   5.242
 6489SOL    HW220367   6.602   3.826   5.136
 6490SOL     OW20368   1.940   3.123   6.075
 6490SOL    HW120369   1.893   3.201   6.116
 6490SOL    HW220370   1.879   3.078   6.010
 6491SOL     OW20371   0.715   0.147   2.215
 6491SOL    HW120372   0.664   0.118   2.134
 6491SOL    HW220373   0.758   0.068   2.257
 6492SOL     OW20374   4.083   3.550   2.964
 6492SOL    HW120375   4.087   3.458   3.003
 6492SOL    HW220376   4.098   3.618   3.036
 6493SOL     OW20377   2.122   5.061   3.638
 6493SOL    HW120378   2.145   4.966   3.656
 6493SOL    HW220379   2.188   5.101   3.575
 6494SOL     OW20380   6.988   0.961   1.787
 6494SOL    HW120381   6.898   0.935   1.823
 6494SOL    HW220382   0.000   1.042   1.835
 6495SOL     OW20383   6.225   5.819   2.677
 6495SOL    HW120384   6.188   5.811   2.585
 6495SOL    HW220385   6.154   5.849   2.740
 6496SOL     OW20386   2.841   2.731   1.102
 6496SOL    HW120387   2.775   2.784   1.155
 6496SOL    HW220388   2.849   2.639   1.141
 6497SOL     OW20389   6.904   2.839   0.940
 6497SOL    HW120390   6.884   2.935   0.959
 6497SOL    HW220391   6.819   2.787   0.941
 6498SOL     OW20392   2.541   4.978   4.767
 6498SOL    HW120393   2.617   4.914   4.779
 6498SOL    HW220394   2.485   4.980   4.850
 6499SOL     OW20395   5.352   1.968   2.876
 6499SOL    HW120396   5.280   2.005   2.817
 6499SOL    HW220397   5.397   1.891   2.830
 6500SOL     OW20398   1.801   3.633   3.041
 6500SOL    HW120399   1.827   3.537   3.036
 6500SOL    HW220400   1.860   3.687   2.981
 6501SOL     OW20401   6.692   1.278   2.785
 6501SOL    HW120402   6.606   1.311   2.822
 6501SOL    HW220403   6.767   1.299   2.848
 6502SOL     OW20404   0.733   3.234   2.785
 6502SOL    HW120405   0.774   3.174   2.716
 6502SOL    HW220406   0.649   3.274   2.749
 6503SOL     OW20407   0.896   3.078   5.556
 6503SOL    HW120408   0.916   3.154   5.619
 6503SOL    HW220409   0.848   3.113   5.476
 6504SOL     OW20410   4.163   6.583   5.469
 6504SOL    HW120411   4.123   6.506   5.419
 6504SOL    HW220412   4.181   6.658   5.405
 6505SOL     OW20413   0.865   6.935   6.560
 6505SOL    HW120414   0.929   6.873   6.515
 6505SOL    HW220415   0.888   0.010   6.537
 6506SOL     OW20416   1.129   5.171   2.142
 6506SOL    HW120417   1.059   5.102   2.123
 6506SOL    HW220418   1.101   5.226   2.220
 6507SOL     OW20419   5.385   5.438   0.096
 6507SOL    HW120420   5.337   5.430   0.009
 6507SOL    HW220421   5.319   5.428   0.171
 6508SOL     OW20422   0.031   1.155   4.752
 6508SOL    HW120423   6.981   1.127   4.817
 6508SOL    HW220424   0.101   1.208   4.799
 6509SOL     OW20425   2.752   1.772   6.533
 6509SOL    HW120426   2.726   1.695   6.474
 6509SOL    HW220427   2.834   1.816   6.496
 6510SOL     OW20428   4.024   5.194   4.280
 6510SOL    HW120429   3.943   5.253   4.269
 6510SOL    HW220430   4.081   5.200   4.198
 6511SOL     OW20431   3.694   3.308   0.133
 6511SOL    HW120432   3.660   3.335   0.223
 6511SOL    HW220433   3.644   3.357   0.062
 6512SOL     OW20434   5.472   1.493   2.259
 6512SOL    HW120435   5.434   1.529   2.344
 6512SOL    HW220436   5.518   1.406   2.277
 6513SOL     OW20437   3.305   4.608   1.678
 6513SOL    HW120438   3.280   4.542   1.607
 6513SOL    HW220439   3.387   4.576   1.725
 6514SOL     OW20440   5.577   5.629   5.355
 6514SOL    HW120441   5.501   5.631   5.290
 6514SOL    HW220442   5.658   5.589   5.311
 6515SOL     OW20443   0.514   4.808   2.266
 6515SOL    HW120444   0.613   4.795   2.271
 6515SOL    HW220445   0.474   4.736   2.209
 6516SOL     OW20446   5.694   1.514   3.727
 6516SOL    HW120447   5.792   1.531   3.739
 6516SOL    HW220448   5.646   1.601   3.728
 6517SOL     OW20449   0.010   3.709   1.307
 6517SOL    HW120450   7.000   3.705   1.211
 6517SOL    HW220451   0.107   3.733   1.310
 6518SOL     OW20452   0.983   1.818   2.455
 6518SOL    HW120453   0.919   1.815   2.378
 6518SOL    HW220454   0.938   1.783   2.537
 6519SOL     OW20455   2.337   1.840   3.381
 6519SOL    HW120456   2.259   1.794   3.339
 6519SOL    HW220457   2.416   1.835   3.320
 6520SOL     OW20458   6.031   6.671   6.699
 6520SOL    HW120459   6.026   6.646   6.602
 6520SOL    HW220460   6.091   6.750   6.711
 6521SOL     OW20461   1.897   4.944   4.908
 6521SOL    HW120462   1.869   4.895   4.826
 6521SOL    HW220463   1.996   4.935   4.921
 6522SOL     OW20464   2.365   3.201   5.408
 6522SOL    HW120465   2.354   3.299   5.393
 6522SOL    HW220466   2.422   3.162   5.336
 6523SOL     OW20467   4.612   6.456   0.775
 6523SOL    HW120468   4.640   6.523   0.706
 6523SOL    HW220469   4.692   6.406   0.807
 6524SOL     OW20470   3.772   2.196   1.420
 6524SOL    HW120471   3.704   2.203   1.347
 6524SOL    HW220472   3.846   2.262   1.403
 6525SOL     OW20473   3.109   5.116   3.442
 6525SOL    HW120474   3.097   5.027   3.397
 6525SOL    HW220475   3.192   5.159   3.409
 6526SOL     OW20476   6.251   6.525   0.769
 6526SOL    HW120477   6.247   6.559   0.863
 6526SOL    HW220478   6.201   6.438   0.763
 6527SOL     OW20479   5.629   2.065   0.878
 6527SOL    HW120480   5.619   2.121   0.960
 6527SOL    HW220481   5.710   2.007   0.887
 6528SOL     OW20482   4.648   0.120   0.819
 6528SOL    HW120483   4.622   0.152   0.727
 6528SOL    HW220484   4.593   0.040   0.843
 6529SOL     OW20485   3.331   6.141   1.328
 6529SOL    HW120486   3.423   6.177   1.316
 6529SOL    HW220487   3.304   6.091   1.246
 6530SOL     OW20488   0.841   2.713   4.285
 6530SOL    HW120489   0.836   2.766   4.200
 6530SOL    HW220490   0.926   2.660   4.286
 6531SOL     OW20491   3.046   3.386   4.528
 6531SOL    HW120492   3.028   3.411   4.433
 6531SOL    HW220493   3.058   3.287   4.535
 6532SOL     OW20494   0.442   6.026   6.830
 6532SOL    HW120495   0.480   6.079   6.906
 6532SOL    HW220496   0.458   5.929   6.846
 6533SOL     OW20497   5.734   5.058   1.157
 6533SOL    HW120498   5.800   5.088   1.088
 6533SOL    HW220499   5.777   5.060   1.247
 6534SOL     OW20500   6.065   3.319   4.259
 6534SOL    HW120501   6.037   3.224   4.249
 6534SOL    HW220502   6.038   3.352   4.349
 6535SOL     OW20503   5.418   3.299   6.620
 6535SOL    HW120504   5.391   3.232   6.551
 6535SOL    HW220505   5.518   3.297   6.630
 6536SOL     OW20506   6.721   5.949   5.329
 6536SOL    HW120507   6.757   5.980   5.417
 6536SOL    HW220508   6.698   5.852   5.334
 6537SOL     OW20509   6.454   5.375   4.191
 6537SOL    HW120510   6.507   5.453   4.160
 6537SOL    HW220511   6.509   5.319   4.253
 6538SOL     OW20512   1.449   4.109   3.455
 6538SOL    HW120513   1.430   4.036   3.390
 6538SOL    HW220514   1.395   4.094   3.538
 6539SOL     OW20515   5.802   6.585   5.725
 6539SOL    HW120516   5.849   6.657   5.775
 6539SOL    HW220517   5.754   6.525   5.790
 6540SOL     OW20518   0.696   2.764   5.243
 6540SOL    HW120519   0.759   2.783   5.168
 6540SOL    HW220520   0.675   2.850   5.291
 6541SOL     OW20521   3.245   1.816   5.694
 6541SOL    HW120522   3.250   1.870   5.610
 6541SOL    HW220523   3.152   1.779   5.705
 6542SOL     OW20524   1.681   4.960   1.550
 6542SOL    HW120525   1.597   4.994   1.592
 6542SOL    HW220526   1.716   4.882   1.603
 6543SOL     OW20527   4.046   1.786   3.688
 6543SOL    HW120528   3.992   1.751   3.765
 6543SOL    HW220529   4.042   1.886   3.687
 6544SOL     OW20530   1.290   0.938   1.189
 6544SOL    HW120531   1.211   0.999   1.192
 6544SOL    HW220532   1.264   0.848   1.224
 6545SOL     OW20533   6.433   4.284   0.686
 6545SOL    HW120534   6.414   4.370   0.640
 6545SOL    HW220535   6.531   4.266   0.684
 6546SOL     OW20536   4.503   5.505   4.127
 6546SOL    HW120537   4.452   5.430   4.168
 6546SOL    HW220538   4.444   5.586   4.121
 6547SOL     OW20539   6.981   6.531   4.862
 6547SOL    HW120540   6.945   6.530   4.955
 6547SOL    HW220541   0.061   6.539   4.865
 6548SOL     OW20542   1.694   0.956   5.212
 6548SOL    HW120543   1.660   0.913   5.129
 6548SOL    HW220544   1.653   0.911   5.292
 6549SOL     OW20545   2.358   1.615   2.284
 6549SOL    HW120546   2.399   1.698   2.321
 6549SOL    HW220547   2.261   1.632   2.264
 6550SOL     OW20548   5.265   0.730   1.858
 6550SOL    HW120549   5.271   0.634   1.887
 6550SOL    HW220550   5.216   0.735   1.771
 6551SOL     OW20551   2.141   5.878   1.243
 6551SOL    HW120552   2.158   5.850   1.148
 6551SOL    HW220553   2.053   5.839   1.274
 6552SOL     OW20554   2.462   3.616   6.838
 6552SOL    HW120555   2.419   3.559   6.909
 6552SOL    HW220556   2.395   3.682   6.804
 6553SOL     OW20557   0.452   1.732   3.315
 6553SOL    HW120558   0.404   1.644   3.308
 6553SOL    HW220559   0.535   1.728   3.259
 6554SOL     OW20560   2.136   1.704   4.198
 6554SOL    HW120561   2.082   1.700   4.282
 6554SOL    HW220562   2.204   1.631   4.198
 6555SOL     OW20563   2.088   3.539   1.737
 6555SOL    HW120564   2.139   3.595   1.672
 6555SOL    HW220565   2.152   3.488   1.795
 6556SOL     OW20566   4.784   3.054   3.534
 6556SOL    HW120567   4.812   3.076   3.440
 6556SOL    HW220568   4.830   3.116   3.598
 6557SOL     OW20569   1.950   6.761   2.401
 6557SOL    HW120570   1.923   6.712   2.318
 6557SOL    HW220571   1.981   6.695   2.469
 6558SOL     OW20572   4.787   6.039   0.363
 6558SOL    HW120573   4.764   5.942   0.373
 6558SOL    HW220574   4.746   6.074   0.279
 6559SOL     OW20575   6.968   1.814   6.164
 6559SOL    HW120576   0.025   1.872   6.137
 6559SOL    HW220577   6.883   1.866   6.158
 6560SOL     OW20578   0.124   4.256   6.137
 6560SOL    HW120579   0.136   4.189   6.211
 6560SOL    HW220580   0.027   4.279   6.129
 6561SOL     OW20581   2.318   5.130   7.008
 6561SOL    HW120582   2.398   5.076   0.015
 6561SOL    HW220583   2.317   5.215   0.040
 6562SOL     OW20584   4.952   2.793   1.127
 6562SOL    HW120585   4.990   2.807   1.219
 6562SOL    HW220586   4.855   2.817   1.127
 6563SOL     OW20587   5.857   4.058   6.057
 6563SOL    HW120588   5.804   3.977   6.083
 6563SOL    HW220589   5.871   4.116   6.137
 6564SOL     OW20590   6.021   4.066   2.356
 6564SOL    HW120591   5.957   4.114   2.296
 6564SOL    HW220592   6.109   4.057   2.310
 6565SOL     OW20593   5.415   5.246   1.513
 6565SOL    HW120594   5.372   5.202   1.434
 6565SOL    HW220595   5.455   5.177   1.572
 6566SOL     OW20596   5.350   6.190   4.743
 6566SOL    HW120597   5.338   6.134   4.661
 6566SOL    HW220598   5.424   6.152   4.798
 6567SOL     OW20599   2.748   0.591   2.556
 6567SOL    HW120600   2.766   0.525   2.628
 6567SOL    HW220601   2.677   0.555   2.495
 6568SOL     OW20602   5.438   1.628   0.715
 6568SOL    HW120603   5.407   1.722   0.729
 6568SOL    HW220604   5.462   1.615   0.619
 6569SOL     OW20605   1.434   3.851   3.306
 6569SOL    HW120606   1.517   3.795   3.300
 6569SOL    HW220607   1.383   3.825   3.388
 6570SOL     OW20608   4.224   0.046   2.357
 6570SOL    HW120609   4.218   0.133   2.308
 6570SOL    HW220610   4.305   0.046   2.416
 6571SOL     OW20611   2.381   6.848   3.354
 6571SOL    HW120612   2.446   6.915   3.318
 6571SOL    HW220613   2.425   6.794   3.426
 6572SOL     OW20614   0.905   6.922   3.947
 6572SOL    HW120615   0.852   7.004   3.926
 6572SOL    HW220616   0.968   6.941   4.022
 6573SOL     OW20617   1.179   2.586   3.604
 6573SOL    HW120618   1.137   2.627   3.684
 6573SOL    HW220619   1.277   2.575   3.620
 6574SOL     OW20620   1.561   5.163   1.313
 6574SOL    HW120621   1.615   5.117   1.383
 6574SOL    HW220622   1.604   5.150   1.224
 6575SOL     OW20623   0.049   0.973   3.935
 6575SOL    HW120624   6.976   0.975   3.898
 6575SOL    HW220625   0.045   0.985   4.035
 6576SOL     OW20626   4.345   0.925   3.020
 6576SOL    HW120627   4.408   0.872   2.963
 6576SOL    HW220628   4.254   0.922   2.980
 6577SOL     OW20629   2.715   0.410   5.437
 6577SOL    HW120630   2.791   0.469   5.462
 6577SOL    HW220631   2.649   0.462   5.382
 6578SOL     OW20632   0.754   6.262   0.232
 6578SOL    HW120633   0.780   6.326   0.160
 6578SOL    HW220634   0.836   6.224   0.274
 6579SOL     OW20635   2.405   1.911   2.987
 6579SOL    HW120636   2.406   1.980   2.914
 6579SOL    HW220637   2.391   1.820   2.946
 6580SOL     OW20638   3.410   2.375   0.393
 6580SOL    HW120639   3.408   2.328   0.481
 6580SOL    HW220640   3.338   2.338   0.334
 6581SOL     OW20641   0.854   2.268   1.823
 6581SOL    HW120642   0.824   2.211   1.747
 6581SOL    HW220643   0.909   2.213   1.886
 6582SOL     OW20644   3.581   6.300   3.218
 6582SOL    HW120645   3.642   6.364   3.265
 6582SOL    HW220646   3.614   6.287   3.124
 6583SOL     OW20647   2.471   4.598   0.486
 6583SOL    HW120648   2.459   4.613   0.584
 6583SOL    HW220649   2.397   4.645   0.437
 6584SOL     OW20650   4.708   3.678   5.389
 6584SOL    HW120651   4.801   3.655   5.418
 6584SOL    HW220652   4.686   3.628   5.306
 6585SOL     OW20653   5.196   6.313   1.911
 6585SOL    HW120654   5.201   6.213   1.905
 6585SOL    HW220655   5.103   6.343   1.894
 6586SOL     OW20656   6.580   1.843   6.939
 6586SOL    HW120657   6.619   1.804   0.002
 6586SOL    HW220658   6.620   1.933   6.923
 6587SOL     OW20659   2.804   4.834   5.231
 6587SOL    HW120660   2.820   4.765   5.160
 6587SOL    HW220661   2.791   4.789   5.319
 6588SOL     OW20662   1.642   2.494   0.502
 6588SOL    HW120663   1.651   2.580   0.553
 6588SOL    HW220664   1.593   2.512   0.417
 6589SOL     OW20665   5.861   0.716   0.380
 6589SOL    HW120666   5.859   0.623   0.415
 6589SOL    HW220667   5.769   0.743   0.351
 6590SOL     OW20668   0.774   5.962   4.413
 6590SOL    HW120669   0.741   5.906   4.489
 6590SOL    HW220670   0.702   6.026   4.386
 6591SOL     OW20671   6.362   3.687   3.449
 6591SOL    HW120672   6.412   3.668   3.365
 6591SOL    HW220673   6.265   3.664   3.437
 6592SOL     OW20674   0.545   0.485   4.402
 6592SOL    HW120675   0.452   0.465   4.433
 6592SOL    HW220676   0.611   0.447   4.467
 6593SOL     OW20677   0.829   6.877   3.624
 6593SOL    HW120678   0.786   6.788   3.603
 6593SOL    HW220679   0.926   6.863   3.640
 6594SOL     OW20680   5.366   6.884   6.441
 6594SOL    HW120681   5.426   6.929   6.376
 6594SOL    HW220682   5.277   6.867   6.399
 6595SOL     OW20683   0.616   6.848   4.461
 6595SOL    HW120684   0.653   6.855   4.553
 6595SOL    HW220685   0.580   6.937   4.432
 6596SOL     OW20686   4.945   0.681   3.482
 6596SOL    HW120687   4.921   0.675   3.385
 6596SOL    HW220688   5.032   0.634   3.498
 6597SOL     OW20689   0.698   5.441   1.664
 6597SOL    HW120690   0.736   5.349   1.676
 6597SOL    HW220691   0.604   5.434   1.630
 6598SOL     OW20692   1.449   5.402   1.350
 6598SOL    HW120693   1.503   5.448   1.421
 6598SOL    HW220694   1.491   5.314   1.328
 6599SOL     OW20695   0.155   5.739   0.760
 6599SOL    HW120696   0.121   5.648   0.732
 6599SOL    HW220697   0.214   5.775   0.688
 6600SOL     OW20698   5.384   0.183   4.768
 6600SOL    HW120699   5.385   0.239   4.685
 6600SOL    HW220700   5.443   0.225   4.837
 6601SOL     OW20701   0.890   2.210   3.796
 6601SOL    HW120702   0.885   2.112   3.813
 6601SOL    HW220703   0.897   2.260   3.882
 6602SOL     OW20704   5.989   6.120   0.704
 6602SOL    HW120705   6.023   6.163   0.787
 6602SOL    HW220706   6.015   6.175   0.625
 6603SOL     OW20707   6.909   5.128   2.361
 6603SOL    HW120708   6.866   5.205   2.408
 6603SOL    HW220709   6.918   5.149   2.263
 6604SOL     OW20710   2.590   4.777   2.347
 6604SOL    HW120711   2.541   4.707   2.295
 6604SOL    HW220712   2.627   4.845   2.285
 6605SOL     OW20713   6.763   5.452   1.013
 6605SOL    HW120714   6.798   5.377   0.957
 6605SOL    HW220715   6.712   5.415   1.090
 6606SOL     OW20716   1.054   5.310   3.412
 6606SOL    HW120717   1.093   5.219   3.400
 6606SOL    HW220718   1.094   5.373   3.345
 6607SOL     OW20719   0.620   2.513   4.255
 6607SOL    HW120720   0.708   2.555   4.236
 6607SOL    HW220721   0.547   2.567   4.212
 6608SOL     OW20722   1.344   0.100   5.403
 6608SOL    HW120723   1.303   0.030   5.344
 6608SOL    HW220724   1.326   0.190   5.364
 6609SOL     OW20725   2.587   1.883   6.929
 6609SOL    HW120726   2.601   1.887   0.008
 6609SOL    HW220727   2.655   1.823   6.887
 6610SOL     OW20728   3.301   5.382   0.432
 6610SOL    HW120729   3.247   5.402   0.350
 6610SOL    HW220730   3.239   5.366   0.509
 6611SOL     OW20731   2.671   0.999   4.985
 6611SOL    HW120732   2.656   1.030   4.891
 6611SOL    HW220733   2.583   0.971   5.024
 6612SOL     OW20734   6.234   6.857   6.703
 6612SOL    HW120735   6.228   6.938   6.643
 6612SOL    HW220736   6.259   6.886   6.795
 6613SOL     OW20737   5.041   6.469   1.000
 6613SOL    HW120738   5.140   6.482   0.999
 6613SOL    HW220739   4.996   6.552   1.034
 6614SOL     OW20740   4.331   5.785   0.653
 6614SOL    HW120741   4.390   5.853   0.696
 6614SOL    HW220742   4.237   5.820   0.652
 6615SOL     OW20743   4.006   5.748   6.033
 6615SOL    HW120744   3.998   5.745   5.933
 6615SOL    HW220745   4.014   5.843   6.063
 6616SOL     OW20746   4.250   1.875   6.585
 6616SOL    HW120747   4.347   1.897   6.576
 6616SOL    HW220748   4.208   1.936   6.653
 6617SOL     OW20749   3.867   1.872   4.206
 6617SOL    HW120750   3.793   1.869   4.139
 6617SOL    HW220751   3.829   1.879   4.298
 6618SOL     OW20752   6.374   2.751   3.464
 6618SOL    HW120753   6.281   2.738   3.430
 6618SOL    HW220754   6.385   2.846   3.493
 6619SOL     OW20755   4.805   4.959   3.247
 6619SOL    HW120756   4.808   4.932   3.343
 6619SOL    HW220757   4.844   4.886   3.191
 6620SOL     OW20758   1.380   3.045   3.798
 6620SOL    HW120759   1.435   3.000   3.869
 6620SOL    HW220760   1.403   3.006   3.709
 6621SOL     OW20761   3.512   3.568   3.338
 6621SOL    HW120762   3.453   3.576   3.418
 6621SOL    HW220763   3.555   3.478   3.337
 6622SOL     OW20764   6.882   5.207   1.349
 6622SOL    HW120765   6.874   5.127   1.408
 6622SOL    HW220766   6.924   5.282   1.400
 6623SOL     OW20767   3.451   3.667   4.436
 6623SOL    HW120768   3.451   3.764   4.412
 6623SOL    HW220769   3.473   3.613   4.355
 6624SOL     OW20770   2.219   2.163   2.633
 6624SOL    HW120771   2.271   2.189   2.551
 6624SOL    HW220772   2.125   2.143   2.607
 6625SOL     OW20773   0.848   5.451   6.346
 6625SOL    HW120774   0.894   5.369   6.381
 6625SOL    HW220775   0.916   5.522   6.329
 6626SOL     OW20776   3.765   5.885   5.656
 6626SOL    HW120777   3.674   5.925   5.669
 6626SOL    HW220778   3.812   5.934   5.582
 6627SOL     OW20779   2.399   0.331   4.456
 6627SOL    HW120780   2.323   0.311   4.518
 6627SOL    HW220781   2.475   0.372   4.507
 6628SOL     OW20782   3.783   6.378   3.921
 6628SOL    HW120783   3.737   6.415   3.840
 6628SOL    HW220784   3.849   6.445   3.955
 6629SOL     OW20785   5.126   5.330   5.270
 6629SOL    HW120786   5.219   5.327   5.233
 6629SOL    HW220787   5.093   5.424   5.271
 6630SOL     OW20788   1.703   6.847   0.820
 6630SOL    HW120789   1.728   6.800   0.735
 6630SOL    HW220790   1.632   6.915   0.801
 6631SOL     OW20791   1.402   1.491   5.618
 6631SOL    HW120792   1.306   1.521   5.616
 6631SOL    HW220793   1.461   1.568   5.594
 6632SOL     OW20794   1.139   0.628   5.930
 6632SOL    HW120795   1.087   0.645   5.846
 6632SOL    HW220796   1.237   0.640   5.911
 6633SOL     OW20797   5.058   0.463   5.569
 6633SOL    HW120798   5.096   0.371   5.568
 6633SOL    HW220799   4.989   0.471   5.497
 6634SOL     OW20800   2.806   2.329   3.912
 6634SOL    HW120801   2.724   2.285   3.875
 6634SOL    HW220802   2.883   2.313   3.850
 6635SOL     OW20803   4.467   5.661   6.241
 6635SOL    HW120804   4.411   5.578   6.249
 6635SOL    HW220805   4.560   5.636   6.215
 6636SOL     OW20806   4.881   1.474   1.145
 6636SOL    HW120807   4.904   1.550   1.207
 6636SOL    HW220808   4.892   1.505   1.051
 6637SOL     OW20809   0.571   3.806   0.035
 6637SOL    HW120810   0.614   3.806   0.125
 6637SOL    HW220811   0.473   3.790   0.044
 6638SOL     OW20812   3.259   3.421   4.303
 6638SOL    HW120813   3.329   3.472   4.253
 6638SOL    HW220814   3.212   3.482   4.367
 6639SOL     OW20815   5.979   2.459   2.535
 6639SOL    HW120816   5.983   2.421   2.628
 6639SOL    HW220817   6.060   2.430   2.484
 6640SOL     OW20818   0.268   3.430   4.200
 6640SOL    HW120819   0.202   3.401   4.130
 6640SOL    HW220820   0.226   3.422   4.291
 6641SOL     OW20821   5.357   2.502   0.423
 6641SOL    HW120822   5.387   2.595   0.404
 6641SOL    HW220823   5.435   2.447   0.452
 6642SOL     OW20824   0.624   4.499   6.477
 6642SOL    HW120825   0.643   4.455   6.565
 6642SOL    HW220826   0.560   4.443   6.425
 6643SOL     OW20827   6.188   5.742   5.878
 6643SOL    HW120828   6.279   5.743   5.921
 6643SOL    HW220829   6.138   5.661   5.908
 6644SOL     OW20830   2.144   6.710   3.524
 6644SOL    HW120831   2.203   6.762   3.585
 6644SOL    HW220832   2.119   6.624   3.568
 6645SOL     OW20833   4.647   2.586   5.502
 6645SOL    HW120834   4.712   2.612   5.431
 6645SOL    HW220835   4.602   2.668   5.537
 6646SOL     OW20836   4.289   6.934   6.076
 6646SOL    HW120837   4.334   6.983   6.151
 6646SOL    HW220838   4.190   6.945   6.084
 6647SOL     OW20839   3.119   4.862   0.660
 6647SOL    HW120840   3.203   4.897   0.618
 6647SOL    HW220841   3.124   4.763   0.668
 6648SOL     OW20842   3.152   5.849   5.086
 6648SOL    HW120843   3.120   5.809   5.172
 6648SOL    HW220844   3.093   5.927   5.062
 6649SOL     OW20845   5.489   2.402   5.476
 6649SOL    HW120846   5.479   2.319   5.421
 6649SOL    HW220847   5.403   2.452   5.477
 6650SOL     OW20848   2.572   0.488   4.559
 6650SOL    HW120849   2.593   0.575   4.515
 6650SOL    HW220850   2.628   0.477   4.641
 6651SOL     OW20851   5.944   1.528   3.780
 6651SOL    HW120852   6.008   1.488   3.715
 6651SOL    HW220853   5.956   1.484   3.869
 6652SOL     OW20854   6.767   4.927   0.048
 6652SOL    HW120855   6.812   4.893   6.986
 6652SOL    HW220856   6.775   4.859   0.121
 6653SOL     OW20857   5.483   3.582   6.671
 6653SOL    HW120858   5.574   3.558   6.705
 6653SOL    HW220859   5.433   3.499   6.648
 6654SOL     OW20860   6.773   1.977   3.028
 6654SOL    HW120861   6.808   1.890   3.061
 6654SOL    HW220862   6.846   2.045   3.027
 6655SOL     OW20863   6.730   5.570   1.582
 6655SOL    HW120864   6.762   5.592   1.490
 6655SOL    HW220865   6.724   5.655   1.636
 6656SOL     OW20866   5.799   1.605   2.548
 6656SOL    HW120867   5.754   1.616   2.637
 6656SOL    HW220868   5.811   1.508   2.528
 6657SOL     OW20869   4.944   2.130   4.061
 6657SOL    HW120870   5.000   2.193   4.116
 6657SOL    HW220871   4.858   2.112   4.109
 6658SOL     OW20872   6.263   5.057   3.924
 6658SOL    HW120873   6.285   4.964   3.955
 6658SOL    HW220874   6.204   5.102   3.991
 6659SOL     OW20875   0.708   6.382   0.617
 6659SOL    HW120876   0.622   6.337   0.592
 6659SOL    HW220877   0.693   6.480   0.630
 6660SOL     OW20878   1.700   0.792   3.327
 6660SOL    HW120879   1.675   0.833   3.239
 6660SOL    HW220880   1.714   0.865   3.395
 6661SOL     OW20881   3.569   6.334   3.575
 6661SOL    HW120882   3.478   6.299   3.597
 6661SOL    HW220883   3.590   6.412   3.634
 6662SOL     OW20884   3.994   5.799   1.584
 6662SOL    HW120885   4.002   5.787   1.683
 6662SOL    HW220886   3.947   5.720   1.545
 6663SOL     OW20887   1.671   4.351   5.747
 6663SOL    HW120888   1.606   4.276   5.756
 6663SOL    HW220889   1.752   4.332   5.803
 6664SOL     OW20890   3.178   0.146   1.704
 6664SOL    HW120891   3.096   0.092   1.723
 6664SOL    HW220892   3.184   0.222   1.769
 6665SOL     OW20893   2.813   0.233   6.604
 6665SOL    HW120894   2.765   0.272   6.683
 6665SOL    HW220895   2.873   0.302   6.564
 6666SOL     OW20896   2.893   6.967   6.267
 6666SOL    HW120897   2.890   7.010   6.357
 6666SOL    HW220898   2.805   6.979   6.222
 6667SOL     OW20899   1.191   5.667   0.034
 6667SOL    HW120900   1.201   5.680   0.132
 6667SOL    HW220901   1.094   5.669   0.009
 6668SOL     OW20902   7.006   3.490   5.823
 6668SOL    HW120903   0.040   3.551   5.881
 6668SOL    HW220904   0.047   3.428   5.774
 6669SOL     OW20905   0.935   3.717   3.336
 6669SOL    HW120906   0.922   3.693   3.432
 6669SOL    HW220907   0.932   3.634   3.280
 6670SOL     OW20908   2.220   3.681   0.756
 6670SOL    HW120909   2.309   3.661   0.716
 6670SOL    HW220910   2.228   3.680   0.856
 6671SOL     OW20911   5.597   5.293   0.140
 6671SOL    HW120912   5.514   5.348   0.130
 6671SOL    HW220913   5.623   5.255   0.051
 6672SOL     OW20914   1.487   2.387   1.154
 6672SOL    HW120915   1.506   2.322   1.081
 6672SOL    HW220916   1.487   2.340   1.242
 6673SOL     OW20917   5.758   4.135   4.184
 6673SOL    HW120918   5.847   4.099   4.213
 6673SOL    HW220919   5.685   4.079   4.224
 6674SOL     OW20920   6.563   1.629   0.135
 6674SOL    HW120921   6.559   1.551   0.073
 6674SOL    HW220922   6.491   1.620   0.204
 6675SOL     OW20923   5.347   1.089   0.906
 6675SOL    HW120924   5.418   1.045   0.961
 6675SOL    HW220925   5.257   1.058   0.936
 6676SOL     OW20926   0.787   3.359   5.107
 6676SOL    HW120927   0.813   3.362   5.011
 6676SOL    HW220928   0.856   3.406   5.162
 6677SOL     OW20929   0.565   2.112   0.010
 6677SOL    HW120930   0.615   2.172   6.968
 6677SOL    HW220931   0.623   2.034   0.034
 6678SOL     OW20932   3.099   4.168   0.016
 6678SOL    HW120933   3.083   4.129   6.945
 6678SOL    HW220934   3.193   4.202   0.022
 6679SOL     OW20935   1.487   0.014   3.609
 6679SOL    HW120936   1.520   6.999   3.522
 6679SOL    HW220937   1.512   0.110   3.618
 6680SOL     OW20938   6.240   5.426   1.499
 6680SOL    HW120939   6.181   5.369   1.442
 6680SOL    HW220940   6.191   5.511   1.522
 6681SOL     OW20941   3.050   6.482   0.944
 6681SOL    HW120942   3.014   6.450   0.856
 6681SOL    HW220943   3.072   6.403   1.002
 6682SOL     OW20944   2.026   4.973   6.710
 6682SOL    HW120945   2.080   4.894   6.683
 6682SOL    HW220946   2.086   5.045   6.744
 6683SOL     OW20947   6.523   6.544   6.130
 6683SOL    HW120948   6.571   6.457   6.138
 6683SOL    HW220949   6.426   6.531   6.152
 6684SOL     OW20950   3.178   0.002   5.783
 6684SOL    HW120951   3.235   0.048   5.851
 6684SOL    HW220952   3.235   6.989   5.708
 6685SOL     OW20953   3.914   2.998   0.639
 6685SOL    HW120954   3.828   2.964   0.601
 6685SOL    HW220955   3.921   2.969   0.735
 6686SOL     OW20956   4.152   4.699   5.589
 6686SOL    HW120957   4.251   4.700   5.598
 6686SOL    HW220958   4.127   4.681   5.494
 6687SOL     OW20959   0.220   2.513   1.108
 6687SOL    HW120960   0.140   2.472   1.152
 6687SOL    HW220961   0.194   2.602   1.070
 6688SOL     OW20962   5.961   5.827   0.038
 6688SOL    HW120963   5.907   5.898   7.013
 6688SOL    HW220964   6.046   5.867   0.074
 6689SOL     OW20965   3.949   4.576   5.725
 6689SOL    HW120966   4.023   4.633   5.689
 6689SOL    HW220967   3.921   4.510   5.656
 6690SOL     OW20968   0.863   0.678   0.266
 6690SOL    HW120969   0.873   0.708   0.360
 6690SOL    HW220970   0.934   0.611   0.244
 6691SOL     OW20971   2.052   2.038   2.272
 6691SOL    HW120972   2.112   2.094   2.214
 6691SOL    HW220973   1.995   1.980   2.214
 6692SOL     OW20974   4.265   6.124   2.391
 6692SOL    HW120975   4.298   6.197   2.331
 6692SOL    HW220976   4.312   6.130   2.479
 6693SOL     OW20977   2.985   0.944   6.228
 6693SOL    HW120978   2.982   0.926   6.129
 6693SOL    HW220979   3.019   1.037   6.244
 6694SOL     OW20980   4.633   4.210   1.639
 6694SOL    HW120981   4.555   4.209   1.701
 6694SOL    HW220982   4.718   4.204   1.691
 6695SOL     OW20983   3.313   2.465   0.060
 6695SOL    HW120984   3.259   2.416   0.128
 6695SOL    HW220985   3.328   2.559   0.090
 6696SOL     OW20986   3.648   3.123   5.174
 6696SOL    HW120987   3.588   3.180   5.118
 6696SOL    HW220988   3.593   3.070   5.238
 6697SOL     OW20989   4.797   0.930   2.988
 6697SOL    HW120990   4.774   1.011   2.935
 6697SOL    HW220991   4.892   0.904   2.970
 6698SOL     OW20992   2.745   3.447   1.276
 6698SOL    HW120993   2.776   3.352   1.268
 6698SOL    HW220994   2.699   3.460   1.364
 6699SOL     OW20995   1.582   3.553   5.666
 6699SOL    HW120996   1.626   3.523   5.751
 6699SOL    HW220997   1.483   3.561   5.682
 6700SOL     OW20998   4.828   6.560   1.630
 6700SOL    HW120999   4.878   6.611   1.560
 6700SOL    HW221000   4.778   6.625   1.688
 6701SOL     OW21001   6.691   0.217   1.132
 6701SOL    HW121002   6.775   0.217   1.186
 6701SOL    HW221003   6.671   0.125   1.100
 6702SOL     OW21004   5.215   2.766   1.657
 6702SOL    HW121005   5.206   2.695   1.588
 6702SOL    HW221006   5.224   2.855   1.613
 6703SOL     OW21007   0.065   0.956   0.756
 6703SOL    HW121008   0.017   0.872   0.781
 6703SOL    HW221009   0.100   1.000   0.838
 6704SOL     OW21010   2.016   5.611   6.543
 6704SOL    HW121011   2.021   5.519   6.582
 6704SOL    HW221012   2.031   5.606   6.445
 6705SOL     OW21013   1.755   4.404   2.922
 6705SOL    HW121014   1.715   4.340   2.988
 6705SOL    HW221015   1.764   4.359   2.833
 6706SOL     OW21016   0.218   5.895   1.777
 6706SOL    HW121017   0.231   5.808   1.826
 6706SOL    HW221018   0.262   5.969   1.828
 6707SOL     OW21019   5.679   1.092   2.733
 6707SOL    HW121020   5.764   1.053   2.767
 6707SOL    HW221021   5.610   1.089   2.805
 6708SOL     OW21022   0.260   2.964   1.210
 6708SOL    HW121023   0.224   3.028   1.278
 6708SOL    HW221024   0.296   2.883   1.258
 6709SOL     OW21025   2.079   4.152   2.267
 6709SOL    HW121026   2.036   4.187   2.184
 6709SOL    HW221027   2.093   4.053   2.258
 6710SOL     OW21028   4.886   2.296   1.859
 6710SOL    HW121029   4.971   2.330   1.817
 6710SOL    HW221030   4.846   2.225   1.801
 6711SOL     OW21031   4.246   5.357   6.425
 6711SOL    HW121032   4.238   5.426   6.497
 6711SOL    HW221033   4.247   5.401   6.335
 6712SOL     OW21034   5.717   3.440   0.961
 6712SOL    HW121035   5.675   3.371   0.902
 6712SOL    HW221036   5.787   3.489   0.910
 6713SOL     OW21037   2.272   5.027   4.336
 6713SOL    HW121038   2.369   5.049   4.325
 6713SOL    HW221039   2.260   4.967   4.415
 6714SOL     OW21040   6.440   1.031   3.030
 6714SOL    HW121041   6.451   1.004   2.934
 6714SOL    HW221042   6.376   0.968   3.075
 6715SOL     OW21043   0.537   6.838   5.077
 6715SOL    HW121044   0.487   6.902   5.136
 6715SOL    HW221045   0.488   6.752   5.072
 6716SOL     OW21046   1.686   4.489   1.690
 6716SOL    HW121047   1.587   4.507   1.691
 6716SOL    HW221048   1.710   4.429   1.766
 6717SOL     OW21049   6.314   2.877   5.371
 6717SOL    HW121050   6.327   2.803   5.438
 6717SOL    HW221051   6.392   2.940   5.376
 6718SOL     OW21052   4.950   2.004   1.075
 6718SOL    HW121053   4.899   2.037   0.995
 6718SOL    HW221054   4.982   1.911   1.058
 6719SOL     OW21055   1.292   0.068   0.395
 6719SOL    HW121056   1.218   0.134   0.397
 6719SOL    HW221057   1.316   0.047   0.300
 6720SOL     OW21058   1.784   1.803   4.774
 6720SOL    HW121059   1.839   1.847   4.702
 6720SOL    HW221060   1.835   1.805   4.860
 6721SOL     OW21061   6.527   6.660   0.724
 6721SOL    HW121062   6.527   6.592   0.650
 6721SOL    HW221063   6.441   6.711   0.723
 6722SOL     OW21064   6.897   3.564   1.506
 6722SOL    HW121065   6.808   3.535   1.471
 6722SOL    HW221066   6.959   3.581   1.429
 6723SOL     OW21067   2.158   3.605   4.005
 6723SOL    HW121068   2.118   3.667   3.938
 6723SOL    HW221069   2.162   3.513   3.966
 6724SOL     OW21070   2.322   3.446   5.295
 6724SOL    HW121071   2.280   3.378   5.235
 6724SOL    HW221072   2.271   3.531   5.289
 6725SOL     OW21073   4.725   2.691   3.357
 6725SOL    HW121074   4.746   2.622   3.287
 6725SOL    HW221075   4.645   2.662   3.409
 6726SOL     OW21076   0.297   1.635   0.506
 6726SOL    HW121077   0.292   1.675   0.598
 6726SOL    HW221078   0.215   1.581   0.489
 6727SOL     OW21079   0.907   5.753   5.526
 6727SOL    HW121080   0.828   5.694   5.536
 6727SOL    HW221081   0.896   5.812   5.446
 6728SOL     OW21082   3.523   1.638   5.596
 6728SOL    HW121083   3.530   1.727   5.553
 6728SOL    HW221084   3.460   1.643   5.674
 6729SOL     OW21085   4.433   1.070   2.646
 6729SOL    HW121086   4.505   1.031   2.588
 6729SOL    HW221087   4.366   1.115   2.588
 6730SOL     OW21088   6.800   2.067   1.322
 6730SOL    HW121089   6.773   2.008   1.399
 6730SOL    HW221090   6.898   2.058   1.306
 6731SOL     OW21091   3.885   0.573   5.556
 6731SOL    HW121092   3.906   0.671   5.560
 6731SOL    HW221093   3.786   0.560   5.558
 6732SOL     OW21094   6.656   4.250   6.156
 6732SOL    HW121095   6.681   4.307   6.234
 6732SOL    HW221096   6.570   4.282   6.117
 6733SOL     OW21097   5.692   4.732   5.952
 6733SOL    HW121098   5.715   4.814   5.900
 6733SOL    HW221099   5.719   4.651   5.901
 6734SOL     OW21100   5.670   2.071   5.026
 6734SOL    HW121101   5.597   2.004   5.043
 6734SOL    HW221102   5.630   2.163   5.022
 6735SOL     OW21103   5.707   2.466   4.651
 6735SOL    HW121104   5.638   2.483   4.580
 6735SOL    HW221105   5.666   2.482   4.741
 6736SOL     OW21106   4.113   3.363   0.718
 6736SOL    HW121107   4.062   3.355   0.804
 6736SOL    HW221108   4.080   3.443   0.667
 6737SOL     OW21109   5.957   2.759   1.583
 6737SOL    HW121110   6.018   2.680   1.576
 6737SOL    HW221111   5.865   2.728   1.608
 6738SOL     OW21112   1.746   6.974   3.423
 6738SOL    HW121113   1.813   6.930   3.483
 6738SOL    HW221114   1.757   0.053   3.429
 6739SOL     OW21115   0.340   0.580   5.713
 6739SOL    HW121116   0.404   0.507   5.736
 6739SOL    HW221117   0.295   0.612   5.796
 6740SOL     OW21118   0.683   6.556   1.405
 6740SOL    HW121119   0.650   6.619   1.476
 6740SOL    HW221120   0.621   6.560   1.326
 6741SOL     OW21121   2.974   2.093   0.291
 6741SOL    HW121122   2.933   2.152   0.222
 6741SOL    HW221123   2.971   1.998   0.259
 6742SOL     OW21124   6.554   4.946   2.493
 6742SOL    HW121125   6.545   5.018   2.561
 6742SOL    HW221126   6.651   4.924   2.480
 6743SOL     OW21127   3.895   4.525   0.059
 6743SOL    HW121128   3.927   4.526   0.154
 6743SOL    HW221129   3.900   4.432   0.024
 6744SOL     OW21130   6.440   0.059   5.530
 6744SOL    HW121131   6.534   0.093   5.520
 6744SOL    HW221132   6.382   0.100   5.459
 6745SOL     OW21133   5.641   3.310   4.878
 6745SOL    HW121134   5.703   3.313   4.956
 6745SOL    HW221135   5.557   3.263   4.904
 6746SOL     OW21136   1.660   2.492   2.922
 6746SOL    HW121137   1.705   2.524   3.005
 6746SOL    HW221138   1.673   2.560   2.850
 6747SOL     OW21139   0.658   6.449   4.982
 6747SOL    HW121140   0.752   6.430   4.953
 6747SOL    HW221141   0.614   6.365   5.011
 6748SOL     OW21142   1.434   2.282   4.107
 6748SOL    HW121143   1.387   2.221   4.171
 6748SOL    HW221144   1.428   2.244   4.015
 6749SOL     OW21145   3.062   5.109   1.862
 6749SOL    HW121146   3.146   5.088   1.911
 6749SOL    HW221147   3.070   5.200   1.821
 6750SOL     OW21148   3.555   0.454   5.251
 6750SOL    HW121149   3.466   0.498   5.258
 6750SOL    HW221150   3.550   0.361   5.289
 6751SOL     OW21151   4.284   1.758   4.419
 6751SOL    HW121152   4.238   1.808   4.492
 6751SOL    HW221153   4.372   1.802   4.399
 6752SOL     OW21154   2.393   5.144   2.734
 6752SOL    HW121155   2.422   5.096   2.651
 6752SOL    HW221156   2.307   5.192   2.716
 6753SOL     OW21157   3.518   4.343   6.774
 6753SOL    HW121158   3.433   4.328   6.825
 6753SOL    HW221159   3.537   4.264   6.717
 6754SOL     OW21160   5.807   0.325   0.120
 6754SOL    HW121161   5.750   0.343   0.200
 6754SOL    HW221162   5.795   0.229   0.092
 6755SOL     OW21163   3.724   5.777   5.357
 6755SOL    HW121164   3.676   5.839   5.418
 6755SOL    HW221165   3.745   5.824   5.271
 6756SOL     OW21166   4.260   3.261   5.316
 6756SOL    HW121167   4.247   3.253   5.415
 6756SOL    HW221168   4.318   3.340   5.296
 6757SOL     OW21169   3.782   0.117   1.822
 6757SOL    HW121170   3.846   0.180   1.866
 6757SOL    HW221171   3.824   0.081   1.739
 6758SOL     OW21172   4.961   2.727   3.495
 6758SOL    HW121173   4.884   2.760   3.439
 6758SOL    HW221174   4.931   2.718   3.590
 6759SOL     OW21175   1.525   2.331   1.957
 6759SOL    HW121176   1.442   2.325   1.901
 6759SOL    HW221177   1.573   2.243   1.956
 6760SOL     OW21178   5.274   1.719   5.740
 6760SOL    HW121179   5.262   1.670   5.826
 6760SOL    HW221180   5.362   1.694   5.699
 6761SOL     OW21181   2.822   6.933   4.960
 6761SOL    HW121182   2.755   6.867   4.994
 6761SOL    HW221183   2.914   6.901   4.982
 6762SOL     OW21184   5.405   4.759   4.633
 6762SOL    HW121185   5.459   4.843   4.639
 6762SOL    HW221186   5.361   4.754   4.543
 6763SOL     OW21187   5.406   5.826   3.783
 6763SOL    HW121188   5.411   5.812   3.882
 6763SOL    HW221189   5.311   5.825   3.754
 6764SOL     OW21190   1.102   4.791   2.195
 6764SOL    HW121191   1.089   4.692   2.191
 6764SOL    HW221192   1.128   4.825   2.105
 6765SOL     OW21193   0.382   4.517   2.468
 6765SOL    HW121194   0.471   4.564   2.466
 6765SOL    HW221195   0.374   4.467   2.554
 6766SOL     OW21196   6.095   0.110   1.567
 6766SOL    HW121197   6.110   0.109   1.666
 6766SOL    HW221198   6.082   0.205   1.536
 6767SOL     OW21199   2.757   0.232   1.382
 6767SOL    HW121200   2.828   0.302   1.389
 6767SOL    HW221201   2.721   0.212   1.473
 6768SOL     OW21202   2.097   0.357   6.172
 6768SOL    HW121203   2.182   0.394   6.211
 6768SOL    HW221204   2.019   0.392   6.224
 6769SOL     OW21205   5.563   2.660   1.438
 6769SOL    HW121206   5.562   2.713   1.523
 6769SOL    HW221207   5.515   2.573   1.453
 6770SOL     OW21208   0.015   1.699   1.618
 6770SOL    HW121209   7.009   1.780   1.671
 6770SOL    HW221210   0.003   1.718   1.520
 6771SOL     OW21211   4.392   0.980   3.960
 6771SOL    HW121212   4.332   1.059   3.974
 6771SOL    HW221213   4.396   0.957   3.863
 6772SOL     OW21214   3.162   1.316   5.359
 6772SOL    HW121215   3.136   1.219   5.360
 6772SOL    HW221216   3.252   1.327   5.318
 6773SOL     OW21217   6.933   3.289   2.632
 6773SOL    HW121218   6.860   3.239   2.586
 6773SOL    HW221219   6.948   3.377   2.586
 6774SOL     OW21220   1.206   1.469   5.903
 6774SOL    HW121221   1.289   1.440   5.952
 6774SOL    HW221222   1.128   1.466   5.965
 6775SOL     OW21223   0.278   3.172   0.450
 6775SOL    HW121224   0.324   3.244   0.398
 6775SOL    HW221225   0.320   3.163   0.540
 6776SOL     OW21226   6.195   6.471   6.181
 6776SOL    HW121227   6.148   6.537   6.123
 6776SOL    HW221228   6.242   6.404   6.124
 6777SOL     OW21229   4.392   4.679   0.156
 6777SOL    HW121230   4.339   4.617   0.098
 6777SOL    HW221231   4.416   4.633   0.241
 6778SOL     OW21232   6.731   5.273   3.514
 6778SOL    HW121233   6.664   5.343   3.488
 6778SOL    HW221234   6.784   5.245   3.434
 6779SOL     OW21235   5.465   3.501   6.345
 6779SOL    HW121236   5.432   3.423   6.291
 6779SOL    HW221237   5.465   3.477   6.442
 6780SOL     OW21238   1.131   2.383   1.671
 6780SOL    HW121239   1.121   2.435   1.755
 6780SOL    HW221240   1.197   2.428   1.610
 6781SOL     OW21241   5.897   4.424   5.028
 6781SOL    HW121242   5.802   4.402   5.049
 6781SOL    HW221243   5.950   4.340   5.021
 6782SOL     OW21244   6.343   1.797   3.866
 6782SOL    HW121245   6.432   1.786   3.911
 6782SOL    HW221246   6.273   1.750   3.919
 6783SOL     OW21247   0.940   5.432   6.942
 6783SOL    HW121248   0.898   5.523   6.947
 6783SOL    HW221249   0.868   5.364   6.930
 6784SOL     OW21250   3.878   3.472   0.332
 6784SOL    HW121251   3.900   3.400   0.399
 6784SOL    HW221252   3.921   3.557   0.360
 6785SOL     OW21253   5.256   6.350   1.624
 6785SOL    HW121254   5.339   6.404   1.637
 6785SOL    HW221255   5.232   6.305   1.710
 6786SOL     OW21256   1.907   3.211   5.147
 6786SOL    HW121257   1.994   3.245   5.182
 6786SOL    HW221258   1.855   3.286   5.107
 6787SOL     OW21259   0.755   4.343   2.594
 6787SOL    HW121260   0.780   4.295   2.511
 6787SOL    HW221261   0.805   4.305   2.672
 6788SOL     OW21262   2.748   3.723   1.081
 6788SOL    HW121263   2.684   3.674   1.139
 6788SOL    HW221264   2.709   3.811   1.053
 6789SOL     OW21265   1.991   4.857   3.215
 6789SOL    HW121266   1.934   4.931   3.251
 6789SOL    HW221267   1.980   4.776   3.273
 6790SOL     OW21268   1.272   3.369   1.227
 6790SOL    HW121269   1.198   3.331   1.282
 6790SOL    HW221270   1.319   3.441   1.279
 6791SOL     OW21271   3.696   3.805   5.650
 6791SOL    HW121272   3.677   3.889   5.702
 6791SOL    HW221273   3.615   3.781   5.596
 6792SOL     OW21274   0.774   5.338   0.666
 6792SOL    HW121275   0.724   5.255   0.690
 6792SOL    HW221276   0.816   5.377   0.748
 6793SOL     OW21277   5.934   0.952   0.541
 6793SOL    HW121278   5.921   0.871   0.484
 6793SOL    HW221279   5.948   0.924   0.636
 6794SOL     OW21280   2.988   1.777   5.340
 6794SOL    HW121281   2.934   1.710   5.391
 6794SOL    HW221282   2.934   1.861   5.328
 6795SOL     OW21283   4.273   6.039   6.946
 6795SOL    HW121284   4.344   5.968   6.950
 6795SOL    HW221285   4.210   6.020   6.871
 6796SOL     OW21286   3.938   2.152   2.284
 6796SOL    HW121287   4.030   2.189   2.295
 6796SOL    HW221288   3.895   2.193   2.203
 6797SOL     OW21289   6.622   2.369   2.908
 6797SOL    HW121290   6.614   2.463   2.941
 6797SOL    HW221291   6.702   2.361   2.849
 6798SOL     OW21292   6.287   0.147   2.153
 6798SOL    HW121293   6.298   0.055   2.190
 6798SOL    HW221294   6.349   0.160   2.076
 6799SOL     OW21295   4.714   5.816   2.147
 6799SOL    HW121296   4.798   5.793   2.196
 6799SOL    HW221297   4.635   5.804   2.207
 6800SOL     OW21298   3.634   3.652   6.419
 6800SOL    HW121299   3.617   3.640   6.321
 6800SOL    HW221300   3.558   3.611   6.470
 6801SOL     OW21301   0.212   3.051   3.123
 6801SOL    HW121302   0.114   3.043   3.105
 6801SOL    HW221303   0.230   3.028   3.219
 6802SOL     OW21304   3.239   4.873   2.518
 6802SOL    HW121305   3.157   4.873   2.575
 6802SOL    HW221306   3.213   4.871   2.421
 6803SOL     OW21307   4.409   2.287   7.004
 6803SOL    HW121308   4.358   2.339   6.936
 6803SOL    HW221309   4.447   2.205   6.962
 6804SOL     OW21310   1.533   6.162   3.411
 6804SOL    HW121311   1.597   6.169   3.487
 6804SOL    HW221312   1.557   6.082   3.355
 6805SOL     OW21313   6.470   1.815   5.366
 6805SOL    HW121314   6.472   1.721   5.332
 6805SOL    HW221315   6.561   1.856   5.357
 6806SOL     OW21316   5.061   5.613   5.253
 6806SOL    HW121317   4.963   5.594   5.263
 6806SOL    HW221318   5.090   5.678   5.323
 6807SOL     OW21319   4.311   3.573   6.989
 6807SOL    HW121320   4.368   3.644   0.010
 6807SOL    HW221321   4.368   3.508   6.939
 6808SOL     OW21322   2.505   4.803   4.133
 6808SOL    HW121323   2.416   4.822   4.091
 6808SOL    HW221324   2.576   4.812   4.064
 6809SOL     OW21325   1.268   3.481   6.510
 6809SOL    HW121326   1.202   3.510   6.579
 6809SOL    HW221327   1.219   3.452   6.428
 6810SOL     OW21328   5.876   1.790   3.402
 6810SOL    HW121329   5.897   1.803   3.305
 6810SOL    HW221330   5.955   1.751   3.449
 6811SOL     OW21331   5.247   6.228   2.561
 6811SOL    HW121332   5.219   6.304   2.503
 6811SOL    HW221333   5.339   6.245   2.597
 6812SOL     OW21334   3.886   2.987   3.095
 6812SOL    HW121335   3.893   2.953   3.002
 6812SOL    HW221336   3.916   2.917   3.160
 6813SOL     OW21337   5.458   3.577   0.901
 6813SOL    HW121338   5.473   3.537   0.810
 6813SOL    HW221339   5.385   3.528   0.947
 6814SOL     OW21340   2.461   2.548   0.442
 6814SOL    HW121341   2.462   2.647   0.460
 6814SOL    HW221342   2.376   2.524   0.395
 6815SOL     OW21343   1.526   6.608   7.003
 6815SOL    HW121344   1.478   6.634   0.066
 6815SOL    HW221345   1.494   6.664   6.927
 6816SOL     OW21346   5.078   4.507   1.048
 6816SOL    HW121347   5.116   4.574   1.111
 6816SOL    HW221348   5.093   4.415   1.085
 6817SOL     OW21349   1.735   2.044   5.947
 6817SOL    HW121350   1.705   2.050   5.852
 6817SOL    HW221351   1.834   2.054   5.952
 6818SOL     OW21352   4.389   5.368   0.884
 6818SOL    HW121353   4.450   5.417   0.823
 6818SOL    HW221354   4.370   5.277   0.848
 6819SOL     OW21355   2.934   1.324   4.094
 6819SOL    HW121356   2.902   1.411   4.056
 6819SOL    HW221357   2.998   1.281   4.029
 6820SOL     OW21358   1.895   5.101   4.538
 6820SOL    HW121359   1.861   5.009   4.516
 6820SOL    HW221360   1.852   5.134   4.621
 6821SOL     OW21361   2.094   2.194   4.082
 6821SOL    HW121362   2.050   2.224   4.167
 6821SOL    HW221363   2.041   2.118   4.043
 6822SOL     OW21364   5.635   1.270   5.606
 6822SOL    HW121365   5.662   1.330   5.530
 6822SOL    HW221366   5.537   1.255   5.603
 6823SOL     OW21367   4.001   3.720   2.167
 6823SOL    HW121368   3.923   3.781   2.179
 6823SOL    HW221369   4.037   3.694   2.257
 6824SOL     OW21370   0.806   5.476   4.890
 6824SOL    HW121371   0.820   5.411   4.815
 6824SOL    HW221372   0.732   5.443   4.948
 6825SOL     OW21373   5.862   0.514   4.302
 6825SOL    HW121374   5.763   0.504   4.305
 6825SOL    HW221375   5.902   0.478   4.386
 6826SOL     OW21376   1.189   2.927   3.483
 6826SOL    HW121377   1.090   2.920   3.472
 6826SOL    HW221378   1.228   2.836   3.492
 6827SOL     OW21379   4.011   5.504   5.102
 6827SOL    HW121380   4.079   5.437   5.132
 6827SOL    HW221381   3.919   5.472   5.126
 6828SOL     OW21382   2.123   2.431   0.791
 6828SOL    HW121383   2.089   2.508   0.736
 6828SOL    HW221384   2.195   2.464   0.852
 6829SOL     OW21385   5.890   4.936   3.816
 6829SOL    HW121386   5.810   4.947   3.758
 6829SOL    HW221387   5.861   4.910   3.908
 6830SOL     OW21388   4.880   1.495   3.522
 6830SOL    HW121389   4.980   1.499   3.523
 6830SOL    HW221390   4.851   1.400   3.535
 6831SOL     OW21391   0.457   1.831   6.269
 6831SOL    HW121392   0.490   1.766   6.337
 6831SOL    HW221393   0.517   1.911   6.267
 6832SOL     OW21394   2.395   5.027   1.562
 6832SOL    HW121395   2.490   4.998   1.558
 6832SOL    HW221396   2.341   4.960   1.613
 6833SOL     OW21397   4.563   6.259   6.506
 6833SOL    HW121398   4.563   6.226   6.411
 6833SOL    HW221399   4.655   6.288   6.531
 6834SOL     OW21400   2.772   4.716   2.567
 6834SOL    HW121401   2.696   4.652   2.579
 6834SOL    HW221402   2.772   4.751   2.473
 6835SOL     OW21403   3.810   6.510   4.404
 6835SOL    HW121404   3.864   6.569   4.343
 6835SOL    HW221405   3.835   6.415   4.388
 6836SOL     OW21406   3.906   5.517   0.365
 6836SOL    HW121407   3.965   5.472   0.298
 6836SOL    HW221408   3.810   5.507   0.337
 6837SOL     OW21409   0.757   3.632   2.831
 6837SOL    HW121410   0.802   3.573   2.763
 6837SOL    HW221411   0.753   3.725   2.796
 6838SOL     OW21412   2.820   2.422   0.439
 6838SOL    HW121413   2.797   2.336   0.394
 6838SOL    HW221414   2.762   2.436   0.518
 6839SOL     OW21415   3.343   1.167   1.856
 6839SOL    HW121416   3.319   1.074   1.884
 6839SOL    HW221417   3.440   1.184   1.874
 6840SOL     OW21418   0.738   0.825   5.714
 6840SOL    HW121419   0.830   0.863   5.715
 6840SOL    HW221420   0.736   0.743   5.771
 6841SOL     OW21421   0.037   3.160   5.842
 6841SOL    HW121422   6.989   3.216   5.888
 6841SOL    HW221423   0.034   3.177   5.743
 6842SOL     OW21424   2.718   4.708   2.977
 6842SOL    HW121425   2.691   4.780   2.912
 6842SOL    HW221426   2.642   4.644   2.990
 6843SOL     OW21427   4.248   6.496   1.317
 6843SOL    HW121428   4.177   6.433   1.348
 6843SOL    HW221429   4.228   6.525   1.223
 6844SOL     OW21430   5.714   0.373   5.593
 6844SOL    HW121431   5.768   0.431   5.655
 6844SOL    HW221432   5.620   0.407   5.589
 6845SOL     OW21433   5.639   2.591   2.776
 6845SOL    HW121434   5.616   2.539   2.693
 6845SOL    HW221435   5.714   2.654   2.756
 6846SOL     OW21436   1.618   3.311   0.458
 6846SOL    HW121437   1.699   3.302   0.517
 6846SOL    HW221438   1.609   3.407   0.430
 6847SOL     OW21439   6.903   2.437   3.710
 6847SOL    HW121440   6.815   2.393   3.690
 6847SOL    HW221441   6.951   2.456   3.625
 6848SOL     OW21442   6.760   4.355   4.352
 6848SOL    HW121443   6.774   4.350   4.253
 6848SOL    HW221444   6.679   4.302   4.377
 6849SOL     OW21445   3.019   4.093   5.534
 6849SOL    HW121446   3.018   4.001   5.495
 6849SOL    HW221447   3.050   4.159   5.466
 6850SOL     OW21448   5.564   0.648   4.599
 6850SOL    HW121449   5.585   0.745   4.604
 6850SOL    HW221450   5.580   0.615   4.506
 6851SOL     OW21451   2.082   4.343   3.732
 6851SOL    HW121452   2.149   4.291   3.680
 6851SOL    HW221453   2.055   4.292   3.813
 6852SOL     OW21454   4.526   2.952   0.577
 6852SOL    HW121455   4.608   2.915   0.532
 6852SOL    HW221456   4.470   3.000   0.510
 6853SOL     OW21457   4.613   5.455   5.919
 6853SOL    HW121458   4.672   5.536   5.923
 6853SOL    HW221459   4.620   5.413   5.829
 6854SOL     OW21460   5.242   6.038   5.478
 6854SOL    HW121461   5.316   6.024   5.544
 6854SOL    HW221462   5.244   6.133   5.447
 6855SOL     OW21463   4.128   5.787   2.664
 6855SOL    HW121464   4.113   5.848   2.586
 6855SOL    HW221465   4.083   5.825   2.745
 6856SOL     OW21466   6.370   2.641   1.088
 6856SOL    HW121467   6.338   2.549   1.112
 6856SOL    HW221468   6.464   2.653   1.120
 6857SOL     OW21469   1.568   4.713   6.179
 6857SOL    HW121470   1.505   4.687   6.252
 6857SOL    HW221471   1.607   4.631   6.138
 6858SOL     OW21472   1.170   3.343   1.620
 6858SOL    HW121473   1.130   3.428   1.654
 6858SOL    HW221474   1.206   3.290   1.697
 6859SOL     OW21475   2.894   2.459   0.843
 6859SOL    HW121476   2.966   2.478   0.776
 6859SOL    HW221477   2.837   2.540   0.855
 6860SOL     OW21478   0.553   0.300   6.645
 6860SOL    HW121479   0.599   0.211   6.651
 6860SOL    HW221480   0.551   0.330   6.550
 6861SOL     OW21481   6.127   3.216   6.958
 6861SOL    HW121482   6.073   3.154   7.015
 6861SOL    HW221483   6.112   3.310   6.988
 6862SOL     OW21484   0.822   5.535   2.971
 6862SOL    HW121485   0.902   5.575   2.927
 6862SOL    HW221486   0.815   5.569   3.065
 6863SOL     OW21487   5.122   0.980   5.612
 6863SOL    HW121488   5.031   1.019   5.596
 6863SOL    HW221489   5.155   0.937   5.528
 6864SOL     OW21490   2.245   3.319   6.772
 6864SOL    HW121491   2.269   3.389   6.839
 6864SOL    HW221492   2.145   3.310   6.768
 6865SOL     OW21493   1.479   0.872   2.874
 6865SOL    HW121494   1.463   0.786   2.826
 6865SOL    HW221495   1.391   0.917   2.890
 6866SOL     OW21496   1.931   4.604   6.503
 6866SOL    HW121497   1.996   4.657   6.556
 6866SOL    HW221498   1.880   4.543   6.565
 6867SOL     OW21499   1.684   2.039   6.684
 6867SOL    HW121500   1.589   2.068   6.692
 6867SOL    HW221501   1.743   2.118   6.670
 6868SOL     OW21502   3.760   5.183   3.969
 6868SOL    HW121503   3.789   5.087   3.970
 6868SOL    HW221504   3.809   5.232   3.898
 6869SOL     OW21505   1.399   0.306   5.707
 6869SOL    HW121506   1.326   0.256   5.660
 6869SOL    HW221507   1.448   0.363   5.641
 6870SOL     OW21508   6.058   2.809   6.540
 6870SOL    HW121509   6.007   2.892   6.559
 6870SOL    HW221510   6.113   2.784   6.619
 6871SOL     OW21511   6.060   2.300   3.221
 6871SOL    HW121512   6.030   2.336   3.309
 6871SOL    HW221513   6.039   2.367   3.149
 6872SOL     OW21514   1.782   5.070   0.869
 6872SOL    HW121515   1.802   5.000   0.938
 6872SOL    HW221516   1.820   5.041   0.781
 6873SOL     OW21517   0.804   3.884   2.756
 6873SOL    HW121518   0.770   3.930   2.673
 6873SOL    HW221519   0.814   3.952   2.829
 6874SOL     OW21520   3.924   6.175   1.674
 6874SOL    HW121521   4.005   6.117   1.682
 6874SOL    HW221522   3.843   6.117   1.664
 6875SOL     OW21523   2.603   0.552   6.315
 6875SOL    HW121524   2.561   0.642   6.325
 6875SOL    HW221525   2.620   0.513   6.405
 6876SOL     OW21526   5.724   5.722   3.248
 6876SOL    HW121527   5.740   5.681   3.338
 6876SOL    HW221528   5.810   5.758   3.212
 6877SOL     OW21529   1.341   4.448   1.395
 6877SOL    HW121530   1.278   4.391   1.344
 6877SOL    HW221531   1.424   4.396   1.418
 6878SOL     OW21532   1.732   0.291   3.850
 6878SOL    HW121533   1.707   0.378   3.808
 6878SOL    HW221534   1.798   0.244   3.793
 6879SOL     OW21535   1.607   1.239   1.205
 6879SOL    HW121536   1.639   1.192   1.288
 6879SOL    HW221537   1.653   1.201   1.125
 6880SOL     OW21538   1.837   6.803   0.149
 6880SOL    HW121539   1.885   6.844   0.071
 6880SOL    HW221540   1.790   6.874   0.201
 6881SOL     OW21541   6.671   3.515   1.383
 6881SOL    HW121542   6.581   3.486   1.416
 6881SOL    HW221543   6.677   3.500   1.285
 6882SOL     OW21544   2.595   6.667   6.839
 6882SOL    HW121545   2.600   6.704   6.746
 6882SOL    HW221546   2.500   6.644   6.861
 6883SOL     OW21547   4.519   0.028   1.149
 6883SOL    HW121548   4.587   0.097   1.124
 6883SOL    HW221549   4.565   6.971   1.193
 6884SOL     OW21550   1.370   5.426   3.361
 6884SOL    HW121551   1.392   5.334   3.327
 6884SOL    HW221552   1.340   5.420   3.456
 6885SOL     OW21553   5.540   4.973   4.406
 6885SOL    HW121554   5.473   5.035   4.366
 6885SOL    HW221555   5.615   4.958   4.341
 6886SOL     OW21556   5.707   3.550   0.601
 6886SOL    HW121557   5.714   3.567   0.503
 6886SOL    HW221558   5.746   3.628   0.651
 6887SOL     OW21559   5.256   6.551   5.256
 6887SOL    HW121560   5.325   6.622   5.264
 6887SOL    HW221561   5.169   6.584   5.293
 6888SOL     OW21562   0.121   4.105   1.594
 6888SOL    HW121563   0.136   4.188   1.648
 6888SOL    HW221564   0.025   4.077   1.602
 6889SOL     OW21565   0.633   2.801   5.582
 6889SOL    HW121566   0.719   2.751   5.582
 6889SOL    HW221567   0.556   2.738   5.567
 6890SOL     OW21568   4.567   4.404   3.899
 6890SOL    HW121569   4.652   4.432   3.943
 6890SOL    HW221570   4.496   4.393   3.969
 6891SOL     OW21571   1.581   1.412   0.341
 6891SOL    HW121572   1.653   1.482   0.342
 6891SOL    HW221573   1.549   1.396   0.434
 6892SOL     OW21574   1.482   0.718   5.654
 6892SOL    HW121575   1.483   0.671   5.742
 6892SOL    HW221576   1.471   0.816   5.669
 6893SOL     OW21577   5.971   2.970   1.021
 6893SOL    HW121578   6.066   3.002   1.025
 6893SOL    HW221579   5.910   3.047   1.002
 6894SOL     OW21580   5.378   5.185   6.487
 6894SOL    HW121581   5.290   5.139   6.470
 6894SOL    HW221582   5.448   5.117   6.509
 6895SOL     OW21583   1.423   5.479   2.950
 6895SOL    HW121584   1.502   5.493   2.891
 6895SOL    HW221585   1.451   5.481   3.046
 6896SOL     OW21586   5.038   0.956   6.126
 6896SOL    HW121587   5.015   1.054   6.124
 6896SOL    HW221588   4.957   0.902   6.103
 6897SOL     OW21589   4.267   2.125   4.901
 6897SOL    HW121590   4.186   2.154   4.951
 6897SOL    HW221591   4.299   2.037   4.936
 6898SOL     OW21592   2.099   6.572   1.197
 6898SOL    HW121593   2.025   6.625   1.237
 6898SOL    HW221594   2.104   6.589   1.099
 6899SOL     OW21595   5.750   5.000   3.144
 6899SOL    HW121596   5.685   4.957   3.082
 6899SOL    HW221597   5.751   4.951   3.231
 6900SOL     OW21598   0.375   4.409   4.742
 6900SOL    HW121599   0.343   4.410   4.837
 6900SOL    HW221600   0.466   4.449   4.738
 6901SOL     OW21601   4.884   4.057   6.596
 6901SOL    HW121602   4.941   4.127   6.552
 6901SOL    HW221603   4.819   4.021   6.529
 6902SOL     OW21604   0.230   5.858   5.400
 6902SOL    HW121605   0.267   5.800   5.473
 6902SOL    HW221606   0.148   5.815   5.363
 6903SOL     OW21607   0.902   6.643   5.096
 6903SOL    HW121608   0.810   6.675   5.118
 6903SOL    HW221609   0.897   6.558   5.044
 6904SOL     OW21610   0.716   0.138   6.228
 6904SOL    HW121611   0.778   0.210   6.198
 6904SOL    HW221612   0.644   0.125   6.160
 6905SOL     OW21613   4.893   6.207   5.143
 6905SOL    HW121614   4.797   6.225   5.120
 6905SOL    HW221615   4.904   6.110   5.163
 6906SOL     OW21616   2.816   1.912   3.496
 6906SOL    HW121617   2.836   2.000   3.539
 6906SOL    HW221618   2.813   1.840   3.566
 6907SOL     OW21619   5.541   3.167   0.453
 6907SOL    HW121620   5.462   3.163   0.514
 6907SOL    HW221621   5.619   3.122   0.496
 6908SOL     OW21622   3.198   5.444   0.946
 6908SOL    HW121623   3.197   5.494   0.859
 6908SOL    HW221624   3.142   5.362   0.937
 6909SOL     OW21625   5.588   4.889   2.972
 6909SOL    HW121626   5.500   4.936   2.975
 6909SOL    HW221627   5.574   4.793   2.948
 6910SOL     OW21628   1.604   2.438   2.204
 6910SOL    HW121629   1.564   2.422   2.114
 6910SOL    HW221630   1.616   2.536   2.218
 6911SOL     OW21631   2.330   6.563   5.128
 6911SOL    HW121632   2.338   6.595   5.034
 6911SOL    HW221633   2.366   6.470   5.136
 6912SOL     OW21634   2.361   3.973   6.544
 6912SOL    HW121635   2.343   4.068   6.567
 6912SOL    HW221636   2.454   3.965   6.506
 6913SOL     OW21637   4.466   5.859   6.046
 6913SOL    HW121638   4.393   5.925   6.061
 6913SOL    HW221639   4.469   5.793   6.121
 6914SOL     OW21640   0.987   2.161   2.036
 6914SOL    HW121641   0.915   2.216   2.077
 6914SOL    HW221642   1.058   2.143   2.103
 6915SOL     OW21643   6.354   3.467   3.994
 6915SOL    HW121644   6.419   3.526   3.945
 6915SOL    HW221645   6.297   3.523   4.053
 6916SOL     OW21646   4.592   5.871   5.486
 6916SOL    HW121647   4.688   5.842   5.482
 6916SOL    HW221648   4.545   5.819   5.558
 6917SOL     OW21649   3.580   5.676   1.957
 6917SOL    HW121650   3.516   5.602   1.932
 6917SOL    HW221651   3.531   5.763   1.955
 6918SOL     OW21652   1.631   3.692   6.716
 6918SOL    HW121653   1.629   3.603   6.671
 6918SOL    HW221654   1.715   3.741   6.690
 6919SOL     OW21655   6.328   6.015   3.648
 6919SOL    HW121656   6.337   6.082   3.722
 6919SOL    HW221657   6.408   5.956   3.646
 6920SOL     OW21658   0.666   3.008   5.356
 6920SOL    HW121659   0.667   3.108   5.353
 6920SOL    HW221660   0.674   2.978   5.451
 6921SOL     OW21661   3.591   0.559   5.517
 6921SOL    HW121662   3.584   0.487   5.586
 6921SOL    HW221663   3.597   0.518   5.426
 6922SOL     OW21664   3.079   4.311   6.519
 6922SOL    HW121665   3.036   4.401   6.531
 6922SOL    HW221666   3.179   4.321   6.524
 6923SOL     OW21667   5.149   6.913   3.035
 6923SOL    HW121668   5.157   6.824   2.990
 6923SOL    HW221669   5.095   6.904   3.118
 6924SOL     OW21670   2.632   4.914   1.594
 6924SOL    HW121671   2.700   4.945   1.660
 6924SOL    HW221672   2.633   4.814   1.589
 6925SOL     OW21673   6.338   7.009   4.601
 6925SOL    HW121674   6.326   0.015   4.506
 6925SOL    HW221675   6.327   0.068   4.660
 6926SOL     OW21676   2.877   2.682   0.341
 6926SOL    HW121677   2.844   2.589   0.352
 6926SOL    HW221678   2.875   2.708   0.245
 6927SOL     OW21679   3.119   6.549   5.554
 6927SOL    HW121680   3.097   6.554   5.652
 6927SOL    HW221681   3.098   6.638   5.512
 6928SOL     OW21682   4.027   5.641   0.772
 6928SOL    HW121683   4.001   5.674   0.682
 6928SOL    HW221684   4.053   5.545   0.766
 6929SOL     OW21685   4.506   5.989   3.668
 6929SOL    HW121686   4.502   6.011   3.571
 6929SOL    HW221687   4.575   6.045   3.713
 6930SOL     OW21688   0.200   6.354   2.229
 6930SOL    HW121689   0.124   6.292   2.212
 6930SOL    HW221690   0.171   6.426   2.292
 6931SOL     OW21691   4.050   3.055   0.096
 6931SOL    HW121692   4.015   3.149   0.086
 6931SOL    HW221693   3.978   2.990   0.072
 6932SOL     OW21694   3.684   0.746   0.087
 6932SOL    HW121695   3.737   0.746   0.172
 6932SOL    HW221696   3.746   0.737   0.009
 6933SOL     OW21697   3.828   6.251   5.966
 6933SOL    HW121698   3.749   6.246   5.905
 6933SOL    HW221699   3.798   6.287   6.055
 6934SOL     OW21700   4.549   5.441   0.143
 6934SOL    HW121701   4.482   5.469   0.075
 6934SOL    HW221702   4.641   5.465   0.111
 6935SOL     OW21703   4.420   5.393   2.123
 6935SOL    HW121704   4.480   5.457   2.074
 6935SOL    HW221705   4.427   5.410   2.221
 6936SOL     OW21706   1.253   1.412   0.090
 6936SOL    HW121707   1.287   1.348   0.020
 6936SOL    HW221708   1.245   1.503   0.050
 6937SOL     OW21709   6.589   4.230   6.939
 6937SOL    HW121710   6.635   4.150   6.901
 6937SOL    HW221711   6.524   4.201   7.009
 6938SOL     OW21712   2.759   6.855   5.336
 6938SOL    HW121713   2.729   6.844   5.242
 6938SOL    HW221714   2.680   6.845   5.397
 6939SOL     OW21715   6.345   3.124   3.016
 6939SOL    HW121716   6.335   3.166   3.106
 6939SOL    HW221717   6.413   3.050   3.022
 6940SOL     OW21718   0.720   6.816   1.180
 6940SOL    HW121719   0.626   6.780   1.181
 6940SOL    HW221720   0.784   6.740   1.169
 6941SOL     OW21721   4.032   3.434   2.324
 6941SOL    HW121722   4.040   3.397   2.416
 6941SOL    HW221723   4.056   3.364   2.257
 6942SOL     OW21724   0.210   5.424   2.738
 6942SOL    HW121725   0.213   5.339   2.791
 6942SOL    HW221726   0.177   5.498   2.796
 6943SOL     OW21727   3.239   5.513   5.372
 6943SOL    HW121728   3.273   5.419   5.369
 6943SOL    HW221729   3.183   5.525   5.454
 6944SOL     OW21730   1.026   5.284   5.920
 6944SOL    HW121731   1.058   5.244   6.006
 6944SOL    HW221732   1.078   5.245   5.844
 6945SOL     OW21733   3.959   1.924   0.958
 6945SOL    HW121734   4.028   1.925   0.886
 6945SOL    HW221735   4.003   1.939   1.047
 6946SOL     OW21736   5.793   5.225   4.011
 6946SOL    HW121737   5.748   5.257   3.928
 6946SOL    HW221738   5.724   5.207   4.081
 6947SOL     OW21739   6.255   3.431   5.177
 6947SOL    HW121740   6.347   3.461   5.155
 6947SOL    HW221741   6.260   3.348   5.233
 6948SOL     OW21742   0.125   5.217   6.127
 6948SOL    HW121743   0.070   5.278   6.184
 6948SOL    HW221744   0.201   5.269   6.087
 6949SOL     OW21745   2.036   1.459   3.330
 6949SOL    HW121746   2.009   1.453   3.426
 6949SOL    HW221747   1.981   1.396   3.275
 6950SOL     OW21748   1.637   1.114   4.585
 6950SOL    HW121749   1.657   1.054   4.508
 6950SOL    HW221750   1.569   1.071   4.645
 6951SOL     OW21751   1.193   3.267   0.254
 6951SOL    HW121752   1.119   3.328   0.228
 6951SOL    HW221753   1.214   3.205   0.179
 6952SOL     OW21754   4.309   4.953   3.678
 6952SOL    HW121755   4.217   4.917   3.664
 6952SOL    HW221756   4.316   5.045   3.637
 6953SOL     OW21757   0.792   0.622   1.797
 6953SOL    HW121758   0.802   0.526   1.772
 6953SOL    HW221759   0.856   0.645   1.870
 6954SOL     OW21760   6.516   5.067   5.846
 6954SOL    HW121761   6.509   5.042   5.943
 6954SOL    HW221762   6.570   4.997   5.799
 6955SOL     OW21763   3.843   5.516   2.995
 6955SOL    HW121764   3.840   5.612   2.969
 6955SOL    HW221765   3.807   5.505   3.088
 6956SOL     OW21766   6.471   4.332   2.691
 6956SOL    HW121767   6.468   4.426   2.722
 6956SOL    HW221768   6.564   4.307   2.665
 6957SOL     OW21769   5.425   4.104   5.410
 6957SOL    HW121770   5.417   4.201   5.387
 6957SOL    HW221771   5.337   4.059   5.393
 6958SOL     OW21772   3.484   3.858   1.503
 6958SOL    HW121773   3.452   3.776   1.549
 6958SOL    HW221774   3.446   3.863   1.411
 6959SOL     OW21775   0.463   3.334   3.159
 6959SOL    HW121776   0.369   3.360   3.180
 6959SOL    HW221777   0.512   3.414   3.123
 6960SOL     OW21778   5.158   4.751   0.738
 6960SOL    HW121779   5.200   4.676   0.789
 6960SOL    HW221780   5.227   4.794   0.679
 6961SOL     OW21781   4.563   2.640   4.302
 6961SOL    HW121782   4.582   2.736   4.324
 6961SOL    HW221783   4.490   2.606   4.362
 6962SOL     OW21784   2.475   6.791   0.834
 6962SOL    HW121785   2.551   6.738   0.870
 6962SOL    HW221786   2.441   6.853   0.905
 6963SOL     OW21787   1.012   0.050   6.775
 6963SOL    HW121788   1.056   6.991   6.732
 6963SOL    HW221789   1.071   0.086   6.846
 6964SOL     OW21790   2.251   1.359   5.877
 6964SOL    HW121791   2.269   1.338   5.781
 6964SOL    HW221792   2.152   1.351   5.895
 6965SOL     OW21793   1.527   1.185   0.197
 6965SOL    HW121794   1.524   1.270   0.249
 6965SOL    HW221795   1.593   1.194   0.122
 6966SOL     OW21796   1.140   6.385   0.890
 6966SOL    HW121797   1.072   6.327   0.935
 6966SOL    HW221798   1.108   6.408   0.798
 6967SOL     OW21799   4.099   6.906   6.491
 6967SOL    HW121800   4.183   6.953   6.466
 6967SOL    HW221801   4.104   6.811   6.462
 6968SOL     OW21802   4.462   0.513   2.193
 6968SOL    HW121803   4.373   0.558   2.199
 6968SOL    HW221804   4.478   0.459   2.275
 6969SOL     OW21805   1.435   3.221   2.701
 6969SOL    HW121806   1.452   3.127   2.732
 6969SOL    HW221807   1.344   3.250   2.731
 6970SOL     OW21808   3.735   5.828   6.048
 6970SOL    HW121809   3.832   5.832   6.073
 6970SOL    HW221810   3.726   5.775   5.963
 6971SOL     OW21811   0.376   3.753   0.323
 6971SOL    HW121812   0.471   3.729   0.303
 6971SOL    HW221813   0.353   3.722   0.415
 6972SOL     OW21814   5.841   3.749   1.064
 6972SOL    HW121815   5.926   3.697   1.068
 6972SOL    HW221816   5.851   3.834   1.116
 6973SOL     OW21817   0.990   0.977   2.991
 6973SOL    HW121818   0.921   1.033   3.035
 6973SOL    HW221819   0.981   0.882   3.022
 6974SOL     OW21820   3.883   4.001   3.118
 6974SOL    HW121821   3.793   4.022   3.156
 6974SOL    HW221822   3.882   4.012   3.019
 6975SOL     OW21823   3.359   5.229   5.352
 6975SOL    HW121824   3.440   5.170   5.356
 6975SOL    HW221825   3.277   5.173   5.361
 6976SOL     OW21826   5.035   4.841   5.681
 6976SOL    HW121827   5.023   4.787   5.764
 6976SOL    HW221828   5.004   4.935   5.697
 6977SOL     OW21829   4.082   4.774   2.444
 6977SOL    HW121830   4.130   4.856   2.413
 6977SOL    HW221831   4.045   4.725   2.365
 6978SOL     OW21832   0.695   3.261   1.256
 6978SOL    HW121833   0.605   3.224   1.234
 6978SOL    HW221834   0.741   3.290   1.172
 6979SOL     OW21835   0.932   4.247   2.804
 6979SOL    HW121836   1.024   4.211   2.821
 6979SOL    HW221837   0.894   4.283   2.889
 6980SOL     OW21838   2.856   4.872   3.128
 6980SOL    HW121839   2.802   4.805   3.077
 6980SOL    HW221840   2.797   4.925   3.188
 6981SOL     OW21841   4.120   2.743   6.676
 6981SOL    HW121842   4.067   2.674   6.627
 6981SOL    HW221843   4.126   2.826   6.621
 6982SOL     OW21844   6.680   6.467   1.926
 6982SOL    HW121845   6.776   6.463   1.955
 6982SOL    HW221846   6.623   6.423   1.996
 6983SOL     OW21847   6.795   0.873   3.905
 6983SOL    HW121848   6.711   0.870   3.850
 6983SOL    HW221849   6.771   0.883   4.001
 6984SOL     OW21850   1.367   4.527   3.364
 6984SOL    HW121851   1.429   4.449   3.378
 6984SOL    HW221852   1.349   4.571   3.452
 6985SOL     OW21853   5.020   3.083   0.954
 6985SOL    HW121854   4.952   3.107   1.022
 6985SOL    HW221855   4.992   2.998   0.908
 6986SOL     OW21856   4.657   6.166   4.941
 6986SOL    HW121857   4.566   6.185   4.904
 6986SOL    HW221858   4.713   6.121   4.872
 6987SOL     OW21859   0.219   1.574   6.825
 6987SOL    HW121860   0.244   1.642   6.894
 6987SOL    HW221861   0.158   1.617   6.758
 6988SOL     OW21862   1.482   0.457   6.492
 6988SOL    HW121863   1.529   0.546   6.493
 6988SOL    HW221864   1.414   0.456   6.419
 6989SOL     OW21865   0.483   3.045   2.333
 6989SOL    HW121866   0.503   3.140   2.312
 6989SOL    HW221867   0.567   2.991   2.326
 6990SOL     OW21868   3.466   5.107   6.987
 6990SOL    HW121869   3.473   5.188   0.025
 6990SOL    HW221870   3.371   5.079   6.981
 6991SOL     OW21871   5.177   4.083   3.945
 6991SOL    HW121872   5.182   4.137   3.861
 6991SOL    HW221873   5.267   4.046   3.966
 6992SOL     OW21874   1.480   5.152   5.996
 6992SOL    HW121875   1.511   5.247   5.993
 6992SOL    HW221876   1.506   5.111   6.084
 6993SOL     OW21877   4.053   2.180   1.989
 6993SOL    HW121878   4.059   2.097   2.044
 6993SOL    HW221879   4.140   2.229   1.993
 6994SOL     OW21880   2.596   1.072   3.107
 6994SOL    HW121881   2.693   1.069   3.083
 6994SOL    HW221882   2.544   1.015   3.043
 6995SOL     OW21883   6.678   5.072   0.683
 6995SOL    HW121884   6.620   5.044   0.606
 6995SOL    HW221885   6.774   5.072   0.655
 6996SOL     OW21886   1.537   1.166   6.497
 6996SOL    HW121887   1.530   1.081   6.445
 6996SOL    HW221888   1.503   1.242   6.442
 6997SOL     OW21889   6.211   5.974   6.258
 6997SOL    HW121890   6.225   6.067   6.292
 6997SOL    HW221891   6.166   5.978   6.168
 6998SOL     OW21892   0.312   1.215   6.175
 6998SOL    HW121893   0.320   1.119   6.200
 6998SOL    HW221894   0.223   1.231   6.131
 6999SOL     OW21895   0.587   2.765   6.903
 6999SOL    HW121896   0.555   2.731   6.814
 6999SOL    HW221897   0.672   2.719   6.927
 7000SOL     OW21898   0.561   4.952   2.705
 7000SOL    HW121899   0.651   4.962   2.663
 7000SOL    HW221900   0.492   4.936   2.635
 7001SOL     OW21901   1.031   1.153   4.137
 7001SOL    HW121902   1.131   1.145   4.135
 7001SOL    HW221903   0.993   1.074   4.186
 7002SOL     OW21904   1.522   5.059   3.054
 7002SOL    HW121905   1.595   5.067   2.987
 7002SOL    HW221906   1.452   4.995   3.022
 7003SOL     OW21907   0.359   5.364   6.089
 7003SOL    HW121908   0.399   5.326   6.005
 7003SOL    HW221909   0.341   5.462   6.076
 7004SOL     OW21910   0.914   0.587   6.949
 7004SOL    HW121911   0.818   0.561   6.944
 7004SOL    HW221912   0.960   0.533   7.019
 7005SOL     OW21913   1.413   5.029   0.418
 7005SOL    HW121914   1.471   4.991   0.490
 7005SOL    HW221915   1.347   4.960   0.389
 7006SOL     OW21916   1.187   0.258   3.595
 7006SOL    HW121917   1.191   0.352   3.561
 7006SOL    HW221918   1.150   0.198   3.524
 7007SOL     OW21919   1.809   6.290   6.469
 7007SOL    HW121920   1.859   6.364   6.423
 7007SOL    HW221921   1.791   6.216   6.403
 7008SOL     OW21922   6.233   2.800   2.630
 7008SOL    HW121923   6.318   2.750   2.613
 7008SOL    HW221924   6.237   2.844   2.719
 7009SOL     OW21925   5.670   5.217   2.235
 7009SOL    HW121926   5.692   5.180   2.145
 7009SOL    HW221927   5.673   5.143   2.303
 7010SOL     OW21928   5.332   2.679   3.021
 7010SOL    HW121929   5.416   2.728   3.042
 7010SOL    HW221930   5.320   2.676   2.921
 7011SOL     OW21931   1.549   5.372   6.717
 7011SOL    HW121932   1.522   5.351   6.623
 7011SOL    HW221933   1.518   5.464   6.741
 7012SOL     OW21934   0.644   3.760   0.293
 7012SOL    HW121935   0.723   3.699   0.300
 7012SOL    HW221936   0.634   3.811   0.378
 7013SOL     OW21937   2.641   2.483   0.202
 7013SOL    HW121938   2.575   2.512   0.271
 7013SOL    HW221939   2.683   2.564   0.160
 7014SOL     OW21940   0.264   3.771   0.992
 7014SOL    HW121941   0.254   3.790   1.089
 7014SOL    HW221942   0.174   3.770   0.948
 7015SOL     OW21943   5.783   6.479   1.667
 7015SOL    HW121944   5.803   6.446   1.759
 7015SOL    HW221945   5.860   6.535   1.635
 7016SOL     OW21946   2.613   4.892   0.932
 7016SOL    HW121947   2.624   4.959   0.858
 7016SOL    HW221948   2.676   4.816   0.916
 7017SOL     OW21949   5.916   3.724   6.960
 7017SOL    HW121950   5.910   3.795   0.009
 7017SOL    HW221951   5.892   3.762   6.871
 7018SOL     OW21952   6.209   2.807   4.212
 7018SOL    HW121953   6.177   2.774   4.301
 7018SOL    HW221954   6.276   2.742   4.174
 7019SOL     OW21955   3.075   6.573   2.666
 7019SOL    HW121956   3.148   6.509   2.644
 7019SOL    HW221957   3.076   6.649   2.601
 7020SOL     OW21958   6.561   1.788   0.918
 7020SOL    HW121959   6.591   1.876   0.883
 7020SOL    HW221960   6.570   1.787   1.018
 7021SOL     OW21961   0.687   2.237   4.671
 7021SOL    HW121962   0.654   2.158   4.722
 7021SOL    HW221963   0.624   2.257   4.597
 7022SOL     OW21964   2.027   3.894   1.459
 7022SOL    HW121965   1.968   3.950   1.517
 7022SOL    HW221966   2.111   3.945   1.439
 7023SOL     OW21967   6.940   1.920   0.962
 7023SOL    HW121968   6.965   1.963   0.875
 7023SOL    HW221969   6.848   1.949   0.989
 7024SOL     OW21970   3.641   4.339   5.257
 7024SOL    HW121971   3.652   4.298   5.166
 7024SOL    HW221972   3.639   4.267   5.326
 7025SOL     OW21973   3.482   0.818   1.088
 7025SOL    HW121974   3.497   0.905   1.136
 7025SOL    HW221975   3.405   0.770   1.130
 7026SOL     OW21976   2.932   2.478   1.480
 7026SOL    HW121977   2.941   2.568   1.523
 7026SOL    HW221978   2.939   2.407   1.550
 7027SOL     OW21979   2.767   4.043   0.430
 7027SOL    HW121980   2.727   4.012   0.516
 7027SOL    HW221981   2.694   4.063   0.365
 7028SOL     OW21982   3.319   0.940   1.982
 7028SOL    HW121983   3.381   0.981   2.050
 7028SOL    HW221984   3.226   0.939   2.019
 7029SOL     OW21985   3.472   3.897   3.504
 7029SOL    HW121986   3.481   3.860   3.412
 7029SOL    HW221987   3.522   3.983   3.510
 7030SOL     OW21988   5.733   0.316   4.657
 7030SOL    HW121989   5.640   0.349   4.641
 7030SOL    HW221990   5.739   0.219   4.633
 7031SOL     OW21991   5.756   4.400   0.609
 7031SOL    HW121992   5.854   4.388   0.594
 7031SOL    HW221993   5.728   4.491   0.579
 7032SOL     OW21994   3.746   4.898   4.051
 7032SOL    HW121995   3.732   4.860   4.143
 7032SOL    HW221996   3.661   4.941   4.020
 7033SOL     OW21997   2.266   1.530   5.273
 7033SOL    HW121998   2.279   1.463   5.346
 7033SOL    HW221999   2.168   1.543   5.256
 7034SOL     OW22000   6.453   2.565   2.367
 7034SOL    HW122001   6.377   2.621   2.335
 7034SOL    HW222002   6.419   2.496   2.432
 7035SOL     OW22003   3.876   2.578   1.024
 7035SOL    HW122004   3.891   2.479   1.026
 7035SOL    HW222005   3.964   2.625   1.013
 7036SOL     OW22006   6.637   1.620   1.970
 7036SOL    HW122007   6.712   1.629   1.905
 7036SOL    HW222008   6.601   1.527   1.966
 7037SOL     OW22009   0.464   1.501   5.568
 7037SOL    HW122010   0.466   1.570   5.640
 7037SOL    HW222011   0.515   1.533   5.489
 7038SOL     OW22012   1.294   3.993   0.199
 7038SOL    HW122013   1.297   4.088   0.168
 7038SOL    HW222014   1.202   3.957   0.186
 7039SOL     OW22015   6.317   0.574   1.563
 7039SOL    HW122016   6.299   0.665   1.601
 7039SOL    HW222017   6.331   0.509   1.638
 7040SOL     OW22018   4.900   3.200   4.917
 7040SOL    HW122019   4.861   3.167   4.831
 7040SOL    HW222020   4.966   3.133   4.951
 7041SOL     OW22021   0.942   6.925   2.595
 7041SOL    HW122022   0.879   6.889   2.663
 7041SOL    HW222023   0.893   6.985   2.532
 7042SOL     OW22024   4.740   5.297   5.168
 7042SOL    HW122025   4.677   5.307   5.091
 7042SOL    HW222026   4.759   5.201   5.184
 7043SOL     OW22027   2.305   5.858   0.256
 7043SOL    HW122028   2.357   5.898   0.331
 7043SOL    HW222029   2.308   5.758   0.263
 7044SOL     OW22030   4.615   6.559   5.377
 7044SOL    HW122031   4.710   6.529   5.369
 7044SOL    HW222032   4.598   6.596   5.468
 7045SOL     OW22033   5.423   0.790   1.388
 7045SOL    HW122034   5.421   0.882   1.427
 7045SOL    HW222035   5.439   0.795   1.290
 7046SOL     OW22036   2.950   1.014   2.352
 7046SOL    HW122037   2.867   0.966   2.381
 7046SOL    HW222038   2.925   1.098   2.304
 7047SOL     OW22039   1.257   6.790   1.095
 7047SOL    HW122040   1.347   6.822   1.066
 7047SOL    HW222041   1.253   6.790   1.195
 7048SOL     OW22042   0.529   5.563   4.663
 7048SOL    HW122043   0.443   5.553   4.613
 7048SOL    HW222044   0.512   5.611   4.749
 7049SOL     OW22045   2.089   1.276   5.006
 7049SOL    HW122046   2.010   1.256   5.063
 7049SOL    HW222047   2.084   1.371   4.974
 7050SOL     OW22048   4.115   4.734   0.387
 7050SOL    HW122049   4.022   4.752   0.419
 7050SOL    HW222050   4.181   4.782   0.445
 7051SOL     OW22051   2.130   0.913   2.028
 7051SOL    HW122052   2.103   0.851   2.102
 7051SOL    HW222053   2.230   0.915   2.020
 7052SOL     OW22054   5.456   2.231   2.617
 7052SOL    HW122055   5.534   2.286   2.586
 7052SOL    HW222056   5.461   2.140   2.577
 7053SOL     OW22057   0.745   4.543   3.361
 7053SOL    HW122058   0.821   4.492   3.322
 7053SOL    HW222059   0.670   4.548   3.295
 7054SOL     OW22060   5.336   6.672   1.117
 7054SOL    HW122061   5.270   6.748   1.119
 7054SOL    HW222062   5.400   6.685   1.042
 7055SOL     OW22063   2.330   0.386   6.925
 7055SOL    HW122064   2.255   0.381   6.991
 7055SOL    HW222065   2.335   0.302   6.872
 7056SOL     OW22066   0.441   5.432   1.593
 7056SOL    HW122067   0.403   5.492   1.522
 7056SOL    HW222068   0.376   5.425   1.668
 7057SOL     OW22069   3.117   5.772   5.356
 7057SOL    HW122070   3.055   5.780   5.435
 7057SOL    HW222071   3.159   5.681   5.356
 7058SOL     OW22072   6.077   2.705   5.442
 7058SOL    HW122073   6.113   2.798   5.441
 7058SOL    HW222074   6.067   2.672   5.348
 7059SOL     OW22075   1.689   0.987   4.349
 7059SOL    HW122076   1.685   0.982   4.249
 7059SOL    HW222077   1.605   0.951   4.387
 7060SOL     OW22078   2.912   2.470   1.151
 7060SOL    HW122079   2.971   2.469   1.232
 7060SOL    HW222080   2.959   2.423   1.076
 7061SOL     OW22081   1.530   6.500   1.180
 7061SOL    HW122082   1.605   6.537   1.127
 7061SOL    HW222083   1.467   6.451   1.120
 7062SOL     OW22084   3.665   0.773   5.339
 7062SOL    HW122085   3.625   0.698   5.391
 7062SOL    HW222086   3.623   0.777   5.248
 7063SOL     OW22087   0.083   1.300   1.446
 7063SOL    HW122088   0.109   1.360   1.370
 7063SOL    HW222089   0.069   1.207   1.412
 7064SOL     OW22090   2.571   1.527   5.542
 7064SOL    HW122091   2.520   1.450   5.504
 7064SOL    HW222092   2.511   1.583   5.598
 7065SOL     OW22093   3.273   0.244   3.043
 7065SOL    HW122094   3.232   0.305   3.111
 7065SOL    HW222095   3.222   0.158   3.041
 7066SOL     OW22096   4.240   0.848   1.913
 7066SOL    HW122097   4.325   0.885   1.875
 7066SOL    HW222098   4.196   0.790   1.845
 7067SOL     OW22099   2.753   4.528   6.389
 7067SOL    HW122100   2.696   4.610   6.392
 7067SOL    HW222101   2.728   4.473   6.309
 7068SOL     OW22102   4.292   4.627   2.536
 7068SOL    HW122103   4.231   4.699   2.503
 7068SOL    HW222104   4.281   4.616   2.635
 7069SOL     OW22105   3.418   1.392   5.581
 7069SOL    HW122106   3.471   1.476   5.585
 7069SOL    HW222107   3.354   1.396   5.504
 7070SOL     OW22108   0.320   1.876   5.337
 7070SOL    HW122109   0.271   1.849   5.420
 7070SOL    HW222110   0.260   1.862   5.258
 7071SOL     OW22111   4.733   5.254   6.990
 7071SOL    HW122112   4.759   5.158   6.998
 7071SOL    HW222113   4.803   5.303   6.938
 7072SOL     OW22114   1.540   3.940   5.492
 7072SOL    HW122115   1.545   4.034   5.458
 7072SOL    HW222116   1.540   3.876   5.415
 7073SOL     OW22117   4.133   0.917   4.807
 7073SOL    HW122118   4.194   0.985   4.848
 7073SOL    HW222119   4.165   0.896   4.714
 7074SOL     OW22120   5.608   3.074   2.366
 7074SOL    HW122121   5.644   3.153   2.416
 7074SOL    HW222122   5.535   3.031   2.419
 7075SOL     OW22123   2.159   4.792   2.617
 7075SOL    HW122124   2.149   4.707   2.668
 7075SOL    HW222125   2.075   4.847   2.627
 7076SOL     OW22126   6.103   2.187   0.864
 7076SOL    HW122127   6.146   2.254   0.803
 7076SOL    HW222128   6.112   2.096   0.824
 7077SOL     OW22129   3.470   5.998   2.174
 7077SOL    HW122130   3.427   6.088   2.167
 7077SOL    HW222131   3.565   6.004   2.142
 7078SOL     OW22132   6.998   1.739   0.314
 7078SOL    HW122133   7.000   1.668   0.384
 7078SOL    HW222134   0.070   1.776   0.302
 7079SOL     OW22135   3.043   5.513   5.584
 7079SOL    HW122136   2.974   5.501   5.513
 7079SOL    HW222137   3.036   5.439   5.651
 7080SOL     OW22138   3.841   1.841   6.768
 7080SOL    HW122139   3.864   1.938   6.762
 7080SOL    HW222140   3.792   1.824   6.854
 7081SOL     OW22141   3.222   6.282   6.544
 7081SOL    HW122142   3.267   6.345   6.608
 7081SOL    HW222143   3.263   6.291   6.454
 7082SOL     OW22144   1.365   4.989   2.194
 7082SOL    HW122145   1.315   5.065   2.237
 7082SOL    HW222146   1.427   5.025   2.124
 7083SOL     OW22147   5.786   2.973   3.024
 7083SOL    HW122148   5.768   3.031   2.944
 7083SOL    HW222149   5.808   3.030   3.103
 7084SOL     OW22150   1.041   4.953   0.524
 7084SOL    HW122151   1.125   4.937   0.471
 7084SOL    HW222152   0.973   4.884   0.500
 7085SOL     OW22153   0.126   3.335   2.145
 7085SOL    HW122154   0.102   3.373   2.055
 7085SOL    HW222155   0.122   3.407   2.214
 7086SOL     OW22156   3.893   0.895   3.669
 7086SOL    HW122157   3.957   0.968   3.691
 7086SOL    HW222158   3.800   0.933   3.665
 7087SOL     OW22159   6.044   2.924   3.772
 7087SOL    HW122160   5.998   2.992   3.716
 7087SOL    HW222161   5.991   2.839   3.772
 7088SOL     OW22162   6.188   1.928   5.274
 7088SOL    HW122163   6.129   1.970   5.205
 7088SOL    HW222164   6.206   1.994   5.347
 7089SOL     OW22165   3.694   6.420   1.765
 7089SOL    HW122166   3.794   6.423   1.761
 7089SOL    HW222167   3.665   6.337   1.813
 7090SOL     OW22168   5.592   3.213   1.804
 7090SOL    HW122169   5.600   3.305   1.767
 7090SOL    HW222170   5.570   3.218   1.901
 7091SOL     OW22171   5.639   0.422   6.200
 7091SOL    HW122172   5.621   0.458   6.108
 7091SOL    HW222173   5.738   0.421   6.215
 7092SOL     OW22174   4.102   0.301   6.114
 7092SOL    HW122175   4.136   0.244   6.040
 7092SOL    HW222176   4.113   0.397   6.090
 7093SOL     OW22177   4.163   3.332   0.245
 7093SOL    HW122178   4.075   3.356   0.204
 7093SOL    HW222179   4.148   3.297   0.338
 7094SOL     OW22180   4.375   0.853   5.079
 7094SOL    HW122181   4.399   0.908   4.998
 7094SOL    HW222182   4.302   0.898   5.130
 7095SOL     OW22183   2.794   5.263   3.666
 7095SOL    HW122184   2.766   5.264   3.570
 7095SOL    HW222185   2.753   5.340   3.714
 7096SOL     OW22186   0.173   5.314   0.249
 7096SOL    HW122187   0.088   5.274   0.283
 7096SOL    HW222188   0.250   5.261   0.285
 7097SOL     OW22189   4.804   2.054   2.843
 7097SOL    HW122190   4.724   2.009   2.884
 7097SOL    HW222191   4.781   2.148   2.821
 7098SOL     OW22192   1.161   1.257   2.139
 7098SOL    HW122193   1.217   1.185   2.177
 7098SOL    HW222194   1.079   1.269   2.195
 7099SOL     OW22195   2.791   1.392   5.103
 7099SOL    HW122196   2.849   1.318   5.069
 7099SOL    HW222197   2.849   1.470   5.129
 7100SOL     OW22198   0.771   4.427   1.439
 7100SOL    HW122199   0.695   4.409   1.376
 7100SOL    HW222200   0.775   4.353   1.507
 7101SOL     OW22201   2.887   6.577   4.533
 7101SOL    HW122202   2.852   6.623   4.614
 7101SOL    HW222203   2.944   6.640   4.480
 7102SOL     OW22204   5.440   2.005   2.421
 7102SOL    HW122205   5.375   1.948   2.471
 7102SOL    HW222206   5.520   1.950   2.397
 7103SOL     OW22207   6.623   3.795   4.968
 7103SOL    HW122208   6.598   3.859   4.896
 7103SOL    HW222209   6.695   3.734   4.936
 7104SOL     OW22210   4.330   2.357   4.169
 7104SOL    HW122211   4.403   2.304   4.125
 7104SOL    HW222212   4.279   2.408   4.100
 7105SOL     OW22213   3.102   3.505   1.855
 7105SOL    HW122214   3.185   3.549   1.821
 7105SOL    HW222215   3.025   3.528   1.795
 7106SOL     OW22216   2.459   2.100   2.753
 7106SOL    HW122217   2.530   2.166   2.777
 7106SOL    HW222218   2.386   2.146   2.703
 7107SOL     OW22219   3.863   0.384   0.558
 7107SOL    HW122220   3.835   0.292   0.583
 7107SOL    HW222221   3.796   0.450   0.594
 7108SOL     OW22222   2.908   6.777   1.748
 7108SOL    HW122223   2.813   6.752   1.766
 7108SOL    HW222224   2.946   6.719   1.677
 7109SOL     OW22225   2.128   5.045   6.408
 7109SOL    HW122226   2.173   4.989   6.477
 7109SOL    HW222227   2.116   4.991   6.324
 7110SOL     OW22228   2.698   5.292   5.624
 7110SOL    HW122229   2.647   5.330   5.701
 7110SOL    HW222230   2.667   5.336   5.539
 7111SOL     OW22231   6.409   2.131   4.162
 7111SOL    HW122232   6.429   2.224   4.193
 7111SOL    HW222233   6.490   2.093   4.117
 7112SOL     OW22234   6.601   4.883   4.300
 7112SOL    HW122235   6.667   4.820   4.259
 7112SOL    HW222236   6.635   4.914   4.389
 7113SOL     OW22237   3.353   6.849   5.365
 7113SOL    HW122238   3.257   6.824   5.377
 7113SOL    HW222239   3.363   6.907   5.284
 7114SOL     OW22240   6.144   3.606   0.551
 7114SOL    HW122241   6.124   3.704   0.555
 7114SOL    HW222242   6.158   3.572   0.644
 7115SOL     OW22243   5.065   2.970   6.010
 7115SOL    HW122244   4.971   3.004   6.005
 7115SOL    HW222245   5.105   2.970   5.918
 7116SOL     OW22246   6.387   5.150   4.582
 7116SOL    HW122247   6.438   5.165   4.497
 7116SOL    HW222248   6.297   5.112   4.560
 7117SOL     OW22249   2.914   0.879   2.671
 7117SOL    HW122250   3.000   0.864   2.622
 7117SOL    HW222251   2.839   0.887   2.605
 7118SOL     OW22252   5.377   4.762   5.691
 7118SOL    HW122253   5.466   4.743   5.649
 7118SOL    HW222254   5.389   4.775   5.790
 7119SOL     OW22255   2.523   6.483   3.990
 7119SOL    HW122256   2.567   6.407   3.942
 7119SOL    HW222257   2.424   6.474   3.983
 7120SOL     OW22258   4.643   1.972   2.127
 7120SOL    HW122259   4.663   2.059   2.082
 7120SOL    HW222260   4.546   1.967   2.149
 7121SOL     OW22261   2.189   5.932   1.906
 7121SOL    HW122262   2.150   5.841   1.919
 7121SOL    HW222263   2.245   5.933   1.824
 7122SOL     OW22264   2.892   2.154   6.494
 7122SOL    HW122265   2.803   2.186   6.525
 7122SOL    HW222266   2.946   2.232   6.461
 7123SOL     OW22267   5.105   3.253   6.285
 7123SOL    HW122268   5.076   3.348   6.298
 7123SOL    HW222269   5.199   3.252   6.251
 7124SOL     OW22270   3.190   2.844   6.110
 7124SOL    HW122271   3.218   2.921   6.167
 7124SOL    HW222272   3.119   2.791   6.158
 7125SOL     OW22273   1.121   6.037   1.397
 7125SOL    HW122274   1.186   6.086   1.339
 7125SOL    HW222275   1.158   5.948   1.421
 7126SOL     OW22276   3.731   5.158   0.593
 7126SOL    HW122277   3.783   5.172   0.508
 7126SOL    HW222278   3.753   5.068   0.631
 7127SOL     OW22279   2.362   6.940   5.085
 7127SOL    HW122280   2.428   6.966   5.156
 7127SOL    HW222281   2.372   7.001   5.007
 7128SOL     OW22282   4.257   3.767   0.359
 7128SOL    HW122283   4.247   3.865   0.373
 7128SOL    HW222284   4.319   3.729   0.428
 7129SOL     OW22285   6.835   1.521   0.690
 7129SOL    HW122286   6.912   1.470   0.725
 7129SOL    HW222287   6.867   1.608   0.652
 7130SOL     OW22288   3.313   6.950   3.708
 7130SOL    HW122289   3.253   6.944   3.787
 7130SOL    HW222290   3.315   6.861   3.661
 7131SOL     OW22291   2.619   1.668   2.881
 7131SOL    HW122292   2.654   1.761   2.890
 7131SOL    HW222293   2.575   1.657   2.792
 7132SOL     OW22294   5.346   5.036   2.575
 7132SOL    HW122295   5.420   4.971   2.557
 7132SOL    HW222296   5.315   5.026   2.669
 7133SOL     OW22297   3.663   6.389   2.140
 7133SOL    HW122298   3.667   6.306   2.085
 7133SOL    HW222299   3.616   6.461   2.087
 7134SOL     OW22300   5.969   4.594   6.394
 7134SOL    HW122301   5.872   4.588   6.368
 7134SOL    HW222302   5.983   4.674   6.452
 7135SOL     OW22303   2.360   5.578   0.303
 7135SOL    HW122304   2.451   5.545   0.329
 7135SOL    HW222305   2.291   5.532   0.358
 7136SOL     OW22306   1.154   2.876   2.849
 7136SOL    HW122307   1.158   2.791   2.796
 7136SOL    HW222308   1.235   2.883   2.906
 7137SOL     OW22309   1.360   6.777   1.755
 7137SOL    HW122310   1.290   6.741   1.815
 7137SOL    HW222311   1.424   6.832   1.808
 7138SOL     OW22312   6.564   3.995   0.893
 7138SOL    HW122313   6.533   3.966   0.803
 7138SOL    HW222314   6.655   4.036   0.886
 7139SOL     OW22315   5.549   5.487   0.691
 7139SOL    HW122316   5.572   5.573   0.645
 7139SOL    HW222317   5.451   5.487   0.713
 7140SOL     OW22318   6.204   3.879   0.416
 7140SOL    HW122319   6.268   3.953   0.434
 7140SOL    HW222320   6.200   3.861   0.317
 7141SOL     OW22321   2.379   2.221   7.020
 7141SOL    HW122322   2.288   2.247   6.985
 7141SOL    HW222323   2.435   2.303   0.007
 7142SOL     OW22324   3.893   6.680   5.861
 7142SOL    HW122325   3.977   6.675   5.807
 7142SOL    HW222326   3.870   6.775   5.878
 7143SOL     OW22327   2.748   3.198   5.740
 7143SOL    HW122328   2.652   3.197   5.765
 7143SOL    HW222329   2.795   3.270   5.792
 7144SOL     OW22330   6.194   1.621   6.509
 7144SOL    HW122331   6.121   1.690   6.512
 7144SOL    HW222332   6.281   1.663   6.535
 7145SOL     OW22333   0.475   3.097   0.119
 7145SOL    HW122334   0.490   3.141   0.208
 7145SOL    HW222335   0.490   2.998   0.128
 7146SOL     OW22336   0.018   1.441   4.712
 7146SOL    HW122337   0.033   1.346   4.738
 7146SOL    HW222338   0.076   1.501   4.768
 7147SOL     OW22339   6.726   0.662   7.015
 7147SOL    HW122340   6.764   0.747   0.030
 7147SOL    HW222341   6.626   0.663   0.006
 7148SOL     OW22342   5.473   6.477   0.583
 7148SOL    HW122343   5.433   6.506   0.496
 7148SOL    HW222344   5.523   6.554   0.624
 7149SOL     OW22345   6.774   3.753   0.265
 7149SOL    HW122346   6.830   3.781   0.343
 7149SOL    HW222347   6.757   3.654   0.270
 7150SOL     OW22348   2.306   1.932   6.837
 7150SOL    HW122349   2.395   1.916   6.879
 7150SOL    HW222350   2.234   1.918   6.905
 7151SOL     OW22351   5.502   2.350   6.936
 7151SOL    HW122352   5.445   2.402   6.872
 7151SOL    HW222353   5.526   2.262   6.895
 7152SOL     OW22354   5.970   0.628   4.842
 7152SOL    HW122355   6.030   0.548   4.844
 7152SOL    HW222356   5.940   0.645   4.749
 7153SOL     OW22357   5.067   5.894   0.132
 7153SOL    HW122358   5.084   5.833   0.209
 7153SOL    HW222359   5.012   5.847   0.063
 7154SOL     OW22360   5.361   6.793   2.112
 7154SOL    HW122361   5.364   6.739   2.028
 7154SOL    HW222362   5.452   6.799   2.152
 7155SOL     OW22363   1.313   6.906   1.353
 7155SOL    HW122364   1.322   6.990   1.299
 7155SOL    HW222365   1.260   6.923   1.435
 7156SOL     OW22366   6.800   3.075   5.347
 7156SOL    HW122367   6.720   3.132   5.362
 7156SOL    HW222368   6.816   3.017   5.427
 7157SOL     OW22369   0.102   4.185   5.844
 7157SOL    HW122370   0.077   4.088   5.849
 7157SOL    HW222371   0.077   4.231   5.929
 7158SOL     OW22372   4.909   6.796   3.878
 7158SOL    HW122373   4.979   6.724   3.878
 7158SOL    HW222374   4.821   6.756   3.905
 7159SOL     OW22375   0.656   6.676   3.536
 7159SOL    HW122376   0.562   6.710   3.531
 7159SOL    HW222377   0.661   6.600   3.601
 7160SOL     OW22378   5.999   5.866   2.139
 7160SOL    HW122379   6.085   5.815   2.142
 7160SOL    HW222380   6.005   5.946   2.197
 7161SOL     OW22381   3.937   3.230   1.687
 7161SOL    HW122382   3.869   3.207   1.618
 7161SOL    HW222383   3.920   3.322   1.722
 7162SOL     OW22384   0.927   6.488   0.421
 7162SOL    HW122385   0.907   6.571   0.368
 7162SOL    HW222386   0.848   6.464   0.477
 7163SOL     OW22387   6.778   5.839   7.004
 7163SOL    HW122388   6.866   5.886   6.998
 7163SOL    HW222389   6.779   5.776   0.062
 7164SOL     OW22390   1.110   6.533   6.582
 7164SOL    HW122391   1.169   6.453   6.570
 7164SOL    HW222392   1.109   6.559   6.679
 7165SOL     OW22393   4.096   2.775   6.052
 7165SOL    HW122394   4.115   2.709   5.979
 7165SOL    HW222395   4.179   2.790   6.105
 7166SOL     OW22396   0.244   6.244   5.750
 7166SOL    HW122397   0.173   6.227   5.820
 7166SOL    HW222398   0.218   6.199   5.665
 7167SOL     OW22399   1.063   3.638   5.807
 7167SOL    HW122400   1.154   3.628   5.846
 7167SOL    HW222401   1.049   3.732   5.776
 7168SOL     OW22402   0.003   0.180   2.255
 7168SOL    HW122403   0.101   0.200   2.254
 7168SOL    HW222404   6.992   0.169   2.349
 7169SOL     OW22405   1.759   4.911   5.348
 7169SOL    HW122406   1.817   4.831   5.360
 7169SOL    HW222407   1.814   4.989   5.319
 7170SOL     OW22408   4.247   2.369   1.911
 7170SOL    HW122409   4.286   2.399   1.824
 7170SOL    HW222410   4.298   2.411   1.986
 7171SOL     OW22411   6.988   5.983   1.674
 7171SOL    HW122412   6.976   6.045   1.597
 7171SOL    HW222413   0.056   5.937   1.666
 7172SOL     OW22414   1.298   2.657   3.364
 7172SOL    HW122415   1.243   2.626   3.441
 7172SOL    HW222416   1.312   2.581   3.300
 7173SOL     OW22417   3.553   5.286   4.737
 7173SOL    HW122418   3.526   5.289   4.833
 7173SOL    HW222419   3.635   5.342   4.723
 7174SOL     OW22420   6.659   3.471   2.831
 7174SOL    HW122421   6.700   3.383   2.808
 7174SOL    HW222422   6.573   3.456   2.879
 7175SOL     OW22423   5.829   2.597   5.766
 7175SOL    HW122424   5.745   2.547   5.745
 7175SOL    HW222425   5.820   2.692   5.735
 7176SOL     OW22426   6.353   1.911   6.218
 7176SOL    HW122427   6.448   1.886   6.233
 7176SOL    HW222428   6.345   2.010   6.207
 7177SOL     OW22429   1.542   5.402   3.779
 7177SOL    HW122430   1.620   5.363   3.730
 7177SOL    HW222431   1.573   5.444   3.864
 7178SOL     OW22432   0.598   6.234   5.444
 7178SOL    HW122433   0.596   6.248   5.543
 7178SOL    HW222434   0.662   6.299   5.402
 7179SOL     OW22435   5.262   4.428   5.439
 7179SOL    HW122436   5.229   4.508   5.389
 7179SOL    HW222437   5.209   4.417   5.523
 7180SOL     OW22438   6.670   2.124   2.513
 7180SOL    HW122439   6.735   2.098   2.584
 7180SOL    HW222440   6.613   2.200   2.545
 7181SOL     OW22441   4.065   0.418   0.120
 7181SOL    HW122442   3.974   0.395   0.156
 7181SOL    HW222443   4.055   0.474   0.038
 7182SOL     OW22444   2.094   0.647   2.504
 7182SOL    HW122445   2.049   0.726   2.544
 7182SOL    HW222446   2.067   0.564   2.553
 7183SOL     OW22447   1.727   6.941   1.231
 7183SOL    HW122448   1.730   6.980   1.323
 7183SOL    HW222449   1.778   6.855   1.228
 7184SOL     OW22450   0.148   1.479   2.989
 7184SOL    HW122451   0.241   1.453   2.960
 7184SOL    HW222452   0.134   1.576   2.973
 7185SOL     OW22453   3.615   6.950   4.079
 7185SOL    HW122454   3.571   6.999   4.004
 7185SOL    HW222455   3.634   7.014   4.153
 7186SOL     OW22456   6.460   2.411   0.507
 7186SOL    HW122457   6.476   2.352   0.586
 7186SOL    HW222458   6.384   2.473   0.525
 7187SOL     OW22459   2.902   3.675   3.824
 7187SOL    HW122460   2.900   3.580   3.855
 7187SOL    HW222461   2.902   3.736   3.903
 7188SOL     OW22462   4.742   4.629   6.712
 7188SOL    HW122463   4.835   4.608   6.684
 7188SOL    HW222464   4.695   4.678   6.639
 7189SOL     OW22465   6.765   1.957   6.054
 7189SOL    HW122466   6.725   1.969   5.963
 7189SOL    HW222467   6.743   2.037   6.111
 7190SOL     OW22468   5.230   5.469   0.770
 7190SOL    HW122469   5.143   5.421   0.767
 7190SOL    HW222470   5.274   5.453   0.858
 7191SOL     OW22471   0.111   5.003   2.499
 7191SOL    HW122472   0.022   5.024   2.459
 7191SOL    HW222473   0.108   5.019   2.597
 7192SOL     OW22474   3.543   4.015   5.888
 7192SOL    HW122475   3.550   4.086   5.959
 7192SOL    HW222476   3.446   3.997   5.869
 7193SOL     OW22477   3.709   1.299   4.298
 7193SOL    HW122478   3.686   1.388   4.336
 7193SOL    HW222479   3.807   1.281   4.312
 7194SOL     OW22480   3.823   2.437   5.431
 7194SOL    HW122481   3.775   2.415   5.515
 7194SOL    HW222482   3.851   2.352   5.385
 7195SOL     OW22483   6.708   3.852   5.472
 7195SOL    HW122484   6.649   3.834   5.395
 7195SOL    HW222485   6.732   3.766   5.518
 7196SOL     OW22486   3.023   4.227   1.482
 7196SOL    HW122487   3.051   4.135   1.455
 7196SOL    HW222488   2.955   4.262   1.418
 7197SOL     OW22489   3.359   4.465   6.454
 7197SOL    HW122490   3.373   4.368   6.434
 7197SOL    HW222491   3.393   4.486   6.545
 7198SOL     OW22492   1.626   6.432   1.937
 7198SOL    HW122493   1.565   6.477   1.871
 7198SOL    HW222494   1.593   6.450   2.030
 7199SOL     OW22495   6.034   1.265   3.643
 7199SOL    HW122496   5.952   1.211   3.632
 7199SOL    HW222497   6.060   1.306   3.555
 7200SOL     OW22498   0.515   4.077   6.320
 7200SOL    HW122499   0.542   4.014   6.247
 7200SOL    HW222500   0.434   4.127   6.292
 7201SOL     OW22501   5.476   5.458   4.921
 7201SOL    HW122502   5.430   5.501   4.998
 7201SOL    HW222503   5.514   5.528   4.861
 7202SOL     OW22504   4.274   6.550   5.872
 7202SOL    HW122505   4.248   6.454   5.858
 7202SOL    HW222506   4.226   6.607   5.806
 7203SOL     OW22507   1.066   1.554   0.729
 7203SOL    HW122508   1.145   1.603   0.692
 7203SOL    HW222509   0.982   1.602   0.703
 7204SOL     OW22510   5.183   0.818   2.714
 7204SOL    HW122511   5.193   0.719   2.717
 7204SOL    HW222512   5.232   0.859   2.791
 7205SOL     OW22513   3.129   1.188   3.976
 7205SOL    HW122514   3.186   1.254   3.927
 7205SOL    HW222515   3.137   1.098   3.932
 7206SOL     OW22516   1.705   2.645   6.494
 7206SOL    HW122517   1.672   2.697   6.573
 7206SOL    HW222518   1.633   2.582   6.464
 7207SOL     OW22519   1.720   2.420   3.552
 7207SOL    HW122520   1.728   2.400   3.455
 7207SOL    HW222521   1.811   2.433   3.591
 7208SOL     OW22522   2.906   0.249   3.434
 7208SOL    HW122523   2.870   0.311   3.504
 7208SOL    HW222524   2.959   0.176   3.478
 7209SOL     OW22525   4.292   1.353   2.872
 7209SOL    HW122526   4.343   1.305   2.943
 7209SOL    HW222527   4.194   1.334   2.882
 7210SOL     OW22528   3.189   1.164   5.005
 7210SOL    HW122529   3.287   1.145   5.015
 7210SOL    HW222530   3.160   1.226   5.078
 7211SOL     OW22531   4.893   6.124   6.205
 7211SOL    HW122532   4.953   6.180   6.148
 7211SOL    HW222533   4.943   6.045   6.240
 7212SOL     OW22534   0.155   5.674   4.283
 7212SOL    HW122535   0.243   5.711   4.252
 7212SOL    HW222536   0.151   5.576   4.264
 7213SOL     OW22537   5.175   2.753   0.562
 7213SOL    HW122538   5.244   2.786   0.627
 7213SOL    HW222539   5.122   2.680   0.605
 7214SOL     OW22540   6.286   1.495   5.721
 7214SOL    HW122541   6.241   1.584   5.720
 7214SOL    HW222542   6.309   1.471   5.815
 7215SOL     OW22543   6.307   1.436   2.813
 7215SOL    HW122544   6.304   1.354   2.756
 7215SOL    HW222545   6.285   1.516   2.758
 7216SOL     OW22546   5.474   6.464   3.770
 7216SOL    HW122547   5.391   6.417   3.741
 7216SOL    HW222548   5.497   6.535   3.704
 7217SOL     OW22549   1.152   3.269   3.098
 7217SOL    HW122550   1.075   3.278   3.035
 7217SOL    HW222551   1.149   3.179   3.142
 7218SOL     OW22552   0.029   2.862   5.342
 7218SOL    HW122553   0.076   2.927   5.282
 7218SOL    HW222554   0.060   2.769   5.322
 7219SOL     OW22555   3.691   6.098   1.090
 7219SOL    HW122556   3.628   6.170   1.121
 7219SOL    HW222557   3.644   6.038   1.026
 7220SOL     OW22558   0.543   3.922   4.118
 7220SOL    HW122559   0.470   3.895   4.054
 7220SOL    HW222560   0.505   3.934   4.209
 7221SOL     OW22561   4.797   4.755   3.909
 7221SOL    HW122562   4.875   4.816   3.894
 7221SOL    HW222563   4.751   4.780   3.994
 7222SOL     OW22564   6.273   5.643   4.042
 7222SOL    HW122565   6.213   5.702   4.096
 7222SOL    HW222566   6.250   5.547   4.059
 7223SOL     OW22567   6.415   5.300   1.321
 7223SOL    HW122568   6.369   5.388   1.312
 7223SOL    HW222569   6.445   5.287   1.416
 7224SOL     OW22570   5.869   2.737   2.724
 7224SOL    HW122571   5.890   2.759   2.629
 7224SOL    HW222572   5.943   2.769   2.783
 7225SOL     OW22573   0.880   5.165   0.470
 7225SOL    HW122574   0.864   5.229   0.544
 7225SOL    HW222575   0.935   5.088   0.503
 7226SOL     OW22576   6.495   6.448   0.094
 7226SOL    HW122577   6.417   6.471   0.036
 7226SOL    HW222578   6.481   6.358   0.135
 7227SOL     OW22579   2.188   0.612   2.012
 7227SOL    HW122580   2.245   0.530   2.005
 7227SOL    HW222581   2.116   0.609   1.943
 7228SOL     OW22582   6.892   3.568   3.079
 7228SOL    HW122583   6.898   3.628   3.158
 7228SOL    HW222584   6.956   3.492   3.089
 7229SOL     OW22585   5.436   6.746   5.283
 7229SOL    HW122586   5.499   6.714   5.354
 7229SOL    HW222587   5.480   6.740   5.194
 7230SOL     OW22588   2.874   4.812   6.056
 7230SOL    HW122589   2.970   4.795   6.077
 7230SOL    HW222590   2.839   4.740   5.997
 7231SOL     OW22591   3.570   2.845   6.870
 7231SOL    HW122592   3.540   2.853   6.966
 7231SOL    HW222593   3.594   2.935   6.835
 7232SOL     OW22594   4.249   5.637   3.483
 7232SOL    HW122595   4.254   5.725   3.435
 7232SOL    HW222596   4.273   5.650   3.579
 7233SOL     OW22597   0.644   1.864   6.781
 7233SOL    HW122598   0.589   1.791   6.822
 7233SOL    HW222599   0.679   1.834   6.693
 7234SOL     OW22600   5.278   5.488   3.514
 7234SOL    HW122601   5.251   5.433   3.434
 7234SOL    HW222602   5.263   5.435   3.597
 7235SOL     OW22603   0.087   0.200   1.011
 7235SOL    HW122604   0.039   0.159   1.089
 7235SOL    HW222605   0.153   0.267   1.044
 7236SOL     OW22606   0.569   4.407   3.027
 7236SOL    HW122607   0.621   4.338   3.076
 7236SOL    HW222608   0.523   4.366   2.949
 7237SOL     OW22609   4.730   1.313   6.434
 7237SOL    HW122610   4.724   1.317   6.533
 7237SOL    HW222611   4.800   1.247   6.407
 7238SOL     OW22612   4.440   3.395   0.244
 7238SOL    HW122613   4.345   3.376   0.220
 7238SOL    HW222614   4.471   3.478   0.197
 7239SOL     OW22615   6.360   3.050   2.170
 7239SOL    HW122616   6.331   3.128   2.226
 7239SOL    HW222617   6.460   3.044   2.170
 7240SOL     OW22618   0.406   2.063   0.928
 7240SOL    HW122619   0.419   2.159   0.903
 7240SOL    HW222620   0.341   2.057   1.004
 7241SOL     OW22621   2.452   0.150   3.106
 7241SOL    HW122622   2.490   0.242   3.092
 7241SOL    HW222623   2.509   0.100   3.171
 7242SOL     OW22624   6.748   3.612   5.911
 7242SOL    HW122625   6.829   3.564   5.876
 7242SOL    HW222626   6.775   3.671   5.987
 7243SOL     OW22627   6.666   4.415   6.388
 7243SOL    HW122628   6.584   4.380   6.432
 7243SOL    HW222629   6.719   4.467   6.455
 7244SOL     OW22630   6.805   5.939   0.560
 7244SOL    HW122631   6.714   5.900   0.566
 7244SOL    HW222632   6.873   5.869   0.582
 7245SOL     OW22633   1.788   2.484   6.882
 7245SOL    HW122634   1.698   2.481   6.838
 7245SOL    HW222635   1.785   2.545   6.960
 7246SOL     OW22636   4.575   0.063   4.464
 7246SOL    HW122637   4.558   7.001   4.410
 7246SOL    HW222638   4.531   0.055   4.553
 7247SOL     OW22639   3.588   4.155   4.439
 7247SOL    HW122640   3.525   4.165   4.516
 7247SOL    HW222641   3.584   4.237   4.381
 7248SOL     OW22642   2.658   2.495   5.088
 7248SOL    HW122643   2.620   2.587   5.103
 7248SOL    HW222644   2.638   2.466   4.994
 7249SOL     OW22645   3.555   5.974   3.049
 7249SOL    HW122646   3.521   5.946   3.139
 7249SOL    HW222647   3.499   6.047   3.013
 7250SOL     OW22648   4.865   5.049   5.191
 7250SOL    HW122649   4.941   5.058   5.256
 7250SOL    HW222650   4.848   4.951   5.174
 7251SOL     OW22651   0.247   5.961   4.026
 7251SOL    HW122652   0.202   5.996   4.109
 7251SOL    HW222653   0.207   5.873   4.001
 7252SOL     OW22654   3.895   4.386   1.652
 7252SOL    HW122655   3.809   4.364   1.698
 7252SOL    HW222656   3.927   4.475   1.681
 7253SOL     OW22657   1.193   5.276   5.709
 7253SOL    HW122658   1.237   5.206   5.653
 7253SOL    HW222659   1.198   5.364   5.661
 7254SOL     OW22660   0.556   3.826   3.737
 7254SOL    HW122661   0.591   3.764   3.667
 7254SOL    HW222662   0.624   3.897   3.755
 7255SOL     OW22663   4.828   4.008   0.849
 7255SOL    HW122664   4.766   4.052   0.785
 7255SOL    HW222665   4.861   3.922   0.811
 7256SOL     OW22666   3.256   6.804   3.993
 7256SOL    HW122667   3.196   6.882   3.972
 7256SOL    HW222668   3.255   6.788   4.091
 7257SOL     OW22669   0.995   0.874   4.974
 7257SOL    HW122670   1.069   0.891   5.039
 7257SOL    HW222671   1.029   0.886   4.881
 7258SOL     OW22672   0.343   1.694   2.902
 7258SOL    HW122673   0.251   1.728   2.924
 7258SOL    HW222674   0.376   1.739   2.819
 7259SOL     OW22675   1.448   3.745   2.216
 7259SOL    HW122676   1.433   3.829   2.268
 7259SOL    HW222677   1.422   3.666   2.271
 7260SOL     OW22678   6.060   2.522   0.949
 7260SOL    HW122679   6.114   2.485   0.873
 7260SOL    HW222680   6.078   2.620   0.957
 7261SOL     OW22681   0.130   4.608   6.845
 7261SOL    HW122682   0.145   4.573   6.938
 7261SOL    HW222683   0.075   4.543   6.793
 7262SOL     OW22684   2.963   0.299   5.215
 7262SOL    HW122685   2.931   0.233   5.283
 7262SOL    HW222686   2.940   0.392   5.245
 7263SOL     OW22687   6.376   4.765   5.978
 7263SOL    HW122688   6.388   4.712   6.061
 7263SOL    HW222689   6.297   4.826   5.987
 7264SOL     OW22690   4.906   1.855   1.621
 7264SOL    HW122691   4.944   1.840   1.530
 7264SOL    HW222692   4.884   1.767   1.663
 7265SOL     OW22693   3.379   0.059   5.490
 7265SOL    HW122694   3.378   6.990   5.444
 7265SOL    HW222695   3.286   0.086   5.513
 7266SOL     OW22696   6.825   1.012   2.763
 7266SOL    HW122697   6.884   0.992   2.686
 7266SOL    HW222698   6.783   1.102   2.751
 7267SOL     OW22699   0.063   3.921   5.460
 7267SOL    HW122700   0.008   3.903   5.379
 7267SOL    HW222701   0.085   3.834   5.506
 7268SOL     OW22702   5.453   6.256   4.236
 7268SOL    HW122703   5.454   6.265   4.137
 7268SOL    HW222704   5.547   6.262   4.271
 7269SOL     OW22705   2.719   5.646   4.589
 7269SOL    HW122706   2.626   5.611   4.600
 7269SOL    HW222707   2.723   5.704   4.507
 7270SOL     OW22708   0.381   1.673   4.397
 7270SOL    HW122709   0.339   1.749   4.349
 7270SOL    HW222710   0.368   1.589   4.345
 7271SOL     OW22711   0.704   5.829   3.036
 7271SOL    HW122712   0.647   5.796   2.962
 7271SOL    HW222713   0.689   5.774   3.118
 7272SOL     OW22714   6.486   4.100   1.906
 7272SOL    HW122715   6.476   4.196   1.931
 7272SOL    HW222716   6.459   4.088   1.810
 7273SOL     OW22717   0.336   1.254   4.523
 7273SOL    HW122718   0.312   1.316   4.448
 7273SOL    HW222719   0.370   1.307   4.600
 7274SOL     OW22720   0.246   5.792   6.481
 7274SOL    HW122721   0.284   5.850   6.552
 7274SOL    HW222722   0.247   5.697   6.511
 7275SOL     OW22723   0.379   5.514   3.088
 7275SOL    HW122724   0.456   5.451   3.092
 7275SOL    HW222725   0.295   5.463   3.073
 7276SOL     OW22726   5.090   6.423   3.697
 7276SOL    HW122727   5.127   6.499   3.750
 7276SOL    HW222728   5.087   6.449   3.600
 7277SOL     OW22729   5.252   1.134   6.951
 7277SOL    HW122730   5.230   1.051   6.900
 7277SOL    HW222731   5.249   1.212   6.889
 7278SOL     OW22732   4.076   3.260   2.114
 7278SOL    HW122733   4.138   3.252   2.036
 7278SOL    HW222734   3.994   3.205   2.098
 7279SOL     OW22735   3.426   6.437   6.218
 7279SOL    HW122736   3.444   6.495   6.138
 7279SOL    HW222737   3.494   6.456   6.289
 7280SOL     OW22738   4.286   0.088   5.338
 7280SOL    HW122739   4.328   0.133   5.259
 7280SOL    HW222740   4.280   7.010   5.322
 7281SOL     OW22741   5.573   0.857   6.351
 7281SOL    HW122742   5.563   0.937   6.291
 7281SOL    HW222743   5.664   0.817   6.338
 7282SOL     OW22744   6.241   5.744   3.536
 7282SOL    HW122745   6.311   5.754   3.465
 7282SOL    HW222746   6.279   5.772   3.625
 7283SOL     OW22747   2.099   1.500   2.948
 7283SOL    HW122748   2.150   1.419   2.920
 7283SOL    HW222749   2.134   1.532   3.036
 7284SOL     OW22750   1.145   1.196   4.828
 7284SOL    HW122751   1.199   1.260   4.773
 7284SOL    HW222752   1.165   1.102   4.800
 7285SOL     OW22753   6.106   5.270   2.181
 7285SOL    HW122754   6.184   5.308   2.131
 7285SOL    HW222755   6.091   5.176   2.152
 7286SOL     OW22756   1.487   3.995   0.416
 7286SOL    HW122757   1.409   3.988   0.354
 7286SOL    HW222758   1.547   3.916   0.402
 7287SOL     OW22759   6.115   1.968   6.023
 7287SOL    HW122760   6.142   2.018   6.104
 7287SOL    HW222761   6.085   1.876   6.049
 7288SOL     OW22762   2.581   0.031   6.947
 7288SOL    HW122763   2.667   0.000   6.906
 7288SOL    HW222764   2.600   0.081   0.011
 7289SOL     OW22765   4.022   1.235   3.152
 7289SOL    HW122766   4.117   1.265   3.153
 7289SOL    HW222767   3.983   1.252   3.061
 7290SOL     OW22768   2.551   5.903   4.123
 7290SOL    HW122769   2.527   5.927   4.029
 7290SOL    HW222770   2.607   5.975   4.163
 7291SOL     OW22771   3.858   4.955   1.420
 7291SOL    HW122772   3.840   5.052   1.401
 7291SOL    HW222773   3.943   4.946   1.472
 7292SOL     OW22774   3.677   0.229   4.709
 7292SOL    HW122775   3.720   0.255   4.623
 7292SOL    HW222776   3.579   0.250   4.705
 7293SOL     OW22777   2.320   1.186   6.100
 7293SOL    HW122778   2.291   1.256   6.035
 7293SOL    HW222779   2.289   1.096   6.068
 7294SOL     OW22780   5.799   5.440   6.514
 7294SOL    HW122781   5.898   5.438   6.500
 7294SOL    HW222782   5.758   5.501   6.447
 7295SOL     OW22783   4.361   6.553   1.818
 7295SOL    HW122784   4.289   6.577   1.883
 7295SOL    HW222785   4.421   6.484   1.859
 7296SOL     OW22786   4.344   5.428   0.394
 7296SOL    HW122787   4.400   5.491   0.448
 7296SOL    HW222788   4.303   5.478   0.318
 7297SOL     OW22789   4.868   6.339   2.715
 7297SOL    HW122790   4.874   6.347   2.616
 7297SOL    HW222791   4.899   6.248   2.744
 7298SOL     OW22792   5.794   2.722   4.562
 7298SOL    HW122793   5.873   2.765   4.605
 7298SOL    HW222794   5.791   2.625   4.584
 7299SOL     OW22795   5.231   3.347   0.311
 7299SOL    HW122796   5.329   3.341   0.289
 7299SOL    HW222797   5.220   3.357   0.410
 7300SOL     OW22798   4.722   5.332   1.022
 7300SOL    HW122799   4.635   5.380   1.034
 7300SOL    HW222800   4.762   5.357   0.934
 7301SOL     OW22801   6.412   1.744   6.622
 7301SOL    HW122802   6.495   1.786   6.586
 7301SOL    HW222803   6.437   1.668   6.683
 7302SOL     OW22804   6.943   1.203   6.749
 7302SOL    HW122805   6.903   1.122   6.791
 7302SOL    HW222806   6.882   1.237   6.677
 7303SOL     OW22807   4.780   0.529   1.296
 7303SOL    HW122808   4.741   0.534   1.204
 7303SOL    HW222809   4.738   0.600   1.354
 7304SOL     OW22810   4.026   3.187   4.415
 7304SOL    HW122811   3.948   3.126   4.404
 7304SOL    HW222812   4.040   3.240   4.332
 7305SOL     OW22813   5.568   2.483   0.153
 7305SOL    HW122814   5.638   2.435   0.206
 7305SOL    HW222815   5.520   2.418   0.094
 7306SOL     OW22816   4.694   4.870   1.630
 7306SOL    HW122817   4.681   4.858   1.728
 7306SOL    HW222818   4.759   4.801   1.596
 7307SOL     OW22819   4.162   6.565   2.337
 7307SOL    HW122820   4.202   6.645   2.293
 7307SOL    HW222821   4.128   6.590   2.428
 7308SOL     OW22822   5.324   0.577   3.917
 7308SOL    HW122823   5.241   0.521   3.922
 7308SOL    HW222824   5.305   0.661   3.866
 7309SOL     OW22825   4.458   4.558   0.405
 7309SOL    HW122826   4.411   4.519   0.483
 7309SOL    HW222827   4.553   4.525   0.403
 7310SOL     OW22828   1.838   5.572   2.064
 7310SOL    HW122829   1.870   5.652   2.115
 7310SOL    HW222830   1.835   5.493   2.125
 7311SOL     OW22831   3.257   2.096   2.250
 7311SOL    HW122832   3.211   2.042   2.180
 7311SOL    HW222833   3.356   2.080   2.245
 7312SOL     OW22834   0.191   2.665   6.707
 7312SOL    HW122835   0.186   2.734   6.779
 7312SOL    HW222836   0.127   2.591   6.727
 7313SOL     OW22837   3.976   2.549   6.417
 7313SOL    HW122838   3.971   2.594   6.327
 7313SOL    HW222839   4.054   2.487   6.418
 7314SOL     OW22840   0.913   1.876   4.618
 7314SOL    HW122841   0.889   1.956   4.564
 7314SOL    HW222842   0.856   1.798   4.591
 7315SOL     OW22843   6.701   1.516   5.644
 7315SOL    HW122844   6.653   1.429   5.631
 7315SOL    HW222845   6.691   1.546   5.739
 7316SOL     OW22846   4.119   3.536   3.654
 7316SOL    HW122847   4.069   3.556   3.570
 7316SOL    HW222848   4.210   3.577   3.650
 7317SOL     OW22849   3.031   0.640   4.335
 7317SOL    HW122850   3.050   0.719   4.394
 7317SOL    HW222851   2.999   0.564   4.391
 7318SOL     OW22852   1.985   0.541   1.180
 7318SOL    HW122853   1.936   0.619   1.218
 7318SOL    HW222854   2.055   0.573   1.116
 7319SOL     OW22855   6.945   4.280   6.398
 7319SOL    HW122856   7.018   4.219   6.367
 7319SOL    HW222857   6.865   4.225   6.422
 7320SOL     OW22858   0.639   1.566   2.688
 7320SOL    HW122859   0.703   1.490   2.683
 7320SOL    HW222860   0.545   1.531   2.683
 7321SOL     OW22861   4.209   1.629   3.906
 7321SOL    HW122862   4.303   1.615   3.937
 7321SOL    HW222863   4.170   1.707   3.954
 7322SOL     OW22864   1.061   2.848   1.519
 7322SOL    HW122865   1.016   2.759   1.504
 7322SOL    HW222866   1.029   2.913   1.450
 7323SOL     OW22867   2.416   4.427   3.411
 7323SOL    HW122868   2.377   4.339   3.438
 7323SOL    HW222869   2.365   4.464   3.333
 7324SOL     OW22870   4.832   5.538   3.288
 7324SOL    HW122871   4.748   5.572   3.246
 7324SOL    HW222872   4.827   5.438   3.295
 7325SOL     OW22873   2.825   6.127   0.829
 7325SOL    HW122874   2.882   6.072   0.891
 7325SOL    HW222875   2.729   6.106   0.846
 7326SOL     OW22876   2.496   0.875   4.045
 7326SOL    HW122877   2.531   0.781   4.055
 7326SOL    HW222878   2.520   0.927   4.127
 7327SOL     OW22879   1.552   2.921   6.076
 7327SOL    HW122880   1.602   2.918   5.990
 7327SOL    HW222881   1.616   2.919   6.153
 7328SOL     OW22882   2.114   6.403   0.365
 7328SOL    HW122883   2.176   6.328   0.343
 7328SOL    HW222884   2.081   6.392   0.459
 7329SOL     OW22885   4.641   3.875   1.712
 7329SOL    HW122886   4.650   3.905   1.618
 7329SOL    HW222887   4.558   3.914   1.752
 7330SOL     OW22888   4.166   2.161   0.986
 7330SOL    HW122889   4.138   2.076   1.030
 7330SOL    HW222890   4.195   2.142   0.892
 7331SOL     OW22891   6.693   1.464   1.219
 7331SOL    HW122892   6.654   1.530   1.284
 7331SOL    HW222893   6.690   1.373   1.259
 7332SOL     OW22894   3.670   6.774   0.148
 7332SOL    HW122895   3.733   6.697   0.141
 7332SOL    HW222896   3.645   6.788   0.244
 7333SOL     OW22897   7.017   4.746   2.222
 7333SOL    HW122898   6.919   4.738   2.204
 7333SOL    HW222899   0.016   4.714   2.314
 7334SOL     OW22900   3.293   0.232   3.892
 7334SOL    HW122901   3.393   0.239   3.894
 7334SOL    HW222902   3.259   0.270   3.806
 7335SOL     OW22903   1.790   2.978   3.193
 7335SOL    HW122904   1.864   3.018   3.140
 7335SOL    HW222905   1.827   2.929   3.272
 7336SOL     OW22906   1.305   5.995   4.457
 7336SOL    HW122907   1.273   5.983   4.551
 7336SOL    HW222908   1.262   6.075   4.416
 7337SOL     OW22909   5.121   2.329   1.434
 7337SOL    HW122910   5.029   2.321   1.395
 7337SOL    HW222911   5.167   2.240   1.432
 7338SOL     OW22912   0.619   3.899   0.529
 7338SOL    HW122913   0.681   3.887   0.607
 7338SOL    HW222914   0.536   3.846   0.544
 7339SOL     OW22915   1.671   5.545   5.082
 7339SOL    HW122916   1.701   5.527   4.988
 7339SOL    HW222917   1.604   5.620   5.081
 7340SOL     OW22918   3.101   6.606   6.425
 7340SOL    HW122919   3.131   6.526   6.374
 7340SOL    HW222920   3.173   6.636   6.487
 7341SOL     OW22921   5.769   2.380   0.328
 7341SOL    HW122922   5.836   2.317   0.290
 7341SOL    HW222923   5.813   2.442   0.392
 7342SOL     OW22924   0.249   6.256   1.772
 7342SOL    HW122925   0.301   6.189   1.825
 7342SOL    HW222926   0.244   6.226   1.677
 7343SOL     OW22927   6.579   3.091   0.562
 7343SOL    HW122928   6.641   3.039   0.502
 7343SOL    HW222929   6.610   3.186   0.566
 7344SOL     OW22930   2.694   0.489   5.848
 7344SOL    HW122931   2.732   0.562   5.905
 7344SOL    HW222932   2.766   0.423   5.827
 7345SOL     OW22933   3.886   5.742   6.364
 7345SOL    HW122934   3.846   5.809   6.426
 7345SOL    HW222935   3.984   5.760   6.353
 7346SOL     OW22936   4.405   4.996   2.069
 7346SOL    HW122937   4.379   5.083   2.028
 7346SOL    HW222938   4.501   4.977   2.049
 7347SOL     OW22939   4.918   0.602   6.094
 7347SOL    HW122940   4.953   0.604   6.000
 7347SOL    HW222941   4.879   0.512   6.113
 7348SOL     OW22942   0.219   6.008   0.350
 7348SOL    HW122943   0.127   6.023   0.313
 7348SOL    HW222944   0.277   5.968   0.279
 7349SOL     OW22945   4.612   1.431   1.241
 7349SOL    HW122946   4.656   1.439   1.331
 7349SOL    HW222947   4.682   1.433   1.169
 7350SOL     OW22948   3.407   1.337   5.241
 7350SOL    HW122949   3.393   1.370   5.147
 7350SOL    HW222950   3.496   1.367   5.274
 7351SOL     OW22951   2.433   4.992   5.014
 7351SOL    HW122952   2.512   5.040   5.054
 7351SOL    HW222953   2.374   5.058   4.969
 7352SOL     OW22954   5.968   3.038   4.316
 7352SOL    HW122955   5.942   2.955   4.266
 7352SOL    HW222956   6.060   3.026   4.355
 7353SOL     OW22957   6.773   2.327   5.967
 7353SOL    HW122958   6.825   2.274   5.899
 7353SOL    HW222959   6.719   2.397   5.920
 7354SOL     OW22960   0.861   1.966   2.728
 7354SOL    HW122961   0.938   1.919   2.772
 7354SOL    HW222962   0.866   2.064   2.747
 7355SOL     OW22963   3.608   1.782   0.472
 7355SOL    HW122964   3.602   1.811   0.376
 7355SOL    HW222965   3.665   1.700   0.477
 7356SOL     OW22966   3.777   5.038   6.169
 7356SOL    HW122967   3.774   5.051   6.269
 7356SOL    HW222968   3.793   5.127   6.125
 7357SOL     OW22969   4.622   6.465   2.399
 7357SOL    HW122970   4.542   6.413   2.368
 7357SOL    HW222971   4.592   6.542   2.455
 7358SOL     OW22972   4.479   0.356   2.853
 7358SOL    HW122973   4.544   0.410   2.800
 7358SOL    HW222974   4.491   0.375   2.950
 7359SOL     OW22975   3.708   0.241   2.301
 7359SOL    HW122976   3.625   0.243   2.357
 7359SOL    HW222977   3.743   0.147   2.298
 7360SOL     OW22978   2.566   3.817   6.414
 7360SOL    HW122979   2.520   3.741   6.459
 7360SOL    HW222980   2.523   3.833   6.325
 7361SOL     OW22981   5.936   0.517   3.691
 7361SOL    HW122982   5.930   0.616   3.675
 7361SOL    HW222983   6.025   0.496   3.732
 7362SOL     OW22984   3.703   5.768   0.676
 7362SOL    HW122985   3.717   5.849   0.733
 7362SOL    HW222986   3.665   5.695   0.732
 7363SOL     OW22987   4.607   0.513   1.080
 7363SOL    HW122988   4.611   0.480   0.985
 7363SOL    HW222989   4.525   0.477   1.124
 7364SOL     OW22990   5.538   5.654   1.870
 7364SOL    HW122991   5.574   5.712   1.797
 7364SOL    HW222992   5.581   5.680   1.957
 7365SOL     OW22993   4.940   3.636   1.968
 7365SOL    HW122994   4.925   3.733   1.953
 7365SOL    HW222995   4.887   3.583   1.901
 7366SOL     OW22996   2.315   6.352   3.423
 7366SOL    HW122997   2.265   6.392   3.346
 7366SOL    HW222998   2.384   6.288   3.388
 7367SOL     OW22999   4.572   1.312   0.230
 7367SOL    HW123000   4.517   1.379   0.178
 7367SOL    HW223001   4.594   1.235   0.171
 7368SOL     OW23002   3.191   4.003   3.086
 7368SOL    HW123003   3.215   3.983   3.181
 7368SOL    HW223004   3.154   3.921   3.043
 7369SOL     OW23005   5.401   3.579   0.079
 7369SOL    HW123006   5.449   3.504   0.032
 7369SOL    HW223007   5.303   3.558   0.081
 7370SOL     OW23008   2.262   1.066   4.102
 7370SOL    HW123009   2.353   1.046   4.139
 7370SOL    HW223010   2.221   0.982   4.065
 7371SOL     OW23011   4.147   0.316   3.817
 7371SOL    HW123012   4.208   0.244   3.786
 7371SOL    HW223013   4.086   0.344   3.743
 7372SOL     OW23014   3.781   1.521   5.499
 7372SOL    HW123015   3.709   1.559   5.557
 7372SOL    HW223016   3.743   1.496   5.410
 7373SOL     OW23017   6.456   2.932   4.268
 7373SOL    HW123018   6.537   2.915   4.325
 7373SOL    HW223019   6.380   2.876   4.301
 7374SOL     OW23020   6.792   3.312   6.309
 7374SOL    HW123021   6.756   3.229   6.351
 7374SOL    HW223022   6.850   3.287   6.232
 7375SOL     OW23023   1.805   2.308   1.404
 7375SOL    HW123024   1.767   2.223   1.366
 7375SOL    HW223025   1.823   2.372   1.329
 7376SOL     OW23026   6.332   5.180   0.444
 7376SOL    HW123027   6.425   5.192   0.411
 7376SOL    HW223028   6.287   5.269   0.452
 7377SOL     OW23029   2.562   5.809   0.910
 7377SOL    HW123030   2.575   5.786   1.006
 7377SOL    HW223031   2.538   5.906   0.902
 7378SOL     OW23032   2.476   4.757   5.806
 7378SOL    HW123033   2.465   4.692   5.881
 7378SOL    HW223034   2.540   4.829   5.833
 7379SOL     OW23035   5.285   2.488   2.544
 7379SOL    HW123036   5.279   2.394   2.579
 7379SOL    HW223037   5.221   2.498   2.467
 7380SOL     OW23038   5.217   3.463   1.265
 7380SOL    HW123039   5.232   3.364   1.261
 7380SOL    HW223040   5.123   3.481   1.294
 7381SOL     OW23041   3.710   0.183   1.496
 7381SOL    HW123042   3.610   0.184   1.498
 7381SOL    HW223043   3.744   0.095   1.527
 7382SOL     OW23044   0.331   2.663   6.976
 7382SOL    HW123045   0.362   2.571   6.998
 7382SOL    HW223046   0.409   2.716   6.940
 7383SOL     OW23047   2.380   6.549   1.167
 7383SOL    HW123048   2.281   6.545   1.164
 7383SOL    HW223049   2.409   6.595   1.251
 7384SOL     OW23050   0.110   0.589   6.998
 7384SOL    HW123051   0.123   0.566   0.074
 7384SOL    HW223052   0.107   0.689   6.988
 7385SOL     OW23053   6.800   4.540   2.840
 7385SOL    HW123054   6.829   4.469   2.777
 7385SOL    HW223055   6.716   4.583   2.807
 7386SOL     OW23056   6.131   3.906   0.696
 7386SOL    HW123057   6.165   3.938   0.608
 7386SOL    HW223058   6.167   3.965   0.769
 7387SOL     OW23059   0.099   5.307   3.927
 7387SOL    HW123060   0.091   5.233   3.994
 7387SOL    HW223061   0.032   5.378   3.947
 7388SOL     OW23062   2.483   4.562   3.077
 7388SOL    HW123063   2.419   4.542   3.151
 7388SOL    HW223064   2.433   4.596   2.997
 7389SOL     OW23065   0.601   2.759   1.130
 7389SOL    HW123066   0.534   2.746   1.057
 7389SOL    HW223067   0.653   2.675   1.143
 7390SOL     OW23068   4.025   2.208   3.952
 7390SOL    HW123069   4.085   2.131   3.975
 7390SOL    HW223070   3.938   2.198   4.001
 7391SOL     OW23071   3.237   3.670   2.451
 7391SOL    HW123072   3.206   3.631   2.537
 7391SOL    HW223073   3.181   3.635   2.376
 7392SOL     OW23074   3.585   6.779   0.408
 7392SOL    HW123075   3.654   6.757   0.477
 7392SOL    HW223076   3.495   6.785   0.453
 7393SOL     OW23077   4.616   5.696   3.170
 7393SOL    HW123078   4.608   5.794   3.188
 7393SOL    HW223079   4.528   5.660   3.140
 7394SOL     OW23080   1.667   1.329   6.220
 7394SOL    HW123081   1.589   1.268   6.227
 7394SOL    HW223082   1.636   1.424   6.223
 7395SOL     OW23083   2.699   5.855   1.172
 7395SOL    HW123084   2.752   5.813   1.246
 7395SOL    HW223085   2.604   5.866   1.201
 7396SOL     OW23086   1.042   5.297   2.386
 7396SOL    HW123087   1.002   5.284   2.477
 7396SOL    HW223088   1.072   5.392   2.376
 7397SOL     OW23089   5.937   5.208   4.371
 7397SOL    HW123090   5.990   5.259   4.303
 7397SOL    HW223091   6.000   5.162   4.434
 7398SOL     OW23092   2.998   5.476   2.116
 7398SOL    HW123093   2.904   5.444   2.107
 7398SOL    HW223094   3.012   5.515   2.207
 7399SOL     OW23095   6.351   2.616   5.142
 7399SOL    HW123096   6.409   2.584   5.217
 7399SOL    HW223097   6.255   2.606   5.167
 7400SOL     OW23098   4.124   3.521   5.475
 7400SOL    HW123099   4.176   3.440   5.503
 7400SOL    HW223100   4.165   3.559   5.391
 7401SOL     OW23101   2.793   2.051   4.483
 7401SOL    HW123102   2.761   2.142   4.510
 7401SOL    HW223103   2.836   2.006   4.561
 7402SOL     OW23104   3.295   5.111   4.315
 7402SOL    HW123105   3.291   5.131   4.413
 7402SOL    HW223106   3.364   5.040   4.298
 7403SOL     OW23107   1.879   5.197   4.054
 7403SOL    HW123108   1.780   5.194   4.046
 7403SOL    HW223109   1.919   5.125   3.997
 7404SOL     OW23110   1.875   2.849   1.300
 7404SOL    HW123111   1.841   2.841   1.394
 7404SOL    HW223112   1.952   2.913   1.298
 7405SOL     OW23113   2.849   6.438   5.898
 7405SOL    HW123114   2.907   6.366   5.938
 7405SOL    HW223115   2.893   6.473   5.815
 7406SOL     OW23116   0.764   2.783   4.557
 7406SOL    HW123117   0.752   2.864   4.613
 7406SOL    HW223118   0.800   2.810   4.467
 7407SOL     OW23119   1.046   6.258   4.326
 7407SOL    HW123120   1.039   6.201   4.407
 7407SOL    HW223121   0.975   6.328   4.328
 7408SOL     OW23122   4.185   5.085   5.555
 7408SOL    HW123123   4.156   5.049   5.643
 7408SOL    HW223124   4.110   5.076   5.489
 7409SOL     OW23125   6.134   4.867   1.280
 7409SOL    HW123126   6.177   4.887   1.367
 7409SOL    HW223127   6.164   4.933   1.211
 7410SOL     OW23128   6.247   1.365   0.395
 7410SOL    HW123129   6.255   1.302   0.318
 7410SOL    HW223130   6.218   1.315   0.477
 7411SOL     OW23131   3.373   1.619   5.840
 7411SOL    HW123132   3.315   1.694   5.808
 7411SOL    HW223133   3.316   1.551   5.886
 7412SOL     OW23134   4.531   6.958   6.191
 7412SOL    HW123135   4.570   6.981   6.281
 7412SOL    HW223136   4.526   0.021   6.135
 7413SOL     OW23137   4.888   1.113   4.055
 7413SOL    HW123138   4.843   1.202   4.061
 7413SOL    HW223139   4.823   1.045   4.022
 7414SOL     OW23140   3.141   0.916   4.505
 7414SOL    HW123141   3.046   0.941   4.486
 7414SOL    HW223142   3.192   0.912   4.419
 7415SOL     OW23143   4.215   0.669   5.754
 7415SOL    HW123144   4.207   0.622   5.666
 7415SOL    HW223145   4.303   0.716   5.759
 7416SOL     OW23146   0.158   0.181   1.850
 7416SOL    HW123147   0.251   0.205   1.877
 7416SOL    HW223148   0.139   0.216   1.758
 7417SOL     OW23149   0.018   0.474   2.050
 7417SOL    HW123150   0.074   0.475   1.967
 7417SOL    HW223151   0.022   0.384   2.091
 7418SOL     OW23152   1.917   3.467   6.373
 7418SOL    HW123153   1.968   3.382   6.357
 7418SOL    HW223154   1.932   3.530   6.297
 7419SOL     OW23155   6.667   3.018   4.607
 7419SOL    HW123156   6.645   2.971   4.522
 7419SOL    HW223157   6.743   3.082   4.592
 7420SOL     OW23158   6.677   7.003   0.002
 7420SOL    HW123159   6.734   6.972   0.079
 7420SOL    HW223160   6.700   0.078   7.001
 7421SOL     OW23161   0.029   3.822   0.842
 7421SOL    HW123162   0.088   3.893   0.802
 7421SOL    HW223163   6.960   3.823   0.797
 7422SOL     OW23164   6.458   3.567   1.862
 7422SOL    HW123165   6.406   3.644   1.824
 7422SOL    HW223166   6.516   3.600   1.937
 7423SOL     OW23167   4.170   2.287   5.758
 7423SOL    HW123168   4.270   2.284   5.751
 7423SOL    HW223169   4.137   2.205   5.804
 7424SOL     OW23170   0.554   2.018   4.198
 7424SOL    HW123171   0.619   2.075   4.248
 7424SOL    HW223172   0.584   1.923   4.202
 7425SOL     OW23173   5.446   0.432   0.654
 7425SOL    HW123174   5.435   0.487   0.737
 7425SOL    HW223175   5.457   0.336   0.678
 7426SOL     OW23176   3.860   3.526   5.337
 7426SOL    HW123177   3.911   3.497   5.417
 7426SOL    HW223178   3.790   3.592   5.364
 7427SOL     OW23179   2.853   0.741   1.703
 7427SOL    HW123180   2.802   0.799   1.766
 7427SOL    HW223181   2.800   0.729   1.618
 7428SOL     OW23182   1.267   6.781   5.309
 7428SOL    HW123183   1.198   6.825   5.367
 7428SOL    HW223184   1.358   6.794   5.349
 7429SOL     OW23185   0.988   0.371   2.197
 7429SOL    HW123186   0.985   0.455   2.251
 7429SOL    HW223187   0.993   0.292   2.258
 7430SOL     OW23188   6.589   3.809   2.324
 7430SOL    HW123189   6.627   3.863   2.399
 7430SOL    HW223190   6.615   3.850   2.237
 7431SOL     OW23191   1.033   2.534   4.580
 7431SOL    HW123192   1.084   2.603   4.632
 7431SOL    HW223193   0.939   2.529   4.614
 7432SOL     OW23194   1.192   1.054   2.658
 7432SOL    HW123195   1.237   1.138   2.624
 7432SOL    HW223196   1.194   1.053   2.758
 7433SOL     OW23197   3.615   0.316   6.221
 7433SOL    HW123198   3.616   0.367   6.307
 7433SOL    HW223199   3.706   0.279   6.203
 7434SOL     OW23200   3.887   0.005   4.015
 7434SOL    HW123201   3.897   7.006   3.918
 7434SOL    HW223202   3.795   7.001   4.045
 7435SOL     OW23203   5.341   4.704   3.101
 7435SOL    HW123204   5.257   4.753   3.127
 7435SOL    HW223205   5.407   4.710   3.175
 7436SOL     OW23206   4.279   2.832   6.427
 7436SOL    HW123207   4.308   2.890   6.503
 7436SOL    HW223208   4.344   2.841   6.351
 7437SOL     OW23209   3.768   0.418   1.634
 7437SOL    HW123210   3.756   0.332   1.585
 7437SOL    HW223211   3.748   0.494   1.573
 7438SOL     OW23212   1.952   1.096   6.671
 7438SOL    HW123213   2.024   1.078   6.738
 7438SOL    HW223214   1.993   1.127   6.585
 7439SOL     OW23215   1.492   4.284   6.032
 7439SOL    HW123216   1.465   4.217   6.101
 7439SOL    HW223217   1.489   4.241   5.942
 7440SOL     OW23218   5.949   2.325   4.552
 7440SOL    HW123219   5.886   2.360   4.621
 7440SOL    HW223220   5.911   2.242   4.512
 7441SOL     OW23221   4.200   6.948   0.407
 7441SOL    HW123222   4.140   6.909   0.338
 7441SOL    HW223223   4.290   6.903   0.403
 7442SOL     OW23224   6.759   1.546   6.414
 7442SOL    HW123225   6.685   1.483   6.439
 7442SOL    HW223226   6.831   1.542   6.484
 7443SOL     OW23227   6.867   6.679   0.278
 7443SOL    HW123228   6.847   6.637   0.366
 7443SOL    HW223229   6.965   6.695   0.270
 7444SOL     OW23230   0.932   6.100   6.516
 7444SOL    HW123231   0.981   6.132   6.597
 7444SOL    HW223232   0.966   6.146   6.435
 7445SOL     OW23233   3.899   6.130   2.415
 7445SOL    HW123234   3.895   6.033   2.390
 7445SOL    HW223235   3.898   6.186   2.332
 7446SOL     OW23236   6.652   4.905   0.449
 7446SOL    HW123237   6.721   4.839   0.420
 7446SOL    HW223238   6.567   4.857   0.471
 7447SOL     OW23239   0.402   5.587   1.039
 7447SOL    HW123240   0.390   5.607   0.942
 7447SOL    HW223241   0.349   5.653   1.093
 7448SOL     OW23242   5.021   4.976   6.924
 7448SOL    HW123243   5.118   4.954   6.928
 7448SOL    HW223244   4.998   5.011   6.833
 7449SOL     OW23245   6.648   3.472   6.491
 7449SOL    HW123246   6.673   3.425   6.576
 7449SOL    HW223247   6.681   3.420   6.413
 7450SOL     OW23248   5.126   3.376   0.587
 7450SOL    HW123249   5.099   3.471   0.571
 7450SOL    HW223250   5.056   3.330   0.642
 7451SOL     OW23251   4.353   4.988   3.105
 7451SOL    HW123252   4.324   5.031   3.190
 7451SOL    HW223253   4.364   5.059   3.035
 7452SOL     OW23254   6.724   6.179   6.696
 7452SOL    HW123255   6.771   6.212   6.777
 7452SOL    HW223256   6.780   6.196   6.615
 7453SOL     OW23257   4.413   4.804   6.483
 7453SOL    HW123258   4.406   4.843   6.391
 7453SOL    HW223259   4.321   4.779   6.515
 7454SOL     OW23260   4.123   2.043   1.387
 7454SOL    HW123261   4.187   2.077   1.456
 7454SOL    HW223262   4.030   2.045   1.424
 7455SOL     OW23263   6.725   0.371   2.605
 7455SOL    HW123264   6.645   0.408   2.652
 7455SOL    HW223265   6.796   0.442   2.600
 7456SOL     OW23266   2.917   0.766   5.634
 7456SOL    HW123267   2.957   0.857   5.635
 7456SOL    HW223268   2.824   0.770   5.599
 7457SOL     OW23269   1.239   1.755   2.402
 7457SOL    HW123270   1.141   1.766   2.418
 7457SOL    HW223271   1.253   1.699   2.321
 7458SOL     OW23272   0.177   6.085   5.136
 7458SOL    HW123273   0.111   6.013   5.154
 7458SOL    HW223274   0.142   6.172   5.170
 7459SOL     OW23275   5.842   6.717   3.060
 7459SOL    HW123276   5.776   6.770   3.113
 7459SOL    HW223277   5.793   6.664   2.991
 7460SOL     OW23278   0.614   0.510   1.300
 7460SOL    HW123279   0.698   0.520   1.247
 7460SOL    HW223280   0.542   0.472   1.242
 7461SOL     OW23281   1.931   4.676   5.410
 7461SOL    HW123282   1.865   4.613   5.450
 7461SOL    HW223283   2.008   4.689   5.473
 7462SOL     OW23284   1.790   4.499   6.995
 7462SOL    HW123285   1.852   4.459   6.927
 7462SOL    HW223286   1.771   4.433   0.047
 7463SOL     OW23287   4.794   4.601   0.584
 7463SOL    HW123288   4.839   4.567   0.667
 7463SOL    HW223289   4.749   4.688   0.604
 7464SOL     OW23290   5.068   5.077   5.364
 7464SOL    HW123291   5.079   5.175   5.347
 7464SOL    HW223292   5.156   5.031   5.350
 7465SOL     OW23293   1.450   3.721   6.391
 7465SOL    HW123294   1.479   3.673   6.474
 7465SOL    HW223295   1.528   3.732   6.329
 7466SOL     OW23296   0.338   0.101   5.736
 7466SOL    HW123297   0.427   0.064   5.711
 7466SOL    HW223298   0.277   0.100   5.657
 7467SOL     OW23299   1.010   3.429   3.780
 7467SOL    HW123300   1.005   3.334   3.811
 7467SOL    HW223301   1.043   3.432   3.686
 7468SOL     OW23302   6.406   2.751   4.657
 7468SOL    HW123303   6.466   2.734   4.736
 7468SOL    HW223304   6.400   2.849   4.640
 7469SOL     OW23305   0.028   2.013   0.055
 7469SOL    HW123306   0.040   2.066   0.139
 7469SOL    HW223307   0.112   1.962   0.035
 7470SOL     OW23308   5.173   3.147   3.891
 7470SOL    HW123309   5.135   3.084   3.823
 7470SOL    HW223310   5.141   3.121   3.982
 7471SOL     OW23311   3.324   6.873   6.148
 7471SOL    HW123312   3.234   6.830   6.152
 7471SOL    HW223313   3.332   6.942   6.220
 7472SOL     OW23314   6.692   0.169   5.505
 7472SOL    HW123315   6.711   0.230   5.582
 7472SOL    HW223316   6.699   0.221   5.419
 7473SOL     OW23317   4.328   6.846   3.154
 7473SOL    HW123318   4.335   6.853   3.254
 7473SOL    HW223319   4.318   6.937   3.115
 7474SOL     OW23320   6.140   2.330   1.558
 7474SOL    HW123321   6.239   2.339   1.567
 7474SOL    HW223322   6.117   2.296   1.467
 7475SOL     OW23323   5.204   2.988   1.248
 7475SOL    HW123324   5.297   2.998   1.213
 7475SOL    HW223325   5.139   3.003   1.173
 7476SOL     OW23326   2.522   1.740   2.623
 7476SOL    HW123327   2.423   1.748   2.625
 7476SOL    HW223328   2.558   1.795   2.547
 7477SOL     OW23329   2.566   3.719   5.917
 7477SOL    HW123330   2.548   3.621   5.924
 7477SOL    HW223331   2.624   3.736   5.837
 7478SOL     OW23332   0.563   2.678   6.657
 7478SOL    HW123333   0.590   2.713   6.567
 7478SOL    HW223334   0.490   2.611   6.646
 7479SOL     OW23335   5.763   2.507   1.969
 7479SOL    HW123336   5.699   2.435   1.997
 7479SOL    HW223337   5.776   2.502   1.870
 7480SOL     OW23338   4.054   5.989   2.095
 7480SOL    HW123339   4.108   5.970   2.177
 7480SOL    HW223340   4.072   6.082   2.064
 7481SOL     OW23341   0.384   4.300   0.035
 7481SOL    HW123342   0.371   4.393   0.001
 7481SOL    HW223343   0.423   4.243   6.982
 7482SOL     OW23344   3.925   1.692   4.832
 7482SOL    HW123345   3.977   1.771   4.803
 7482SOL    HW223346   3.947   1.670   4.927
 7483SOL     OW23347   6.010   1.302   5.906
 7483SOL    HW123348   6.021   1.210   5.945
 7483SOL    HW223349   5.967   1.296   5.816
 7484SOL     OW23350   2.377   6.723   4.889
 7484SOL    HW123351   2.383   6.761   4.797
 7484SOL    HW223352   2.352   6.795   4.953
 7485SOL     OW23353   3.924   0.241   6.767
 7485SOL    HW123354   3.907   0.143   6.783
 7485SOL    HW223355   3.994   0.252   6.698
 7486SOL     OW23356   4.406   6.272   0.688
 7486SOL    HW123357   4.485   6.320   0.725
 7486SOL    HW223358   4.435   6.212   0.614
 7487SOL     OW23359   3.449   6.197   4.541
 7487SOL    HW123360   3.417   6.291   4.553
 7487SOL    HW223361   3.372   6.139   4.515
 7488SOL     OW23362   2.116   5.874   3.758
 7488SOL    HW123363   2.185   5.912   3.697
 7488SOL    HW223364   2.042   5.940   3.771
 7489SOL     OW23365   4.640   3.553   5.879
 7489SOL    HW123366   4.578   3.534   5.802
 7489SOL    HW223367   4.643   3.474   5.940
 7490SOL     OW23368   2.102   2.140   1.210
 7490SOL    HW123369   2.152   2.122   1.126
 7490SOL    HW223370   2.073   2.053   1.251
 7491SOL     OW23371   4.557   4.066   6.690
 7491SOL    HW123372   4.532   4.163   6.686
 7491SOL    HW223373   4.551   4.035   6.785
 7492SOL     OW23374   1.615   1.257   3.025
 7492SOL    HW123375   1.518   1.261   3.000
 7492SOL    HW223376   1.651   1.349   3.033
 7493SOL     OW23377   6.031   4.705   4.515
 7493SOL    HW123378   6.025   4.688   4.417
 7493SOL    HW223379   5.939   4.713   4.554
 7494SOL     OW23380   5.882   1.306   2.174
 7494SOL    HW123381   5.880   1.225   2.115
 7494SOL    HW223382   5.854   1.386   2.122
 7495SOL     OW23383   1.590   3.402   4.263
 7495SOL    HW123384   1.662   3.333   4.254
 7495SOL    HW223385   1.618   3.470   4.331
 7496SOL     OW23386   5.789   3.049   3.285
 7496SOL    HW123387   5.838   2.964   3.307
 7496SOL    HW223388   5.693   3.039   3.310
 7497SOL     OW23389   6.042   0.526   0.965
 7497SOL    HW123390   6.133   0.551   0.933
 7497SOL    HW223391   6.048   0.445   1.023
 7498SOL     OW23392   2.204   6.192   3.031
 7498SOL    HW123393   2.232   6.151   3.117
 7498SOL    HW223394   2.249   6.281   3.020
 7499SOL     OW23395   2.930   1.251   3.438
 7499SOL    HW123396   3.001   1.223   3.373
 7499SOL    HW223397   2.852   1.289   3.389
 7500SOL     OW23398   3.558   1.425   4.879
 7500SOL    HW123399   3.522   1.517   4.891
 7500SOL    HW223400   3.485   1.358   4.896
 7501SOL     OW23401   5.925   2.007   4.243
 7501SOL    HW123402   5.877   2.017   4.156
 7501SOL    HW223403   5.874   2.053   4.316
 7502SOL     OW23404   3.638   1.152   3.878
 7502SOL    HW123405   3.589   1.239   3.879
 7502SOL    HW223406   3.730   1.165   3.914
 7503SOL     OW23407   1.014   5.798   0.973
 7503SOL    HW123408   0.969   5.809   1.062
 7503SOL    HW223409   1.061   5.884   0.949
 7504SOL     OW23410   5.638   6.176   5.107
 7504SOL    HW123411   5.640   6.142   5.201
 7504SOL    HW223412   5.642   6.276   5.108
 7505SOL     OW23413   0.506   6.877   6.775
 7505SOL    HW123414   0.448   6.935   6.832
 7505SOL    HW223415   0.591   6.857   6.824
 7506SOL     OW23416   3.715   1.911   4.431
 7506SOL    HW123417   3.618   1.893   4.411
 7506SOL    HW223418   3.721   1.989   4.493
 7507SOL     OW23419   6.912   3.558   6.261
 7507SOL    HW123420   6.873   3.467   6.271
 7507SOL    HW223421   6.898   3.610   6.345
 7508SOL     OW23422   3.857   6.593   0.139
 7508SOL    HW123423   3.828   6.515   0.194
 7508SOL    HW223424   3.917   6.561   0.066
 7509SOL     OW23425   5.472   4.448   3.272
 7509SOL    HW123426   5.380   4.476   3.302
 7509SOL    HW223427   5.467   4.358   3.229
 7510SOL     OW23428   3.646   4.798   1.355
 7510SOL    HW123429   3.614   4.758   1.441
 7510SOL    HW223430   3.724   4.857   1.373
 7511SOL     OW23431   4.720   6.096   3.814
 7511SOL    HW123432   4.816   6.070   3.809
 7511SOL    HW223433   4.682   6.066   3.902
 7512SOL     OW23434   3.844   5.995   0.768
 7512SOL    HW123435   3.869   5.947   0.852
 7512SOL    HW223436   3.804   6.084   0.791
 7513SOL     OW23437   0.201   0.580   2.655
 7513SOL    HW123438   0.250   0.494   2.647
 7513SOL    HW223439   0.159   0.603   2.567
 7514SOL     OW23440   0.010   0.534   0.471
 7514SOL    HW123441   6.974   0.451   0.462
 7514SOL    HW223442   6.971   0.614   0.475
 7515SOL     OW23443   0.436   4.772   5.158
 7515SOL    HW123444   0.394   4.722   5.234
 7515SOL    HW223445   0.421   4.721   5.073
 7516SOL     OW23446   2.179   5.816   4.744
 7516SOL    HW123447   2.226   5.896   4.782
 7516SOL    HW223448   2.229   5.781   4.666
 7517SOL     OW23449   0.328   2.612   0.376
 7517SOL    HW123450   0.415   2.564   0.365
 7517SOL    HW223451   0.345   2.709   0.390
 7518SOL     OW23452   3.867   2.083   4.855
 7518SOL    HW123453   3.898   2.134   4.935
 7518SOL    HW223454   3.946   2.051   4.802
 7519SOL     OW23455   3.118   6.235   4.738
 7519SOL    HW123456   3.151   6.330   4.733
 7519SOL    HW223457   3.133   6.200   4.831
 7520SOL     OW23458   1.851   0.676   0.772
 7520SOL    HW123459   1.948   0.698   0.782
 7520SOL    HW223460   1.818   0.632   0.856
 7521SOL     OW23461   4.569   1.275   5.509
 7521SOL    HW123462   4.541   1.371   5.514
 7521SOL    HW223463   4.488   1.217   5.502
 7522SOL     OW23464   1.543   6.681   4.227
 7522SOL    HW123465   1.641   6.694   4.240
 7522SOL    HW223466   1.523   6.674   4.129
 7523SOL     OW23467   5.603   1.869   6.801
 7523SOL    HW123468   5.629   1.782   6.760
 7523SOL    HW223469   5.562   1.928   6.732
 7524SOL     OW23470   0.048   3.840   4.912
 7524SOL    HW123471   0.143   3.842   4.880
 7524SOL    HW223472   0.026   3.926   4.957
 7525SOL     OW23473   2.807   4.621   5.848
 7525SOL    HW123474   2.758   4.536   5.829
 7525SOL    HW223475   2.805   4.679   5.766
 7526SOL     OW23476   1.139   3.931   0.931
 7526SOL    HW123477   1.062   3.868   0.939
 7526SOL    HW223478   1.210   3.905   0.997
 7527SOL     OW23479   3.111   5.466   2.597
 7527SOL    HW123480   3.175   5.408   2.548
 7527SOL    HW223481   3.058   5.411   2.661
 7528SOL     OW23482   6.718   2.619   0.218
 7528SOL    HW123483   6.809   2.580   0.200
 7528SOL    HW223484   6.726   2.689   0.289
 7529SOL     OW23485   6.080   2.764   4.629
 7529SOL    HW123486   6.060   2.861   4.621
 7529SOL    HW223487   6.175   2.752   4.658
 7530SOL     OW23488   2.010   2.084   3.294
 7530SOL    HW123489   1.933   2.065   3.232
 7530SOL    HW223490   1.985   2.057   3.387
 7531SOL     OW23491   4.608   1.748   3.858
 7531SOL    HW123492   4.593   1.668   3.799
 7531SOL    HW223493   4.569   1.829   3.814
 7532SOL     OW23494   4.415   4.546   6.690
 7532SOL    HW123495   4.319   4.573   6.683
 7532SOL    HW223496   4.460   4.601   6.760
 7533SOL     OW23497   4.534   4.564   1.051
 7533SOL    HW123498   4.534   4.525   1.143
 7533SOL    HW223499   4.597   4.513   0.993
 7534SOL     OW23500   4.367   6.172   4.836
 7534SOL    HW123501   4.336   6.213   4.922
 7534SOL    HW223502   4.328   6.080   4.826
 7535SOL     OW23503   0.237   6.799   4.643
 7535SOL    HW123504   0.253   6.725   4.577
 7535SOL    HW223505   0.140   6.803   4.665
 7536SOL     OW23506   6.026   6.990   2.896
 7536SOL    HW123507   5.973   6.966   2.815
 7536SOL    HW223508   6.101   0.031   2.870
 7537SOL     OW23509   2.589   0.505   2.055
 7537SOL    HW123510   2.544   0.418   2.039
 7537SOL    HW223511   2.676   0.508   2.005
 7538SOL     OW23512   0.081   4.513   0.137
 7538SOL    HW123513   0.108   4.422   0.170
 7538SOL    HW223514   0.144   4.582   0.175
 7539SOL     OW23515   6.574   0.205   4.601
 7539SOL    HW123516   6.663   0.231   4.564
 7539SOL    HW223517   6.515   0.286   4.604
 7540SOL     OW23518   5.399   3.648   3.683
 7540SOL    HW123519   5.364   3.574   3.625
 7540SOL    HW223520   5.322   3.696   3.725
 7541SOL     OW23521   2.179   3.735   0.004
 7541SOL    HW123522   2.132   3.649   0.026
 7541SOL    HW223523   2.158   3.762   6.930
 7542SOL     OW23524   6.185   6.195   4.610
 7542SOL    HW123525   6.136   6.247   4.680
 7542SOL    HW223526   6.160   6.229   4.520
 7543SOL     OW23527   2.248   0.510   0.541
 7543SOL    HW123528   2.222   0.588   0.484
 7543SOL    HW223529   2.347   0.509   0.554
 7544SOL     OW23530   6.199   1.778   4.929
 7544SOL    HW123531   6.232   1.712   4.861
 7544SOL    HW223532   6.230   1.751   5.020
 7545SOL     OW23533   0.997   5.685   4.937
 7545SOL    HW123534   0.909   5.637   4.927
 7545SOL    HW223535   1.070   5.629   4.896
 7546SOL     OW23536   2.345   2.949   1.719
 7546SOL    HW123537   2.272   2.938   1.652
 7546SOL    HW223538   2.433   2.958   1.672
 7547SOL     OW23539   3.904   0.381   1.885
 7547SOL    HW123540   3.997   0.417   1.886
 7547SOL    HW223541   3.857   0.412   1.803
 7548SOL     OW23542   2.422   2.135   6.409
 7548SOL    HW123543   2.420   2.046   6.362
 7548SOL    HW223544   2.381   2.205   6.351
 7549SOL     OW23545   5.044   0.574   5.107
 7549SOL    HW123546   4.972   0.634   5.072
 7549SOL    HW223547   5.013   0.479   5.104
 7550SOL     OW23548   2.721   5.941   5.049
 7550SOL    HW123549   2.744   5.888   5.131
 7550SOL    HW223550   2.677   6.026   5.077
 7551SOL     OW23551   6.309   3.381   6.317
 7551SOL    HW123552   6.247   3.361   6.392
 7551SOL    HW223553   6.404   3.371   6.347
 7552SOL     OW23554   2.782   6.642   4.097
 7552SOL    HW123555   2.870   6.594   4.095
 7552SOL    HW223556   2.790   6.723   4.156
 7553SOL     OW23557   6.199   0.076   5.339
 7553SOL    HW123558   6.150   0.162   5.357
 7553SOL    HW223559   6.235   0.078   5.246
 7554SOL     OW23560   4.987   1.551   1.949
 7554SOL    HW123561   4.922   1.547   2.024
 7554SOL    HW223562   5.067   1.604   1.976
 7555SOL     OW23563   4.907   5.639   4.027
 7555SOL    HW123564   4.990   5.694   4.031
 7555SOL    HW223565   4.861   5.655   3.940
 7556SOL     OW23566   0.722   5.963   0.658
 7556SOL    HW123567   0.759   6.003   0.574
 7556SOL    HW223568   0.718   6.033   0.729
 7557SOL     OW23569   4.329   6.122   0.167
 7557SOL    HW123570   4.297   6.105   0.074
 7557SOL    HW223571   4.277   6.065   0.231
 7558SOL     OW23572   1.284   1.493   3.907
 7558SOL    HW123573   1.238   1.484   3.996
 7558SOL    HW223574   1.361   1.556   3.915
 7559SOL     OW23575   1.182   6.796   5.058
 7559SOL    HW123576   1.212   6.775   5.151
 7559SOL    HW223577   1.260   6.791   4.996
 7560SOL     OW23578   1.030   0.677   5.696
 7560SOL    HW123579   1.075   0.656   5.609
 7560SOL    HW223580   1.039   0.774   5.716
 7561SOL     OW23581   5.277   1.437   5.588
 7561SOL    HW123582   5.271   1.412   5.685
 7561SOL    HW223583   5.238   1.364   5.532
 7562SOL     OW23584   1.734   5.666   3.606
 7562SOL    HW123585   1.734   5.700   3.700
 7562SOL    HW223586   1.705   5.739   3.544
 7563SOL     OW23587   2.567   6.589   3.428
 7563SOL    HW123588   2.618   6.628   3.505
 7563SOL    HW223589   2.507   6.516   3.462
 7564SOL     OW23590   5.215   3.478   5.999
 7564SOL    HW123591   5.210   3.548   5.929
 7564SOL    HW223592   5.230   3.389   5.956
 7565SOL     OW23593   6.563   3.587   5.684
 7565SOL    HW123594   6.637   3.622   5.741
 7565SOL    HW223595   6.504   3.528   5.738
 7566SOL     OW23596   4.938   4.338   1.665
 7566SOL    HW123597   4.955   4.242   1.642
 7566SOL    HW223598   4.871   4.344   1.738
 7567SOL     OW23599   1.583   0.434   2.810
 7567SOL    HW123600   1.505   0.372   2.816
 7567SOL    HW223601   1.591   0.469   2.717
 7568SOL     OW23602   0.397   4.191   1.251
 7568SOL    HW123603   0.378   4.126   1.325
 7568SOL    HW223604   0.321   4.192   1.187
 7569SOL     OW23605   4.579   3.885   1.442
 7569SOL    HW123606   4.525   3.969   1.443
 7569SOL    HW223607   4.521   3.807   1.466
 7570SOL     OW23608   0.932   2.556   1.752
 7570SOL    HW123609   0.916   2.459   1.770
 7570SOL    HW223610   0.963   2.567   1.657
 7571SOL     OW23611   5.137   1.898   3.579
 7571SOL    HW123612   5.102   1.826   3.639
 7571SOL    HW223613   5.236   1.886   3.567
 7572SOL     OW23614   4.668   6.788   2.676
 7572SOL    HW123615   4.733   6.864   2.670
 7572SOL    HW223616   4.717   6.703   2.692
 7573SOL     OW23617   3.541   0.018   6.090
 7573SOL    HW123618   3.495   0.106   6.088
 7573SOL    HW223619   3.474   6.965   6.084
 7574SOL     OW23620   0.977   3.317   2.897
 7574SOL    HW123621   1.003   3.413   2.887
 7574SOL    HW223622   0.885   3.303   2.860
 7575SOL     OW23623   6.967   0.017   0.156
 7575SOL    HW123624   6.914   6.989   0.225
 7575SOL    HW223625   6.965   6.985   0.070
 7576SOL     OW23626   4.689   2.960   6.925
 7576SOL    HW123627   4.678   3.041   6.983
 7576SOL    HW223628   4.772   2.911   6.952
 7577SOL     OW23629   6.957   0.225   5.940
 7577SOL    HW123630   6.887   0.216   6.010
 7577SOL    HW223631   7.011   0.141   5.935
 7578SOL     OW23632   6.267   5.379   2.478
 7578SOL    HW123633   6.329   5.335   2.413
 7578SOL    HW223634   6.175   5.340   2.468
 7579SOL     OW23635   1.277   1.606   6.650
 7579SOL    HW123636   1.181   1.593   6.625
 7579SOL    HW223637   1.308   1.696   6.618
 7580SOL     OW23638   2.530   4.976   2.539
 7580SOL    HW123639   2.498   5.053   2.484
 7580SOL    HW223640   2.559   4.902   2.478
 7581SOL     OW23641   0.526   0.032   0.815
 7581SOL    HW123642   0.590   7.019   0.885
 7581SOL    HW223643   0.522   0.132   0.818
 7582SOL     OW23644   1.760   0.234   5.920
 7582SOL    HW123645   1.706   0.237   6.004
 7582SOL    HW223646   1.811   0.148   5.917
 7583SOL     OW23647   5.735   3.896   2.383
 7583SOL    HW123648   5.728   3.887   2.283
 7583SOL    HW223649   5.687   3.978   2.413
 7584SOL     OW23650   0.206   0.651   3.697
 7584SOL    HW123651   0.246   0.704   3.772
 7584SOL    HW223652   0.133   0.704   3.654
 7585SOL     OW23653   0.584   1.017   5.518
 7585SOL    HW123654   0.627   0.952   5.581
 7585SOL    HW223655   0.545   1.093   5.570
 7586SOL     OW23656   1.909   6.613   3.985
 7586SOL    HW123657   1.863   6.608   3.897
 7586SOL    HW223658   1.964   6.697   3.990
 7587SOL     OW23659   5.584   0.467   2.253
 7587SOL    HW123660   5.504   0.526   2.241
 7587SOL    HW223661   5.656   0.497   2.190
 7588SOL     OW23662   2.160   3.409   4.645
 7588SOL    HW123663   2.156   3.383   4.742
 7588SOL    HW223664   2.181   3.507   4.639
 7589SOL     OW23665   6.647   6.829   2.224
 7589SOL    HW123666   6.717   6.761   2.205
 7589SOL    HW223667   6.586   6.837   2.145
 7590SOL     OW23668   5.927   1.277   6.945
 7590SOL    HW123669   5.929   1.371   6.910
 7590SOL    HW223670   5.833   1.253   6.971
 7591SOL     OW23671   3.505   3.913   5.152
 7591SOL    HW123672   3.571   3.850   5.110
 7591SOL    HW223673   3.503   3.998   5.100
 7592SOL     OW23674   0.186   6.638   3.213
 7592SOL    HW123675   0.089   6.629   3.236
 7592SOL    HW223676   0.201   6.724   3.164
 7593SOL     OW23677   6.430   1.774   5.896
 7593SOL    HW123678   6.343   1.752   5.853
 7593SOL    HW223679   6.414   1.830   5.977
 7594SOL     OW23680   6.603   3.943   6.265
 7594SOL    HW123681   6.540   3.941   6.343
 7594SOL    HW223682   6.600   4.034   6.223
 7595SOL     OW23683   0.463   3.315   0.290
 7595SOL    HW123684   0.482   3.349   0.198
 7595SOL    HW223685   0.528   3.355   0.354
 7596SOL     OW23686   3.325   1.674   6.557
 7596SOL    HW123687   3.298   1.741   6.626
 7596SOL    HW223688   3.288   1.700   6.468
 7597SOL     OW23689   2.760   4.443   0.627
 7597SOL    HW123690   2.715   4.441   0.717
 7597SOL    HW223691   2.802   4.533   0.613
 7598SOL     OW23692   4.766   0.398   2.386
 7598SOL    HW123693   4.745   0.381   2.290
 7598SOL    HW223694   4.826   0.477   2.394
 7599SOL     OW23695   2.990   2.971   0.184
 7599SOL    HW123696   2.928   2.961   0.262
 7599SOL    HW223697   2.939   2.959   0.099
 7600SOL     OW23698   0.591   6.891   3.837
 7600SOL    HW123699   0.586   6.913   3.740
 7600SOL    HW223700   0.685   6.899   3.869
 7601SOL     OW23701   3.058   6.245   1.110
 7601SOL    HW123702   3.048   6.271   1.206
 7601SOL    HW223703   3.015   6.156   1.095
 7602SOL     OW23704   0.377   1.133   1.518
 7602SOL    HW123705   0.322   1.079   1.454
 7602SOL    HW223706   0.321   1.208   1.553
 7603SOL     OW23707   4.496   1.083   6.592
 7603SOL    HW123708   4.564   1.132   6.538
 7603SOL    HW223709   4.405   1.103   6.557
 7604SOL     OW23710   2.415   1.961   5.389
 7604SOL    HW123711   2.376   1.931   5.301
 7604SOL    HW223712   2.351   2.023   5.434
 7605SOL     OW23713   2.792   6.075   6.733
 7605SOL    HW123714   2.881   6.113   6.706
 7605SOL    HW223715   2.729   6.149   6.754
 7606SOL     OW23716   6.488   0.990   3.489
 7606SOL    HW123717   6.518   0.992   3.393
 7606SOL    HW223718   6.388   0.989   3.492
 7607SOL     OW23719   1.889   5.490   5.530
 7607SOL    HW123720   1.805   5.523   5.574
 7607SOL    HW223721   1.871   5.472   5.433
 7608SOL     OW23722   0.641   2.915   6.482
 7608SOL    HW123723   0.594   3.001   6.502
 7608SOL    HW223724   0.721   2.908   6.542
 7609SOL     OW23725   3.060   6.809   4.979
 7609SOL    HW123726   3.128   6.860   5.031
 7609SOL    HW223727   3.044   6.720   5.023
 7610SOL     OW23728   4.210   5.644   4.446
 7610SOL    HW123729   4.134   5.579   4.457
 7610SOL    HW223730   4.245   5.639   4.353
 7611SOL     OW23731   4.575   2.113   0.377
 7611SOL    HW123732   4.593   2.080   0.284
 7611SOL    HW223733   4.502   2.181   0.375
 7612SOL     OW23734   4.931   3.162   2.149
 7612SOL    HW123735   4.861   3.104   2.108
 7612SOL    HW223736   4.943   3.136   2.245
 7613SOL     OW23737   0.225   0.656   6.700
 7613SOL    HW123738   0.129   0.670   6.724
 7613SOL    HW223739   0.241   0.559   6.681
 7614SOL     OW23740   5.956   5.098   6.408
 7614SOL    HW123741   5.869   5.134   6.374
 7614SOL    HW223742   5.973   5.135   6.499
 7615SOL     OW23743   5.053   3.263   6.587
 7615SOL    HW123744   5.058   3.265   6.487
 7615SOL    HW223745   5.021   3.173   6.617
 7616SOL     OW23746   6.485   6.830   2.002
 7616SOL    HW123747   6.396   6.820   2.046
 7616SOL    HW223748   6.476   6.818   1.903
 7617SOL     OW23749   5.974   4.706   3.095
 7617SOL    HW123750   6.029   4.699   3.012
 7617SOL    HW223751   5.893   4.762   3.077
 7618SOL     OW23752   2.901   2.172   0.024
 7618SOL    HW123753   2.986   2.221   0.003
 7618SOL    HW223754   2.871   2.122   6.964
 7619SOL     OW23755   0.490   0.314   4.841
 7619SOL    HW123756   0.476   0.396   4.897
 7619SOL    HW223757   0.502   0.340   4.746
 7620SOL     OW23758   3.432   3.853   0.363
 7620SOL    HW123759   3.484   3.767   0.369
 7620SOL    HW223760   3.415   3.874   0.266
 7621SOL     OW23761   5.809   4.912   0.760
 7621SOL    HW123762   5.820   4.985   0.828
 7621SOL    HW223763   5.715   4.877   0.764
 7622SOL     OW23764   2.531   3.759   0.578
 7622SOL    HW123765   2.603   3.766   0.647
 7622SOL    HW223766   2.572   3.743   0.488
 7623SOL     OW23767   5.166   4.874   3.243
 7623SOL    HW123768   5.132   4.968   3.241
 7623SOL    HW223769   5.088   4.811   3.235
 7624SOL     OW23770   6.874   2.822   2.959
 7624SOL    HW123771   6.938   2.768   3.013
 7624SOL    HW223772   6.872   2.916   2.993
 7625SOL     OW23773   5.156   0.509   2.207
 7625SOL    HW123774   5.139   0.419   2.247
 7625SOL    HW223775   5.068   0.551   2.182
 7626SOL     OW23776   4.635   6.455   0.313
 7626SOL    HW123777   4.633   6.537   0.370
 7626SOL    HW223778   4.724   6.410   0.321
 7627SOL     OW23779   4.539   2.827   5.617
 7627SOL    HW123780   4.442   2.837   5.592
 7627SOL    HW223781   4.575   2.916   5.645
 7628SOL     OW23782   3.634   2.674   1.114
 7628SOL    HW123783   3.727   2.647   1.090
 7628SOL    HW223784   3.617   2.767   1.083
 7629SOL     OW23785   5.834   3.072   3.934
 7629SOL    HW123786   5.894   2.993   3.949
 7629SOL    HW223787   5.885   3.144   3.887
 7630SOL     OW23788   1.308   6.082   3.617
 7630SOL    HW123789   1.351   6.095   3.527
 7630SOL    HW223790   1.213   6.112   3.612
 7631SOL     OW23791   1.234   1.284   6.598
 7631SOL    HW123792   1.314   1.302   6.541
 7631SOL    HW223793   1.194   1.196   6.572
 7632SOL     OW23794   4.055   5.546   1.191
 7632SOL    HW123795   3.958   5.564   1.209
 7632SOL    HW223796   4.107   5.562   1.275
 7633SOL     OW23797   4.926   0.616   2.115
 7633SOL    HW123798   4.837   0.576   2.094
 7633SOL    HW223799   4.920   0.669   2.199
 7634SOL     OW23800   0.307   1.962   7.016
 7634SOL    HW123801   0.383   2.027   7.014
 7634SOL    HW223802   0.281   1.937   6.922
 7635SOL     OW23803   1.793   2.959   5.904
 7635SOL    HW123804   1.792   2.862   5.884
 7635SOL    HW223805   1.774   3.011   5.821
 7636SOL     OW23806   0.057   2.853   3.531
 7636SOL    HW123807   0.052   2.915   3.454
 7636SOL    HW223808   6.986   2.816   3.551
 7637SOL     OW23809   1.799   4.173   4.782
 7637SOL    HW123810   1.803   4.074   4.769
 7637SOL    HW223811   1.728   4.212   4.723
 7638SOL     OW23812   0.488   6.777   0.752
 7638SOL    HW123813   0.408   6.763   0.693
 7638SOL    HW223814   0.489   6.871   0.785
 7639SOL     OW23815   2.197   5.989   0.644
 7639SOL    HW123816   2.261   5.974   0.569
 7639SOL    HW223817   2.146   5.905   0.663
 7640SOL     OW23818   3.508   0.389   0.868
 7640SOL    HW123819   3.450   0.309   0.882
 7640SOL    HW223820   3.536   0.426   0.957
 7641SOL     OW23821   6.310   4.194   5.511
 7641SOL    HW123822   6.303   4.264   5.440
 7641SOL    HW223823   6.406   4.164   5.519
 7642SOL     OW23824   5.909   1.067   3.972
 7642SOL    HW123825   5.942   1.144   3.917
 7642SOL    HW223826   5.886   1.099   4.063
 7643SOL     OW23827   5.248   2.136   3.930
 7643SOL    HW123828   5.155   2.104   3.945
 7643SOL    HW223829   5.260   2.160   3.834
 7644SOL     OW23830   5.315   3.807   0.557
 7644SOL    HW123831   5.277   3.894   0.523
 7644SOL    HW223832   5.415   3.809   0.548
 7645SOL     OW23833   5.408   4.505   6.362
 7645SOL    HW123834   5.358   4.530   6.279
 7645SOL    HW223835   5.501   4.541   6.357
 7646SOL     OW23836   6.600   1.364   2.357
 7646SOL    HW123837   6.623   1.344   2.262
 7646SOL    HW223838   6.674   1.332   2.417
 7647SOL     OW23839   6.921   1.972   4.124
 7647SOL    HW123840   6.995   1.989   4.059
 7647SOL    HW223841   6.836   1.955   4.074
 7648SOL     OW23842   1.727   2.561   0.794
 7648SOL    HW123843   1.720   2.470   0.753
 7648SOL    HW223844   1.641   2.611   0.782
 7649SOL     OW23845   4.268   0.651   0.351
 7649SOL    HW123846   4.181   0.608   0.375
 7649SOL    HW223847   4.268   0.746   0.381
 7650SOL     OW23848   3.588   2.734   0.362
 7650SOL    HW123849   3.570   2.684   0.446
 7650SOL    HW223850   3.686   2.747   0.351
 7651SOL     OW23851   3.949   5.509   6.133
 7651SOL    HW123852   3.895   5.509   6.217
 7651SOL    HW223853   3.957   5.602   6.098
 7652SOL     OW23854   0.575   1.130   4.913
 7652SOL    HW123855   0.663   1.128   4.864
 7652SOL    HW223856   0.589   1.101   5.007
 7653SOL     OW23857   2.068   6.832   6.204
 7653SOL    HW123858   1.970   6.837   6.184
 7653SOL    HW223859   2.113   6.776   6.135
 7654SOL     OW23860   6.638   2.744   5.695
 7654SOL    HW123861   6.683   2.810   5.755
 7654SOL    HW223862   6.681   2.746   5.605
 7655SOL     OW23863   2.550   2.100   5.085
 7655SOL    HW123864   2.640   2.123   5.121
 7655SOL    HW223865   2.551   2.107   4.985
 7656SOL     OW23866   6.331   3.397   0.442
 7656SOL    HW123867   6.264   3.457   0.485
 7656SOL    HW223868   6.286   3.312   0.415
 7657SOL     OW23869   1.149   3.932   4.811
 7657SOL    HW123870   1.236   3.914   4.765
 7657SOL    HW223871   1.163   3.930   4.910
 7658SOL     OW23872   2.975   0.422   1.001
 7658SOL    HW123873   2.907   0.364   1.045
 7658SOL    HW223874   3.062   0.414   1.050
 7659SOL     OW23875   5.373   4.129   5.069
 7659SOL    HW123876   5.274   4.126   5.058
 7659SOL    HW223877   5.413   4.044   5.036
 7660SOL     OW23878   0.254   6.327   4.733
 7660SOL    HW123879   0.188   6.263   4.772
 7660SOL    HW223880   0.244   6.416   4.778
 7661SOL     OW23881   1.814   0.387   5.007
 7661SOL    HW123882   1.864   0.304   5.028
 7661SOL    HW223883   1.727   0.388   5.056
 7662SOL     OW23884   6.729   6.670   1.428
 7662SOL    HW123885   6.748   6.640   1.522
 7662SOL    HW223886   6.700   6.592   1.373
 7663SOL     OW23887   1.458   5.872   3.704
 7663SOL    HW123888   1.415   5.947   3.654
 7663SOL    HW223889   1.498   5.908   3.789
 7664SOL     OW23890   5.695   2.417   3.006
 7664SOL    HW123891   5.636   2.454   2.934
 7664SOL    HW223892   5.673   2.320   3.020
 7665SOL     OW23893   1.768   0.044   5.281
 7665SOL    HW123894   1.860   0.006   5.282
 7665SOL    HW223895   1.763   0.121   5.345
 7666SOL     OW23896   6.283   5.549   4.405
 7666SOL    HW123897   6.289   5.470   4.467
 7666SOL    HW223898   6.341   5.622   4.438
 7667SOL     OW23899   4.344   5.659   1.297
 7667SOL    HW123900   4.391   5.622   1.377
 7667SOL    HW223901   4.389   5.627   1.214
 7668SOL     OW23902   1.455   5.312   0.584
 7668SOL    HW123903   1.537   5.369   0.576
 7668SOL    HW223904   1.442   5.286   0.679
 7669SOL     OW23905   3.852   2.863   6.642
 7669SOL    HW123906   3.912   2.914   6.581
 7669SOL    HW223907   3.838   2.771   6.607
 7670SOL     OW23908   1.140   0.288   0.650
 7670SOL    HW123909   1.227   0.323   0.615
 7670SOL    HW223910   1.146   0.277   0.749
 7671SOL     OW23911   3.717   0.941   2.044
 7671SOL    HW123912   3.744   0.853   2.004
 7671SOL    HW223913   3.762   1.015   1.994
 7672SOL     OW23914   5.677   2.947   2.678
 7672SOL    HW123915   5.648   3.004   2.755
 7672SOL    HW223916   5.760   2.898   2.702
 7673SOL     OW23917   1.791   6.679   5.000
 7673SOL    HW123918   1.756   6.662   4.908
 7673SOL    HW223919   1.802   6.592   5.048
 7674SOL     OW23920   3.400   5.318   3.891
 7674SOL    HW123921   3.399   5.418   3.902
 7674SOL    HW223922   3.456   5.294   3.813
 7675SOL     OW23923   3.912   6.841   3.560
 7675SOL    HW123924   3.838   6.908   3.568
 7675SOL    HW223925   3.981   6.875   3.497
 7676SOL     OW23926   3.193   3.090   4.400
 7676SOL    HW123927   3.259   3.160   4.428
 7676SOL    HW223928   3.241   3.011   4.363
 7677SOL     OW23929   0.224   6.592   0.631
 7677SOL    HW123930   0.137   6.565   0.672
 7677SOL    HW223931   0.208   6.635   0.542
 7678SOL     OW23932   3.188   1.040   5.385
 7678SOL    HW123933   3.142   1.013   5.300
 7678SOL    HW223934   3.277   0.994   5.391
 7679SOL     OW23935   3.206   5.833   3.789
 7679SOL    HW123936   3.249   5.894   3.855
 7679SOL    HW223937   3.121   5.796   3.828
 7680SOL     OW23938   1.171   6.667   4.174
 7680SOL    HW123939   1.237   6.725   4.220
 7680SOL    HW223940   1.195   6.570   4.188
 7681SOL     OW23941   2.010   1.654   5.572
 7681SOL    HW123942   2.028   1.742   5.616
 7681SOL    HW223943   1.949   1.668   5.494
 7682SOL     OW23944   3.367   0.257   1.988
 7682SOL    HW123945   3.422   0.236   1.907
 7682SOL    HW223946   3.343   0.354   1.987
 7683SOL     OW23947   1.445   4.262   4.335
 7683SOL    HW123948   1.481   4.355   4.346
 7683SOL    HW223949   1.365   4.250   4.393
 7684SOL     OW23950   4.939   3.656   1.628
 7684SOL    HW123951   4.881   3.731   1.598
 7684SOL    HW223952   4.882   3.583   1.666
 7685SOL     OW23953   2.309   0.216   0.174
 7685SOL    HW123954   2.256   0.298   0.152
 7685SOL    HW223955   2.306   0.153   0.096
 7686SOL     OW23956   6.317   0.812   4.460
 7686SOL    HW123957   6.227   0.855   4.463
 7686SOL    HW223958   6.316   0.727   4.512
 7687SOL     OW23959   5.781   3.761   5.397
 7687SOL    HW123960   5.709   3.829   5.383
 7687SOL    HW223961   5.822   3.775   5.487
 7688SOL     OW23962   6.906   3.593   0.653
 7688SOL    HW123963   6.810   3.616   0.665
 7688SOL    HW223964   6.925   3.506   0.700
 7689SOL     OW23965   5.322   6.863   2.832
 7689SOL    HW123966   5.320   6.904   2.923
 7689SOL    HW223967   5.412   6.823   2.815
 7690SOL     OW23968   6.436   4.336   2.350
 7690SOL    HW123969   6.368   4.301   2.415
 7690SOL    HW223970   6.524   4.294   2.367
 7691SOL     OW23971   5.119   3.039   4.353
 7691SOL    HW123972   5.187   3.107   4.379
 7691SOL    HW223973   5.160   2.947   4.360
 7692SOL     OW23974   2.229   6.376   2.467
 7692SOL    HW123975   2.151   6.416   2.516
 7692SOL    HW223976   2.286   6.450   2.430
 7693SOL     OW23977   2.526   2.522   0.883
 7693SOL    HW123978   2.446   2.579   0.898
 7693SOL    HW223979   2.539   2.461   0.961
 7694SOL     OW23980   4.303   2.476   1.378
 7694SOL    HW123981   4.300   2.432   1.288
 7694SOL    HW223982   4.223   2.535   1.389
 7695SOL     OW23983   5.159   6.534   4.229
 7695SOL    HW123984   5.114   6.457   4.274
 7695SOL    HW223985   5.215   6.500   4.152
 7696SOL     OW23986   2.510   0.916   5.528
 7696SOL    HW123987   2.466   0.955   5.447
 7696SOL    HW223988   2.494   0.976   5.607
 7697SOL     OW23989   5.895   0.179   3.024
 7697SOL    HW123990   5.972   0.213   3.078
 7697SOL    HW223991   5.921   0.092   2.982
 7698SOL     OW23992   5.733   2.213   1.447
 7698SOL    HW123993   5.800   2.266   1.396
 7698SOL    HW223994   5.708   2.131   1.395
 7699SOL     OW23995   3.910   6.041   6.311
 7699SOL    HW123996   3.944   6.022   6.219
 7699SOL    HW223997   3.812   6.062   6.306
 7700SOL     OW23998   6.298   4.965   1.516
 7700SOL    HW123999   6.340   5.052   1.542
 7700SOL    HW224000   6.370   4.896   1.503
 7701SOL     OW24001   3.203   1.828   6.344
 7701SOL    HW124002   3.221   1.798   6.250
 7701SOL    HW224003   3.108   1.857   6.351
 7702SOL     OW24004   6.078   6.175   5.812
 7702SOL    HW124005   6.136   6.132   5.743
 7702SOL    HW224006   6.036   6.257   5.774
 7703SOL     OW24007   0.060   6.255   0.124
 7703SOL    HW124008   0.153   6.287   0.144
 7703SOL    HW224009   0.002   6.272   0.203
 7704SOL     OW24010   1.370   2.589   5.090
 7704SOL    HW124011   1.348   2.491   5.086
 7704SOL    HW224012   1.290   2.642   5.060
 7705SOL     OW24013   0.838   4.376   0.347
 7705SOL    HW124014   0.807   4.304   0.408
 7705SOL    HW224015   0.892   4.443   0.398
 7706SOL     OW24016   3.424   3.813   2.314
 7706SOL    HW124017   3.365   3.759   2.374
 7706SOL    HW224018   3.436   3.905   2.352
 7707SOL     OW24019   6.917   5.638   5.529
 7707SOL    HW124020   6.878   5.555   5.567
 7707SOL    HW224021   6.866   5.665   5.447
 7708SOL     OW24022   0.680   0.229   3.685
 7708SOL    HW124023   0.692   0.326   3.662
 7708SOL    HW224024   0.583   0.211   3.703
 7709SOL     OW24025   6.639   4.460   1.279
 7709SOL    HW124026   6.602   4.476   1.188
 7709SOL    HW224027   6.691   4.375   1.280
 7710SOL     OW24028   6.083   3.518   2.720
 7710SOL    HW124029   5.985   3.531   2.740
 7710SOL    HW224030   6.135   3.591   2.763
 7711SOL     OW24031   1.166   4.905   3.203
 7711SOL    HW124032   1.234   4.834   3.186
 7711SOL    HW224033   1.082   4.883   3.153
 7712SOL     OW24034   1.058   4.614   4.499
 7712SOL    HW124035   1.015   4.671   4.430
 7712SOL    HW224036   1.139   4.660   4.535
 7713SOL     OW24037   0.567   6.049   0.078
 7713SOL    HW124038   0.566   6.133   0.132
 7713SOL    HW224039   0.644   6.051   0.014
 7714SOL     OW24040   5.764   1.703   4.682
 7714SOL    HW124041   5.803   1.616   4.713
 7714SOL    HW224042   5.839   1.767   4.664
 7715SOL     OW24043   3.879   3.476   6.445
 7715SOL    HW124044   3.914   3.430   6.526
 7715SOL    HW224045   3.790   3.517   6.465
 7716SOL     OW24046   2.046   1.016   0.133
 7716SOL    HW124047   2.008   0.927   0.109
 7716SOL    HW224048   2.073   1.065   0.050
 7717SOL     OW24049   0.671   1.997   5.921
 7717SOL    HW124050   0.714   1.917   5.879
 7717SOL    HW224051   0.574   1.979   5.935
 7718SOL     OW24052   0.620   3.550   3.579
 7718SOL    HW124053   0.710   3.565   3.622
 7718SOL    HW224054   0.631   3.541   3.480
 7719SOL     OW24055   2.132   6.408   4.864
 7719SOL    HW124056   2.168   6.356   4.942
 7719SOL    HW224057   2.203   6.417   4.795
 7720SOL     OW24058   4.509   1.145   6.258
 7720SOL    HW124059   4.540   1.224   6.311
 7720SOL    HW224060   4.566   1.066   6.282
 7721SOL     OW24061   5.841   5.394   2.584
 7721SOL    HW124062   5.926   5.349   2.555
 7721SOL    HW224063   5.787   5.418   2.503
 7722SOL     OW24064   0.135   6.106   4.520
 7722SOL    HW124065   0.123   6.204   4.504
 7722SOL    HW224066   0.225   6.089   4.560
 7723SOL     OW24067   3.724   4.652   6.489
 7723SOL    HW124068   3.796   4.586   6.509
 7723SOL    HW224069   3.699   4.646   6.392
 7724SOL     OW24070   1.337   4.342   0.309
 7724SOL    HW124071   1.264   4.315   0.246
 7724SOL    HW224072   1.385   4.260   0.341
 7725SOL     OW24073   5.433   3.182   4.991
 7725SOL    HW124074   5.417   3.084   5.004
 7725SOL    HW224075   5.347   3.231   5.003
 7726SOL     OW24076   1.819   3.030   0.794
 7726SOL    HW124077   1.819   2.941   0.841
 7726SOL    HW224078   1.880   3.092   0.841
 7727SOL     OW24079   5.801   0.485   3.222
 7727SOL    HW124080   5.724   0.433   3.258
 7727SOL    HW224081   5.778   0.582   3.219
 7728SOL     OW24082   2.072   2.987   5.694
 7728SOL    HW124083   2.138   2.983   5.768
 7728SOL    HW224084   2.046   3.083   5.678
 7729SOL     OW24085   0.455   0.905   2.921
 7729SOL    HW124086   0.375   0.952   2.957
 7729SOL    HW224087   0.432   0.810   2.901
 7730SOL     OW24088   5.876   3.219   6.443
 7730SOL    HW124089   5.822   3.135   6.447
 7730SOL    HW224090   5.961   3.202   6.393
 7731SOL     OW24091   6.940   0.726   5.922
 7731SOL    HW124092   0.002   0.680   5.956
 7731SOL    HW224093   6.895   0.668   5.854
 7732SOL     OW24094   4.118   1.273   0.304
 7732SOL    HW124095   4.027   1.255   0.340
 7732SOL    HW224096   4.121   1.248   0.207
 7733SOL     OW24097   5.518   6.143   1.698
 7733SOL    HW124098   5.556   6.124   1.789
 7733SOL    HW224099   5.586   6.190   1.643
 7734SOL     OW24100   3.515   3.847   3.844
 7734SOL    HW124101   3.545   3.837   3.749
 7734SOL    HW224102   3.590   3.884   3.899
 7735SOL     OW24103   0.457   5.584   0.735
 7735SOL    HW124104   0.393   5.584   0.658
 7735SOL    HW224105   0.549   5.562   0.702
 7736SOL     OW24106   2.008   1.752   0.744
 7736SOL    HW124107   2.096   1.716   0.713
 7736SOL    HW224108   1.987   1.716   0.835
 7737SOL     OW24109   4.588   4.343   6.625
 7737SOL    HW124110   4.544   4.415   6.679
 7737SOL    HW224111   4.570   4.358   6.528
 7738SOL     OW24112   1.872   0.977   5.738
 7738SOL    HW124113   1.774   0.986   5.755
 7738SOL    HW224114   1.887   0.919   5.657
 7739SOL     OW24115   0.908   2.937   6.266
 7739SOL    HW124116   0.911   2.944   6.167
 7739SOL    HW224117   0.853   2.857   6.292
 7740SOL     OW24118   2.252   0.798   3.996
 7740SOL    HW124119   2.344   0.837   4.001
 7740SOL    HW224120   2.203   0.819   4.080
 7741SOL     OW24121   6.254   4.256   6.323
 7741SOL    HW124122   6.226   4.160   6.328
 7741SOL    HW224123   6.295   4.275   6.234
 7742SOL     OW24124   4.813   2.742   3.931
 7742SOL    HW124125   4.743   2.681   3.968
 7742SOL    HW224126   4.789   2.767   3.837
 7743SOL     OW24127   3.376   0.924   6.121
 7743SOL    HW124128   3.413   0.952   6.209
 7743SOL    HW224129   3.280   0.953   6.114
 7744SOL     OW24130   0.018   6.205   4.822
 7744SOL    HW124131   0.021   6.196   4.922
 7744SOL    HW224132   6.943   6.213   4.793
 7745SOL     OW24133   2.568   0.149   0.361
 7745SOL    HW124134   2.590   0.188   0.450
 7745SOL    HW224135   2.499   0.077   0.372
 7746SOL     OW24136   6.970   6.280   0.940
 7746SOL    HW124137   0.000   6.229   0.871
 7746SOL    HW224138   6.874   6.251   0.939
 7747SOL     OW24139   6.870   5.739   0.819
 7747SOL    HW124140   6.891   5.741   0.917
 7747SOL    HW224141   6.933   5.677   0.773
 7748SOL     OW24142   4.827   1.017   5.608
 7748SOL    HW124143   4.757   0.990   5.542
 7748SOL    HW224144   4.787   1.021   5.700
 7749SOL     OW24145   3.118   3.531   2.638
 7749SOL    HW124146   3.086   3.533   2.733
 7749SOL    HW224147   3.048   3.492   2.580
 7750SOL     OW24148   5.227   4.060   6.022
 7750SOL    HW124149   5.141   4.095   6.060
 7750SOL    HW224150   5.226   3.960   6.025
 7751SOL     OW24151   0.573   1.405   4.387
 7751SOL    HW124152   0.493   1.424   4.331
 7751SOL    HW224153   0.545   1.388   4.482
 7752SOL     OW24154   5.437   4.205   6.148
 7752SOL    HW124155   5.339   4.202   6.128
 7752SOL    HW224156   5.469   4.114   6.175
 7753SOL     OW24157   2.509   1.179   4.818
 7753SOL    HW124158   2.525   1.103   4.754
 7753SOL    HW224159   2.445   1.151   4.888
 7754SOL     OW24160   6.562   1.531   0.752
 7754SOL    HW124161   6.558   1.611   0.812
 7754SOL    HW224162   6.654   1.521   0.716
 7755SOL     OW24163   1.663   6.439   5.346
 7755SOL    HW124164   1.567   6.418   5.330
 7755SOL    HW224165   1.683   6.430   5.444
 7756SOL     OW24166   3.701   6.352   2.966
 7756SOL    HW124167   3.767   6.427   2.955
 7756SOL    HW224168   3.609   6.386   2.948
 7757SOL     OW24169   3.545   1.126   5.620
 7757SOL    HW124170   3.512   1.033   5.610
 7757SOL    HW224171   3.510   1.183   5.545
 7758SOL     OW24172   2.573   1.063   6.200
 7758SOL    HW124173   2.609   0.987   6.145
 7758SOL    HW224174   2.487   1.094   6.161
 7759SOL     OW24175   2.422   0.078   4.657
 7759SOL    HW124176   2.325   0.093   4.641
 7759SOL    HW224177   2.474   0.098   4.574
 7760SOL     OW24178   5.294   1.784   2.649
 7760SOL    HW124179   5.195   1.792   2.662
 7760SOL    HW224180   5.315   1.698   2.602
 7761SOL     OW24181   4.881   0.795   6.992
 7761SOL    HW124182   4.890   0.731   6.915
 7761SOL    HW224183   4.940   0.874   6.978
 7762SOL     OW24184   1.917   2.168   0.518
 7762SOL    HW124185   1.863   2.204   0.594
 7762SOL    HW224186   1.913   2.068   0.518
 7763SOL     OW24187   2.067   2.780   0.468
 7763SOL    HW124188   2.167   2.782   0.468
 7763SOL    HW224189   2.035   2.714   0.536
 7764SOL     OW24190   3.497   3.378   2.007
 7764SOL    HW124191   3.466   3.290   2.042
 7764SOL    HW224192   3.547   3.364   1.921
 7765SOL     OW24193   0.586   1.462   2.100
 7765SOL    HW124194   0.638   1.548   2.088
 7765SOL    HW224195   0.522   1.452   2.024
 7766SOL     OW24196   6.772   3.319   0.318
 7766SOL    HW124197   6.725   3.313   0.407
 7766SOL    HW224198   6.868   3.340   0.332
 7767SOL     OW24199   6.258   3.808   4.896
 7767SOL    HW124200   6.324   3.882   4.903
 7767SOL    HW224201   6.245   3.767   4.986
 7768SOL     OW24202   4.171   5.043   1.384
 7768SOL    HW124203   4.161   5.079   1.292
 7768SOL    HW224204   4.133   5.109   1.450
 7769SOL     OW24205   4.968   1.728   3.710
 7769SOL    HW124206   4.919   1.675   3.779
 7769SOL    HW224207   4.951   1.689   3.620
 7770SOL     OW24208   2.964   6.540   1.610
 7770SOL    HW124209   3.043   6.486   1.640
 7770SOL    HW224210   2.922   6.497   1.531
 7771SOL     OW24211   2.098   0.511   4.682
 7771SOL    HW124212   2.098   0.611   4.682
 7771SOL    HW224213   2.015   0.477   4.726
 7772SOL     OW24214   5.474   0.764   5.694
 7772SOL    HW124215   5.535   0.842   5.709
 7772SOL    HW224216   5.380   0.795   5.689
 7773SOL     OW24217   4.207   4.422   6.026
 7773SOL    HW124218   4.239   4.361   5.953
 7773SOL    HW224219   4.113   4.398   6.051
 7774SOL     OW24220   4.118   1.643   0.359
 7774SOL    HW124221   4.114   1.735   0.397
 7774SOL    HW224222   4.194   1.638   0.294
 7775SOL     OW24223   1.204   6.376   1.589
 7775SOL    HW124224   1.165   6.287   1.565
 7775SOL    HW224225   1.151   6.448   1.543
 7776SOL     OW24226   3.108   4.346   0.763
 7776SOL    HW124227   3.066   4.323   0.851
 7776SOL    HW224228   3.065   4.291   0.691
 7777SOL     OW24229   0.427   0.581   6.920
 7777SOL    HW124230   0.331   0.562   6.940
 7777SOL    HW224231   0.434   0.630   6.833
 7778SOL     OW24232   5.089   2.201   2.146
 7778SOL    HW124233   5.072   2.136   2.220
 7778SOL    HW224234   5.071   2.157   2.058
 7779SOL     OW24235   4.242   3.202   0.537
 7779SOL    HW124236   4.196   3.263   0.601
 7779SOL    HW224237   4.176   3.136   0.500
 7780SOL     OW24238   1.841   0.718   4.263
 7780SOL    HW124239   1.751   0.712   4.220
 7780SOL    HW224240   1.831   0.748   4.358
 7781SOL     OW24241   2.421   4.184   5.581
 7781SOL    HW124242   2.324   4.172   5.560
 7781SOL    HW224243   2.438   4.279   5.606
 7782SOL     OW24244   5.051   4.520   6.976
 7782SOL    HW124245   5.059   4.422   6.996
 7782SOL    HW224246   4.997   4.565   0.026
 7783SOL     OW24247   3.450   6.073   6.673
 7783SOL    HW124248   3.352   6.084   6.684
 7783SOL    HW224249   3.472   5.976   6.662
 7784SOL     OW24250   6.305   3.127   0.277
 7784SOL    HW124251   6.395   3.146   0.239
 7784SOL    HW224252   6.294   3.029   0.292
 7785SOL     OW24253   1.555   6.404   6.110
 7785SOL    HW124254   1.538   6.374   6.204
 7785SOL    HW224255   1.576   6.501   6.109
 7786SOL     OW24256   3.860   4.076   5.179
 7786SOL    HW124257   3.806   4.041   5.256
 7786SOL    HW224258   3.798   4.106   5.106
 7787SOL     OW24259   3.304   2.001   5.477
 7787SOL    HW124260   3.263   2.093   5.481
 7787SOL    HW224261   3.279   1.957   5.392
 7788SOL     OW24262   6.815   2.632   1.118
 7788SOL    HW124263   6.751   2.708   1.126
 7788SOL    HW224264   6.890   2.644   1.183
 7789SOL     OW24265   0.883   0.334   1.817
 7789SOL    HW124266   0.897   0.235   1.811
 7789SOL    HW224267   0.969   0.378   1.846
 7790SOL     OW24268   6.862   3.639   2.766
 7790SOL    HW124269   6.942   3.580   2.774
 7790SOL    HW224270   6.780   3.588   2.793
 7791SOL     OW24271   6.538   5.560   5.807
 7791SOL    HW124272   6.482   5.614   5.870
 7791SOL    HW224273   6.598   5.499   5.859
 7792SOL     OW24274   1.355   5.707   6.534
 7792SOL    HW124275   1.453   5.694   6.544
 7792SOL    HW224276   1.317   5.736   6.622
 7793SOL     OW24277   2.587   0.195   6.390
 7793SOL    HW124278   2.493   0.175   6.419
 7793SOL    HW224279   2.631   0.252   6.459
 7794SOL     OW24280   5.116   4.673   2.872
 7794SOL    HW124281   5.035   4.705   2.921
 7794SOL    HW224282   5.177   4.626   2.936
 7795SOL     OW24283   1.968   3.706   6.220
 7795SOL    HW124284   2.054   3.751   6.246
 7795SOL    HW224285   1.920   3.763   6.153
 7796SOL     OW24286   4.097   3.593   3.941
 7796SOL    HW124287   4.077   3.691   3.941
 7796SOL    HW224288   4.082   3.556   3.849
 7797SOL     OW24289   1.355   6.114   3.886
 7797SOL    HW124290   1.350   6.100   3.787
 7797SOL    HW224291   1.397   6.202   3.905
 7798SOL     OW24292   5.027   5.236   6.192
 7798SOL    HW124293   4.970   5.192   6.123
 7798SOL    HW224294   5.099   5.289   6.147
 7799SOL     OW24295   5.853   5.739   1.430
 7799SOL    HW124296   5.762   5.767   1.462
 7799SOL    HW224297   5.850   5.642   1.403
 7800SOL     OW24298   0.651   6.303   2.683
 7800SOL    HW124299   0.588   6.252   2.624
 7800SOL    HW224300   0.714   6.356   2.626
 7801SOL     OW24301   4.538   2.377   5.304
 7801SOL    HW124302   4.571   2.324   5.383
 7801SOL    HW224303   4.565   2.473   5.314
 7802SOL     OW24304   5.739   2.330   6.668
 7802SOL    HW124305   5.828   2.345   6.624
 7802SOL    HW224306   5.724   2.400   6.738
 7803SOL     OW24307   3.145   3.230   5.946
 7803SOL    HW124308   3.183   3.138   5.946
 7803SOL    HW224309   3.136   3.262   5.851
 7804SOL     OW24310   4.650   0.710   5.581
 7804SOL    HW124311   4.560   0.753   5.586
 7804SOL    HW224312   4.658   0.640   5.653
 7805SOL     OW24313   5.524   3.298   2.047
 7805SOL    HW124314   5.450   3.292   2.114
 7805SOL    HW224315   5.612   3.287   2.093
 7806SOL     OW24316   5.103   2.479   0.610
 7806SOL    HW124317   5.171   2.442   0.673
 7806SOL    HW224318   5.141   2.484   0.518
 7807SOL     OW24319   0.843   3.857   6.793
 7807SOL    HW124320   0.891   3.889   6.712
 7807SOL    HW224321   0.788   3.932   6.830
 7808SOL     OW24322   0.376   1.693   4.654
 7808SOL    HW124323   0.324   1.776   4.673
 7808SOL    HW224324   0.378   1.677   4.556
 7809SOL     OW24325   1.045   5.852   5.752
 7809SOL    HW124326   1.144   5.844   5.769
 7809SOL    HW224327   1.019   5.791   5.678
 7810SOL     OW24328   3.229   1.266   0.192
 7810SOL    HW124329   3.204   1.238   0.284
 7810SOL    HW224330   3.326   1.247   0.176
 7811SOL     OW24331   6.308   4.533   5.047
 7811SOL    HW124332   6.288   4.438   5.021
 7811SOL    HW224333   6.222   4.583   5.055
 7812SOL     OW24334   0.841   1.921   3.743
 7812SOL    HW124335   0.778   1.931   3.666
 7812SOL    HW224336   0.877   1.827   3.744
 7813SOL     OW24337   5.770   1.127   1.123
 7813SOL    HW124338   5.738   1.153   1.031
 7813SOL    HW224339   5.866   1.099   1.118
 7814SOL     OW24340   1.821   3.037   3.610
 7814SOL    HW124341   1.756   3.046   3.535
 7814SOL    HW224342   1.824   3.123   3.662
 7815SOL     OW24343   6.893   1.969   5.181
 7815SOL    HW124344   6.892   1.998   5.277
 7815SOL    HW224345   6.901   1.870   5.176
 7816SOL     OW24346   0.278   4.434   5.011
 7816SOL    HW124347   0.182   4.408   4.999
 7816SOL    HW224348   0.310   4.402   5.100
 7817SOL     OW24349   5.598   2.861   5.424
 7817SOL    HW124350   5.608   2.772   5.381
 7817SOL    HW224351   5.660   2.926   5.380
 7818SOL     OW24352   5.874   2.762   3.334
 7818SOL    HW124353   5.852   2.752   3.431
 7818SOL    HW224354   5.813   2.704   3.280
 7819SOL     OW24355   1.158   1.183   0.821
 7819SOL    HW124356   1.134   1.243   0.897
 7819SOL    HW224357   1.186   1.094   0.855
 7820SOL     OW24358   2.571   6.473   5.867
 7820SOL    HW124359   2.514   6.414   5.810
 7820SOL    HW224360   2.654   6.424   5.893
 7821SOL     OW24361   3.305   6.128   1.035
 7821SOL    HW124362   3.324   6.139   0.938
 7821SOL    HW224363   3.230   6.188   1.062
 7822SOL     OW24364   0.632   6.696   4.846
 7822SOL    HW124365   0.633   6.772   4.911
 7822SOL    HW224366   0.652   6.611   4.894
 7823SOL     OW24367   2.033   3.357   5.491
 7823SOL    HW124368   2.110   3.332   5.433
 7823SOL    HW224369   2.021   3.456   5.490
 7824SOL     OW24370   1.179   3.293   5.603
 7824SOL    HW124371   1.155   3.311   5.508
 7824SOL    HW224372   1.203   3.197   5.613
 7825SOL     OW24373   2.254   0.937   0.284
 7825SOL    HW124374   2.185   1.006   0.258
 7825SOL    HW224375   2.303   0.906   0.203
 7826SOL     OW24376   0.626   4.298   5.955
 7826SOL    HW124377   0.589   4.250   6.035
 7826SOL    HW224378   0.689   4.238   5.906
 7827SOL     OW24379   6.043   4.953   3.461
 7827SOL    HW124380   6.063   5.013   3.383
 7827SOL    HW224381   6.052   5.004   3.546
 7828SOL     OW24382   1.000   6.304   5.767
 7828SOL    HW124383   1.071   6.294   5.837
 7828SOL    HW224384   0.927   6.238   5.785
 7829SOL     OW24385   4.351   5.041   1.110
 7829SOL    HW124386   4.340   5.119   1.171
 7829SOL    HW224387   4.350   4.956   1.162
 7830SOL     OW24388   1.802   5.489   4.262
 7830SOL    HW124389   1.748   5.562   4.305
 7830SOL    HW224390   1.792   5.404   4.314
 7831SOL     OW24391   1.503   0.242   6.883
 7831SOL    HW124392   1.414   0.214   6.918
 7831SOL    HW224393   1.529   0.329   6.924
 7832SOL     OW24394   0.294   1.212   5.174
 7832SOL    HW124395   0.252   1.152   5.242
 7832SOL    HW224396   0.377   1.253   5.212
 7833SOL     OW24397   0.797   0.674   2.732
 7833SOL    HW124398   0.820   0.721   2.647
 7833SOL    HW224399   0.879   0.660   2.787
 7834SOL     OW24400   0.750   3.337   4.654
 7834SOL    HW124401   0.659   3.362   4.687
 7834SOL    HW224402   0.818   3.362   4.723
 7835SOL     OW24403   3.050   2.839   5.587
 7835SOL    HW124404   2.952   2.825   5.572
 7835SOL    HW224405   3.081   2.920   5.539
 7836SOL     OW24406   2.926   3.645   4.975
 7836SOL    HW124407   3.017   3.604   4.976
 7836SOL    HW224408   2.861   3.583   5.018
 7837SOL     OW24409   0.295   5.615   0.048
 7837SOL    HW124410   0.370   5.556   0.016
 7837SOL    HW224411   0.331   5.679   0.116
 7838SOL     OW24412   3.961   4.912   0.878
 7838SOL    HW124413   3.953   4.939   0.974
 7838SOL    HW224414   4.045   4.951   0.839
 7839SOL     OW24415   5.955   3.894   4.275
 7839SOL    HW124416   5.963   3.916   4.373
 7839SOL    HW224417   5.891   3.818   4.263
 7840SOL     OW24418   2.332   1.994   3.622
 7840SOL    HW124419   2.309   2.084   3.584
 7840SOL    HW224420   2.365   1.935   3.549
 7841SOL     OW24421   4.382   2.387   6.014
 7841SOL    HW124422   4.382   2.439   6.099
 7841SOL    HW224423   4.352   2.293   6.031
 7842SOL     OW24424   0.805   0.454   1.119
 7842SOL    HW124425   0.884   0.493   1.072
 7842SOL    HW224426   0.799   0.356   1.096
 7843SOL     OW24427   6.515   6.293   2.059
 7843SOL    HW124428   6.608   6.256   2.062
 7843SOL    HW224429   6.473   6.283   2.150
 7844SOL     OW24430   3.095   6.737   2.438
 7844SOL    HW124431   3.180   6.782   2.467
 7844SOL    HW224432   3.118   6.649   2.396
 7845SOL     OW24433   6.861   3.492   2.005
 7845SOL    HW124434   6.809   3.417   2.045
 7845SOL    HW224435   6.873   3.476   1.907
 7846SOL     OW24436   0.755   2.055   0.391
 7846SOL    HW124437   0.683   2.072   0.457
 7846SOL    HW224438   0.821   2.131   0.392
 7847SOL     OW24439   5.338   3.687   5.847
 7847SOL    HW124440   5.296   3.774   5.822
 7847SOL    HW224441   5.437   3.692   5.833
 7848SOL     OW24442   4.978   5.128   0.112
 7848SOL    HW124443   4.989   5.070   0.031
 7848SOL    HW224444   5.039   5.096   0.185
 7849SOL     OW24445   4.725   5.339   6.540
 7849SOL    HW124446   4.668   5.322   6.460
 7849SOL    HW224447   4.815   5.371   6.511
 7850SOL     OW24448   6.715   0.601   3.416
 7850SOL    HW124449   6.765   0.562   3.493
 7850SOL    HW224450   6.714   0.536   3.340
 7851SOL     OW24451   1.121   3.841   0.575
 7851SOL    HW124452   1.167   3.773   0.518
 7851SOL    HW224453   1.133   3.932   0.535
 7852SOL     OW24454   1.672   3.519   5.396
 7852SOL    HW124455   1.634   3.530   5.488
 7852SOL    HW224456   1.686   3.421   5.378
 7853SOL     OW24457   4.386   3.182   1.706
 7853SOL    HW124458   4.439   3.128   1.772
 7853SOL    HW224459   4.307   3.222   1.752
 7854SOL     OW24460   4.075   1.062   1.430
 7854SOL    HW124461   4.038   1.146   1.390
 7854SOL    HW224462   4.000   1.007   1.467
 7855SOL     OW24463   4.876   6.267   3.268
 7855SOL    HW124464   4.929   6.318   3.200
 7855SOL    HW224465   4.778   6.273   3.245
 7856SOL     OW24466   1.985   6.250   6.689
 7856SOL    HW124467   1.911   6.254   6.621
 7856SOL    HW224468   2.017   6.156   6.697
 7857SOL     OW24469   6.923   5.214   0.343
 7857SOL    HW124470   6.830   5.214   0.305
 7857SOL    HW224471   6.927   5.153   0.422
 7858SOL     OW24472   0.165   4.127   6.370
 7858SOL    HW124473   0.179   4.028   6.370
 7858SOL    HW224474   0.251   4.173   6.396
 7859SOL     OW24475   4.781   2.526   1.737
 7859SOL    HW124476   4.732   2.575   1.809
 7859SOL    HW224477   4.806   2.435   1.769
 7860SOL     OW24478   2.742   1.622   3.114
 7860SOL    HW124479   2.774   1.714   3.135
 7860SOL    HW224480   2.669   1.628   3.045
 7861SOL     OW24481   1.659   5.525   0.540
 7861SOL    HW124482   1.732   5.586   0.570
 7861SOL    HW224483   1.651   5.529   0.441
 7862SOL     OW24484   0.987   0.369   6.744
 7862SOL    HW124485   0.914   0.431   6.772
 7862SOL    HW224486   0.949   0.277   6.732
 7863SOL     OW24487   0.962   4.630   3.803
 7863SOL    HW124488   0.916   4.698   3.747
 7863SOL    HW224489   0.915   4.623   3.892
 7864SOL     OW24490   2.911   5.463   4.982
 7864SOL    HW124491   2.956   5.441   4.896
 7864SOL    HW224492   2.838   5.529   4.966
 7865SOL     OW24493   6.469   5.495   3.757
 7865SOL    HW124494   6.418   5.434   3.819
 7865SOL    HW224495   6.429   5.587   3.760
 7866SOL     OW24496   0.830   1.193   5.543
 7866SOL    HW124497   0.733   1.172   5.533
 7866SOL    HW224498   0.864   1.150   5.627
 7867SOL     OW24499   4.608   6.086   2.481
 7867SOL    HW124500   4.604   6.058   2.577
 7867SOL    HW224501   4.693   6.138   2.465
 7868SOL     OW24502   4.441   6.264   1.234
 7868SOL    HW124503   4.389   6.345   1.258
 7868SOL    HW224504   4.380   6.185   1.227
 7869SOL     OW24505   5.701   5.129   0.368
 7869SOL    HW124506   5.640   5.159   0.294
 7869SOL    HW224507   5.650   5.069   0.430
 7870SOL     OW24508   6.666   0.492   3.159
 7870SOL    HW124509   6.567   0.484   3.171
 7870SOL    HW224510   6.703   0.406   3.124
 7871SOL     OW24511   4.745   0.526   0.609
 7871SOL    HW124512   4.819   0.558   0.551
 7871SOL    HW224513   4.659   0.570   0.581
 7872SOL     OW24514   6.716   5.313   4.043
 7872SOL    HW124515   6.753   5.246   3.979
 7872SOL    HW224516   6.636   5.357   4.003
 7873SOL     OW24517   4.986   2.200   6.573
 7873SOL    HW124518   4.937   2.229   6.656
 7873SOL    HW224519   5.066   2.147   6.599
 7874SOL     OW24520   6.173   2.414   0.715
 7874SOL    HW124521   6.082   2.436   0.680
 7874SOL    HW224522   6.241   2.477   0.675
 7875SOL     OW24523   6.421   4.809   0.016
 7875SOL    HW124524   6.371   4.779   0.098
 7875SOL    HW224525   6.457   4.901   0.030
 7876SOL     OW24526   1.033   6.732   2.428
 7876SOL    HW124527   0.958   6.681   2.385
 7876SOL    HW224528   0.996   6.803   2.487
 7877SOL     OW24529   0.806   3.305   2.378
 7877SOL    HW124530   0.852   3.236   2.322
 7877SOL    HW224531   0.711   3.315   2.347
 7878SOL     OW24532   3.956   0.365   2.469
 7878SOL    HW124533   3.914   0.454   2.488
 7878SOL    HW224534   3.919   0.328   2.384
 7879SOL     OW24535   2.679   5.731   1.837
 7879SOL    HW124536   2.655   5.826   1.817
 7879SOL    HW224537   2.708   5.724   1.932
 7880SOL     OW24538   1.526   5.078   2.715
 7880SOL    HW124539   1.619   5.100   2.744
 7880SOL    HW224540   1.478   5.162   2.690
 7881SOL     OW24541   4.749   2.880   2.782
 7881SOL    HW124542   4.720   2.882   2.878
 7881SOL    HW224543   4.847   2.860   2.778
 7882SOL     OW24544   6.865   2.795   6.952
 7882SOL    HW124545   6.823   2.795   6.861
 7882SOL    HW224546   6.964   2.805   6.943
 7883SOL     OW24547   0.241   0.208   4.794
 7883SOL    HW124548   0.268   0.112   4.801
 7883SOL    HW224549   0.322   0.266   4.801
 7884SOL     OW24550   1.623   2.676   3.821
 7884SOL    HW124551   1.644   2.774   3.815
 7884SOL    HW224552   1.555   2.662   3.893
 7885SOL     OW24553   6.482   6.189   6.832
 7885SOL    HW124554   6.556   6.192   6.765
 7885SOL    HW224555   6.510   6.132   6.910
 7886SOL     OW24556   4.426   3.083   0.278
 7886SOL    HW124557   4.365   3.159   0.256
 7886SOL    HW224558   4.521   3.114   0.271
 7887SOL     OW24559   4.575   1.969   6.536
 7887SOL    HW124560   4.639   1.977   6.612
 7887SOL    HW224561   4.607   2.026   6.459
 7888SOL     OW24562   4.266   5.896   4.133
 7888SOL    HW124563   4.283   5.953   4.053
 7888SOL    HW224564   4.337   5.910   4.201
 7889SOL     OW24565   6.471   4.488   3.483
 7889SOL    HW124566   6.557   4.533   3.508
 7889SOL    HW224567   6.396   4.554   3.488
 7890SOL     OW24568   2.111   4.054   3.293
 7890SOL    HW124569   2.086   4.001   3.211
 7890SOL    HW224570   2.118   4.151   3.269
 7891SOL     OW24571   0.203   4.193   2.888
 7891SOL    HW124572   0.176   4.273   2.941
 7891SOL    HW224573   0.148   4.188   2.805
 7892SOL     OW24574   2.225   2.460   4.406
 7892SOL    HW124575   2.179   2.549   4.410
 7892SOL    HW224576   2.183   2.398   4.473
 7893SOL     OW24577   5.123   6.183   1.480
 7893SOL    HW124578   5.189   6.108   1.482
 7893SOL    HW224579   5.158   6.260   1.534
 7894SOL     OW24580   3.047   0.060   0.850
 7894SOL    HW124581   3.038   0.077   0.948
 7894SOL    HW224582   2.979   7.013   0.823
 7895SOL     OW24583   1.270   1.908   4.411
 7895SOL    HW124584   1.197   1.908   4.480
 7895SOL    HW224585   1.237   1.950   4.327
 7896SOL     OW24586   3.765   2.158   6.735
 7896SOL    HW124587   3.803   2.139   6.644
 7896SOL    HW224588   3.778   2.255   6.757
 7897SOL     OW24589   3.453   3.604   0.632
 7897SOL    HW124590   3.357   3.630   0.644
 7897SOL    HW224591   3.512   3.682   0.652
 7898SOL     OW24592   4.978   1.020   4.455
 7898SOL    HW124593   4.927   1.097   4.417
 7898SOL    HW224594   5.010   1.043   4.547
 7899SOL     OW24595   4.411   0.690   1.503
 7899SOL    HW124596   4.401   0.719   1.599
 7899SOL    HW224597   4.507   0.692   1.477
 7900SOL     OW24598   0.269   5.760   1.529
 7900SOL    HW124599   0.224   5.680   1.568
 7900SOL    HW224600   0.269   5.835   1.595
 7901SOL     OW24601   5.660   4.660   1.142
 7901SOL    HW124602   5.760   4.661   1.149
 7901SOL    HW224603   5.623   4.587   1.199
 7902SOL     OW24604   4.637   4.984   6.410
 7902SOL    HW124605   4.596   5.074   6.419
 7902SOL    HW224606   4.570   4.914   6.436
 7903SOL     OW24607   0.813   2.590   2.104
 7903SOL    HW124608   0.881   2.611   2.175
 7903SOL    HW224609   0.775   2.676   2.069
 7904SOL     OW24610   5.175   1.653   3.310
 7904SOL    HW124611   5.218   1.634   3.222
 7904SOL    HW224612   5.153   1.750   3.316
 7905SOL     OW24613   2.339   2.377   1.467
 7905SOL    HW124614   2.418   2.359   1.408
 7905SOL    HW224615   2.334   2.307   1.538
 7906SOL     OW24616   1.549   4.323   6.707
 7906SOL    HW124617   1.493   4.309   6.625
 7906SOL    HW224618   1.597   4.239   6.729
 7907SOL     OW24619   0.388   2.640   2.960
 7907SOL    HW124620   0.467   2.697   2.983
 7907SOL    HW224621   0.419   2.549   2.933
 7908SOL     OW24622   0.603   0.963   3.348
 7908SOL    HW124623   0.536   0.973   3.274
 7908SOL    HW224624   0.556   0.958   3.436
 7909SOL     OW24625   4.163   5.861   5.349
 7909SOL    HW124626   4.099   5.787   5.368
 7909SOL    HW224627   4.117   5.932   5.295
 7910SOL     OW24628   6.096   3.125   6.009
 7910SOL    HW124629   6.080   3.095   6.104
 7910SOL    HW224630   6.145   3.212   6.010
 7911SOL     OW24631   6.849   5.998   6.394
 7911SOL    HW124632   6.776   5.977   6.329
 7911SOL    HW224633   6.910   5.919   6.403
 7912SOL     OW24634   6.724   5.571   4.810
 7912SOL    HW124635   6.790   5.496   4.807
 7912SOL    HW224636   6.700   5.598   4.717
 7913SOL     OW24637   1.732   6.112   6.860
 7913SOL    HW124638   1.797   6.072   6.924
 7913SOL    HW224639   1.736   6.211   6.866
 7914SOL     OW24640   5.935   4.136   0.596
 7914SOL    HW124641   5.991   4.213   0.564
 7914SOL    HW224642   5.973   4.102   0.682
 7915SOL     OW24643   2.975   1.545   2.991
 7915SOL    HW124644   2.946   1.530   2.897
 7915SOL    HW224645   2.895   1.563   3.048
 7916SOL     OW24646   3.763   3.598   4.684
 7916SOL    HW124647   3.734   3.530   4.751
 7916SOL    HW224648   3.856   3.629   4.705
 7917SOL     OW24649   3.524   4.174   3.791
 7917SOL    HW124650   3.587   4.170   3.869
 7917SOL    HW224651   3.431   4.158   3.822
 7918SOL     OW24652   6.308   1.774   1.930
 7918SOL    HW124653   6.314   1.762   1.831
 7918SOL    HW224654   6.272   1.865   1.951
 7919SOL     OW24655   5.558   3.681   2.744
 7919SOL    HW124656   5.527   3.648   2.833
 7919SOL    HW224657   5.501   3.758   2.715
 7920SOL     OW24658   6.810   6.536   0.503
 7920SOL    HW124659   6.858   6.609   0.552
 7920SOL    HW224660   6.804   6.455   0.561
 7921SOL     OW24661   3.304   5.006   1.994
 7921SOL    HW124662   3.309   4.926   1.934
 7921SOL    HW224663   3.273   4.978   2.085
 7922SOL     OW24664   1.383   3.771   4.412
 7922SOL    HW124665   1.378   3.735   4.319
 7922SOL    HW224666   1.439   3.854   4.413
 7923SOL     OW24667   1.806   2.874   2.527
 7923SOL    HW124668   1.892   2.868   2.477
 7923SOL    HW224669   1.799   2.963   2.573
 7924SOL     OW24670   2.424   1.878   3.858
 7924SOL    HW124671   2.394   1.930   3.778
 7924SOL    HW224672   2.373   1.908   3.939
 7925SOL     OW24673   1.264   1.733   0.224
 7925SOL    HW124674   1.276   1.655   0.286
 7925SOL    HW224675   1.338   1.733   0.157
 7926SOL     OW24676   3.293   0.578   1.704
 7926SOL    HW124677   3.354   0.653   1.728
 7926SOL    HW224678   3.239   0.604   1.623
 7927SOL     OW24679   4.550   4.860   4.666
 7927SOL    HW124680   4.540   4.776   4.611
 7927SOL    HW224681   4.482   4.927   4.637
 7928SOL     OW24682   0.595   3.906   1.142
 7928SOL    HW124683   0.550   3.909   1.053
 7928SOL    HW224684   0.560   3.828   1.195
 7929SOL     OW24685   3.673   4.160   4.997
 7929SOL    HW124686   3.699   4.144   4.902
 7929SOL    HW224687   3.573   4.162   5.005
 7930SOL     OW24688   3.676   6.929   2.009
 7930SOL    HW124689   3.747   6.905   2.075
 7930SOL    HW224690   3.705   7.009   1.956
 7931SOL     OW24691   2.506   3.192   5.843
 7931SOL    HW124692   2.546   3.148   5.923
 7931SOL    HW224693   2.464   3.123   5.785
 7932SOL     OW24694   3.143   1.735   0.817
 7932SOL    HW124695   3.159   1.767   0.724
 7932SOL    HW224696   3.059   1.777   0.853
 7933SOL     OW24697   1.773   1.058   6.163
 7933SOL    HW124698   1.826   0.975   6.146
 7933SOL    HW224699   1.830   1.125   6.210
 7934SOL     OW24700   4.431   2.339   5.749
 7934SOL    HW124701   4.440   2.372   5.843
 7934SOL    HW224702   4.450   2.414   5.686
 7935SOL     OW24703   4.714   5.150   2.745
 7935SOL    HW124704   4.635   5.177   2.689
 7935SOL    HW224705   4.730   5.052   2.734
 7936SOL     OW24706   4.356   5.732   2.003
 7936SOL    HW124707   4.274   5.678   2.020
 7936SOL    HW224708   4.335   5.829   2.018
 7937SOL     OW24709   5.731   1.945   6.271
 7937SOL    HW124710   5.761   2.018   6.333
 7937SOL    HW224711   5.763   1.965   6.178
 7938SOL     OW24712   6.102   4.611   4.256
 7938SOL    HW124713   6.109   4.706   4.224
 7938SOL    HW224714   6.021   4.568   4.215
 7939SOL     OW24715   6.280   6.070   3.948
 7939SOL    HW124716   6.284   6.084   4.047
 7939SOL    HW224717   6.185   6.075   3.918
 7940SOL     OW24718   1.891   5.798   0.302
 7940SOL    HW124719   1.892   5.741   0.384
 7940SOL    HW224720   1.843   5.884   0.322
 7941SOL     OW24721   1.096   0.330   1.352
 7941SOL    HW124722   1.159   0.405   1.332
 7941SOL    HW224723   1.052   0.300   1.268
 7942SOL     OW24724   0.722   6.419   1.082
 7942SOL    HW124725   0.651   6.450   1.019
 7942SOL    HW224726   0.805   6.473   1.069
 7943SOL     OW24727   6.193   2.215   5.892
 7943SOL    HW124728   6.108   2.263   5.872
 7943SOL    HW224729   6.173   2.120   5.916
 7944SOL     OW24730   6.246   3.934   1.978
 7944SOL    HW124731   6.238   3.936   2.078
 7944SOL    HW224732   6.335   3.971   1.951
 7945SOL     OW24733   6.007   6.247   0.223
 7945SOL    HW124734   5.946   6.168   0.225
 7945SOL    HW224735   5.955   6.328   0.195
 7946SOL     OW24736   2.006   1.512   5.207
 7946SOL    HW124737   1.997   1.506   5.108
 7946SOL    HW224738   1.924   1.476   5.251
 7947SOL     OW24739   3.693   5.579   6.306
 7947SOL    HW124740   3.767   5.642   6.328
 7947SOL    HW224741   3.605   5.626   6.318
 7948SOL     OW24742   1.705   5.129   4.733
 7948SOL    HW124743   1.670   5.051   4.681
 7948SOL    HW224744   1.738   5.097   4.822
 7949SOL     OW24745   6.989   3.653   4.077
 7949SOL    HW124746   6.913   3.705   4.118
 7949SOL    HW224747   0.055   3.683   4.117
 7950SOL     OW24748   2.606   5.865   3.334
 7950SOL    HW124749   2.543   5.857   3.411
 7950SOL    HW224750   2.652   5.777   3.319
 7951SOL     OW24751   2.402   3.268   0.850
 7951SOL    HW124752   2.307   3.299   0.847
 7951SOL    HW224753   2.405   3.168   0.842
 7952SOL     OW24754   6.411   3.469   0.720
 7952SOL    HW124755   6.453   3.546   0.672
 7952SOL    HW224756   6.377   3.500   0.809
 7953SOL     OW24757   1.926   4.481   1.514
 7953SOL    HW124758   1.829   4.503   1.525
 7953SOL    HW224759   1.960   4.438   1.598
 7954SOL     OW24760   5.949   5.634   4.111
 7954SOL    HW124761   5.870   5.578   4.085
 7954SOL    HW224762   5.927   5.730   4.098
 7955SOL     OW24763   1.600   6.477   6.537
 7955SOL    HW124764   1.674   6.414   6.514
 7955SOL    HW224765   1.598   6.493   6.635
 7956SOL     OW24766   5.330   6.061   3.495
 7956SOL    HW124767   5.312   5.991   3.426
 7956SOL    HW224768   5.243   6.100   3.526
 7957SOL     OW24769   1.456   3.029   1.328
 7957SOL    HW124770   1.465   2.935   1.362
 7957SOL    HW224771   1.411   3.027   1.238
 7958SOL     OW24772   1.983   5.837   3.307
 7958SOL    HW124773   1.961   5.743   3.280
 7958SOL    HW224774   1.907   5.875   3.360
 7959SOL     OW24775   4.330   4.768   1.177
 7959SOL    HW124776   4.400   4.717   1.127
 7959SOL    HW224777   4.249   4.711   1.188
 7960SOL     OW24778   1.881   2.286   1.127
 7960SOL    HW124779   1.808   2.221   1.105
 7960SOL    HW224780   1.957   2.238   1.170
 7961SOL     OW24781   1.349   6.192   0.252
 7961SOL    HW124782   1.267   6.211   0.305
 7961SOL    HW224783   1.389   6.106   0.282
 7962SOL     OW24784   1.903   6.958   2.614
 7962SOL    HW124785   1.881   6.882   2.553
 7962SOL    HW224786   1.850   6.950   2.699
 7963SOL     OW24787   0.046   6.209   5.924
 7963SOL    HW124788   6.984   6.157   5.899
 7963SOL    HW224789   0.095   6.162   5.997
 7964SOL     OW24790   6.114   5.430   3.846
 7964SOL    HW124791   6.044   5.387   3.903
 7964SOL    HW224792   6.204   5.404   3.879
 7965SOL     OW24793   4.182   1.657   1.187
 7965SOL    HW124794   4.268   1.616   1.155
 7965SOL    HW224795   4.105   1.607   1.149
 7966SOL     OW24796   0.061   1.719   4.536
 7966SOL    HW124797   0.104   1.630   4.518
 7966SOL    HW224798   0.008   1.748   4.456
 7967SOL     OW24799   2.003   0.499   4.265
 7967SOL    HW124800   1.931   0.568   4.273
 7967SOL    HW224801   1.977   0.432   4.195
 7968SOL     OW24802   2.180   1.043   6.908
 7968SOL    HW124803   2.259   1.019   6.964
 7968SOL    HW224804   2.194   1.133   6.866
 7969SOL     OW24805   4.312   2.124   3.335
 7969SOL    HW124806   4.280   2.033   3.311
 7969SOL    HW224807   4.409   2.132   3.313
 7970SOL     OW24808   0.661   4.854   3.153
 7970SOL    HW124809   0.708   4.875   3.238
 7970SOL    HW224810   0.589   4.786   3.169
 7971SOL     OW24811   3.629   1.849   2.826
 7971SOL    HW124812   3.572   1.921   2.788
 7971SOL    HW224813   3.587   1.813   2.909
 7972SOL     OW24814   5.366   5.561   1.072
 7972SOL    HW124815   5.344   5.556   1.169
 7972SOL    HW224816   5.450   5.614   1.059
 7973SOL     OW24817   5.562   1.829   2.732
 7973SOL    HW124818   5.645   1.874   2.699
 7973SOL    HW224819   5.493   1.830   2.660
 7974SOL     OW24820   4.418   6.206   4.563
 7974SOL    HW124821   4.488   6.145   4.527
 7974SOL    HW224822   4.411   6.193   4.662
 7975SOL     OW24823   2.090   1.639   2.216
 7975SOL    HW124824   2.079   1.726   2.170
 7975SOL    HW224825   2.079   1.564   2.151
 7976SOL     OW24826   0.351   6.590   6.326
 7976SOL    HW124827   0.253   6.582   6.310
 7976SOL    HW224828   0.367   6.657   6.399
 7977SOL     OW24829   5.449   6.128   1.195
 7977SOL    HW124830   5.459   6.173   1.284
 7977SOL    HW224831   5.365   6.159   1.151
 7978SOL     OW24832   2.888   1.511   6.226
 7978SOL    HW124833   2.878   1.543   6.132
 7978SOL    HW224834   2.817   1.552   6.283
 7979SOL     OW24835   4.709   5.636   3.739
 7979SOL    HW124836   4.677   5.649   3.645
 7979SOL    HW224837   4.677   5.548   3.773
 7980SOL     OW24838   2.892   1.026   1.271
 7980SOL    HW124839   2.831   1.033   1.192
 7980SOL    HW224840   2.983   0.996   1.240
 7981SOL     OW24841   0.081   6.132   2.484
 7981SOL    HW124842   0.053   6.084   2.567
 7981SOL    HW224843   0.136   6.071   2.428
 7982SOL     OW24844   0.372   2.778   1.357
 7982SOL    HW124845   0.425   2.730   1.288
 7982SOL    HW224846   0.368   2.723   1.440
 7983SOL     OW24847   5.364   1.899   0.763
 7983SOL    HW124848   5.460   1.914   0.785
 7983SOL    HW224849   5.321   1.985   0.737
 7984SOL     OW24850   6.187   0.759   0.033
 7984SOL    HW124851   6.148   0.739   0.123
 7984SOL    HW224852   6.133   0.831   7.009
 7985SOL     OW24853   0.787   1.351   0.879
 7985SOL    HW124854   0.809   1.275   0.818
 7985SOL    HW224855   0.690   1.373   0.871
 7986SOL     OW24856   4.940   3.511   0.926
 7986SOL    HW124857   4.972   3.592   0.877
 7986SOL    HW224858   4.949   3.430   0.868
 7987SOL     OW24859   1.282   3.741   5.308
 7987SOL    HW124860   1.381   3.729   5.308
 7987SOL    HW224861   1.243   3.700   5.226
 7988SOL     OW24862   2.361   1.154   5.073
 7988SOL    HW124863   2.415   1.229   5.110
 7988SOL    HW224864   2.266   1.183   5.065
 7989SOL     OW24865   3.094   3.428   0.041
 7989SOL    HW124866   3.052   3.466   6.979
 7989SOL    HW224867   3.135   3.340   0.019
 7990SOL     OW24868   2.216   2.854   4.554
 7990SOL    HW124869   2.244   2.780   4.615
 7990SOL    HW224870   2.116   2.863   4.554
 7991SOL     OW24871   2.274   3.433   6.370
 7991SOL    HW124872   2.295   3.474   6.281
 7991SOL    HW224873   2.188   3.382   6.364
 7992SOL     OW24874   3.147   1.182   6.979
 7992SOL    HW124875   3.150   1.263   6.921
 7992SOL    HW224876   3.186   1.203   0.048
 7993SOL     OW24877   3.341   5.951   6.226
 7993SOL    HW124878   3.336   6.050   6.216
 7993SOL    HW224879   3.266   5.909   6.175
 7994SOL     OW24880   5.748   0.307   4.930
 7994SOL    HW124881   5.750   0.315   4.830
 7994SOL    HW224882   5.769   0.396   4.971
 7995SOL     OW24883   4.250   4.972   2.324
 7995SOL    HW124884   4.244   5.064   2.363
 7995SOL    HW224885   4.301   4.975   2.239
 7996SOL     OW24886   4.411   1.842   5.417
 7996SOL    HW124887   4.498   1.890   5.404
 7996SOL    HW224888   4.419   1.749   5.379
 7997SOL     OW24889   5.302   3.189   0.948
 7997SOL    HW124890   5.224   3.136   0.914
 7997SOL    HW224891   5.274   3.283   0.965
 7998SOL     OW24892   6.930   5.447   6.369
 7998SOL    HW124893   6.886   5.366   6.330
 7998SOL    HW224894   6.943   5.434   6.467
 7999SOL     OW24895   2.953   2.412   5.997
 7999SOL    HW124896   3.012   2.405   5.917
 7999SOL    HW224897   2.904   2.326   6.009
 8000SOL     OW24898   5.164   0.631   5.370
 8000SOL    HW124899   5.129   0.562   5.433
 8000SOL    HW224900   5.152   0.599   5.276
 8001SOL     OW24901   2.567   4.827   1.266
 8001SOL    HW124902   2.548   4.762   1.339
 8001SOL    HW224903   2.622   4.782   1.195
 8002SOL     OW24904   4.368   2.065   5.585
 8002SOL    HW124905   4.359   1.977   5.539
 8002SOL    HW224906   4.373   2.051   5.684
 8003SOL     OW24907   5.169   5.361   2.900
 8003SOL    HW124908   5.174   5.264   2.919
 8003SOL    HW224909   5.138   5.410   2.981
 8004SOL     OW24910   1.416   5.022   3.548
 8004SOL    HW124911   1.455   5.057   3.463
 8004SOL    HW224912   1.467   5.061   3.625
 8005SOL     OW24913   2.452   1.198   2.545
 8005SOL    HW124914   2.469   1.172   2.640
 8005SOL    HW224915   2.378   1.142   2.508
 8006SOL     OW24916   4.741   5.688   2.679
 8006SOL    HW124917   4.771   5.656   2.769
 8006SOL    HW224918   4.793   5.769   2.653
 8007SOL     OW24919   0.655   1.203   3.575
 8007SOL    HW124920   0.565   1.213   3.532
 8007SOL    HW224921   0.643   1.184   3.672
 8008SOL     OW24922   6.256   4.563   1.407
 8008SOL    HW124923   6.255   4.608   1.318
 8008SOL    HW224924   6.348   4.568   1.446
 8009SOL     OW24925   6.778   6.240   3.234
 8009SOL    HW124926   6.686   6.247   3.194
 8009SOL    HW224927   6.792   6.316   3.298
 8010SOL     OW24928   2.039   1.719   6.869
 8010SOL    HW124929   2.107   1.754   6.933
 8010SOL    HW224930   2.074   1.635   6.827
 8011SOL     OW24931   1.929   3.280   0.201
 8011SOL    HW124932   1.996   3.269   0.128
 8011SOL    HW224933   1.840   3.306   0.161
 8012SOL     OW24934   1.802   5.994   3.430
 8012SOL    HW124935   1.737   6.011   3.356
 8012SOL    HW224936   1.791   6.065   3.500
 8013SOL     OW24937   6.648   5.826   4.210
 8013SOL    HW124938   6.748   5.824   4.212
 8013SOL    HW224939   6.618   5.888   4.138
 8014SOL     OW24940   2.324   0.472   6.264
 8014SOL    HW124941   2.336   0.477   6.363
 8014SOL    HW224942   2.413   0.471   6.218
 8015SOL     OW24943   1.935   1.340   0.847
 8015SOL    HW124944   2.027   1.336   0.886
 8015SOL    HW224945   1.941   1.371   0.752
 8016SOL     OW24946   4.672   5.257   1.866
 8016SOL    HW124947   4.681   5.216   1.775
 8016SOL    HW224948   4.738   5.331   1.876
 8017SOL     OW24949   6.545   3.965   4.771
 8017SOL    HW124950   6.469   4.023   4.799
 8017SOL    HW224951   6.588   4.002   4.689
 8018SOL     OW24952   4.768   3.030   3.944
 8018SOL    HW124953   4.792   2.934   3.928
 8018SOL    HW224954   4.672   3.035   3.974
 8019SOL     OW24955   3.351   5.107   1.063
 8019SOL    HW124956   3.372   5.200   1.034
 8019SOL    HW224957   3.307   5.108   1.153
 8020SOL     OW24958   5.167   6.722   7.019
 8020SOL    HW124959   5.100   6.738   0.072
 8020SOL    HW224960   5.119   6.712   6.932
 8021SOL     OW24961   6.669   1.030   2.135
 8021SOL    HW124962   6.598   1.030   2.206
 8021SOL    HW224963   6.755   1.063   2.174
 8022SOL     OW24964   5.774   4.986   4.253
 8022SOL    HW124965   5.782   5.085   4.247
 8022SOL    HW224966   5.848   4.951   4.312
 8023SOL     OW24967   0.167   5.407   3.670
 8023SOL    HW124968   0.154   5.373   3.764
 8023SOL    HW224969   0.220   5.491   3.672
 8024SOL     OW24970   4.501   5.779   3.854
 8024SOL    HW124971   4.572   5.717   3.821
 8024SOL    HW224972   4.498   5.860   3.795
 8025SOL     OW24973   2.469   5.912   0.009
 8025SOL    HW124974   2.407   5.886   0.083
 8025SOL    HW224975   2.415   5.929   6.946
 8026SOL     OW24976   2.991   1.889   6.902
 8026SOL    HW124977   3.027   1.929   6.817
 8026SOL    HW224978   3.058   1.903   6.975
 8027SOL     OW24979   4.313   3.666   5.706
 8027SOL    HW124980   4.218   3.644   5.683
 8027SOL    HW224981   4.358   3.707   5.627
 8028SOL     OW24982   5.958   4.532   0.982
 8028SOL    HW124983   5.955   4.594   1.060
 8028SOL    HW224984   6.028   4.562   0.917
 8029SOL     OW24985   3.566   4.562   5.920
 8029SOL    HW124986   3.510   4.561   6.002
 8029SOL    HW224987   3.582   4.469   5.889
 8030SOL     OW24988   0.235   3.760   2.074
 8030SOL    HW124989   0.199   3.668   2.087
 8030SOL    HW224990   0.309   3.758   2.007
 8031SOL     OW24991   3.846   6.318   0.252
 8031SOL    HW124992   3.851   6.267   0.338
 8031SOL    HW224993   3.935   6.318   0.207
 8032SOL     OW24994   4.642   3.338   5.417
 8032SOL    HW124995   4.707   3.391   5.471
 8032SOL    HW224996   4.674   3.332   5.322
 8033SOL     OW24997   6.118   1.197   2.309
 8033SOL    HW124998   6.040   1.254   2.284
 8033SOL    HW224999   6.200   1.254   2.320
 8034SOL     OW25000   6.367   2.730   5.587
 8034SOL    HW125001   6.297   2.785   5.633
 8034SOL    HW225002   6.447   2.722   5.646
 8035SOL     OW25003   5.652   5.952   5.927
 8035SOL    HW125004   5.572   5.903   5.961
 8035SOL    HW225005   5.667   6.033   5.984
 8036SOL     OW25006   1.132   3.659   1.679
 8036SOL    HW125007   1.164   3.696   1.592
 8036SOL    HW225008   1.190   3.692   1.754
 8037SOL     OW25009   2.175   2.984   1.986
 8037SOL    HW125010   2.218   2.944   1.905
 8037SOL    HW225011   2.166   3.083   1.973
 8038SOL     OW25012   5.647   0.693   3.689
 8038SOL    HW125013   5.742   0.674   3.664
 8038SOL    HW225014   5.635   0.679   3.788
 8039SOL     OW25015   2.108   5.438   3.250
 8039SOL    HW125016   2.043   5.514   3.243
 8039SOL    HW225017   2.157   5.444   3.336
 8040SOL     OW25018   5.992   6.565   6.425
 8040SOL    HW125019   5.907   6.513   6.438
 8040SOL    HW225020   6.017   6.564   6.328
 8041SOL     OW25021   3.081   2.878   1.060
 8041SOL    HW125022   3.023   2.797   1.071
 8041SOL    HW225023   3.068   2.939   1.137
 8042SOL     OW25024   1.580   4.593   6.855
 8042SOL    HW125025   1.657   4.552   6.904
 8042SOL    HW225026   1.545   4.528   6.788
 8043SOL     OW25027   3.046   0.696   0.840
 8043SOL    HW125028   3.018   0.603   0.863
 8043SOL    HW225029   2.967   0.757   0.843
 8044SOL     OW25030   3.260   2.618   1.661
 8044SOL    HW125031   3.330   2.688   1.647
 8044SOL    HW225032   3.191   2.654   1.724
 8045SOL     OW25033   5.499   2.617   4.058
 8045SOL    HW125034   5.519   2.519   4.055
 8045SOL    HW225035   5.472   2.648   3.967
 8046SOL     OW25036   6.300   5.619   5.039
 8046SOL    HW125037   6.366   5.669   4.982
 8046SOL    HW225038   6.224   5.589   4.982
 8047SOL     OW25039   2.858   6.830   4.271
 8047SOL    HW125040   2.955   6.806   4.273
 8047SOL    HW225041   2.831   6.867   4.359
 8048SOL     OW25042   5.368   0.257   5.407
 8048SOL    HW125043   5.397   0.182   5.348
 8048SOL    HW225044   5.324   0.220   5.489
 8049SOL     OW25045   2.392   6.393   6.301
 8049SOL    HW125046   2.342   6.465   6.349
 8049SOL    HW225047   2.340   6.308   6.306
 8050SOL     OW25048   0.468   3.708   1.949
 8050SOL    HW125049   0.562   3.679   1.967
 8050SOL    HW225050   0.427   3.650   1.879
 8051SOL     OW25051   2.467   2.631   4.263
 8051SOL    HW125052   2.443   2.580   4.180
 8051SOL    HW225053   2.565   2.650   4.263
 8052SOL     OW25054   4.031   1.248   2.852
 8052SOL    HW125055   4.064   1.154   2.862
 8052SOL    HW225056   4.021   1.270   2.754
 8053SOL     OW25057   4.871   3.857   1.404
 8053SOL    HW125058   4.920   3.802   1.337
 8053SOL    HW225059   4.773   3.846   1.392
 8054SOL     OW25060   5.035   6.529   4.521
 8054SOL    HW125061   5.079   6.450   4.564
 8054SOL    HW225062   5.011   6.595   4.592
 8055SOL     OW25063   1.469   0.067   5.013
 8055SOL    HW125064   1.554   0.014   5.022
 8055SOL    HW225065   1.486   0.147   4.955
 8056SOL     OW25066   4.757   1.168   2.834
 8056SOL    HW125067   4.665   1.158   2.872
 8056SOL    HW225068   4.807   1.237   2.886
 8057SOL     OW25069   3.540   0.034   3.849
 8057SOL    HW125070   3.449   0.009   3.816
 8057SOL    HW225071   3.609   7.005   3.796
 8058SOL     OW25072   1.885   0.143   3.005
 8058SOL    HW125073   1.851   0.064   3.056
 8058SOL    HW225074   1.973   0.122   2.964
 8059SOL     OW25075   1.551   1.337   4.364
 8059SOL    HW125076   1.599   1.275   4.426
 8059SOL    HW225077   1.590   1.328   4.272
 8060SOL     OW25078   0.971   2.876   5.318
 8060SOL    HW125079   0.945   2.967   5.284
 8060SOL    HW225080   0.889   2.819   5.326
 8061SOL     OW25081   5.410   6.599   3.331
 8061SOL    HW125082   5.392   6.511   3.376
 8061SOL    HW225083   5.330   6.658   3.340
 8062SOL     OW25084   1.879   1.628   1.217
 8062SOL    HW125085   1.897   1.592   1.309
 8062SOL    HW225086   1.793   1.591   1.183
 8063SOL     OW25087   2.793   2.180   5.931
 8063SOL    HW125088   2.847   2.129   5.864
 8063SOL    HW225089   2.718   2.226   5.885
 8064SOL     OW25090   5.316   2.111   6.039
 8064SOL    HW125091   5.399   2.061   6.013
 8064SOL    HW225092   5.275   2.152   5.958
 8065SOL     OW25093   4.506   0.756   6.536
 8065SOL    HW125094   4.499   0.659   6.511
 8065SOL    HW225095   4.546   0.764   6.627
 8066SOL     OW25096   0.603   0.276   1.605
 8066SOL    HW125097   0.583   0.192   1.554
 8066SOL    HW225098   0.681   0.322   1.563
 8067SOL     OW25099   4.604   1.684   2.714
 8067SOL    HW125100   4.540   1.658   2.641
 8067SOL    HW225101   4.648   1.770   2.690
 8068SOL     OW25102   6.760   4.356   3.406
 8068SOL    HW125103   6.816   4.423   3.455
 8068SOL    HW225104   6.674   4.399   3.378
 8069SOL     OW25105   6.911   5.805   2.471
 8069SOL    HW125106   7.009   5.783   2.476
 8069SOL    HW225107   6.875   5.776   2.383
 8070SOL     OW25108   3.829   0.594   2.450
 8070SOL    HW125109   3.892   0.659   2.409
 8070SOL    HW225110   3.750   0.644   2.488
 8071SOL     OW25111   5.730   4.788   0.097
 8071SOL    HW125112   5.650   4.834   0.058
 8071SOL    HW225113   5.811   4.808   0.042
 8072SOL     OW25114   3.745   0.039   3.609
 8072SOL    HW125115   3.813   0.108   3.583
 8072SOL    HW225116   3.662   0.053   3.555
 8073SOL     OW25117   5.337   0.327   6.398
 8073SOL    HW125118   5.339   0.319   6.497
 8073SOL    HW225119   5.242   0.327   6.367
 8074SOL     OW25120   3.044   4.688   0.326
 8074SOL    HW125121   2.972   4.618   0.319
 8074SOL    HW225122   3.133   4.645   0.314
 8075SOL     OW25123   6.576   1.634   3.904
 8075SOL    HW125124   6.501   1.569   3.904
 8075SOL    HW225125   6.659   1.591   3.868
 8076SOL     OW25126   4.820   2.604   6.839
 8076SOL    HW125127   4.797   2.701   6.827
 8076SOL    HW225128   4.773   2.568   6.919
 8077SOL     OW25129   0.700   0.500   6.778
 8077SOL    HW125130   0.650   0.580   6.744
 8077SOL    HW225131   0.647   0.417   6.759
 8078SOL     OW25132   6.434   4.199   1.053
 8078SOL    HW125133   6.359   4.155   1.102
 8078SOL    HW225134   6.490   4.129   1.009
 8079SOL     OW25135   1.667   3.063   0.370
 8079SOL    HW125136   1.629   3.149   0.402
 8079SOL    HW225137   1.737   3.031   0.433
 8080SOL     OW25138   3.616   4.713   0.127
 8080SOL    HW125139   3.598   4.695   0.030
 8080SOL    HW225140   3.597   4.631   0.181
 8081SOL     OW25141   5.539   2.513   4.463
 8081SOL    HW125142   5.568   2.605   4.438
 8081SOL    HW225143   5.466   2.483   4.401
 8082SOL     OW25144   6.905   3.552   5.078
 8082SOL    HW125145   6.911   3.615   5.001
 8082SOL    HW225146   6.879   3.461   5.046
 8083SOL     OW25147   6.780   1.714   4.884
 8083SOL    HW125148   6.797   1.649   4.810
 8083SOL    HW225149   6.722   1.789   4.850
 8084SOL     OW25150   5.610   6.975   6.661
 8084SOL    HW125151   5.645   6.995   6.570
 8084SOL    HW225152   5.557   6.890   6.658
 8085SOL     OW25153   5.314   2.576   1.829
 8085SOL    HW125154   5.281   2.666   1.800
 8085SOL    HW225155   5.379   2.541   1.762
 8086SOL     OW25156   3.403   5.242   6.502
 8086SOL    HW125157   3.348   5.165   6.534
 8086SOL    HW225158   3.445   5.288   6.580
 8087SOL     OW25159   1.815   3.793   0.633
 8087SOL    HW125160   1.914   3.808   0.641
 8087SOL    HW225161   1.770   3.880   0.615
 8088SOL     OW25162   4.956   0.466   3.007
 8088SOL    HW125163   4.875   0.506   3.051
 8088SOL    HW225164   4.928   0.387   2.953
 8089SOL     OW25165   6.938   2.440   0.178
 8089SOL    HW125166   7.002   2.380   0.226
 8089SOL    HW225167   6.982   2.529   0.162
 8090SOL     OW25168   5.474   1.448   4.893
 8090SOL    HW125169   5.377   1.429   4.882
 8090SOL    HW225170   5.495   1.464   4.990
 8091SOL     OW25171   1.885   3.545   5.139
 8091SOL    HW125172   1.907   3.612   5.210
 8091SOL    HW225173   1.969   3.503   5.105
 8092SOL     OW25174   6.041   2.322   3.896
 8092SOL    HW125175   6.062   2.234   3.855
 8092SOL    HW225176   6.072   2.323   3.991
 8093SOL     OW25177   6.027   4.759   0.617
 8093SOL    HW125178   6.087   4.822   0.567
 8093SOL    HW225179   5.950   4.810   0.654
 8094SOL     OW25180   0.830   3.268   4.180
 8094SOL    HW125181   0.780   3.236   4.099
 8094SOL    HW225182   0.929   3.264   4.161
 8095SOL     OW25183   6.563   3.363   5.194
 8095SOL    HW125184   6.567   3.452   5.149
 8095SOL    HW225185   6.639   3.354   5.259
 8096SOL     OW25186   3.737   0.141   0.651
 8096SOL    HW125187   3.799   0.106   0.580
 8096SOL    HW225188   3.692   0.064   0.696
 8097SOL     OW25189   5.246   2.200   3.685
 8097SOL    HW125190   5.285   2.271   3.627
 8097SOL    HW225191   5.211   2.126   3.627
 8098SOL     OW25192   2.191   2.353   3.903
 8098SOL    HW125193   2.107   2.407   3.902
 8098SOL    HW225194   2.175   2.268   3.953
 8099SOL     OW25195   4.084   0.254   4.450
 8099SOL    HW125196   4.183   0.251   4.464
 8099SOL    HW225197   4.060   0.202   4.368
 8100SOL     OW25198   5.972   6.485   1.380
 8100SOL    HW125199   6.061   6.475   1.424
 8100SOL    HW225200   5.977   6.557   1.310
 8101SOL     OW25201   1.397   4.838   2.581
 8101SOL    HW125202   1.435   4.818   2.491
 8101SOL    HW225203   1.421   4.931   2.608
 8102SOL     OW25204   6.700   0.405   5.351
 8102SOL    HW125205   6.612   0.439   5.383
 8102SOL    HW225206   6.774   0.463   5.388
 8103SOL     OW25207   2.743   2.235   2.410
 8103SOL    HW125208   2.836   2.243   2.375
 8103SOL    HW225209   2.679   2.225   2.334
 8104SOL     OW25210   2.704   0.145   5.974
 8104SOL    HW125211   2.693   0.227   6.029
 8104SOL    HW225212   2.751   0.075   6.028
 8105SOL     OW25213   2.486   2.456   2.453
 8105SOL    HW125214   2.569   2.464   2.398
 8105SOL    HW225215   2.507   2.474   2.549
 8106SOL     OW25216   0.360   4.291   6.455
 8106SOL    HW125217   0.330   4.324   6.544
 8106SOL    HW225218   0.387   4.369   6.398
 8107SOL     OW25219   0.621   5.066   6.666
 8107SOL    HW125220   0.656   5.035   6.754
 8107SOL    HW225221   0.531   5.108   6.678
 8108SOL     OW25222   2.008   2.116   6.208
 8108SOL    HW125223   2.010   2.062   6.293
 8108SOL    HW225224   2.096   2.108   6.162
 8109SOL     OW25225   0.327   5.775   5.116
 8109SOL    HW125226   0.248   5.836   5.121
 8109SOL    HW225227   0.372   5.771   5.205
 8110SOL     OW25228   0.908   4.811   0.189
 8110SOL    HW125229   0.966   4.765   0.122
 8110SOL    HW225230   0.937   4.785   0.281
 8111SOL     OW25231   3.352   6.454   4.537
 8111SOL    HW125232   3.418   6.494   4.474
 8111SOL    HW225233   3.326   6.522   4.606
 8112SOL     OW25234   3.953   1.784   4.492
 8112SOL    HW125235   3.977   1.704   4.437
 8112SOL    HW225236   3.854   1.792   4.497
 8113SOL     OW25237   3.144   2.165   6.308
 8113SOL    HW125238   3.234   2.170   6.263
 8113SOL    HW225239   3.123   2.254   6.350
 8114SOL     OW25240   2.970   3.651   1.355
 8114SOL    HW125241   3.006   3.714   1.286
 8114SOL    HW225242   2.916   3.580   1.310
 8115SOL     OW25243   4.116   2.668   1.272
 8115SOL    HW125244   4.086   2.752   1.315
 8115SOL    HW225245   4.049   2.596   1.289
 8116SOL     OW25246   5.854   1.863   5.752
 8116SOL    HW125247   5.783   1.793   5.756
 8116SOL    HW225248   5.853   1.916   5.837
 8117SOL     OW25249   3.042   2.803   5.279
 8117SOL    HW125250   2.953   2.781   5.318
 8117SOL    HW225251   3.111   2.742   5.315
 8118SOL     OW25252   1.008   2.150   4.238
 8118SOL    HW125253   0.988   2.193   4.326
 8118SOL    HW225254   0.970   2.057   4.237
 8119SOL     OW25255   1.310   0.130   2.158
 8119SOL    HW125256   1.357   0.219   2.162
 8119SOL    HW225257   1.245   0.124   2.233
 8120SOL     OW25258   4.836   3.956   2.087
 8120SOL    HW125259   4.855   3.938   1.990
 8120SOL    HW225260   4.738   3.951   2.103
 8121SOL     OW25261   6.926   6.132   3.673
 8121SOL    HW125262   6.976   6.168   3.595
 8121SOL    HW225263   6.990   6.084   3.735
 8122SOL     OW25264   0.521   5.070   1.633
 8122SOL    HW125265   0.552   5.030   1.719
 8122SOL    HW225266   0.601   5.090   1.575
 8123SOL     OW25267   1.006   4.888   5.844
 8123SOL    HW125268   1.077   4.948   5.881
 8123SOL    HW225269   0.975   4.825   5.915
 8124SOL     OW25270   1.616   6.066   2.140
 8124SOL    HW125271   1.685   6.135   2.119
 8124SOL    HW225272   1.534   6.083   2.085
 8125SOL     OW25273   4.802   4.895   3.574
 8125SOL    HW125274   4.886   4.914   3.625
 8125SOL    HW225275   4.729   4.956   3.605
 8126SOL     OW25276   0.409   4.547   2.112
 8126SOL    HW125277   0.451   4.462   2.142
 8126SOL    HW225278   0.475   4.599   2.057
 8127SOL     OW25279   4.617   5.336   0.380
 8127SOL    HW125280   4.571   5.387   0.307
 8127SOL    HW225281   4.552   5.275   0.425
 8128SOL     OW25282   3.848   2.168   5.294
 8128SOL    HW125283   3.860   2.101   5.367
 8128SOL    HW225284   3.753   2.201   5.294
 8129SOL     OW25285   5.178   5.046   6.369
 8129SOL    HW125286   5.126   5.092   6.298
 8129SOL    HW225287   5.128   4.965   6.400
 8130SOL     OW25288   0.584   0.506   6.080
 8130SOL    HW125289   0.497   0.461   6.061
 8130SOL    HW225290   0.568   0.586   6.137
 8131SOL     OW25291   2.280   1.699   1.282
 8131SOL    HW125292   2.331   1.619   1.252
 8131SOL    HW225293   2.339   1.757   1.339
 8132SOL     OW25294   5.767   4.566   3.560
 8132SOL    HW125295   5.805   4.548   3.469
 8132SOL    HW225296   5.790   4.491   3.622
 8133SOL     OW25297   0.032   5.437   2.501
 8133SOL    HW125298   6.968   5.399   2.539
 8133SOL    HW225299   0.103   5.438   2.572
 8134SOL     OW25300   3.527   3.299   1.451
 8134SOL    HW125301   3.468   3.286   1.371
 8134SOL    HW225302   3.473   3.338   1.526
 8135SOL     OW25303   4.167   5.884   2.333
 8135SOL    HW125304   4.210   5.972   2.352
 8135SOL    HW225305   4.082   5.877   2.385
 8136SOL     OW25306   2.161   5.454   1.228
 8136SOL    HW125307   2.071   5.466   1.186
 8136SOL    HW225308   2.189   5.358   1.221
 8137SOL     OW25309   3.660   4.434   5.582
 8137SOL    HW125310   3.634   4.530   5.569
 8137SOL    HW225311   3.578   4.380   5.601
 8138SOL     OW25312   4.164   0.736   3.998
 8138SOL    HW125313   4.231   0.733   3.924
 8138SOL    HW225314   4.083   0.786   3.968
 8139SOL     OW25315   1.928   3.250   5.707
 8139SOL    HW125316   1.916   3.333   5.763
 8139SOL    HW225317   1.977   3.274   5.623
 8140SOL     OW25318   5.257   1.642   1.383
 8140SOL    HW125319   5.202   1.700   1.324
 8140SOL    HW225320   5.241   1.546   1.360
 8141SOL     OW25321   6.082   2.019   5.031
 8141SOL    HW125322   6.120   1.937   4.989
 8141SOL    HW225323   6.014   2.059   4.969
 8142SOL     OW25324   4.034   5.829   0.374
 8142SOL    HW125325   4.064   5.913   0.328
 8142SOL    HW225326   3.935   5.822   0.369
 8143SOL     OW25327   5.483   5.061   0.757
 8143SOL    HW125328   5.546   5.126   0.798
 8143SOL    HW225329   5.390   5.099   0.757
 8144SOL     OW25330   1.804   5.368   6.530
 8144SOL    HW125331   1.872   5.311   6.486
 8144SOL    HW225332   1.724   5.312   6.554
 8145SOL     OW25333   4.910   5.418   5.636
 8145SOL    HW125334   4.859   5.476   5.701
 8145SOL    HW225335   4.993   5.465   5.607
 8146SOL     OW25336   6.830   6.319   5.597
 8146SOL    HW125337   6.841   6.340   5.694
 8146SOL    HW225338   6.734   6.303   5.577
 8147SOL     OW25339   2.331   6.483   4.699
 8147SOL    HW125340   2.425   6.504   4.725
 8147SOL    HW225341   2.284   6.568   4.675
 8148SOL     OW25342   4.904   5.043   0.540
 8148SOL    HW125343   4.876   5.026   0.445
 8148SOL    HW225344   4.874   4.967   0.597
 8149SOL     OW25345   1.304   6.409   4.576
 8149SOL    HW125346   1.337   6.432   4.484
 8149SOL    HW225347   1.286   6.493   4.627
 8150SOL     OW25348   0.777   4.168   0.531
 8150SOL    HW125349   0.782   4.069   0.548
 8150SOL    HW225350   0.812   4.217   0.611
 8151SOL     OW25351   6.225   4.309   2.550
 8151SOL    HW125352   6.312   4.323   2.597
 8151SOL    HW225353   6.180   4.227   2.586
 8152SOL     OW25354   5.118   1.985   4.487
 8152SOL    HW125355   5.215   1.969   4.506
 8152SOL    HW225356   5.109   2.039   4.403
 8153SOL     OW25357   0.436   1.595   1.071
 8153SOL    HW125358   0.379   1.658   1.125
 8153SOL    HW225359   0.489   1.647   1.005
 8154SOL     OW25360   6.989   0.242   4.746
 8154SOL    HW125361   6.942   0.327   4.769
 8154SOL    HW225362   0.067   0.261   4.734
 8155SOL     OW25363   1.447   4.498   4.622
 8155SOL    HW125364   1.408   4.590   4.628
 8155SOL    HW225365   1.407   4.440   4.693
 8156SOL     OW25366   1.266   3.670   0.422
 8156SOL    HW125367   1.277   3.682   0.324
 8156SOL    HW225368   1.286   3.575   0.447
 8157SOL     OW25369   6.474   4.578   5.797
 8157SOL    HW125370   6.436   4.488   5.819
 8157SOL    HW225371   6.453   4.642   5.870
 8158SOL     OW25372   6.766   4.989   6.132
 8158SOL    HW125373   6.800   4.900   6.102
 8158SOL    HW225374   6.666   4.988   6.134
 8159SOL     OW25375   2.241   6.253   5.059
 8159SOL    HW125376   2.157   6.216   5.098
 8159SOL    HW225377   2.303   6.282   5.132
 8160SOL     OW25378   4.868   3.376   2.552
 8160SOL    HW125379   4.783   3.324   2.549
 8160SOL    HW225380   4.943   3.316   2.579
 8161SOL     OW25381   0.375   2.329   0.881
 8161SOL    HW125382   0.340   2.360   0.970
 8161SOL    HW225383   0.427   2.402   0.838
 8162SOL     OW25384   6.804   6.045   5.946
 8162SOL    HW125385   6.821   5.976   6.017
 8162SOL    HW225386   6.746   6.006   5.875
 8163SOL     OW25387   3.576   5.328   5.871
 8163SOL    HW125388   3.604   5.375   5.955
 8163SOL    HW225389   3.609   5.380   5.792
 8164SOL     OW25390   5.321   2.096   0.201
 8164SOL    HW125391   5.346   2.063   0.110
 8164SOL    HW225392   5.365   2.038   0.270
 8165SOL     OW25393   1.490   2.265   5.938
 8165SOL    HW125394   1.442   2.351   5.922
 8165SOL    HW225395   1.552   2.275   6.016
 8166SOL     OW25396   3.556   2.125   3.877
 8166SOL    HW125397   3.626   2.132   3.806
 8166SOL    HW225398   3.466   2.120   3.835
 8167SOL     OW25399   1.672   2.101   1.991
 8167SOL    HW125400   1.673   2.032   2.063
 8167SOL    HW225401   1.747   2.084   1.927
 8168SOL     OW25402   1.298   6.055   2.621
 8168SOL    HW125403   1.354   6.136   2.639
 8168SOL    HW225404   1.267   6.057   2.525
 8169SOL     OW25405   5.375   4.860   6.633
 8169SOL    HW125406   5.335   4.805   6.560
 8169SOL    HW225407   5.456   4.908   6.597
 8170SOL     OW25408   0.234   4.929   3.063
 8170SOL    HW125409   0.328   4.915   3.032
 8170SOL    HW225410   0.171   4.913   2.987
 8171SOL     OW25411   1.394   1.569   1.802
 8171SOL    HW125412   1.463   1.622   1.751
 8171SOL    HW225413   1.421   1.473   1.804
 8172SOL     OW25414   1.690   4.598   0.588
 8172SOL    HW125415   1.716   4.623   0.495
 8172SOL    HW225416   1.596   4.628   0.606
 8173SOL     OW25417   5.106   0.520   1.272
 8173SOL    HW125418   5.160   0.461   1.331
 8173SOL    HW225419   5.011   0.519   1.303
 8174SOL     OW25420   2.844   6.332   4.101
 8174SOL    HW125421   2.853   6.236   4.127
 8174SOL    HW225422   2.854   6.341   4.002
 8175SOL     OW25423   0.877   2.610   6.285
 8175SOL    HW125424   0.820   2.529   6.301
 8175SOL    HW225425   0.869   2.638   6.189
 8176SOL     OW25426   2.615   4.395   0.394
 8176SOL    HW125427   2.678   4.388   0.471
 8176SOL    HW225428   2.539   4.455   0.418
 8177SOL     OW25429   3.114   1.492   2.188
 8177SOL    HW125430   3.204   1.518   2.153
 8177SOL    HW225431   3.105   1.393   2.186
 8178SOL     OW25432   2.677   6.375   0.857
 8178SOL    HW125433   2.703   6.281   0.837
 8178SOL    HW225434   2.689   6.431   0.775
 8179SOL     OW25435   6.565   6.389   4.495
 8179SOL    HW125436   6.477   6.436   4.491
 8179SOL    HW225437   6.617   6.422   4.573
 8180SOL     OW25438   3.469   5.379   0.994
 8180SOL    HW125439   3.504   5.440   0.922
 8180SOL    HW225440   3.402   5.429   1.049
 8181SOL     OW25441   6.213   0.762   6.672
 8181SOL    HW125442   6.149   0.707   6.726
 8181SOL    HW225443   6.178   0.772   6.579
 8182SOL     OW25444   3.304   3.356   2.934
 8182SOL    HW125445   3.397   3.390   2.949
 8182SOL    HW225446   3.294   3.265   2.975
 8183SOL     OW25447   0.310   0.368   5.405
 8183SOL    HW125448   0.280   0.283   5.450
 8183SOL    HW225449   0.405   0.386   5.429
 8184SOL     OW25450   0.030   5.694   4.954
 8184SOL    HW125451   7.010   5.785   4.951
 8184SOL    HW225452   0.036   5.658   4.861
 8185SOL     OW25453   6.769   6.239   4.727
 8185SOL    HW125454   6.737   6.314   4.670
 8185SOL    HW225455   6.703   6.221   4.800
 8186SOL     OW25456   0.658   6.279   6.692
 8186SOL    HW125457   0.594   6.355   6.679
 8186SOL    HW225458   0.676   6.235   6.604
 8187SOL     OW25459   0.969   6.630   4.522
 8187SOL    HW125460   1.050   6.689   4.530
 8187SOL    HW225461   0.987   6.543   4.567
 8188SOL     OW25462   1.597   2.396   2.511
 8188SOL    HW125463   1.512   2.446   2.492
 8188SOL    HW225464   1.663   2.458   2.553
 8189SOL     OW25465   6.842   5.205   3.828
 8189SOL    HW125466   6.853   5.107   3.809
 8189SOL    HW225467   6.932   5.249   3.826
 8190SOL     OW25468   5.375   3.665   2.365
 8190SOL    HW125469   5.467   3.630   2.351
 8190SOL    HW225470   5.369   3.706   2.456
 8191SOL     OW25471   4.415   5.130   0.700
 8191SOL    HW125472   4.462   5.113   0.614
 8191SOL    HW225473   4.466   5.086   0.774
 8192SOL     OW25474   6.580   5.683   2.762
 8192SOL    HW125475   6.501   5.622   2.747
 8192SOL    HW225476   6.549   5.778   2.761
 8193SOL     OW25477   0.937   5.125   4.478
 8193SOL    HW125478   0.885   5.168   4.404
 8193SOL    HW225479   0.875   5.069   4.533
 8194SOL     OW25480   5.873   6.609   2.203
 8194SOL    HW125481   5.923   6.527   2.233
 8194SOL    HW225482   5.779   6.585   2.183
 8195SOL     OW25483   6.506   6.800   3.244
 8195SOL    HW125484   6.597   6.817   3.281
 8195SOL    HW225485   6.512   6.730   3.172
 8196SOL     OW25486   5.474   0.057   2.508
 8196SOL    HW125487   5.531   7.000   2.482
 8196SOL    HW225488   5.385   0.023   2.539
 8197SOL     OW25489   3.814   0.479   3.328
 8197SOL    HW125490   3.816   0.518   3.236
 8197SOL    HW225491   3.778   0.547   3.392
 8198SOL     OW25492   1.904   5.321   0.103
 8198SOL    HW125493   1.934   5.227   0.089
 8198SOL    HW225494   1.932   5.377   0.025
 8199SOL     OW25495   5.832   2.713   0.084
 8199SOL    HW125496   5.823   2.675   0.176
 8199SOL    HW225497   5.784   2.801   0.079
 8200SOL     OW25498   5.801   4.528   0.037
 8200SOL    HW125499   5.775   4.619   0.072
 8200SOL    HW225500   5.832   4.536   6.963
 8201SOL     OW25501   5.305   1.614   5.982
 8201SOL    HW125502   5.326   1.519   5.958
 8201SOL    HW225503   5.229   1.616   6.047
 8202SOL     OW25504   6.806   6.111   2.297
 8202SOL    HW125505   6.871   6.069   2.361
 8202SOL    HW225506   6.740   6.165   2.349
 8203SOL     OW25507   0.905   2.924   0.158
 8203SOL    HW125508   1.001   2.944   0.178
 8203SOL    HW225509   0.848   2.954   0.234
 8204SOL     OW25510   1.479   3.418   0.734
 8204SOL    HW125511   1.400   3.424   0.673
 8204SOL    HW225512   1.522   3.508   0.742
 8205SOL     OW25513   6.799   4.009   6.453
 8205SOL    HW125514   6.717   3.984   6.402
 8205SOL    HW225515   6.873   4.031   6.388
 8206SOL     OW25516   3.316   1.472   1.144
 8206SOL    HW125517   3.263   1.530   1.205
 8206SOL    HW225518   3.312   1.377   1.177
 8207SOL     OW25519   3.685   3.251   3.951
 8207SOL    HW125520   3.743   3.279   3.874
 8207SOL    HW225521   3.590   3.248   3.921
 8208SOL     OW25522   3.750   0.246   5.441
 8208SOL    HW125523   3.707   0.233   5.352
 8208SOL    HW225524   3.844   0.212   5.438
 8209SOL     OW25525   5.154   2.719   3.723
 8209SOL    HW125526   5.124   2.814   3.716
 8209SOL    HW225527   5.236   2.714   3.779
 8210SOL     OW25528   1.293   1.607   6.255
 8210SOL    HW125529   1.357   1.576   6.184
 8210SOL    HW225530   1.284   1.707   6.250
 8211SOL     OW25531   4.036   4.734   1.211
 8211SOL    HW125532   4.058   4.742   1.309
 8211SOL    HW225533   4.008   4.823   1.176
 8212SOL     OW25534   1.867   3.422   2.682
 8212SOL    HW125535   1.833   3.424   2.776
 8212SOL    HW225536   1.837   3.504   2.634
 8213SOL     OW25537   6.600   4.554   0.822
 8213SOL    HW125538   6.615   4.538   0.724
 8213SOL    HW225539   6.629   4.647   0.845
 8214SOL     OW25540   4.752   2.809   3.674
 8214SOL    HW125541   4.694   2.757   3.611
 8214SOL    HW225542   4.760   2.903   3.640
 8215SOL     OW25543   3.360   4.120   1.704
 8215SOL    HW125544   3.428   4.098   1.774
 8215SOL    HW225545   3.403   4.116   1.613
 8216SOL     OW25546   5.560   2.778   4.714
 8216SOL    HW125547   5.631   2.740   4.655
 8216SOL    HW225548   5.585   2.872   4.739
 8217SOL     OW25549   2.354   5.549   6.844
 8217SOL    HW125550   2.420   5.543   6.918
 8217SOL    HW225551   2.261   5.541   6.882
 8218SOL     OW25552   4.481   1.884   6.935
 8218SOL    HW125553   4.396   1.844   6.969
 8218SOL    HW225554   4.513   1.832   6.856
 8219SOL     OW25555   5.483   2.958   0.269
 8219SOL    HW125556   5.391   2.995   0.260
 8219SOL    HW225557   5.534   3.012   0.336
 8220SOL     OW25558   4.174   3.506   1.534
 8220SOL    HW125559   4.108   3.436   1.505
 8220SOL    HW225560   4.164   3.523   1.632
 8221SOL     OW25561   5.607   3.786   3.819
 8221SOL    HW125562   5.667   3.706   3.825
 8221SOL    HW225563   5.516   3.757   3.789
 8222SOL     OW25564   5.797   1.364   3.187
 8222SOL    HW125565   5.816   1.443   3.129
 8222SOL    HW225566   5.750   1.393   3.270
 8223SOL     OW25567   1.047   3.530   0.148
 8223SOL    HW125568   1.145   3.539   0.129
 8223SOL    HW225569   0.996   3.531   0.062
 8224SOL     OW25570   1.096   3.674   2.665
 8224SOL    HW125571   1.091   3.624   2.752
 8224SOL    HW225572   1.062   3.617   2.591
 8225SOL     OW25573   4.865   0.273   1.282
 8225SOL    HW125574   4.828   0.232   1.199
 8225SOL    HW225575   4.831   0.367   1.292
 8226SOL     OW25576   4.436   0.417   6.931
 8226SOL    HW125577   4.448   0.502   6.983
 8226SOL    HW225578   4.379   0.354   6.983
 8227SOL     OW25579   5.983   4.627   3.364
 8227SOL    HW125580   5.988   4.655   3.268
 8227SOL    HW225581   6.072   4.639   3.407
 8228SOL     OW25582   7.015   1.018   3.562
 8228SOL    HW125583   6.994   0.934   3.614
 8228SOL    HW225584   6.933   1.050   3.517
 8229SOL     OW25585   6.082   5.384   6.516
 8229SOL    HW125586   6.087   5.471   6.564
 8229SOL    HW225587   6.109   5.396   6.421
 8230SOL     OW25588   5.054   6.931   3.295
 8230SOL    HW125589   5.088   6.982   3.374
 8230SOL    HW225590   4.976   6.979   3.255
 8231SOL     OW25591   3.996   5.898   1.342
 8231SOL    HW125592   3.979   5.878   1.439
 8231SOL    HW225593   4.020   5.813   1.295
 8232SOL     OW25594   2.642   1.249   0.329
 8232SOL    HW125595   2.561   1.289   0.372
 8232SOL    HW225596   2.619   1.161   0.288
 8233SOL     OW25597   0.607   5.738   6.402
 8233SOL    HW125598   0.571   5.651   6.369
 8233SOL    HW225599   0.668   5.778   6.333
 8234SOL     OW25600   1.719   3.105   6.908
 8234SOL    HW125601   1.810   3.074   6.936
 8234SOL    HW225602   1.673   3.149   6.985
 8235SOL     OW25603   4.580   2.615   6.561
 8235SOL    HW125604   4.612   2.520   6.559
 8235SOL    HW225605   4.567   2.644   6.656
 8236SOL     OW25606   6.246   1.497   1.781
 8236SOL    HW125607   6.228   1.413   1.833
 8236SOL    HW225608   6.344   1.508   1.769
 8237SOL     OW25609   3.779   6.091   5.429
 8237SOL    HW125610   3.689   6.133   5.421
 8237SOL    HW225611   3.800   6.041   5.345
 8238SOL     OW25612   0.125   1.120   5.393
 8238SOL    HW125613   0.073   1.061   5.453
 8238SOL    HW225614   0.175   1.187   5.447
 8239SOL     OW25615   4.800   1.507   6.216
 8239SOL    HW125616   4.803   1.461   6.127
 8239SOL    HW225617   4.733   1.462   6.275
 8240SOL     OW25618   3.865   2.967   2.825
 8240SOL    HW125619   3.873   3.057   2.783
 8240SOL    HW225620   3.782   2.922   2.791
 8241SOL     OW25621   4.209   6.431   1.050
 8241SOL    HW125622   4.286   6.464   0.995
 8241SOL    HW225623   4.235   6.346   1.096
 8242SOL     OW25624   1.979   4.356   4.896
 8242SOL    HW125625   2.066   4.315   4.923
 8242SOL    HW225626   1.923   4.289   4.848
 8243SOL     OW25627   6.990   4.187   4.439
 8243SOL    HW125628   6.923   4.261   4.434
 8243SOL    HW225629   6.979   4.138   4.525
 8244SOL     OW25630   3.300   5.607   5.662
 8244SOL    HW125631   3.356   5.531   5.693
 8244SOL    HW225632   3.204   5.578   5.658
 8245SOL     OW25633   4.491   4.236   1.140
 8245SOL    HW125634   4.456   4.190   1.222
 8245SOL    HW225635   4.581   4.275   1.159
 8246SOL     OW25636   5.746   3.011   5.257
 8246SOL    HW125637   5.721   2.989   5.163
 8246SOL    HW225638   5.715   3.103   5.279
 8247SOL     OW25639   0.927   5.956   0.054
 8247SOL    HW125640   1.024   5.979   0.041
 8247SOL    HW225641   0.871   6.019   0.000
 8248SOL     OW25642   6.745   3.975   3.377
 8248SOL    HW125643   6.649   3.979   3.348
 8248SOL    HW225644   6.790   4.061   3.354
 8249SOL     OW25645   0.886   6.025   3.128
 8249SOL    HW125646   0.969   6.069   3.095
 8249SOL    HW225647   0.850   5.964   3.057
 8250SOL     OW25648   3.164   2.929   2.384
 8250SOL    HW125649   3.100   2.997   2.349
 8250SOL    HW225650   3.113   2.850   2.420
 8251SOL     OW25651   5.586   0.662   3.952
 8251SOL    HW125652   5.499   0.616   3.936
 8251SOL    HW225653   5.645   0.605   4.009
 8252SOL     OW25654   0.868   3.866   4.460
 8252SOL    HW125655   0.955   3.896   4.421
 8252SOL    HW225656   0.886   3.819   4.547
 8253SOL     OW25657   2.974   2.981   5.825
 8253SOL    HW125658   3.056   2.957   5.774
 8253SOL    HW225659   2.930   3.060   5.783
 8254SOL     OW25660   4.819   4.778   2.941
 8254SOL    HW125661   4.814   4.837   2.861
 8254SOL    HW225662   4.738   4.720   2.946
 8255SOL     OW25663   4.001   5.261   3.755
 8255SOL    HW125664   4.086   5.243   3.706
 8255SOL    HW225665   3.924   5.221   3.704
 8256SOL     OW25666   5.242   2.245   2.792
 8256SOL    HW125667   5.182   2.173   2.758
 8256SOL    HW225668   5.324   2.250   2.735
 8257SOL     OW25669   6.341   4.441   4.295
 8257SOL    HW125670   6.252   4.485   4.285
 8257SOL    HW225671   6.394   4.487   4.365
 8258SOL     OW25672   5.413   1.894   0.471
 8258SOL    HW125673   5.468   1.814   0.447
 8258SOL    HW225674   5.472   1.964   0.511
 8259SOL     OW25675   4.394   0.356   1.157
 8259SOL    HW125676   4.438   0.331   1.243
 8259SOL    HW225677   4.324   0.288   1.135
 8260SOL     OW25678   3.376   5.617   6.458
 8260SOL    HW125679   3.414   5.672   6.383
 8260SOL    HW225680   3.448   5.599   6.525
 8261SOL     OW25681   4.681   1.268   1.594
 8261SOL    HW125682   4.728   1.332   1.533
 8261SOL    HW225683   4.615   1.317   1.650
 8262SOL     OW25684   6.296   2.724   1.823
 8262SOL    HW125685   6.209   2.772   1.822
 8262SOL    HW225686   6.350   2.754   1.902
 8263SOL     OW25687   5.896   1.949   0.062
 8263SOL    HW125688   5.819   1.900   0.103
 8263SOL    HW225689   5.905   2.038   0.105
 8264SOL     OW25690   1.598   4.358   1.452
 8264SOL    HW125691   1.661   4.393   1.522
 8264SOL    HW225692   1.629   4.269   1.420
 8265SOL     OW25693   2.312   0.595   3.015
 8265SOL    HW125694   2.307   0.560   3.108
 8265SOL    HW225695   2.383   0.664   3.009
 8266SOL     OW25696   2.953   1.135   2.779
 8266SOL    HW125697   2.876   1.176   2.731
 8266SOL    HW225698   2.967   1.041   2.745
 8267SOL     OW25699   6.877   3.184   1.914
 8267SOL    HW125700   6.949   3.242   1.876
 8267SOL    HW225701   6.914   3.132   1.992
 8268SOL     OW25702   2.262   4.468   0.076
 8268SOL    HW125703   2.287   4.375   0.102
 8268SOL    HW225704   2.341   4.528   0.083
 8269SOL     OW25705   5.186   2.285   6.957
 8269SOL    HW125706   5.176   2.291   0.036
 8269SOL    HW225707   5.268   2.335   6.929
 8270SOL     OW25708   2.346   6.114   4.312
 8270SOL    HW125709   2.247   6.112   4.325
 8270SOL    HW225710   2.391   6.128   4.400
 8271SOL     OW25711   0.508   2.136   2.699
 8271SOL    HW125712   0.452   2.195   2.640
 8271SOL    HW225713   0.592   2.184   2.723
 8272SOL     OW25714   3.521   1.166   4.463
 8272SOL    HW125715   3.568   1.211   4.388
 8272SOL    HW225716   3.588   1.127   4.526
 8273SOL     OW25717   2.205   6.539   1.782
 8273SOL    HW125718   2.107   6.558   1.787
 8273SOL    HW225719   2.230   6.477   1.856
 8274SOL     OW25720   5.259   3.473   3.517
 8274SOL    HW125721   5.213   3.484   3.428
 8274SOL    HW225722   5.191   3.452   3.587
 8275SOL     OW25723   6.267   2.458   6.942
 8275SOL    HW125724   6.363   2.484   6.955
 8275SOL    HW225725   6.210   2.505   7.010
 8276SOL     OW25726   1.125   1.651   3.545
 8276SOL    HW125727   1.048   1.669   3.483
 8276SOL    HW225728   1.176   1.735   3.561
 8277SOL     OW25729   0.218   1.228   0.603
 8277SOL    HW125730   0.256   1.320   0.590
 8277SOL    HW225731   0.287   1.160   0.580
 8278SOL     OW25732   1.063   2.546   0.355
 8278SOL    HW125733   1.137   2.609   0.331
 8278SOL    HW225734   0.979   2.598   0.369
 8279SOL     OW25735   0.526   6.106   3.905
 8279SOL    HW125736   0.536   6.021   3.854
 8279SOL    HW225737   0.538   6.089   4.002
 8280SOL     OW25738   3.107   2.549   6.194
 8280SOL    HW125739   3.053   2.527   6.113
 8280SOL    HW225740   3.204   2.549   6.170
 8281SOL     OW25741   4.049   5.139   2.146
 8281SOL    HW125742   4.119   5.181   2.203
 8281SOL    HW225743   4.016   5.206   2.079
 8282SOL     OW25744   6.703   3.052   6.375
 8282SOL    HW125745   6.617   3.003   6.381
 8282SOL    HW225746   6.747   3.054   6.465
 8283SOL     OW25747   2.533   2.696   6.134
 8283SOL    HW125748   2.630   2.671   6.128
 8283SOL    HW225749   2.492   2.692   6.043
 8284SOL     OW25750   6.716   4.613   1.659
 8284SOL    HW125751   6.717   4.705   1.699
 8284SOL    HW225752   6.800   4.599   1.607
 8285SOL     OW25753   3.500   2.859   3.689
 8285SOL    HW125754   3.597   2.834   3.693
 8285SOL    HW225755   3.463   2.866   3.782
 8286SOL     OW25756   0.097   2.844   6.899
 8286SOL    HW125757   0.142   2.801   6.977
 8286SOL    HW225758   0.146   2.927   6.873
 8287SOL     OW25759   1.497   6.983   4.722
 8287SOL    HW125760   1.399   7.005   4.720
 8287SOL    HW225761   1.547   0.040   4.760
 8288SOL     OW25762   2.561   1.376   2.981
 8288SOL    HW125763   2.497   1.355   3.055
 8288SOL    HW225764   2.568   1.475   2.970
 8289SOL     OW25765   0.912   6.738   0.230
 8289SOL    HW125766   0.942   6.740   0.135
 8289SOL    HW225767   0.990   6.755   0.291
 8290SOL     OW25768   6.225   1.789   1.054
 8290SOL    HW125769   6.153   1.804   1.122
 8290SOL    HW225770   6.235   1.690   1.037
 8291SOL     OW25771   4.087   0.542   1.417
 8291SOL    HW125772   4.157   0.587   1.363
 8291SOL    HW225773   4.000   0.546   1.369
 8292SOL     OW25774   2.248   0.905   6.054
 8292SOL    HW125775   2.263   0.871   6.147
 8292SOL    HW225776   2.301   0.851   5.989
 8293SOL     OW25777   6.156   5.358   5.616
 8293SOL    HW125778   6.156   5.351   5.716
 8293SOL    HW225779   6.221   5.292   5.578
 8294SOL     OW25780   6.206   2.824   7.016
 8294SOL    HW125781   6.177   2.888   6.944
 8294SOL    HW225782   6.283   2.863   0.046
 8295SOL     OW25783   5.483   2.301   6.464
 8295SOL    HW125784   5.577   2.313   6.495
 8295SOL    HW225785   5.476   2.327   6.367
 8296SOL     OW25786   0.564   5.201   5.228
 8296SOL    HW125787   0.584   5.107   5.258
 8296SOL    HW225788   0.513   5.248   5.300
 8297SOL     OW25789   1.311   3.604   4.133
 8297SOL    HW125790   1.385   3.576   4.073
 8297SOL    HW225791   1.223   3.594   4.085
 8298SOL     OW25792   4.450   2.408   2.643
 8298SOL    HW125793   4.482   2.502   2.651
 8298SOL    HW225794   4.430   2.387   2.547
 8299SOL     OW25795   6.052   1.356   1.198
 8299SOL    HW125796   5.961   1.373   1.237
 8299SOL    HW225797   6.119   1.415   1.242
 8300SOL     OW25798   1.191   5.510   2.815
 8300SOL    HW125799   1.181   5.609   2.809
 8300SOL    HW225800   1.272   5.488   2.868
 8301SOL     OW25801   3.099   1.205   5.825
 8301SOL    HW125802   3.184   1.253   5.845
 8301SOL    HW225803   3.041   1.204   5.906
 8302SOL     OW25804   6.354   4.902   6.358
 8302SOL    HW125805   6.298   4.838   6.305
 8302SOL    HW225806   6.347   4.879   6.455
 8303SOL     OW25807   0.364   0.325   0.015
 8303SOL    HW125808   0.364   0.376   0.101
 8303SOL    HW225809   0.457   0.319   7.000
 8304SOL     OW25810   0.027   3.294   0.353
 8304SOL    HW125811   0.092   3.252   0.415
 8304SOL    HW225812   0.025   3.243   0.267
 8305SOL     OW25813   3.095   5.728   2.482
 8305SOL    HW125814   3.119   5.700   2.389
 8305SOL    HW225815   3.093   5.648   2.542
 8306SOL     OW25816   1.429   2.149   3.889
 8306SOL    HW125817   1.388   2.158   3.798
 8306SOL    HW225818   1.435   2.052   3.913
 8307SOL     OW25819   3.529   6.307   1.185
 8307SOL    HW125820   3.439   6.337   1.154
 8307SOL    HW225821   3.591   6.385   1.189
 8308SOL     OW25822   2.754   0.829   2.460
 8308SOL    HW125823   2.658   0.848   2.441
 8308SOL    HW225824   2.763   0.739   2.501
 8309SOL     OW25825   6.087   6.121   2.507
 8309SOL    HW125826   6.025   6.050   2.539
 8309SOL    HW225827   6.178   6.106   2.544
 8310SOL     OW25828   5.886   4.974   6.921
 8310SOL    HW125829   5.866   5.033   6.999
 8310SOL    HW225830   5.982   4.946   6.924
 8311SOL     OW25831   7.002   0.771   6.537
 8311SOL    HW125832   0.011   0.755   6.442
 8311SOL    HW225833   0.024   0.855   6.571
 8312SOL     OW25834   4.692   6.096   1.245
 8312SOL    HW125835   4.602   6.131   1.217
 8312SOL    HW225836   4.687   5.996   1.256
 8313SOL     OW25837   4.177   1.978   2.993
 8313SOL    HW125838   4.246   2.038   2.953
 8313SOL    HW225839   4.111   2.034   3.045
 8314SOL     OW25840   6.557   0.115   4.206
 8314SOL    HW125841   6.513   0.201   4.179
 8314SOL    HW225842   6.630   0.094   4.141
 8315SOL     OW25843   5.310   4.429   7.019
 8315SOL    HW125844   5.250   4.508   7.006
 8315SOL    HW225845   5.282   4.380   0.082
 8316SOL     OW25846   2.625   5.390   6.316
 8316SOL    HW125847   2.711   5.393   6.266
 8316SOL    HW225848   2.622   5.464   6.383
 8317SOL     OW25849   1.939   5.000   1.486
 8317SOL    HW125850   1.918   5.042   1.398
 8317SOL    HW225851   1.860   5.010   1.547
 8318SOL     OW25852   3.031   1.018   5.638
 8318SOL    HW125853   3.034   1.100   5.695
 8318SOL    HW225854   3.084   1.034   5.554
 8319SOL     OW25855   2.398   0.514   5.432
 8319SOL    HW125856   2.308   0.472   5.431
 8319SOL    HW225857   2.397   0.597   5.376
 8320SOL     OW25858   3.677   4.998   0.962
 8320SOL    HW125859   3.769   4.986   1.000
 8320SOL    HW225860   3.646   5.091   0.977
 8321SOL     OW25861   6.826   1.584   1.772
 8321SOL    HW125862   6.902   1.628   1.724
 8321SOL    HW225863   6.835   1.485   1.765
 8322SOL     OW25864   5.309   6.384   0.895
 8322SOL    HW125865   5.404   6.387   0.864
 8322SOL    HW225866   5.306   6.359   0.992
 8323SOL     OW25867   1.303   0.560   1.483
 8323SOL    HW125868   1.225   0.621   1.470
 8323SOL    HW225869   1.354   0.550   1.398
 8324SOL     OW25870   0.018   0.802   2.889
 8324SOL    HW125871   7.008   0.802   2.793
 8324SOL    HW225872   6.969   0.757   2.945
 8325SOL     OW25873   3.672   3.734   5.034
 8325SOL    HW125874   3.668   3.670   5.111
 8325SOL    HW225875   3.763   3.732   4.993
 8326SOL     OW25876   4.279   2.937   5.547
 8326SOL    HW125877   4.268   2.963   5.451
 8326SOL    HW225878   4.300   3.018   5.601
 8327SOL     OW25879   4.697   2.547   5.974
 8327SOL    HW125880   4.615   2.584   5.931
 8327SOL    HW225881   4.680   2.533   6.072
 8328SOL     OW25882   1.823   2.499   3.896
 8328SOL    HW125883   1.799   2.492   3.993
 8328SOL    HW225884   1.745   2.536   3.845
 8329SOL     OW25885   1.086   3.652   4.906
 8329SOL    HW125886   1.122   3.715   4.838
 8329SOL    HW225887   1.035   3.702   4.975
 8330SOL     OW25888   2.685   6.824   6.634
 8330SOL    HW125889   2.675   6.791   6.540
 8330SOL    HW225890   2.760   6.890   6.638
 8331SOL     OW25891   2.413   6.880   1.222
 8331SOL    HW125892   2.510   6.874   1.197
 8331SOL    HW225893   2.357   6.869   1.141
 8332SOL     OW25894   4.797   6.094   2.930
 8332SOL    HW125895   4.717   6.154   2.920
 8332SOL    HW225896   4.880   6.149   2.929
 8333SOL     OW25897   2.187   4.707   5.493
 8333SOL    HW125898   2.243   4.632   5.527
 8333SOL    HW225899   2.230   4.746   5.411
 8334SOL     OW25900   6.799   0.243   3.053
 8334SOL    HW125901   6.836   0.210   2.966
 8334SOL    HW225902   6.864   0.223   3.126
 8335SOL     OW25903   6.258   6.224   4.904
 8335SOL    HW125904   6.173   6.278   4.906
 8335SOL    HW225905   6.235   6.127   4.900
 8336SOL     OW25906   1.412   1.615   2.565
 8336SOL    HW125907   1.386   1.697   2.513
 8336SOL    HW225908   1.330   1.561   2.584
 8337SOL     OW25909   6.304   6.554   2.386
 8337SOL    HW125910   6.254   6.586   2.467
 8337SOL    HW225911   6.402   6.569   2.399
 8338SOL     OW25912   2.352   5.722   0.778
 8338SOL    HW125913   2.396   5.684   0.697
 8338SOL    HW225914   2.422   5.757   0.840
 8339SOL     OW25915   5.149   1.305   3.329
 8339SOL    HW125916   5.233   1.312   3.275
 8339SOL    HW225917   5.133   1.391   3.377
 8340SOL     OW25918   4.951   4.086   1.541
 8340SOL    HW125919   4.914   4.002   1.501
 8340SOL    HW225920   5.044   4.068   1.573
 8341SOL     OW25921   1.919   0.375   0.786
 8341SOL    HW125922   1.865   0.340   0.862
 8341SOL    HW225923   1.858   0.395   0.709
 8342SOL     OW25924   5.465   0.339   1.320
 8342SOL    HW125925   5.409   0.264   1.286
 8342SOL    HW225926   5.407   0.404   1.369
 8343SOL     OW25927   6.579   4.636   4.815
 8343SOL    HW125928   6.595   4.667   4.722
 8343SOL    HW225929   6.664   4.597   4.852
 8344SOL     OW25930   3.560   6.878   4.719
 8344SOL    HW125931   3.624   6.893   4.795
 8344SOL    HW225932   3.583   6.939   4.643
 8345SOL     OW25933   5.674   1.583   2.780
 8345SOL    HW125934   5.739   1.580   2.856
 8345SOL    HW225935   5.634   1.674   2.774
 8346SOL     OW25936   3.988   5.317   1.922
 8346SOL    HW125937   4.050   5.373   1.867
 8346SOL    HW225938   3.894   5.336   1.894
 8347SOL     OW25939   2.943   5.168   4.608
 8347SOL    HW125940   2.853   5.195   4.642
 8347SOL    HW225941   2.956   5.070   4.625
 8348SOL     OW25942   2.252   6.724   0.641
 8348SOL    HW125943   2.283   6.669   0.563
 8348SOL    HW225944   2.331   6.748   0.698
 8349SOL     OW25945   5.832   4.681   2.668
 8349SOL    HW125946   5.786   4.664   2.755
 8349SOL    HW225947   5.896   4.607   2.649
 8350SOL     OW25948   6.087   0.970   5.159
 8350SOL    HW125949   6.165   0.908   5.154
 8350SOL    HW225950   6.051   0.971   5.252
 8351SOL     OW25951   2.601   6.910   2.432
 8351SOL    HW125952   2.556   6.836   2.382
 8351SOL    HW225953   2.700   6.894   2.432
 8352SOL     OW25954   5.939   6.098   1.982
 8352SOL    HW125955   5.927   6.129   2.076
 8352SOL    HW225956   5.973   6.004   1.981
 8353SOL     OW25957   2.151   3.799   1.982
 8353SOL    HW125958   2.158   3.700   1.995
 8353SOL    HW225959   2.234   3.832   1.936
 8354SOL     OW25960   3.158   0.274   0.673
 8354SOL    HW125961   3.123   0.197   0.727
 8354SOL    HW225962   3.252   0.256   0.646
 8355SOL     OW25963   2.801   1.841   0.673
 8355SOL    HW125964   2.703   1.856   0.662
 8355SOL    HW225965   2.831   1.768   0.612
 8356SOL     OW25966   2.872   4.735   0.560
 8356SOL    HW125967   2.834   4.827   0.574
 8356SOL    HW225968   2.940   4.738   0.487
 8357SOL     OW25969   3.804   6.680   2.607
 8357SOL    HW125970   3.724   6.692   2.666
 8357SOL    HW225971   3.788   6.605   2.543
 8358SOL     OW25972   2.811   1.925   4.998
 8358SOL    HW125973   2.775   2.004   4.949
 8358SOL    HW225974   2.888   1.954   5.055
 8359SOL     OW25975   3.846   4.869   4.315
 8359SOL    HW125976   3.882   4.842   4.404
 8359SOL    HW225977   3.922   4.880   4.251
 8360SOL     OW25978   4.730   0.915   3.567
 8360SOL    HW125979   4.792   0.922   3.489
 8360SOL    HW225980   4.645   0.963   3.546
 8361SOL     OW25981   1.431   0.470   3.111
 8361SOL    HW125982   1.530   0.474   3.101
 8361SOL    HW225983   1.394   0.402   3.048
 8362SOL     OW25984   3.374   2.924   0.959
 8362SOL    HW125985   3.278   2.898   0.973
 8362SOL    HW225986   3.379   2.995   0.889
 8363SOL     OW25987   0.642   3.398   2.012
 8363SOL    HW125988   0.726   3.348   1.990
 8363SOL    HW225989   0.663   3.495   2.026
 8364SOL     OW25990   0.040   4.828   5.403
 8364SOL    HW125991   0.052   4.922   5.436
 8364SOL    HW225992   0.130   4.785   5.394
 8365SOL     OW25993   1.832   3.943   5.919
 8365SOL    HW125994   1.785   3.903   5.840
 8365SOL    HW225995   1.928   3.917   5.919
 8366SOL     OW25996   2.667   6.638   2.027
 8366SOL    HW125997   2.759   6.649   1.990
 8366SOL    HW225998   2.602   6.690   1.971
 8367SOL     OW25999   4.995   5.766   3.723
 8367SOL    HW126000   5.061   5.740   3.653
 8367SOL    HW226001   4.911   5.712   3.711
 8368SOL     OW26002   2.623   5.509   6.034
 8368SOL    HW126003   2.600   5.437   6.099
 8368SOL    HW226004   2.722   5.514   6.024
 8369SOL     OW26005   2.119   1.016   1.465
 8369SOL    HW126006   2.094   1.029   1.561
 8369SOL    HW226007   2.119   1.104   1.419
 8370SOL     OW26008   2.476   1.166   0.606
 8370SOL    HW126009   2.381   1.136   0.592
 8370SOL    HW226010   2.538   1.102   0.560
 8371SOL     OW26011   1.353   2.466   0.085
 8371SOL    HW126012   1.364   2.561   0.056
 8371SOL    HW226013   1.413   2.408   0.032
 8372SOL     OW26014   5.685   0.782   0.041
 8372SOL    HW126015   5.765   0.829   0.004
 8372SOL    HW226016   5.669   0.812   0.135
 8373SOL     OW26017   1.947   6.992   3.793
 8373SOL    HW126018   1.874   6.987   3.861
 8373SOL    HW226019   1.953   0.066   3.758
 8374SOL     OW26020   6.761   1.959   5.458
 8374SOL    HW126021   6.721   2.038   5.412
 8374SOL    HW226022   6.744   1.965   5.556
 8375SOL     OW26023   3.998   0.779   6.393
 8375SOL    HW126024   3.985   0.685   6.424
 8375SOL    HW226025   4.081   0.816   6.434
 8376SOL     OW26026   4.418   6.975   3.875
 8376SOL    HW126027   4.442   0.002   3.790
 8376SOL    HW226028   4.423   0.020   3.951
 8377SOL     OW26029   4.556   5.047   0.498
 8377SOL    HW126030   4.470   5.006   0.468
 8377SOL    HW226031   4.631   5.016   0.439
 8378SOL     OW26032   5.092   2.962   3.685
 8378SOL    HW126033   5.002   3.001   3.664
 8378SOL    HW226034   5.151   2.969   3.605
 8379SOL     OW26035   5.226   3.016   2.641
 8379SOL    HW126036   5.320   3.025   2.674
 8379SOL    HW226037   5.225   3.025   2.541
 8380SOL     OW26038   5.798   1.294   4.138
 8380SOL    HW126039   5.734   1.331   4.205
 8380SOL    HW226040   5.866   1.364   4.115
 8381SOL     OW26041   1.792   5.494   4.831
 8381SOL    HW126042   1.786   5.402   4.868
 8381SOL    HW226043   1.851   5.494   4.750
 8382SOL     OW26044   0.906   5.001   2.135
 8382SOL    HW126045   0.871   5.065   2.204
 8382SOL    HW226046   0.953   4.925   2.181
 8383SOL     OW26047   3.024   1.387   5.610
 8383SOL    HW126048   3.029   1.332   5.692
 8383SOL    HW226049   3.091   1.353   5.543
 8384SOL     OW26050   0.481   0.051   1.140
 8384SOL    HW126051   0.564   0.077   1.091
 8384SOL    HW226052   0.441   0.133   1.182
 8385SOL     OW26053   4.133   1.742   1.431
 8385SOL    HW126054   4.160   1.838   1.420
 8385SOL    HW226055   4.118   1.701   1.341
 8386SOL     OW26056   0.088   2.650   1.895
 8386SOL    HW126057   0.152   2.706   1.947
 8386SOL    HW226058   0.112   2.553   1.908
 8387SOL     OW26059   0.733   1.729   1.996
 8387SOL    HW126060   0.818   1.684   1.968
 8387SOL    HW226061   0.679   1.751   1.915
 8388SOL     OW26062   1.605   6.869   2.413
 8388SOL    HW126063   1.505   6.876   2.415
 8388SOL    HW226064   1.636   6.817   2.492
 8389SOL     OW26065   6.623   2.939   3.651
 8389SOL    HW126066   6.541   2.972   3.602
 8389SOL    HW226067   6.595   2.886   3.731
 8390SOL     OW26068   5.957   2.396   6.520
 8390SOL    HW126069   5.952   2.455   6.439
 8390SOL    HW226070   6.013   2.316   6.499
 8391SOL     OW26071   6.207   0.877   1.001
 8391SOL    HW126072   6.154   0.961   1.004
 8391SOL    HW226073   6.162   0.806   1.056
 8392SOL     OW26074   3.589   2.911   4.680
 8392SOL    HW126075   3.633   2.880   4.764
 8392SOL    HW226076   3.494   2.937   4.700
 8393SOL     OW26077   5.824   0.348   0.839
 8393SOL    HW126078   5.892   0.404   0.888
 8393SOL    HW226079   5.733   0.384   0.856
 8394SOL     OW26080   4.866   3.300   3.089
 8394SOL    HW126081   4.789   3.339   3.038
 8394SOL    HW226082   4.951   3.318   3.039
 8395SOL     OW26083   1.966   1.303   5.902
 8395SOL    HW126084   1.967   1.205   5.924
 8395SOL    HW226085   1.927   1.316   5.811
 8396SOL     OW26086   4.668   4.922   4.110
 8396SOL    HW126087   4.680   5.018   4.136
 8396SOL    HW226088   4.612   4.916   4.028
 8397SOL     OW26089   5.498   6.542   2.790
 8397SOL    HW126090   5.579   6.601   2.782
 8397SOL    HW226091   5.466   6.543   2.884
 8398SOL     OW26092   5.991   1.823   6.525
 8398SOL    HW126093   5.904   1.785   6.494
 8398SOL    HW226094   5.974   1.903   6.583
 8399SOL     OW26095   0.631   4.100   2.948
 8399SOL    HW126096   0.730   4.096   2.961
 8399SOL    HW226097   0.597   4.010   2.923
 8400SOL     OW26098   1.377   0.970   4.390
 8400SOL    HW126099   1.421   0.910   4.456
 8400SOL    HW226100   1.304   1.021   4.434
 8401SOL     OW26101   1.326   0.378   6.260
 8401SOL    HW126102   1.238   0.425   6.249
 8401SOL    HW226103   1.389   0.407   6.187
 8402SOL     OW26104   2.415   0.710   5.937
 8402SOL    HW126105   2.447   0.697   5.843
 8402SOL    HW226106   2.362   0.630   5.965
 8403SOL     OW26107   5.882   4.235   6.250
 8403SOL    HW126108   5.943   4.307   6.217
 8403SOL    HW226109   5.864   4.248   6.348
 8404SOL     OW26110   1.107   1.220   0.214
 8404SOL    HW126111   1.010   1.244   0.210
 8404SOL    HW226112   1.162   1.294   0.175
 8405SOL     OW26113   3.547   6.480   5.739
 8405SOL    HW126114   3.467   6.458   5.683
 8405SOL    HW226115   3.622   6.507   5.680
 8406SOL     OW26116   6.564   1.301   6.128
 8406SOL    HW126117   6.569   1.203   6.150
 8406SOL    HW226118   6.495   1.316   6.058
 8407SOL     OW26119   4.818   0.708   5.013
 8407SOL    HW126120   4.837   0.798   4.973
 8407SOL    HW226121   4.758   0.719   5.092
 8408SOL     OW26122   3.754   1.972   1.600
 8408SOL    HW126123   3.763   2.014   1.691
 8408SOL    HW226124   3.743   2.044   1.531
 8409SOL     OW26125   4.642   2.646   1.937
 8409SOL    HW126126   4.710   2.704   1.982
 8409SOL    HW226127   4.577   2.703   1.887
 8410SOL     OW26128   0.032   2.179   1.644
 8410SOL    HW126129   0.089   2.260   1.656
 8410SOL    HW226130   6.956   2.206   1.641
 8411SOL     OW26131   0.866   5.690   1.359
 8411SOL    HW126132   0.894   5.756   1.289
 8411SOL    HW226133   0.796   5.732   1.417
 8412SOL     OW26134   2.695   2.112   6.827
 8412SOL    HW126135   2.641   2.042   6.875
 8412SOL    HW226136   2.677   2.107   6.729
 8413SOL     OW26137   3.993   5.774   5.025
 8413SOL    HW126138   3.969   5.777   4.928
 8413SOL    HW226139   3.971   5.684   5.062
 8414SOL     OW26140   1.495   0.228   0.915
 8414SOL    HW126141   1.536   0.205   1.003
 8414SOL    HW226142   1.517   0.157   0.848
 8415SOL     OW26143   3.856   1.407   6.044
 8415SOL    HW126144   3.886   1.327   6.096
 8415SOL    HW226145   3.863   1.488   6.101
 8416SOL     OW26146   0.183   2.268   4.890
 8416SOL    HW126147   0.238   2.323   4.826
 8416SOL    HW226148   0.090   2.259   4.854
 8417SOL     OW26149   2.073   2.993   6.277
 8417SOL    HW126150   2.090   2.895   6.282
 8417SOL    HW226151   2.055   3.020   6.183
 8418SOL     OW26152   6.655   6.309   2.401
 8418SOL    HW126153   6.643   6.328   2.499
 8418SOL    HW226154   6.566   6.312   2.356
 8419SOL     OW26155   3.914   1.587   4.267
 8419SOL    HW126156   3.897   1.685   4.261
 8419SOL    HW226157   3.831   1.541   4.299
 8420SOL     OW26158   4.054   1.168   2.275
 8420SOL    HW126159   3.956   1.152   2.290
 8420SOL    HW226160   4.065   1.233   2.200
 8421SOL     OW26161   4.666   0.239   6.572
 8421SOL    HW126162   4.576   0.260   6.533
 8421SOL    HW226163   4.664   0.257   6.670
 8422SOL     OW26164   5.403   1.548   4.563
 8422SOL    HW126165   5.399   1.584   4.656
 8422SOL    HW226166   5.490   1.574   4.521
 8423SOL     OW26167   6.521   5.700   0.301
 8423SOL    HW126168   6.560   5.698   0.209
 8423SOL    HW226169   6.439   5.758   0.302
 8424SOL     OW26170   2.517   0.008   5.294
 8424SOL    HW126171   2.461   6.977   5.359
 8424SOL    HW226172   2.602   0.036   5.339
 8425SOL     OW26173   3.505   2.994   1.773
 8425SOL    HW126174   3.476   2.934   1.699
 8425SOL    HW226175   3.560   2.941   1.839
 8426SOL     OW26176   3.384   3.414   1.668
 8426SOL    HW126177   3.416   3.356   1.743
 8426SOL    HW226178   3.363   3.505   1.704
 8427SOL     OW26179   3.760   4.075   2.665
 8427SOL    HW126180   3.690   4.119   2.721
 8427SOL    HW226181   3.747   4.100   2.569
 8428SOL     OW26182   4.864   1.122   1.740
 8428SOL    HW126183   4.961   1.115   1.715
 8428SOL    HW226184   4.818   1.184   1.677
 8429SOL     OW26185   2.999   6.103   5.619
 8429SOL    HW126186   3.046   6.139   5.700
 8429SOL    HW226187   2.979   6.178   5.556
 8430SOL     OW26188   5.094   6.905   5.555
 8430SOL    HW126189   5.101   6.933   5.459
 8430SOL    HW226190   5.042   6.974   5.606
 8431SOL     OW26191   2.686   3.212   6.514
 8431SOL    HW126192   2.592   3.239   6.491
 8431SOL    HW226193   2.737   3.197   6.430
 8432SOL     OW26194   6.591   5.110   5.417
 8432SOL    HW126195   6.567   5.031   5.360
 8432SOL    HW226196   6.629   5.079   5.504
 8433SOL     OW26197   4.532   1.556   0.628
 8433SOL    HW126198   4.563   1.561   0.533
 8433SOL    HW226199   4.489   1.642   0.654
 8434SOL     OW26200   2.689   6.298   4.388
 8434SOL    HW126201   2.615   6.246   4.431
 8434SOL    HW226202   2.773   6.287   4.441
 8435SOL     OW26203   6.615   1.474   3.374
 8435SOL    HW126204   6.614   1.419   3.290
 8435SOL    HW226205   6.605   1.414   3.453
 8436SOL     OW26206   2.684   4.908   2.792
 8436SOL    HW126207   2.723   4.832   2.741
 8436SOL    HW226208   2.641   4.972   2.729
 8437SOL     OW26209   1.675   5.577   0.255
 8437SOL    HW126210   1.585   5.604   0.290
 8437SOL    HW226211   1.727   5.658   0.230
 8438SOL     OW26212   1.085   4.393   2.523
 8438SOL    HW126213   0.994   4.366   2.556
 8438SOL    HW226214   1.138   4.311   2.502
 8439SOL     OW26215   5.692   4.117   2.710
 8439SOL    HW126216   5.736   4.047   2.654
 8439SOL    HW226217   5.755   4.149   2.781
 8440SOL     OW26218   1.310   2.003   2.625
 8440SOL    HW126219   1.293   1.944   2.546
 8440SOL    HW226220   1.359   2.085   2.595
 8441SOL     OW26221   6.884   2.969   6.586
 8441SOL    HW126222   6.827   2.889   6.604
 8441SOL    HW226223   6.976   2.940   6.564
 8442SOL     OW26224   3.370   2.533   6.400
 8442SOL    HW126225   3.286   2.516   6.451
 8442SOL    HW226226   3.412   2.617   6.432
 8443SOL     OW26227   1.982   3.994   3.066
 8443SOL    HW126228   1.887   3.985   3.096
 8443SOL    HW226229   1.992   4.075   3.008
 8444SOL     OW26230   5.324   5.675   5.197
 8444SOL    HW126231   5.236   5.628   5.200
 8444SOL    HW226232   5.310   5.773   5.187
 8445SOL     OW26233   4.692   6.510   6.315
 8445SOL    HW126234   4.647   6.585   6.362
 8445SOL    HW226235   4.634   6.476   6.242
 8446SOL     OW26236   6.581   6.116   4.419
 8446SOL    HW126237   6.592   6.215   4.424
 8446SOL    HW226238   6.664   6.071   4.451
 8447SOL     OW26239   3.400   2.071   4.117
 8447SOL    HW126240   3.443   2.007   4.179
 8447SOL    HW226241   3.458   2.083   4.036
 8448SOL     OW26242   3.382   6.929   2.759
 8448SOL    HW126243   3.300   6.894   2.805
 8448SOL    HW226244   3.431   6.990   2.821
 8449SOL     OW26245   0.998   2.528   3.421
 8449SOL    HW126246   1.064   2.507   3.493
 8449SOL    HW226247   0.940   2.605   3.451
 8450SOL     OW26248   6.821   1.575   0.983
 8450SOL    HW126249   6.769   1.527   1.054
 8450SOL    HW226250   6.776   1.661   0.962
 8451SOL     OW26251   4.632   2.749   0.387
 8451SOL    HW126252   4.658   2.657   0.357
 8451SOL    HW226253   4.536   2.764   0.366
 8452SOL     OW26254   5.172   0.711   5.720
 8452SOL    HW126255   5.137   0.636   5.664
 8452SOL    HW226256   5.153   0.798   5.675
 8453SOL     OW26257   0.174   0.901   0.275
 8453SOL    HW126258   0.252   0.857   0.232
 8453SOL    HW226259   0.181   0.892   0.375
 8454SOL     OW26260   6.367   5.857   6.926
 8454SOL    HW126261   6.293   5.893   6.982
 8454SOL    HW226262   6.330   5.824   6.839
 8455SOL     OW26263   6.685   0.846   2.939
 8455SOL    HW126264   6.737   0.777   2.990
 8455SOL    HW226265   6.748   0.901   2.884
 8456SOL     OW26266   6.185   0.362   2.275
 8456SOL    HW126267   6.232   0.274   2.278
 8456SOL    HW226268   6.101   0.353   2.221
 8457SOL     OW26269   6.288   6.791   4.840
 8457SOL    HW126270   6.188   6.793   4.835
 8457SOL    HW226271   6.327   6.840   4.762
 8458SOL     OW26272   1.491   6.662   0.583
 8458SOL    HW126273   1.447   6.728   0.643
 8458SOL    HW226274   1.582   6.695   0.557
 8459SOL     OW26275   0.944   6.582   3.660
 8459SOL    HW126276   0.852   6.545   3.674
 8459SOL    HW226277   0.989   6.593   3.748
 8460SOL     OW26278   4.035   3.225   3.951
 8460SOL    HW126279   4.073   3.134   3.965
 8460SOL    HW226280   4.082   3.290   4.012
 8461SOL     OW26281   6.374   3.766   3.826
 8461SOL    HW126282   6.445   3.823   3.869
 8461SOL    HW226283   6.297   3.757   3.889
 8462SOL     OW26284   2.652   2.316   2.166
 8462SOL    HW126285   2.744   2.309   2.128
 8462SOL    HW226286   2.617   2.225   2.188
 8463SOL     OW26287   6.432   0.174   1.848
 8463SOL    HW126288   6.455   0.271   1.845
 8463SOL    HW226289   6.497   0.126   1.906
 8464SOL     OW26290   6.694   1.383   4.594
 8464SOL    HW126291   6.641   1.357   4.513
 8464SOL    HW226292   6.703   1.304   4.654
 8465SOL     OW26293   2.130   0.713   0.384
 8465SOL    HW126294   2.181   0.795   0.361
 8465SOL    HW226295   2.032   0.734   0.386
 8466SOL     OW26296   1.189   0.280   3.869
 8466SOL    HW126297   1.187   0.264   3.770
 8466SOL    HW226298   1.098   0.309   3.899
 8467SOL     OW26299   3.714   5.178   1.361
 8467SOL    HW126300   3.701   5.219   1.271
 8467SOL    HW226301   3.625   5.156   1.401
 8468SOL     OW26302   4.361   2.732   6.987
 8468SOL    HW126303   4.272   2.714   6.946
 8468SOL    HW226304   4.349   2.780   0.053
 8469SOL     OW26305   5.130   2.290   5.405
 8469SOL    HW126306   5.201   2.225   5.432
 8469SOL    HW226307   5.041   2.256   5.434
 8470SOL     OW26308   1.951   2.719   6.803
 8470SOL    HW126309   1.901   2.633   6.807
 8470SOL    HW226310   2.046   2.702   6.777
 8471SOL     OW26311   3.671   1.532   5.870
 8471SOL    HW126312   3.687   1.433   5.867
 8471SOL    HW226313   3.575   1.550   5.849
 8472SOL     OW26314   1.470   6.096   2.365
 8472SOL    HW126315   1.440   6.191   2.366
 8472SOL    HW226316   1.516   6.076   2.279
 8473SOL     OW26317   6.568   5.471   6.657
 8473SOL    HW126318   6.613   5.554   6.625
 8473SOL    HW226319   6.608   5.392   6.611
 8474SOL     OW26320   4.448   5.842   6.965
 8474SOL    HW126321   4.508   5.835   6.886
 8474SOL    HW226322   4.461   5.763   0.004
 8475SOL     OW26323   5.058   1.383   2.841
 8475SOL    HW126324   5.137   1.346   2.791
 8475SOL    HW226325   5.000   1.434   2.777
 8476SOL     OW26326   5.231   0.959   2.957
 8476SOL    HW126327   5.192   1.049   2.974
 8476SOL    HW226328   5.183   0.891   3.012
 8477SOL     OW26329   2.584   0.673   3.406
 8477SOL    HW126330   2.565   0.771   3.401
 8477SOL    HW226331   2.671   0.653   3.360
 8478SOL     OW26332   1.088   1.653   6.430
 8478SOL    HW126333   1.114   1.600   6.349
 8478SOL    HW226334   1.138   1.740   6.430
 8479SOL     OW26335   5.641   6.855   2.160
 8479SOL    HW126336   5.676   6.801   2.084
 8479SOL    HW226337   5.584   6.930   2.125
 8480SOL     OW26338   2.249   1.042   2.466
 8480SOL    HW126339   2.214   1.067   2.375
 8480SOL    HW226340   2.177   0.998   2.519
 8481SOL     OW26341   4.017   0.179   5.413
 8481SOL    HW126342   4.068   0.263   5.430
 8481SOL    HW226343   4.081   0.106   5.388
 8482SOL     OW26344   6.158   0.399   1.465
 8482SOL    HW126345   6.225   0.340   1.421
 8482SOL    HW226346   6.205   0.468   1.521
 8483SOL     OW26347   4.795   6.311   1.405
 8483SOL    HW126348   4.859   6.379   1.442
 8483SOL    HW226349   4.735   6.355   1.339
 8484SOL     OW26350   6.390   4.315   6.087
 8484SOL    HW126351   6.421   4.247   6.020
 8484SOL    HW226352   6.332   4.382   6.042
 8485SOL     OW26353   2.337   3.094   6.624
 8485SOL    HW126354   2.338   3.182   6.670
 8485SOL    HW226355   2.381   3.103   6.535
 8486SOL     OW26356   4.331   0.279   2.071
 8486SOL    HW126357   4.344   0.373   2.040
 8486SOL    HW226358   4.297   0.280   2.165
 8487SOL     OW26359   4.155   0.486   0.803
 8487SOL    HW126360   4.229   0.554   0.796
 8487SOL    HW226361   4.086   0.505   0.733
 8488SOL     OW26362   0.275   4.504   6.073
 8488SOL    HW126363   0.190   4.467   6.109
 8488SOL    HW226364   0.269   4.510   5.973
 8489SOL     OW26365   3.122   0.099   3.596
 8489SOL    HW126366   3.191   0.026   3.605
 8489SOL    HW226367   3.167   0.188   3.604
 8490SOL     OW26368   3.777   4.891   2.507
 8490SOL    HW126369   3.810   4.897   2.413
 8490SOL    HW226370   3.855   4.890   2.570
 8491SOL     OW26371   0.420   1.003   1.192
 8491SOL    HW126372   0.367   0.919   1.184
 8491SOL    HW226373   0.474   1.000   1.277
 8492SOL     OW26374   6.086   4.130   4.686
 8492SOL    HW126375   6.033   4.211   4.709
 8492SOL    HW226376   6.175   4.157   4.649
 8493SOL     OW26377   4.179   2.872   0.583
 8493SOL    HW126378   4.100   2.926   0.554
 8493SOL    HW226379   4.194   2.884   0.681
 8494SOL     OW26380   3.353   6.237   6.970
 8494SOL    HW126381   3.284   6.310   6.970
 8494SOL    HW226382   3.378   6.215   6.876
 8495SOL     OW26383   0.292   3.484   6.334
 8495SOL    HW126384   0.299   3.388   6.361
 8495SOL    HW226385   0.376   3.512   6.289
 8496SOL     OW26386   1.538   1.905   4.523
 8496SOL    HW126387   1.542   1.834   4.594
 8496SOL    HW226388   1.444   1.911   4.488
 8497SOL     OW26389   5.475   3.696   4.061
 8497SOL    HW126390   5.528   3.702   3.977
 8497SOL    HW226391   5.383   3.664   4.039
 8498SOL     OW26392   6.742   0.932   1.896
 8498SOL    HW126393   6.660   0.898   1.850
 8498SOL    HW226394   6.722   0.949   1.993
 8499SOL     OW26395   6.776   4.182   0.887
 8499SOL    HW126396   6.803   4.213   0.796
 8499SOL    HW226397   6.738   4.259   0.939
 8500SOL     OW26398   1.840   0.654   5.109
 8500SOL    HW126399   1.828   0.571   5.056
 8500SOL    HW226400   1.796   0.643   5.199
 8501SOL     OW26401   3.143   3.545   6.385
 8501SOL    HW126402   3.174   3.492   6.306
 8501SOL    HW226403   3.043   3.555   6.381
 8502SOL     OW26404   0.412   6.426   1.295
 8502SOL    HW126405   0.478   6.352   1.287
 8502SOL    HW226406   0.377   6.450   1.204
 8503SOL     OW26407   3.757   5.838   3.155
 8503SOL    HW126408   3.674   5.856   3.101
 8503SOL    HW226409   3.826   5.796   3.096
 8504SOL     OW26410   2.003   4.993   2.988
 8504SOL    HW126411   2.090   4.970   2.944
 8504SOL    HW226412   1.992   4.938   3.070
 8505SOL     OW26413   4.228   1.944   2.443
 8505SOL    HW126414   4.159   1.909   2.380
 8505SOL    HW226415   4.183   1.990   2.520
 8506SOL     OW26416   0.725   5.259   6.925
 8506SOL    HW126417   0.644   5.208   6.896
 8506SOL    HW226418   0.778   5.202   6.988
 8507SOL     OW26419   2.450   0.563   4.290
 8507SOL    HW126420   2.536   0.609   4.268
 8507SOL    HW226421   2.468   0.489   4.355
 8508SOL     OW26422   1.076   3.675   6.105
 8508SOL    HW126423   1.148   3.651   6.170
 8508SOL    HW226424   1.086   3.620   6.022
 8509SOL     OW26425   6.690   2.874   4.379
 8509SOL    HW126426   6.746   2.791   4.382
 8509SOL    HW226427   6.745   2.950   4.346
 8510SOL     OW26428   5.427   6.527   3.064
 8510SOL    HW126429   5.513   6.476   3.062
 8510SOL    HW226430   5.413   6.565   3.156
 8511SOL     OW26431   6.661   5.303   1.198
 8511SOL    HW126432   6.566   5.282   1.219
 8511SOL    HW226433   6.721   5.257   1.264
 8512SOL     OW26434   3.889   2.896   0.882
 8512SOL    HW126435   3.818   2.947   0.931
 8512SOL    HW226436   3.945   2.846   0.948
 8513SOL     OW26437   0.926   3.558   0.604
 8513SOL    HW126438   0.986   3.496   0.655
 8513SOL    HW226439   0.926   3.648   0.647
 8514SOL     OW26440   2.167   3.241   5.200
 8514SOL    HW126441   2.194   3.152   5.237
 8514SOL    HW226442   2.167   3.236   5.100
 8515SOL     OW26443   3.127   1.200   0.440
 8515SOL    HW126444   3.044   1.182   0.494
 8515SOL    HW226445   3.177   1.276   0.481
 8516SOL     OW26446   6.830   3.603   5.482
 8516SOL    HW126447   6.835   3.520   5.426
 8516SOL    HW226448   6.917   3.616   5.529
 8517SOL     OW26449   1.420   2.110   5.740
 8517SOL    HW126450   1.438   2.178   5.811
 8517SOL    HW226451   1.360   2.039   5.777
 8518SOL     OW26452   5.464   4.982   0.253
 8518SOL    HW126453   5.526   4.978   0.175
 8518SOL    HW226454   5.512   4.953   0.336
 8519SOL     OW26455   1.320   3.853   1.131
 8519SOL    HW126456   1.379   3.790   1.081
 8519SOL    HW226457   1.376   3.906   1.196
 8520SOL     OW26458   3.661   3.868   6.069
 8520SOL    HW126459   3.605   3.793   6.103
 8520SOL    HW226460   3.615   3.912   5.992
 8521SOL     OW26461   2.162   0.133   4.612
 8521SOL    HW126462   2.113   0.203   4.560
 8521SOL    HW226463   2.095   0.076   4.660
 8522SOL     OW26464   0.475   0.838   0.023
 8522SOL    HW126465   0.538   0.830   0.101
 8522SOL    HW226466   0.455   0.748   7.007
 8523SOL     OW26467   4.134   1.901   2.066
 8523SOL    HW126468   4.202   1.834   2.098
 8523SOL    HW226469   4.048   1.855   2.047
 8524SOL     OW26470   2.703   6.112   5.357
 8524SOL    HW126471   2.626   6.147   5.411
 8524SOL    HW226472   2.692   6.014   5.344
 8525SOL     OW26473   6.246   2.780   3.119
 8525SOL    HW126474   6.224   2.739   3.207
 8525SOL    HW226475   6.263   2.707   3.052
 8526SOL     OW26476   0.730   4.738   6.354
 8526SOL    HW126477   0.723   4.740   6.254
 8526SOL    HW226478   0.684   4.657   6.390
 8527SOL     OW26479   1.611   0.734   6.286
 8527SOL    HW126480   1.584   0.725   6.381
 8527SOL    HW226481   1.580   0.822   6.250
 8528SOL     OW26482   5.791   6.869   0.277
 8528SOL    HW126483   5.694   6.885   0.264
 8528SOL    HW226484   5.817   6.892   0.371
 8529SOL     OW26485   0.913   6.354   6.807
 8529SOL    HW126486   0.824   6.316   6.781
 8529SOL    HW226487   0.982   6.281   6.803
 8530SOL     OW26488   3.642   4.088   3.233
 8530SOL    HW126489   3.632   4.130   3.324
 8530SOL    HW226490   3.551   4.078   3.191
 8531SOL     OW26491   6.152   5.784   3.217
 8531SOL    HW126492   6.190   5.804   3.127
 8531SOL    HW226493   6.084   5.711   3.210
 8532SOL     OW26494   3.656   5.597   0.280
 8532SOL    HW126495   3.612   5.547   0.354
 8532SOL    HW226496   3.697   5.681   0.317
 8533SOL     OW26497   2.524   5.675   5.418
 8533SOL    HW126498   2.576   5.603   5.374
 8533SOL    HW226499   2.430   5.644   5.434
 8534SOL     OW26500   1.946   3.439   2.062
 8534SOL    HW126501   1.881   3.490   2.005
 8534SOL    HW226502   2.039   3.471   2.042
 8535SOL     OW26503   6.022   6.696   1.855
 8535SOL    HW126504   5.976   6.742   1.931
 8535SOL    HW226505   6.032   6.761   1.779
 8536SOL     OW26506   2.272   0.755   4.407
 8536SOL    HW126507   2.343   0.689   4.383
 8536SOL    HW226508   2.208   0.764   4.331
 8537SOL     OW26509   5.844   1.110   3.102
 8537SOL    HW126510   5.842   1.210   3.114
 8537SOL    HW226511   5.760   1.070   3.139
 8538SOL     OW26512   0.357   2.477   6.586
 8538SOL    HW126513   0.311   2.565   6.604
 8538SOL    HW226514   0.300   2.402   6.620
 8539SOL     OW26515   5.447   3.880   1.991
 8539SOL    HW126516   5.441   3.972   2.029
 8539SOL    HW226517   5.368   3.826   2.021
 8540SOL     OW26518   4.238   0.014   1.165
 8540SOL    HW126519   4.336   0.021   1.148
 8540SOL    HW226520   4.192   0.096   1.133
 8541SOL     OW26521   1.158   3.000   3.203
 8541SOL    HW126522   1.077   2.949   3.174
 8541SOL    HW226523   1.167   2.995   3.302
 8542SOL     OW26524   2.901   5.431   6.517
 8542SOL    HW126525   2.991   5.436   6.559
 8542SOL    HW226526   2.867   5.337   6.520
 8543SOL     OW26527   4.150   2.072   6.771
 8543SOL    HW126528   4.080   2.142   6.758
 8543SOL    HW226529   4.236   2.103   6.731
 8544SOL     OW26530   5.795   2.062   4.500
 8544SOL    HW126531   5.703   2.084   4.532
 8544SOL    HW226532   5.839   2.000   4.564
 8545SOL     OW26533   4.520   0.273   5.265
 8545SOL    HW126534   4.463   0.329   5.205
 8545SOL    HW226535   4.491   0.285   5.359
 8546SOL     OW26536   4.415   2.133   6.167
 8546SOL    HW126537   4.404   2.037   6.143
 8546SOL    HW226538   4.377   2.150   6.258
 8547SOL     OW26539   1.528   4.792   2.348
 8547SOL    HW126540   1.627   4.795   2.329
 8547SOL    HW226541   1.483   4.866   2.299
 8548SOL     OW26542   6.051   2.611   5.193
 8548SOL    HW126543   6.027   2.515   5.182
 8548SOL    HW226544   6.044   2.658   5.105
 8549SOL     OW26545   4.931   2.646   4.433
 8549SOL    HW126546   4.945   2.632   4.531
 8549SOL    HW226547   5.019   2.639   4.385
 8550SOL     OW26548   1.688   4.835   5.911
 8550SOL    HW126549   1.737   4.918   5.884
 8550SOL    HW226550   1.612   4.858   5.971
 8551SOL     OW26551   2.627   5.045   0.696
 8551SOL    HW126552   2.565   5.123   0.704
 8551SOL    HW226553   2.670   5.045   0.606
 8552SOL     OW26554   2.951   6.578   3.555
 8552SOL    HW126555   3.040   6.563   3.513
 8552SOL    HW226556   2.959   6.649   3.625
 8553SOL     OW26557   6.354   5.463   0.000
 8553SOL    HW126558   6.336   5.443   6.924
 8553SOL    HW226559   6.406   5.548   0.007
 8554SOL     OW26560   5.573   3.778   0.041
 8554SOL    HW126561   5.547   3.836   6.984
 8554SOL    HW226562   5.523   3.692   0.037
 8555SOL     OW26563   2.064   6.275   4.307
 8555SOL    HW126564   2.063   6.176   4.293
 8555SOL    HW226565   2.007   6.319   4.237
 8556SOL     OW26566   5.454   0.497   5.182
 8556SOL    HW126567   5.543   0.481   5.224
 8556SOL    HW226568   5.387   0.432   5.219
 8557SOL     OW26569   0.043   1.806   1.177
 8557SOL    HW126570   7.003   1.759   1.241
 8557SOL    HW226571   7.011   1.837   1.098
 8558SOL     OW26572   1.971   4.607   2.228
 8558SOL    HW126573   2.043   4.586   2.295
 8558SOL    HW226574   1.926   4.692   2.253
 8559SOL     OW26575   1.174   1.020   5.139
 8559SOL    HW126576   1.195   1.056   5.230
 8559SOL    HW226577   1.152   1.095   5.078
 8560SOL     OW26578   6.491   2.876   0.061
 8560SOL    HW126579   6.574   2.846   0.108
 8560SOL    HW226580   6.512   2.953   0.001
 8561SOL     OW26581   5.412   6.538   5.880
 8561SOL    HW126582   5.417   6.454   5.825
 8561SOL    HW226583   5.386   6.615   5.822
 8562SOL     OW26584   3.859   0.926   4.775
 8562SOL    HW126585   3.821   0.836   4.753
 8562SOL    HW226586   3.959   0.920   4.777
 8563SOL     OW26587   2.404   3.204   6.376
 8563SOL    HW126588   2.376   3.138   6.306
 8563SOL    HW226589   2.341   3.281   6.377
 8564SOL     OW26590   1.016   5.425   4.123
 8564SOL    HW126591   0.982   5.520   4.127
 8564SOL    HW226592   0.980   5.380   4.042
 8565SOL     OW26593   3.583   0.557   1.389
 8565SOL    HW126594   3.547   0.650   1.396
 8565SOL    HW226595   3.564   0.507   1.474
 8566SOL     OW26596   1.679   4.659   4.560
 8566SOL    HW126597   1.610   4.607   4.611
 8566SOL    HW226598   1.715   4.603   4.486
 8567SOL     OW26599   5.115   6.780   6.277
 8567SOL    HW126600   5.191   6.795   6.214
 8567SOL    HW226601   5.063   6.700   6.249
 8568SOL     OW26602   5.258   0.000   0.803
 8568SOL    HW126603   5.339   0.059   0.811
 8568SOL    HW226604   5.268   6.961   0.724
 8569SOL     OW26605   2.407   0.988   5.293
 8569SOL    HW126606   2.402   1.052   5.216
 8569SOL    HW226607   2.381   0.897   5.262
 8570SOL     OW26608   6.789   3.774   6.141
 8570SOL    HW126609   6.821   3.696   6.195
 8570SOL    HW226610   6.722   3.825   6.194
 8571SOL     OW26611   0.287   4.600   6.441
 8571SOL    HW126612   0.324   4.597   6.534
 8571SOL    HW226613   0.329   4.676   6.392
 8572SOL     OW26614   2.575   4.903   6.514
 8572SOL    HW126615   2.601   4.826   6.574
 8572SOL    HW226616   2.632   4.901   6.432
 8573SOL     OW26617   3.062   5.797   4.520
 8573SOL    HW126618   3.082   5.707   4.560
 8573SOL    HW226619   3.035   5.785   4.425
 8574SOL     OW26620   1.207   4.197   4.510
 8574SOL    HW126621   1.137   4.252   4.465
 8574SOL    HW226622   1.193   4.100   4.486
 8575SOL     OW26623   2.889   3.373   6.075
 8575SOL    HW126624   2.792   3.380   6.050
 8575SOL    HW226625   2.940   3.445   6.029
 8576SOL     OW26626   1.783   0.487   0.559
 8576SOL    HW126627   1.698   0.531   0.528
 8576SOL    HW226628   1.838   0.554   0.610
 8577SOL     OW26629   6.311   5.901   4.962
 8577SOL    HW126630   6.329   5.833   4.891
 8577SOL    HW226631   6.213   5.908   4.977
 8578SOL     OW26632   4.854   0.470   4.169
 8578SOL    HW126633   4.898   0.544   4.117
 8578SOL    HW226634   4.764   0.501   4.201
 8579SOL     OW26635   6.804   4.876   2.439
 8579SOL    HW126636   6.844   4.962   2.408
 8579SOL    HW226637   6.784   4.818   2.359
 8580SOL     OW26638   1.651   5.799   5.966
 8580SOL    HW126639   1.588   5.862   6.011
 8580SOL    HW226640   1.653   5.819   5.868
 8581SOL     OW26641   3.436   3.134   0.227
 8581SOL    HW126642   3.369   3.182   0.171
 8581SOL    HW226643   3.512   3.196   0.247
 8582SOL     OW26644   3.059   5.738   0.033
 8582SOL    HW126645   3.157   5.727   0.045
 8582SOL    HW226646   3.035   5.835   0.038
 8583SOL     OW26647   5.775   6.917   4.378
 8583SOL    HW126648   5.841   6.973   4.328
 8583SOL    HW226649   5.796   6.820   4.363
 8584SOL     OW26650   0.766   5.933   6.189
 8584SOL    HW126651   0.670   5.959   6.193
 8584SOL    HW226652   0.802   5.953   6.098
 8585SOL     OW26653   1.299   1.029   0.575
 8585SOL    HW126654   1.239   1.064   0.647
 8585SOL    HW226655   1.250   1.028   0.488
 8586SOL     OW26656   3.761   5.128   3.642
 8586SOL    HW126657   3.730   5.065   3.571
 8586SOL    HW226658   3.695   5.203   3.651
 8587SOL     OW26659   0.070   1.413   0.746
 8587SOL    HW126660   0.073   1.377   0.840
 8587SOL    HW226661   0.137   1.365   0.690
 8588SOL     OW26662   3.769   3.056   6.794
 8588SOL    HW126663   3.705   3.110   6.739
 8588SOL    HW226664   3.816   2.990   6.735
 8589SOL     OW26665   3.402   1.581   4.147
 8589SOL    HW126666   3.304   1.575   4.129
 8589SOL    HW226667   3.437   1.491   4.173
 8590SOL     OW26668   4.958   3.722   6.100
 8590SOL    HW126669   4.938   3.705   6.004
 8590SOL    HW226670   5.056   3.740   6.112
 8591SOL     OW26671   0.438   3.237   0.675
 8591SOL    HW126672   0.536   3.257   0.681
 8591SOL    HW226673   0.397   3.248   0.765
 8592SOL     OW26674   6.548   6.018   7.019
 8592SOL    HW126675   6.635   5.974   7.000
 8592SOL    HW226676   6.475   5.950   7.015
 8593SOL     OW26677   0.598   5.389   4.019
 8593SOL    HW126678   0.614   5.440   4.104
 8593SOL    HW226679   0.686   5.356   3.983
 8594SOL     OW26680   3.996   3.841   2.596
 8594SOL    HW126681   4.043   3.905   2.535
 8594SOL    HW226682   3.968   3.760   2.544
 8595SOL     OW26683   1.051   2.670   2.268
 8595SOL    HW126684   1.074   2.726   2.188
 8595SOL    HW226685   1.110   2.589   2.271
 8596SOL     OW26686   0.064   3.951   2.660
 8596SOL    HW126687   0.036   3.915   2.571
 8596SOL    HW226688   7.007   3.946   2.723
 8597SOL     OW26689   1.828   2.000   0.765
 8597SOL    HW126690   1.903   2.063   0.786
 8597SOL    HW226691   1.860   1.906   0.773
 8598SOL     OW26692   6.275   2.873   1.511
 8598SOL    HW126693   6.236   2.796   1.460
 8598SOL    HW226694   6.237   2.875   1.603
 8599SOL     OW26695   0.767   2.377   0.622
 8599SOL    HW126696   0.728   2.318   0.692
 8599SOL    HW226697   0.822   2.449   0.666
 8600SOL     OW26698   0.130   2.916   5.980
 8600SOL    HW126699   0.075   2.997   5.960
 8600SOL    HW226700   0.142   2.862   5.897
 8601SOL     OW26701   0.688   0.383   4.614
 8601SOL    HW126702   0.672   0.290   4.583
 8601SOL    HW226703   0.780   0.391   4.651
 8602SOL     OW26704   0.954   6.267   2.233
 8602SOL    HW126705   0.855   6.282   2.233
 8602SOL    HW226706   0.988   6.268   2.138
 8603SOL     OW26707   4.882   3.912   1.819
 8603SOL    HW126708   4.950   3.937   1.749
 8603SOL    HW226709   4.797   3.887   1.774
 8604SOL     OW26710   6.226   2.113   3.383
 8604SOL    HW126711   6.152   2.166   3.341
 8604SOL    HW226712   6.213   2.112   3.482
 8605SOL     OW26713   2.108   5.572   1.716
 8605SOL    HW126714   2.147   5.588   1.807
 8605SOL    HW226715   2.008   5.579   1.722
 8606SOL     OW26716   3.998   5.455   4.479
 8606SOL    HW126717   4.008   5.403   4.564
 8606SOL    HW226718   3.911   5.431   4.436
 8607SOL     OW26719   2.945   6.312   0.355
 8607SOL    HW126720   2.873   6.274   0.298
 8607SOL    HW226721   2.964   6.250   0.431
 8608SOL     OW26722   6.037   6.534   3.036
 8608SOL    HW126723   5.968   6.606   3.040
 8608SOL    HW226724   6.001   6.450   3.078
 8609SOL     OW26725   5.764   0.184   5.765
 8609SOL    HW126726   5.753   0.240   5.682
 8609SOL    HW226727   5.754   0.087   5.741
 8610SOL     OW26728   0.305   0.014   4.495
 8610SOL    HW126729   0.314   7.018   4.396
 8610SOL    HW226730   0.292   6.947   4.542
 8611SOL     OW26731   1.799   1.900   2.631
 8611SOL    HW126732   1.774   1.803   2.633
 8611SOL    HW226733   1.817   1.931   2.724
 8612SOL     OW26734   5.043   3.347   4.314
 8612SOL    HW126735   4.968   3.368   4.378
 8612SOL    HW226736   5.026   3.257   4.273
 8613SOL     OW26737   1.746   0.553   1.015
 8613SOL    HW126738   1.790   0.465   1.030
 8613SOL    HW226739   1.780   0.619   1.082
 8614SOL     OW26740   1.598   2.730   3.181
 8614SOL    HW126741   1.619   2.726   3.278
 8614SOL    HW226742   1.578   2.824   3.154
 8615SOL     OW26743   4.711   1.802   6.019
 8615SOL    HW126744   4.674   1.731   5.959
 8615SOL    HW226745   4.701   1.774   6.114
 8616SOL     OW26746   0.790   3.418   1.035
 8616SOL    HW126747   0.760   3.486   0.968
 8616SOL    HW226748   0.805   3.330   0.990
 8617SOL     OW26749   6.591   3.367   0.530
 8617SOL    HW126750   6.500   3.356   0.489
 8617SOL    HW226751   6.588   3.441   0.598
 8618SOL     OW26752   3.005   1.261   3.012
 8618SOL    HW126753   2.977   1.222   2.925
 8618SOL    HW226754   3.006   1.360   3.006
 8619SOL     OW26755   3.957   6.447   0.541
 8619SOL    HW126756   4.001   6.506   0.474
 8619SOL    HW226757   3.987   6.473   0.633
 8620SOL     OW26758   6.000   6.052   3.891
 8620SOL    HW126759   5.958   6.139   3.917
 8620SOL    HW226760   5.945   6.008   3.820
 8621SOL     OW26761   5.091   1.437   3.924
 8621SOL    HW126762   5.008   1.470   3.879
 8621SOL    HW226763   5.076   1.433   4.023
 8622SOL     OW26764   5.289   5.032   5.956
 8622SOL    HW126765   5.338   4.947   5.975
 8622SOL    HW226766   5.303   5.058   5.860
 8623SOL     OW26767   5.579   1.740   3.714
 8623SOL    HW126768   5.598   1.802   3.637
 8623SOL    HW226769   5.537   1.792   3.788
 8624SOL     OW26770   6.823   2.765   3.576
 8624SOL    HW126771   6.794   2.711   3.497
 8624SOL    HW226772   6.745   2.817   3.611
 8625SOL     OW26773   3.504   1.488   7.016
 8625SOL    HW126774   3.474   1.526   6.929
 8625SOL    HW226775   3.455   1.403   0.013
 8626SOL     OW26776   2.933   3.908   1.714
 8626SOL    HW126777   2.858   3.968   1.684
 8626SOL    HW226778   2.970   3.941   1.800
 8627SOL     OW26779   3.329   0.401   6.499
 8627SOL    HW126780   3.308   0.310   6.465
 8627SOL    HW226781   3.365   0.394   6.592
 8628SOL     OW26782   6.014   0.614   1.794
 8628SOL    HW126783   6.047   0.708   1.807
 8628SOL    HW226784   6.045   0.557   1.870
 8629SOL     OW26785   1.369   6.222   3.162
 8629SOL    HW126786   1.451   6.228   3.219
 8629SOL    HW226787   1.306   6.296   3.188
 8630SOL     OW26788   5.206   4.940   4.135
 8630SOL    HW126789   5.188   4.855   4.085
 8630SOL    HW226790   5.119   4.979   4.166
 8631SOL     OW26791   3.979   0.172   3.525
 8631SOL    HW126792   4.045   0.105   3.492
 8631SOL    HW226793   3.992   0.259   3.476
 8632SOL     OW26794   2.855   0.760   2.923
 8632SOL    HW126795   2.803   0.677   2.907
 8632SOL    HW226796   2.903   0.786   2.838
 8633SOL     OW26797   6.213   6.325   3.120
 8633SOL    HW126798   6.172   6.406   3.079
 8633SOL    HW226799   6.229   6.256   3.049
 8634SOL     OW26800   5.476   6.737   1.480
 8634SOL    HW126801   5.484   6.831   1.514
 8634SOL    HW226802   5.544   6.723   1.407
 8635SOL     OW26803   6.117   3.721   5.804
 8635SOL    HW126804   6.163   3.731   5.892
 8635SOL    HW226805   6.105   3.623   5.785
 8636SOL     OW26806   5.552   4.876   1.225
 8636SOL    HW126807   5.586   4.787   1.195
 8636SOL    HW226808   5.615   4.948   1.196
 8637SOL     OW26809   0.741   0.392   2.082
 8637SOL    HW126810   0.754   0.378   1.984
 8637SOL    HW226811   0.764   0.307   2.131
 8638SOL     OW26812   6.289   4.634   1.136
 8638SOL    HW126813   6.235   4.691   1.074
 8638SOL    HW226814   6.345   4.571   1.083
 8639SOL     OW26815   5.767   2.795   3.588
 8639SOL    HW126816   5.802   2.765   3.677
 8639SOL    HW226817   5.671   2.821   3.597
 8640SOL     OW26818   4.984   5.882   1.292
 8640SOL    HW126819   5.047   5.847   1.361
 8640SOL    HW226820   4.961   5.809   1.228
 8641SOL     OW26821   4.915   5.131   3.980
 8641SOL    HW126822   4.869   5.151   4.066
 8641SOL    HW226823   4.989   5.196   3.965
 8642SOL     OW26824   4.371   0.627   0.831
 8642SOL    HW126825   4.431   0.550   0.808
 8642SOL    HW226826   4.398   0.665   0.919
 8643SOL     OW26827   4.911   6.937   0.182
 8643SOL    HW126828   4.862   6.958   0.267
 8643SOL    HW226829   5.008   6.927   0.202
 8644SOL     OW26830   6.244   3.233   5.383
 8644SOL    HW126831   6.222   3.234   5.481
 8644SOL    HW226832   6.159   3.230   5.330
 8645SOL     OW26833   6.478   3.518   2.264
 8645SOL    HW126834   6.494   3.504   2.361
 8645SOL    HW226835   6.529   3.598   2.233
 8646SOL     OW26836   4.384   6.597   0.156
 8646SOL    HW126837   4.380   6.590   0.056
 8646SOL    HW226838   4.380   6.505   0.196
 8647SOL     OW26839   4.907   4.815   1.910
 8647SOL    HW126840   4.930   4.907   1.878
 8647SOL    HW226841   4.972   4.787   1.980
 8648SOL     OW26842   6.616   0.834   4.389
 8648SOL    HW126843   6.641   0.764   4.456
 8648SOL    HW226844   6.519   0.856   4.399
 8649SOL     OW26845   6.648   3.111   5.671
 8649SOL    HW126846   6.688   3.202   5.679
 8649SOL    HW226847   6.716   3.042   5.696
 8650SOL     OW26848   0.318   5.689   1.925
 8650SOL    HW126849   0.269   5.709   2.011
 8650SOL    HW226850   0.330   5.590   1.917
 8651SOL     OW26851   4.358   3.524   1.171
 8651SOL    HW126852   4.436   3.585   1.181
 8651SOL    HW226853   4.375   3.440   1.223
 8652SOL     OW26854   0.787   2.546   4.655
 8652SOL    HW126855   0.700   2.498   4.669
 8652SOL    HW226856   0.770   2.633   4.609
 8653SOL     OW26857   5.055   3.533   6.350
 8653SOL    HW126858   4.993   3.505   6.423
 8653SOL    HW226859   5.048   3.631   6.336
 8654SOL     OW26860   1.778   4.752   1.667
 8654SOL    HW126861   1.734   4.673   1.709
 8654SOL    HW226862   1.863   4.772   1.714
 8655SOL     OW26863   5.474   6.238   2.814
 8655SOL    HW126864   5.483   6.336   2.797
 8655SOL    HW226865   5.564   6.199   2.836
 8656SOL     OW26866   6.502   2.077   2.017
 8656SOL    HW126867   6.526   2.156   2.074
 8656SOL    HW226868   6.538   2.091   1.925
 8657SOL     OW26869   2.825   5.005   0.486
 8657SOL    HW126870   2.912   5.045   0.515
 8657SOL    HW226871   2.800   5.042   0.397
 8658SOL     OW26872   1.257   6.089   5.322
 8658SOL    HW126873   1.295   5.999   5.341
 8658SOL    HW226874   1.164   6.094   5.359
 8659SOL     OW26875   3.244   0.096   4.137
 8659SOL    HW126876   3.239   0.135   4.045
 8659SOL    HW226877   3.332   0.119   4.178
 8660SOL     OW26878   4.893   4.278   0.464
 8660SOL    HW126879   4.950   4.240   0.391
 8660SOL    HW226880   4.946   4.345   0.516
 8661SOL     OW26881   6.469   2.740   2.062
 8661SOL    HW126882   6.487   2.642   2.065
 8661SOL    HW226883   6.406   2.765   2.136
 8662SOL     OW26884   0.451   1.333   0.195
 8662SOL    HW126885   0.482   1.239   0.209
 8662SOL    HW226886   0.515   1.395   0.240
 8663SOL     OW26887   3.140   5.503   0.238
 8663SOL    HW126888   3.109   5.571   0.304
 8663SOL    HW226889   3.070   5.488   0.169
 8664SOL     OW26890   4.911   4.124   1.274
 8664SOL    HW126891   4.922   4.139   1.372
 8664SOL    HW226892   4.866   4.036   1.258
 8665SOL     OW26893   5.374   5.140   4.264
 8665SOL    HW126894   5.323   5.080   4.203
 8665SOL    HW226895   5.327   5.228   4.271
 8666SOL     OW26896   6.576   4.856   4.612
 8666SOL    HW126897   6.491   4.871   4.662
 8666SOL    HW226898   6.652   4.898   4.662
 8667SOL     OW26899   5.522   3.073   3.398
 8667SOL    HW126900   5.497   3.161   3.438
 8667SOL    HW226901   5.451   3.044   3.333
 8668SOL     OW26902   3.237   0.781   4.911
 8668SOL    HW126903   3.186   0.761   4.828
 8668SOL    HW226904   3.297   0.704   4.933
 8669SOL     OW26905   3.550   6.347   6.581
 8669SOL    HW126906   3.512   6.255   6.587
 8669SOL    HW226907   3.608   6.365   6.660
 8670SOL     OW26908   4.175   4.749   3.064
 8670SOL    HW126909   4.109   4.810   3.020
 8670SOL    HW226910   4.261   4.797   3.078
 8671SOL     OW26911   5.995   5.355   1.068
 8671SOL    HW126912   5.931   5.355   0.991
 8671SOL    HW226913   6.079   5.307   1.041
 8672SOL     OW26914   3.807   5.413   4.701
 8672SOL    HW126915   3.885   5.410   4.764
 8672SOL    HW226916   3.776   5.507   4.690
 8673SOL     OW26917   4.801   2.330   6.744
 8673SOL    HW126918   4.822   2.427   6.757
 8673SOL    HW226919   4.711   2.321   6.702
 8674SOL     OW26920   0.427   6.983   2.220
 8674SOL    HW126921   0.415   7.018   2.128
 8674SOL    HW226922   0.491   6.906   2.219
 8675SOL     OW26923   2.500   2.074   1.949
 8675SOL    HW126924   2.554   2.059   2.032
 8675SOL    HW226925   2.558   2.060   1.869
 8676SOL     OW26926   5.496   1.596   4.189
 8676SOL    HW126927   5.519   1.569   4.095
 8676SOL    HW226928   5.424   1.665   4.187
 8677SOL     OW26929   2.197   3.419   5.784
 8677SOL    HW126930   2.126   3.488   5.798
 8677SOL    HW226931   2.232   3.426   5.691
 8678SOL     OW26932   0.696   1.154   6.121
 8678SOL    HW126933   0.626   1.185   6.056
 8678SOL    HW226934   0.740   1.233   6.163
 8679SOL     OW26935   6.362   2.541   4.466
 8679SOL    HW126936   6.264   2.535   4.448
 8679SOL    HW226937   6.377   2.582   4.556
 8680SOL     OW26938   0.527   3.290   6.130
 8680SOL    HW126939   0.476   3.279   6.216
 8680SOL    HW226940   0.583   3.209   6.114
 8681SOL     OW26941   4.071   4.151   1.289
 8681SOL    HW126942   4.108   4.072   1.339
 8681SOL    HW226943   3.992   4.121   1.235
 8682SOL     OW26944   1.471   5.876   2.821
 8682SOL    HW126945   1.493   5.791   2.773
 8682SOL    HW226946   1.391   5.919   2.779
 8683SOL     OW26947   4.523   3.890   6.906
 8683SOL    HW126948   4.435   3.855   6.937
 8683SOL    HW226949   4.594   3.864   6.972
 8684SOL     OW26950   6.322   2.560   3.840
 8684SOL    HW126951   6.362   2.548   3.749
 8684SOL    HW226952   6.231   2.519   3.842
 8685SOL     OW26953   0.362   2.436   5.284
 8685SOL    HW126954   0.293   2.412   5.216
 8685SOL    HW226955   0.428   2.361   5.291
 8686SOL     OW26956   6.142   1.014   4.345
 8686SOL    HW126957   6.081   0.948   4.301
 8686SOL    HW226958   6.232   1.010   4.302
 8687SOL     OW26959   3.673   0.984   2.851
 8687SOL    HW126960   3.627   1.073   2.849
 8687SOL    HW226961   3.696   0.960   2.945
 8688SOL     OW26962   6.773   6.635   1.728
 8688SOL    HW126963   6.731   6.560   1.779
 8688SOL    HW226964   6.872   6.629   1.736
 8689SOL     OW26965   4.874   4.639   1.678
 8689SOL    HW126966   4.875   4.539   1.681
 8689SOL    HW226967   4.894   4.676   1.769
 8690SOL     OW26968   1.728   0.367   1.671
 8690SOL    HW126969   1.687   0.351   1.581
 8690SOL    HW226970   1.676   0.437   1.720
 8691SOL     OW26971   5.536   1.197   6.802
 8691SOL    HW126972   5.547   1.113   6.748
 8691SOL    HW226973   5.554   1.276   6.745
 8692SOL     OW26974   1.621   1.258   3.603
 8692SOL    HW126975   1.621   1.298   3.512
 8692SOL    HW226976   1.554   1.184   3.607
 8693SOL     OW26977   4.799   2.771   6.542
 8693SOL    HW126978   4.718   2.721   6.573
 8693SOL    HW226979   4.831   2.732   6.456
 8694SOL     OW26980   3.789   0.456   6.686
 8694SOL    HW126981   3.835   0.373   6.719
 8694SOL    HW226982   3.707   0.473   6.741
 8695SOL     OW26983   4.228   3.553   5.023
 8695SOL    HW126984   4.314   3.560   4.972
 8695SOL    HW226985   4.175   3.636   5.011
 8696SOL     OW26986   2.117   5.482   6.974
 8696SOL    HW126987   2.175   5.425   0.012
 8696SOL    HW226988   2.062   5.542   0.012
 8697SOL     OW26989   5.233   5.840   6.559
 8697SOL    HW126990   5.161   5.805   6.618
 8697SOL    HW226991   5.206   5.830   6.464
 8698SOL     OW26992   5.968   5.851   5.599
 8698SOL    HW126993   5.932   5.830   5.689
 8698SOL    HW226994   6.020   5.773   5.564
 8699SOL     OW26995   1.943   1.347   4.252
 8699SOL    HW126996   1.940   1.422   4.319
 8699SOL    HW226997   2.036   1.336   4.218
 8700SOL     OW26998   2.448   0.352   5.915
 8700SOL    HW126999   2.526   0.404   5.882
 8700SOL    HW227000   2.448   0.261   5.872
 8701SOL     OW27001   1.172   0.555   3.156
 8701SOL    HW127002   1.151   0.627   3.222
 8701SOL    HW227003   1.272   0.545   3.149
 8702SOL     OW27004   4.419   0.216   6.125
 8702SOL    HW127005   4.356   0.288   6.151
 8702SOL    HW227006   4.502   0.222   6.181
 8703SOL     OW27007   1.599   4.479   1.051
 8703SOL    HW127008   1.601   4.572   1.014
 8703SOL    HW227009   1.649   4.418   0.990
 8704SOL     OW27010   1.084   4.516   2.269
 8704SOL    HW127011   1.050   4.448   2.204
 8704SOL    HW227012   1.100   4.473   2.357
 8705SOL     OW27013   4.594   6.440   4.507
 8705SOL    HW127014   4.554   6.360   4.552
 8705SOL    HW227015   4.595   6.426   4.408
 8706SOL     OW27016   5.004   0.371   6.670
 8706SOL    HW127017   4.982   0.417   6.584
 8706SOL    HW227018   5.099   0.341   6.668
 8707SOL     OW27019   3.926   1.645   5.799
 8707SOL    HW127020   3.837   1.600   5.811
 8707SOL    HW227021   3.997   1.576   5.791
 8708SOL     OW27022   3.854   1.626   1.184
 8708SOL    HW127023   3.894   1.565   1.252
 8708SOL    HW227024   3.885   1.600   1.093
 8709SOL     OW27025   5.160   3.437   0.035
 8709SOL    HW127026   5.176   3.385   6.972
 8709SOL    HW227027   5.163   3.376   0.114
 8710SOL     OW27028   6.323   4.028   4.119
 8710SOL    HW127029   6.224   4.036   4.106
 8710SOL    HW227030   6.370   4.061   4.038
 8711SOL     OW27031   1.953   1.582   4.437
 8711SOL    HW127032   1.859   1.615   4.439
 8711SOL    HW227033   2.012   1.650   4.481
 8712SOL     OW27034   3.403   0.347   6.767
 8712SOL    HW127035   3.327   0.334   6.831
 8712SOL    HW227036   3.480   0.290   6.795
 8713SOL     OW27037   6.248   4.871   3.043
 8713SOL    HW127038   6.277   4.813   3.119
 8713SOL    HW227039   6.148   4.876   3.041
 8714SOL     OW27040   2.055   1.415   3.936
 8714SOL    HW127041   1.987   1.386   4.003
 8714SOL    HW227042   2.010   1.436   3.849
 8715SOL     OW27043   5.461   0.595   2.664
 8715SOL    HW127044   5.451   0.653   2.745
 8715SOL    HW227045   5.415   0.637   2.586
 8716SOL     OW27046   1.411   0.836   2.588
 8716SOL    HW127047   1.355   0.893   2.528
 8716SOL    HW227048   1.401   0.740   2.561
 8717SOL     OW27049   4.506   3.946   1.027
 8717SOL    HW127050   4.585   3.962   1.086
 8717SOL    HW227051   4.472   4.033   0.992
 8718SOL     OW27052   6.874   2.561   6.133
 8718SOL    HW127053   6.845   2.485   6.075
 8718SOL    HW227054   6.797   2.622   6.149
 8719SOL     OW27055   6.708   0.995   5.452
 8719SOL    HW127056   6.656   0.932   5.510
 8719SOL    HW227057   6.655   1.079   5.438
 8720SOL     OW27058   5.363   2.922   5.052
 8720SOL    HW127059   5.316   2.839   5.020
 8720SOL    HW227060   5.458   2.900   5.072
 8721SOL     OW27061   6.876   0.469   4.823
 8721SOL    HW127062   6.911   0.561   4.807
 8721SOL    HW227063   6.864   0.455   4.922
 8722SOL     OW27064   3.939   2.613   0.579
 8722SOL    HW127065   3.876   2.657   0.643
 8722SOL    HW227066   3.887   2.553   0.518
 8723SOL     OW27067   0.462   5.905   0.664
 8723SOL    HW127068   0.556   5.924   0.636
 8723SOL    HW227069   0.458   5.819   0.715
 8724SOL     OW27070   4.526   5.839   6.430
 8724SOL    HW127071   4.491   5.775   6.362
 8724SOL    HW227072   4.580   5.910   6.384
 8725SOL     OW27073   2.722   6.553   0.601
 8725SOL    HW127074   2.644   6.526   0.545
 8725SOL    HW227075   2.748   6.647   0.580
 8726SOL     OW27076   6.978   6.852   0.550
 8726SOL    HW127077   0.036   6.902   0.515
 8726SOL    HW227078   6.930   6.907   0.618
 8727SOL     OW27079   5.329   6.496   2.057
 8727SOL    HW127080   5.260   6.480   2.127
 8727SOL    HW227081   5.304   6.448   1.973
 8728SOL     OW27082   2.333   5.258   5.662
 8728SOL    HW127083   2.259   5.324   5.654
 8728SOL    HW227084   2.409   5.300   5.712
 8729SOL     OW27085   4.913   5.693   4.466
 8729SOL    HW127086   4.852   5.647   4.401
 8729SOL    HW227087   4.952   5.774   4.424
 8730SOL     OW27088   6.365   6.439   1.304
 8730SOL    HW127089   6.330   6.363   1.248
 8730SOL    HW227090   6.362   6.414   1.400
 8731SOL     OW27091   0.698   1.802   3.176
 8731SOL    HW127092   0.696   1.896   3.142
 8731SOL    HW227093   0.793   1.772   3.186
 8732SOL     OW27094   6.170   6.394   2.211
 8732SOL    HW127095   6.213   6.467   2.264
 8732SOL    HW227096   6.193   6.405   2.114
 8733SOL     OW27097   6.614   0.898   0.668
 8733SOL    HW127098   6.519   0.873   0.650
 8733SOL    HW227099   6.641   0.972   0.606
 8734SOL     OW27100   6.089   6.960   1.033
 8734SOL    HW127101   6.010   7.015   1.008
 8734SOL    HW227102   6.113   6.978   1.128
 8735SOL     OW27103   0.456   2.984   6.042
 8735SOL    HW127104   0.383   3.033   5.993
 8735SOL    HW227105   0.420   2.949   6.128
 8736SOL     OW27106   0.591   4.998   5.773
 8736SOL    HW127107   0.687   5.021   5.756
 8736SOL    HW227108   0.584   4.950   5.861
 8737SOL     OW27109   4.000   5.523   6.964
 8737SOL    HW127110   4.026   5.600   6.905
 8737SOL    HW227111   3.901   5.512   6.963
 8738SOL     OW27112   1.228   3.997   5.351
 8738SOL    HW127113   1.247   3.899   5.345
 8738SOL    HW227114   1.151   4.012   5.413
 8739SOL     OW27115   1.233   3.375   5.306
 8739SOL    HW127116   1.237   3.437   5.228
 8739SOL    HW227117   1.316   3.319   5.308
 8740SOL     OW27118   1.137   6.068   0.481
 8740SOL    HW127119   1.141   6.165   0.505
 8740SOL    HW227120   1.183   6.014   0.551
 8741SOL     OW27121   1.396   3.555   1.830
 8741SOL    HW127122   1.378   3.549   1.732
 8741SOL    HW227123   1.327   3.502   1.880
 8742SOL     OW27124   4.703   5.140   1.606
 8742SOL    HW127125   4.614   5.184   1.597
 8742SOL    HW227126   4.694   5.041   1.600
 8743SOL     OW27127   3.322   5.350   2.456
 8743SOL    HW127128   3.411   5.393   2.475
 8743SOL    HW227129   3.319   5.320   2.360
 8744SOL     OW27130   3.130   3.646   5.283
 8744SOL    HW127131   3.083   3.573   5.233
 8744SOL    HW227132   3.218   3.663   5.240
 8745SOL     OW27133   5.463   1.837   6.005
 8745SOL    HW127134   5.426   1.852   6.097
 8745SOL    HW227135   5.430   1.749   5.970
 8746SOL     OW27136   5.172   3.349   4.613
 8746SOL    HW127137   5.113   3.428   4.629
 8746SOL    HW227138   5.169   3.323   4.517
 8747SOL     OW27139   0.921   1.881   4.224
 8747SOL    HW127140   0.861   1.812   4.183
 8747SOL    HW227141   0.988   1.836   4.283
 8748SOL     OW27142   3.376   0.558   6.229
 8748SOL    HW127143   3.323   0.508   6.298
 8748SOL    HW227144   3.319   0.627   6.186
 8749SOL     OW27145   3.907   1.305   3.604
 8749SOL    HW127146   3.982   1.357   3.645
 8749SOL    HW227147   3.886   1.344   3.514
 8750SOL     OW27148   2.060   6.918   4.754
 8750SOL    HW127149   2.054   6.825   4.792
 8750SOL    HW227150   2.137   6.923   4.691
 8751SOL     OW27151   1.812   6.231   2.666
 8751SOL    HW127152   1.786   6.157   2.727
 8751SOL    HW227153   1.896   6.274   2.699
 8752SOL     OW27154   1.913   0.730   6.438
 8752SOL    HW127155   1.957   0.746   6.527
 8752SOL    HW227156   1.819   0.766   6.441
 8753SOL     OW27157   5.325   1.840   5.268
 8753SOL    HW127158   5.298   1.932   5.239
 8753SOL    HW227159   5.254   1.803   5.329
 8754SOL     OW27160   1.617   0.927   5.800
 8754SOL    HW127161   1.586   0.994   5.867
 8754SOL    HW227162   1.667   0.854   5.847
 8755SOL     OW27163   2.131   2.329   0.509
 8755SOL    HW127164   2.144   2.358   0.604
 8755SOL    HW227165   2.051   2.270   0.503
 8756SOL     OW27166   3.368   4.938   5.026
 8756SOL    HW127167   3.466   4.936   5.007
 8756SOL    HW227168   3.345   4.865   5.090
 8757SOL     OW27169   3.011   5.477   3.417
 8757SOL    HW127170   3.107   5.496   3.441
 8757SOL    HW227171   2.963   5.441   3.497
 8758SOL     OW27172   5.176   6.582   2.935
 8758SOL    HW127173   5.267   6.580   2.976
 8758SOL    HW227174   5.162   6.498   2.882
 8759SOL     OW27175   5.196   0.220   5.655
 8759SOL    HW127176   5.257   0.155   5.700
 8759SOL    HW227177   5.108   0.222   5.701
 8760SOL     OW27178   1.648   2.744   3.446
 8760SOL    HW127179   1.583   2.811   3.481
 8760SOL    HW227180   1.638   2.658   3.496
 8761SOL     OW27181   4.818   5.968   1.540
 8761SOL    HW127182   4.867   5.881   1.536
 8761SOL    HW227183   4.776   5.978   1.631
 8762SOL     OW27184   1.824   4.924   1.113
 8762SOL    HW127185   1.792   4.882   1.198
 8762SOL    HW227186   1.861   4.854   1.052
 8763SOL     OW27187   6.946   5.816   6.734
 8763SOL    HW127188   6.993   5.903   6.719
 8763SOL    HW227189   6.925   5.805   6.831
 8764SOL     OW27190   2.954   1.907   6.377
 8764SOL    HW127191   2.951   1.920   6.278
 8764SOL    HW227192   2.942   1.995   6.422
 8765SOL     OW27193   5.775   0.572   5.019
 8765SOL    HW127194   5.839   0.595   4.946
 8765SOL    HW227195   5.690   0.624   5.007
 8766SOL     OW27196   2.413   4.371   2.753
 8766SOL    HW127197   2.458   4.450   2.711
 8766SOL    HW227198   2.472   4.333   2.825
 8767SOL     OW27199   3.938   1.003   5.015
 8767SOL    HW127200   3.985   1.091   5.010
 8767SOL    HW227201   3.903   0.978   4.925
 8768SOL     OW27202   1.052   4.390   1.432
 8768SOL    HW127203   0.970   4.442   1.408
 8768SOL    HW227204   1.093   4.352   1.349
 8769SOL     OW27205   1.603   0.743   6.569
 8769SOL    HW127206   1.646   0.833   6.568
 8769SOL    HW227207   1.540   0.736   6.647
 8770SOL     OW27208   5.857   1.846   3.104
 8770SOL    HW127209   5.809   1.933   3.096
 8770SOL    HW227210   5.955   1.861   3.096
 8771SOL     OW27211   2.960   3.356   5.239
 8771SOL    HW127212   2.922   3.435   5.286
 8771SOL    HW227213   2.896   3.279   5.246
 8772SOL     OW27214   0.323   0.058   6.933
 8772SOL    HW127215   0.284   0.013   7.013
 8772SOL    HW227216   0.353   0.150   6.957
 8773SOL     OW27217   2.839   1.600   3.451
 8773SOL    HW127218   2.815   1.629   3.543
 8773SOL    HW227219   2.783   1.521   3.425
 8774SOL     OW27220   1.243   1.522   0.398
 8774SOL    HW127221   1.275   1.448   0.339
 8774SOL    HW227222   1.143   1.522   0.399
 8775SOL     OW27223   5.885   6.518   4.341
 8775SOL    HW127224   5.830   6.492   4.261
 8775SOL    HW227225   5.951   6.446   4.361
 8776SOL     OW27226   3.032   3.514   5.498
 8776SOL    HW127227   3.063   3.571   5.574
 8776SOL    HW227228   3.067   3.552   5.412
 8777SOL     OW27229   5.976   5.561   3.108
 8777SOL    HW127230   6.044   5.538   3.039
 8777SOL    HW227231   5.924   5.479   3.132
 8778SOL     OW27232   0.937   2.899   3.028
 8778SOL    HW127233   1.009   2.906   2.959
 8778SOL    HW227234   0.931   2.805   3.061
 8779SOL     OW27235   2.198   4.697   0.894
 8779SOL    HW127236   2.226   4.676   0.800
 8779SOL    HW227237   2.260   4.653   0.958
 8780SOL     OW27238   2.195   6.031   5.390
 8780SOL    HW127239   2.098   6.009   5.395
 8780SOL    HW227240   2.245   5.974   5.456
 8781SOL     OW27241   0.583   2.690   2.510
 8781SOL    HW127242   0.495   2.734   2.526
 8781SOL    HW227243   0.654   2.734   2.565
 8782SOL     OW27244   5.478   1.223   4.367
 8782SOL    HW127245   5.397   1.278   4.350
 8782SOL    HW227246   5.494   1.161   4.291
 8783SOL     OW27247   5.779   2.312   6.109
 8783SOL    HW127248   5.684   2.306   6.139
 8783SOL    HW227249   5.816   2.402   6.133
 8784SOL     OW27250   4.836   3.979   6.301
 8784SOL    HW127251   4.865   3.899   6.249
 8784SOL    HW227252   4.749   3.958   6.347
 8785SOL     OW27253   4.986   4.141   6.146
 8785SOL    HW127254   4.926   4.101   6.214
 8785SOL    HW227255   4.933   4.169   6.066
 8786SOL     OW27256   1.831   5.785   6.610
 8786SOL    HW127257   1.891   5.719   6.566
 8786SOL    HW227258   1.833   5.771   6.709
 8787SOL     OW27259   0.615   2.446   6.476
 8787SOL    HW127260   0.532   2.438   6.532
 8787SOL    HW227261   0.601   2.516   6.406
 8788SOL     OW27262   1.491   1.539   5.160
 8788SOL    HW127263   1.497   1.638   5.146
 8788SOL    HW227264   1.395   1.511   5.158
 8789SOL     OW27265   6.726   1.559   0.401
 8789SOL    HW127266   6.785   1.523   0.473
 8789SOL    HW227267   6.660   1.623   0.441
 8790SOL     OW27268   4.197   1.069   6.828
 8790SOL    HW127269   4.250   0.985   6.843
 8790SOL    HW227270   4.204   1.097   6.732
 8791SOL     OW27271   6.196   6.015   5.567
 8791SOL    HW127272   6.107   5.968   5.571
 8791SOL    HW227273   6.269   5.947   5.564
 8792SOL     OW27274   5.761   6.548   2.545
 8792SOL    HW127275   5.851   6.506   2.538
 8792SOL    HW227276   5.721   6.558   2.453
 8793SOL     OW27277   1.079   5.198   3.057
 8793SOL    HW127278   1.120   5.282   3.093
 8793SOL    HW227279   1.128   5.119   3.093
 8794SOL     OW27280   2.450   6.754   2.268
 8794SOL    HW127281   2.355   6.727   2.255
 8794SOL    HW227282   2.470   6.836   2.214
 8795SOL     OW27283   3.170   6.817   4.466
 8795SOL    HW127284   3.260   6.825   4.423
 8795SOL    HW227285   3.176   6.842   4.562
 8796SOL     OW27286   4.422   2.449   4.445
 8796SOL    HW127287   4.515   2.426   4.419
 8796SOL    HW227288   4.360   2.425   4.370
 8797SOL     OW27289   6.962   5.530   6.706
 8797SOL    HW127290   6.918   5.619   6.690
 8797SOL    HW227291   0.031   5.544   6.747
 8798SOL     OW27292   3.618   3.410   5.477
 8798SOL    HW127293   3.681   3.340   5.508
 8798SOL    HW227294   3.561   3.440   5.553
 8799SOL     OW27295   3.768   0.663   1.976
 8799SOL    HW127296   3.675   0.627   1.964
 8799SOL    HW227297   3.816   0.608   2.044
 8800SOL     OW27298   4.105   3.972   0.625
 8800SOL    HW127299   4.076   3.906   0.694
 8800SOL    HW227300   4.201   3.997   0.641
 8801SOL     OW27301   2.912   6.365   5.540
 8801SOL    HW127302   2.975   6.444   5.538
 8801SOL    HW227303   2.857   6.365   5.457
 8802SOL     OW27304   1.857   6.692   1.262
 8802SOL    HW127305   1.785   6.679   1.194
 8802SOL    HW227306   1.815   6.693   1.353
 8803SOL     OW27307   3.906   5.770   2.174
 8803SOL    HW127308   3.816   5.781   2.132
 8803SOL    HW227309   3.969   5.839   2.138
 8804SOL     OW27310   3.274   0.705   1.204
 8804SOL    HW127311   3.232   0.702   1.295
 8804SOL    HW227312   3.294   0.612   1.173
 8805SOL     OW27313   0.003   0.472   4.135
 8805SOL    HW127314   0.100   0.449   4.126
 8805SOL    HW227315   7.008   0.527   4.216
 8806SOL     OW27316   1.824   4.977   6.872
 8806SOL    HW127317   1.901   4.977   6.808
 8806SOL    HW227318   1.828   5.059   6.929
 8807SOL     OW27319   1.562   5.009   6.230
 8807SOL    HW127320   1.633   5.023   6.298
 8807SOL    HW227321   1.552   4.911   6.212
 8808SOL     OW27322   6.266   2.427   1.216
 8808SOL    HW127323   6.193   2.405   1.151
 8808SOL    HW227324   6.324   2.346   1.229
 8809SOL     OW27325   6.100   4.170   6.860
 8809SOL    HW127326   6.016   4.201   6.816
 8809SOL    HW227327   6.080   4.137   6.952
 8810SOL     OW27328   5.113   1.724   4.409
 8810SOL    HW127329   5.100   1.817   4.444
 8810SOL    HW227330   5.182   1.724   4.337
 8811SOL     OW27331   0.650   0.877   3.690
 8811SOL    HW127332   0.586   0.942   3.648
 8811SOL    HW227333   0.677   0.911   3.781
 8812SOL     OW27334   2.516   0.921   0.460
 8812SOL    HW127335   2.529   0.823   0.475
 8812SOL    HW227336   2.424   0.937   0.424
 8813SOL     OW27337   0.739   5.598   0.581
 8813SOL    HW127338   0.813   5.662   0.599
 8813SOL    HW227339   0.769   5.505   0.602
 8814SOL     OW27340   5.680   6.645   6.265
 8814SOL    HW127341   5.774   6.626   6.235
 8814SOL    HW227342   5.670   6.620   6.361
 8815SOL     OW27343   6.297   4.653   3.241
 8815SOL    HW127344   6.359   4.575   3.246
 8815SOL    HW227345   6.264   4.676   3.333
 8816SOL     OW27346   0.706   5.983   2.433
 8816SOL    HW127347   0.706   5.978   2.333
 8816SOL    HW227348   0.749   5.901   2.471
 8817SOL     OW27349   1.869   4.053   5.039
 8817SOL    HW127350   1.845   4.112   4.961
 8817SOL    HW227351   1.954   4.087   5.081
 8818SOL     OW27352   6.720   4.759   5.120
 8818SOL    HW127353   6.769   4.689   5.067
 8818SOL    HW227354   6.782   4.835   5.140
 8819SOL     OW27355   0.499   1.032   4.529
 8819SOL    HW127356   0.459   1.118   4.562
 8819SOL    HW227357   0.586   1.016   4.575
 8820SOL     OW27358   1.572   2.284   3.284
 8820SOL    HW127359   1.491   2.329   3.322
 8820SOL    HW227360   1.545   2.196   3.244
 8821SOL     OW27361   1.206   6.602   6.848
 8821SOL    HW127362   1.215   6.551   6.934
 8821SOL    HW227363   1.279   6.669   6.841
 8822SOL     OW27364   1.118   2.208   3.618
 8822SOL    HW127365   1.047   2.225   3.687
 8822SOL    HW227366   1.078   2.162   3.539
 8823SOL     OW27367   2.601   5.610   0.642
 8823SOL    HW127368   2.609   5.609   0.542
 8823SOL    HW227369   2.664   5.678   0.680
 8824SOL     OW27370   5.183   4.453   1.673
 8824SOL    HW127371   5.089   4.419   1.672
 8824SOL    HW227372   5.241   4.392   1.620
 8825SOL     OW27373   2.519   1.769   6.663
 8825SOL    HW127374   2.608   1.786   6.622
 8825SOL    HW227375   2.500   1.839   6.732
 8826SOL     OW27376   5.350   0.535   1.451
 8826SOL    HW127377   5.259   0.537   1.493
 8826SOL    HW227378   5.375   0.628   1.424
 8827SOL     OW27379   6.987   1.278   3.966
 8827SOL    HW127380   0.012   1.211   4.026
 8827SOL    HW227381   6.941   1.347   4.021
 8828SOL     OW27382   1.423   5.797   3.092
 8828SOL    HW127383   1.437   5.829   2.998
 8828SOL    HW227384   1.326   5.803   3.115
 8829SOL     OW27385   0.356   0.531   1.414
 8829SOL    HW127386   0.450   0.557   1.395
 8829SOL    HW227387   0.350   0.486   1.503
 8830SOL     OW27388   1.694   1.491   1.133
 8830SOL    HW127389   1.678   1.396   1.159
 8830SOL    HW227390   1.673   1.503   1.036
 8831SOL     OW27391   0.232   0.430   1.124
 8831SOL    HW127392   0.206   0.466   1.213
 8831SOL    HW227393   0.317   0.473   1.094
 8832SOL     OW27394   6.515   0.848   1.557
 8832SOL    HW127395   6.501   0.843   1.656
 8832SOL    HW227396   6.429   0.866   1.511
 8833SOL     OW27397   0.093   5.379   1.487
 8833SOL    HW127398   0.173   5.373   1.427
 8833SOL    HW227399   0.091   5.469   1.530
 8834SOL     OW27400   6.257   4.582   4.624
 8834SOL    HW127401   6.171   4.611   4.584
 8834SOL    HW227402   6.288   4.650   4.692
 8835SOL     OW27403   1.031   1.418   0.959
 8835SOL    HW127404   1.055   1.453   0.868
 8835SOL    HW227405   0.937   1.384   0.958
 8836SOL     OW27406   4.867   2.314   1.345
 8836SOL    HW127407   4.844   2.345   1.438
 8836SOL    HW227408   4.810   2.236   1.321
 8837SOL     OW27409   0.739   2.962   2.348
 8837SOL    HW127410   0.814   3.020   2.315
 8837SOL    HW227411   0.776   2.885   2.399
 8838SOL     OW27412   1.560   6.573   3.127
 8838SOL    HW127413   1.482   6.540   3.180
 8838SOL    HW227414   1.603   6.497   3.079
 8839SOL     OW27415   6.142   5.430   4.865
 8839SOL    HW127416   6.051   5.471   4.875
 8839SOL    HW227417   6.140   5.337   4.902
 8840SOL     OW27418   4.150   0.494   1.904
 8840SOL    HW127419   4.237   0.527   1.869
 8840SOL    HW227420   4.144   0.513   2.002
 8841SOL     OW27421   4.118   7.010   3.381
 8841SOL    HW127422   4.212   6.976   3.388
 8841SOL    HW227423   4.062   6.945   3.331
 8842SOL     OW27424   1.483   1.590   2.128
 8842SOL    HW127425   1.457   1.634   2.042
 8842SOL    HW227426   1.578   1.611   2.148
 8843SOL     OW27427   0.170   3.000   3.730
 8843SOL    HW127428   0.208   2.940   3.800
 8843SOL    HW227429   0.133   2.945   3.655
 8844SOL     OW27430   5.618   2.126   6.869
 8844SOL    HW127431   5.672   2.046   6.892
 8844SOL    HW227432   5.646   2.160   6.779
 8845SOL     OW27433   5.192   2.749   0.253
 8845SOL    HW127434   5.158   2.841   0.231
 8845SOL    HW227435   5.207   2.743   0.352
 8846SOL     OW27436   3.205   4.900   4.027
 8846SOL    HW127437   3.230   4.907   3.930
 8846SOL    HW227438   3.106   4.905   4.036
 8847SOL     OW27439   1.458   1.735   3.543
 8847SOL    HW127440   1.458   1.686   3.630
 8847SOL    HW227441   1.453   1.669   3.468
 8848SOL     OW27442   0.435   1.024   3.855
 8848SOL    HW127443   0.525   1.034   3.898
 8848SOL    HW227444   0.379   1.105   3.876
 8849SOL     OW27445   2.920   0.050   1.745
 8849SOL    HW127446   2.849   0.104   1.700
 8849SOL    HW227447   2.904   6.973   1.728
 8850SOL     OW27448   3.227   1.704   0.240
 8850SOL    HW127449   3.311   1.651   0.237
 8850SOL    HW227450   3.223   1.764   0.160
 8851SOL     OW27451   2.198   3.562   1.008
 8851SOL    HW127452   2.223   3.643   1.061
 8851SOL    HW227453   2.239   3.480   1.049
 8852SOL     OW27454   0.801   2.618   4.908
 8852SOL    HW127455   0.810   2.596   4.811
 8852SOL    HW227456   0.813   2.717   4.921
 8853SOL     OW27457   5.020   0.317   1.928
 8853SOL    HW127458   5.118   0.307   1.944
 8853SOL    HW227459   4.983   0.385   1.992
 8854SOL     OW27460   7.001   2.867   5.004
 8854SOL    HW127461   0.060   2.813   5.034
 8854SOL    HW227462   6.988   2.855   4.906
 8855SOL     OW27463   4.961   4.934   0.832
 8855SOL    HW127464   4.998   4.842   0.822
 8855SOL    HW227465   5.029   5.001   0.802
 8856SOL     OW27466   6.295   0.814   5.162
 8856SOL    HW127467   6.352   0.801   5.081
 8856SOL    HW227468   6.324   0.751   5.233
 8857SOL     OW27469   6.978   2.523   6.858
 8857SOL    HW127470   6.918   2.581   6.914
 8857SOL    HW227471   6.960   2.427   6.879
 8858SOL     OW27472   0.554   4.953   5.343
 8858SOL    HW127473   0.642   4.912   5.367
 8858SOL    HW227474   0.527   4.921   5.252
 8859SOL     OW27475   0.641   6.173   3.106
 8859SOL    HW127476   0.617   6.115   3.029
 8859SOL    HW227477   0.729   6.146   3.143
 8860SOL     OW27478   0.036   2.652   3.076
 8860SOL    HW127479   0.104   2.703   3.024
 8860SOL    HW227480   0.072   2.560   3.096
 8861SOL     OW27481   3.263   2.633   1.219
 8861SOL    HW127482   3.226   2.546   1.252
 8861SOL    HW227483   3.251   2.638   1.120
 8862SOL     OW27484   4.513   4.483   4.823
 8862SOL    HW127485   4.450   4.435   4.761
 8862SOL    HW227486   4.462   4.518   4.902
 8863SOL     OW27487   1.558   3.628   1.564
 8863SOL    HW127488   1.500   3.561   1.518
 8863SOL    HW227489   1.653   3.614   1.536
 8864SOL     OW27490   0.017   1.943   4.689
 8864SOL    HW127491   0.013   1.848   4.660
 8864SOL    HW227492   6.995   1.951   4.780
 8865SOL     OW27493   2.419   1.388   0.406
 8865SOL    HW127494   2.449   1.469   0.456
 8865SOL    HW227495   2.358   1.334   0.463
 8866SOL     OW27496   6.146   0.850   1.960
 8866SOL    HW127497   6.176   0.891   2.046
 8866SOL    HW227498   6.136   0.922   1.891
 8867SOL     OW27499   5.765   2.422   3.552
 8867SOL    HW127500   5.724   2.371   3.627
 8867SOL    HW227501   5.700   2.489   3.518
 8868SOL     OW27502   0.619   2.710   3.417
 8868SOL    HW127503   0.533   2.716   3.367
 8868SOL    HW227504   0.624   2.621   3.463
 8869SOL     OW27505   4.257   0.355   3.256
 8869SOL    HW127506   4.291   0.443   3.222
 8869SOL    HW227507   4.175   0.371   3.311
 8870SOL     OW27508   1.165   0.719   1.263
 8870SOL    HW127509   1.086   0.766   1.225
 8870SOL    HW227510   1.212   0.667   1.191
 8871SOL     OW27511   6.737   6.907   0.257
 8871SOL    HW127512   6.777   6.821   0.289
 8871SOL    HW227513   6.710   6.962   0.335
 8872SOL     OW27514   6.740   5.486   3.744
 8872SOL    HW127515   6.757   5.392   3.716
 8872SOL    HW227516   6.643   5.497   3.766
 8873SOL     OW27517   1.812   1.290   3.220
 8873SOL    HW127518   1.761   1.268   3.137
 8873SOL    HW227519   1.871   1.213   3.244
 8874SOL     OW27520   2.582   6.244   0.492
 8874SOL    HW127521   2.579   6.302   0.411
 8874SOL    HW227522   2.677   6.235   0.523
 8875SOL     OW27523   6.617   2.561   4.198
 8875SOL    HW127524   6.682   2.581   4.271
 8875SOL    HW227525   6.661   2.574   4.109
 8876SOL     OW27526   4.969   7.008   0.976
 8876SOL    HW127527   4.985   6.925   0.923
 8876SOL    HW227528   5.053   0.014   1.024
 8877SOL     OW27529   1.265   4.602   1.922
 8877SOL    HW127530   1.300   4.691   1.954
 8877SOL    HW227531   1.166   4.606   1.915
 8878SOL     OW27532   4.880   3.899   2.469
 8878SOL    HW127533   4.844   3.983   2.428
 8878SOL    HW227534   4.884   3.827   2.400
 8879SOL     OW27535   6.564   4.792   3.870
 8879SOL    HW127536   6.640   4.771   3.931
 8879SOL    HW227537   6.478   4.782   3.920
 8880SOL     OW27538   4.057   1.687   2.620
 8880SOL    HW127539   4.079   1.704   2.716
 8880SOL    HW227540   4.121   1.737   2.562
 8881SOL     OW27541   3.887   6.163   2.872
 8881SOL    HW127542   3.804   6.206   2.909
 8881SOL    HW227543   3.920   6.216   2.794
 8882SOL     OW27544   3.923   1.621   0.181
 8882SOL    HW127545   3.993   1.612   0.252
 8882SOL    HW227546   3.933   1.548   0.114
 8883SOL     OW27547   0.697   6.654   2.672
 8883SOL    HW127548   0.604   6.672   2.642
 8883SOL    HW227549   0.738   6.583   2.614
 8884SOL     OW27550   4.368   1.742   6.115
 8884SOL    HW127551   4.447   1.780   6.163
 8884SOL    HW227552   4.398   1.699   6.030
 8885SOL     OW27553   5.057   5.526   0.507
 8885SOL    HW127554   5.081   5.613   0.551
 8885SOL    HW227555   5.120   5.510   0.431
 8886SOL     OW27556   4.490   6.947   0.892
 8886SOL    HW127557   4.483   6.971   0.989
 8886SOL    HW227558   4.405   6.904   0.862
 8887SOL     OW27559   3.918   0.833   2.324
 8887SOL    HW127560   3.977   0.879   2.257
 8887SOL    HW227561   3.824   0.867   2.315
 8888SOL     OW27562   3.964   1.631   2.114
 8888SOL    HW127563   3.900   1.707   2.107
 8888SOL    HW227564   4.041   1.656   2.172
 8889SOL     OW27565   1.799   4.396   6.640
 8889SOL    HW127566   1.849   4.376   6.724
 8889SOL    HW227567   1.701   4.391   6.657
 8890SOL     OW27568   1.871   5.668   6.868
 8890SOL    HW127569   1.856   5.569   6.872
 8890SOL    HW227570   1.951   5.691   6.924
 8891SOL     OW27571   5.552   3.903   5.287
 8891SOL    HW127572   5.520   3.995   5.313
 8891SOL    HW227573   5.516   3.880   5.197
 8892SOL     OW27574   2.667   4.988   5.805
 8892SOL    HW127575   2.677   4.961   5.709
 8892SOL    HW227576   2.743   5.046   5.832
 8893SOL     OW27577   1.059   4.360   5.215
 8893SOL    HW127578   1.118   4.286   5.183
 8893SOL    HW227579   0.987   4.323   5.274
 8894SOL     OW27580   6.289   2.097   1.796
 8894SOL    HW127581   6.299   2.074   1.893
 8894SOL    HW227582   6.204   2.148   1.783
 8895SOL     OW27583   0.547   3.330   2.277
 8895SOL    HW127584   0.455   3.362   2.301
 8895SOL    HW227585   0.558   3.332   2.178
 8896SOL     OW27586   0.677   0.601   3.960
 8896SOL    HW127587   0.706   0.513   3.998
 8896SOL    HW227588   0.603   0.585   3.894
 8897SOL     OW27589   1.581   4.949   4.550
 8897SOL    HW127590   1.497   4.946   4.496
 8897SOL    HW227591   1.615   4.856   4.565
 8898SOL     OW27592   6.335   5.045   2.848
 8898SOL    HW127593   6.313   4.982   2.922
 8898SOL    HW227594   6.260   5.045   2.781
 8899SOL     OW27595   1.817   4.818   2.221
 8899SOL    HW127596   1.777   4.832   2.131
 8899SOL    HW227597   1.856   4.904   2.254
 8900SOL     OW27598   4.732   1.749   4.925
 8900SOL    HW127599   4.788   1.826   4.897
 8900SOL    HW227600   4.645   1.751   4.876
 8901SOL     OW27601   1.132   4.822   5.613
 8901SOL    HW127602   1.077   4.876   5.549
 8901SOL    HW227603   1.094   4.833   5.705
 8902SOL     OW27604   1.273   3.916   6.416
 8902SOL    HW127605   1.353   3.856   6.409
 8902SOL    HW227606   1.190   3.861   6.424
 8903SOL     OW27607   0.665   1.247   4.194
 8903SOL    HW127608   0.589   1.182   4.183
 8903SOL    HW227609   0.643   1.312   4.267
 8904SOL     OW27610   6.424   1.052   2.017
 8904SOL    HW127611   6.508   1.098   2.048
 8904SOL    HW227612   6.384   1.002   2.094
 8905SOL     OW27613   1.328   5.459   1.086
 8905SOL    HW127614   1.316   5.376   1.030
 8905SOL    HW227615   1.352   5.433   1.179
 8906SOL     OW27616   6.778   1.269   6.552
 8906SOL    HW127617   6.780   1.186   6.497
 8906SOL    HW227618   6.704   1.328   6.521
 8907SOL     OW27619   2.739   3.162   5.322
 8907SOL    HW127620   2.662   3.123   5.273
 8907SOL    HW227621   2.823   3.116   5.296
 8908SOL     OW27622   1.907   6.011   5.393
 8908SOL    HW127623   1.888   5.926   5.342
 8908SOL    HW227624   1.891   5.995   5.490
 8909SOL     OW27625   2.806   6.178   1.965
 8909SOL    HW127626   2.747   6.196   2.044
 8909SOL    HW227627   2.808   6.259   1.906
 8910SOL     OW27628   1.067   0.915   3.892
 8910SOL    HW127629   1.099   0.897   3.985
 8910SOL    HW227630   1.111   0.998   3.857
 8911SOL     OW27631   4.773   2.872   4.322
 8911SOL    HW127632   4.829   2.868   4.239
 8911SOL    HW227633   4.812   2.813   4.392
 8912SOL     OW27634   3.714   3.348   3.296
 8912SOL    HW127635   3.805   3.354   3.337
 8912SOL    HW227636   3.706   3.262   3.245
 8913SOL     OW27637   4.929   5.649   0.193
 8913SOL    HW127638   5.016   5.669   0.239
 8913SOL    HW227639   4.905   5.553   0.207
 8914SOL     OW27640   5.267   4.540   4.738
 8914SOL    HW127641   5.322   4.620   4.716
 8914SOL    HW227642   5.319   4.479   4.798
 8915SOL     OW27643   2.739   1.365   3.276
 8915SOL    HW127644   2.755   1.442   3.214
 8915SOL    HW227645   2.641   1.355   3.291
 8916SOL     OW27646   6.563   0.029   2.376
 8916SOL    HW127647   6.583   6.957   2.343
 8916SOL    HW227648   6.624   0.094   2.331
 8917SOL     OW27649   5.424   2.718   0.068
 8917SOL    HW127650   5.353   2.735   0.136
 8917SOL    HW227651   5.469   2.631   0.088
 8918SOL     OW27652   1.791   3.169   2.880
 8918SOL    HW127653   1.812   3.161   2.783
 8918SOL    HW227654   1.706   3.122   2.900
 8919SOL     OW27655   6.855   2.318   3.283
 8919SOL    HW127656   6.904   2.261   3.349
 8919SOL    HW227657   6.842   2.410   3.321
 8920SOL     OW27658   1.441   1.798   6.860
 8920SOL    HW127659   1.455   1.705   6.826
 8920SOL    HW227660   1.480   1.807   6.951
 8921SOL     OW27661   1.557   1.966   1.712
 8921SOL    HW127662   1.586   1.943   1.805
 8921SOL    HW227663   1.496   2.045   1.715
 8922SOL     OW27664   3.647   5.597   3.461
 8922SOL    HW127665   3.626   5.688   3.426
 8922SOL    HW227666   3.706   5.604   3.542
 8923SOL     OW27667   2.419   2.328   3.709
 8923SOL    HW127668   2.357   2.353   3.783
 8923SOL    HW227669   2.368   2.279   3.638
 8924SOL     OW27670   6.211   5.232   5.246
 8924SOL    HW127671   6.236   5.150   5.193
 8924SOL    HW227672   6.287   5.297   5.244
 8925SOL     OW27673   0.704   6.476   3.713
 8925SOL    HW127674   0.625   6.480   3.774
 8925SOL    HW227675   0.713   6.383   3.676
 8926SOL     OW27676   5.907   2.306   6.971
 8926SOL    HW127677   5.979   2.292   6.903
 8926SOL    HW227678   5.828   2.350   6.927
 8927SOL     OW27679   1.377   1.357   6.352
 8927SOL    HW127680   1.358   1.306   6.268
 8927SOL    HW227681   1.343   1.451   6.342
 8928SOL     OW27682   7.012   6.668   4.622
 8928SOL    HW127683   0.010   6.599   4.552
 8928SOL    HW227684   6.986   6.624   4.708
 8929SOL     OW27685   0.187   1.580   3.592
 8929SOL    HW127686   0.265   1.522   3.615
 8929SOL    HW227687   0.120   1.528   3.539
 8930SOL     OW27688   2.364   5.479   2.217
 8930SOL    HW127689   2.433   5.516   2.155
 8930SOL    HW227690   2.357   5.380   2.203
 8931SOL     OW27691   4.759   3.477   6.985
 8931SOL    HW127692   4.786   3.433   0.051
 8931SOL    HW227693   4.840   3.516   6.941
 8932SOL     OW27694   0.889   3.534   2.497
 8932SOL    HW127695   0.884   3.442   2.459
 8932SOL    HW227696   0.831   3.596   2.444
 8933SOL     OW27697   4.871   2.847   5.653
 8933SOL    HW127698   4.794   2.857   5.717
 8933SOL    HW227699   4.838   2.861   5.560
 8934SOL     OW27700   2.345   5.820   2.782
 8934SOL    HW127701   2.436   5.855   2.760
 8934SOL    HW227702   2.348   5.772   2.870
 8935SOL     OW27703   7.013   5.773   6.337
 8935SOL    HW127704   0.089   5.791   6.354
 8935SOL    HW227705   6.986   5.689   6.384
 8936SOL     OW27706   4.458   3.696   0.539
 8936SOL    HW127707   4.507   3.609   0.535
 8936SOL    HW227708   4.466   3.735   0.630
 8937SOL     OW27709   0.138   1.731   6.376
 8937SOL    HW127710   0.133   1.652   6.314
 8937SOL    HW227711   0.056   1.787   6.365
 8938SOL     OW27712   5.002   5.055   1.815
 8938SOL    HW127713   5.095   5.082   1.842
 8938SOL    HW227714   4.984   5.085   1.722
 8939SOL     OW27715   6.035   1.775   4.414
 8939SOL    HW127716   6.063   1.804   4.506
 8939SOL    HW227717   6.038   1.854   4.352
 8940SOL     OW27718   5.494   6.561   1.678
 8940SOL    HW127719   5.588   6.530   1.666
 8940SOL    HW227720   5.473   6.632   1.610
 8941SOL     OW27721   4.202   2.090   0.056
 8941SOL    HW127722   4.166   2.148   7.003
 8941SOL    HW227723   4.246   2.010   0.016
 8942SOL     OW27724   1.138   2.003   5.862
 8942SOL    HW127725   1.156   1.904   5.869
 8942SOL    HW227726   1.050   2.018   5.818
 8943SOL     OW27727   4.584   3.342   0.871
 8943SOL    HW127728   4.665   3.323   0.815
 8943SOL    HW227729   4.503   3.306   0.824
 8944SOL     OW27730   4.809   5.458   0.795
 8944SOL    HW127731   4.876   5.398   0.753
 8944SOL    HW227732   4.766   5.515   0.725
 8945SOL     OW27733   2.077   0.797   3.704
 8945SOL    HW127734   2.082   0.875   3.640
 8945SOL    HW227735   2.017   0.727   3.665
 8946SOL     OW27736   3.485   0.173   5.257
 8946SOL    HW127737   3.465   0.122   5.340
 8946SOL    HW227738   3.513   0.109   5.185
 8947SOL     OW27739   3.286   3.787   5.768
 8947SOL    HW127740   3.196   3.765   5.730
 8947SOL    HW227741   3.286   3.881   5.803
 8948SOL     OW27742   5.391   5.047   3.661
 8948SOL    HW127743   5.415   5.046   3.564
 8948SOL    HW227744   5.339   4.964   3.683
 8949SOL     OW27745   1.510   5.315   6.456
 8949SOL    HW127746   1.464   5.234   6.419
 8949SOL    HW227747   1.509   5.387   6.387
 8950SOL     OW27748   4.985   2.546   5.107
 8950SOL    HW127749   4.893   2.522   5.077
 8950SOL    HW227750   4.980   2.615   5.179
 8951SOL     OW27751   2.798   1.256   5.361
 8951SOL    HW127752   2.851   1.294   5.437
 8951SOL    HW227753   2.772   1.330   5.298
 8952SOL     OW27754   5.541   6.665   3.591
 8952SOL    HW127755   5.495   6.626   3.510
 8952SOL    HW227756   5.566   6.760   3.572
 8953SOL     OW27757   1.093   5.028   6.441
 8953SOL    HW127758   1.028   5.091   6.481
 8953SOL    HW227759   1.045   4.946   6.408
 8954SOL     OW27760   2.256   6.566   6.460
 8954SOL    HW127761   2.240   6.517   6.545
 8954SOL    HW227762   2.305   6.651   6.480
 8955SOL     OW27763   0.012   3.161   4.118
 8955SOL    HW127764   6.934   3.147   4.117
 8955SOL    HW227765   0.037   3.230   4.050
 8956SOL     OW27766   1.709   0.633   3.983
 8956SOL    HW127767   1.687   0.567   4.055
 8956SOL    HW227768   1.692   0.593   3.894
 8957SOL     OW27769   3.400   6.122   1.811
 8957SOL    HW127770   3.321   6.154   1.864
 8957SOL    HW227771   3.400   6.166   1.722
 8958SOL     OW27772   2.850   0.241   4.697
 8958SOL    HW127773   2.895   0.223   4.785
 8958SOL    HW227774   2.792   0.164   4.672
 8959SOL     OW27775   3.558   5.193   6.718
 8959SOL    HW127776   3.527   5.182   6.812
 8959SOL    HW227777   3.658   5.192   6.714
 8960SOL     OW27778   4.463   5.521   0.668
 8960SOL    HW127779   4.552   5.535   0.624
 8960SOL    HW227780   4.408   5.605   0.661
 8961SOL     OW27781   0.455   3.059   4.484
 8961SOL    HW127782   0.427   2.980   4.430
 8961SOL    HW227783   0.538   3.036   4.536
 8962SOL     OW27784   4.325   0.734   3.749
 8962SOL    HW127785   4.235   0.705   3.717
 8962SOL    HW227786   4.386   0.655   3.753
 8963SOL     OW27787   1.425   0.500   4.585
 8963SOL    HW127788   1.470   0.521   4.672
 8963SOL    HW227789   1.427   0.402   4.569
 8964SOL     OW27790   0.837   2.313   3.367
 8964SOL    HW127791   0.908   2.383   3.376
 8964SOL    HW227792   0.875   2.223   3.387
 8965SOL     OW27793   1.309   4.922   1.119
 8965SOL    HW127794   1.402   4.956   1.104
 8965SOL    HW227795   1.312   4.823   1.136
 8966SOL     OW27796   3.438   2.144   4.669
 8966SOL    HW127797   3.369   2.075   4.647
 8966SOL    HW227798   3.412   2.231   4.626
 8967SOL     OW27799   5.288   6.827   0.613
 8967SOL    HW127800   5.267   6.747   0.669
 8967SOL    HW227801   5.255   6.813   0.520
 8968SOL     OW27802   6.609   3.958   3.854
 8968SOL    HW127803   6.698   3.996   3.874
 8968SOL    HW227804   6.537   4.016   3.893
 8969SOL     OW27805   6.420   0.057   3.821
 8969SOL    HW127806   6.443   6.980   3.822
 8969SOL    HW227807   6.502   0.111   3.841
 8970SOL     OW27808   3.347   2.898   1.400
 8970SOL    HW127809   3.275   2.928   1.336
 8970SOL    HW227810   3.399   2.824   1.358
 8971SOL     OW27811   3.161   6.838   2.870
 8971SOL    HW127812   3.079   6.803   2.824
 8971SOL    HW227813   3.208   6.763   2.916
 8972SOL     OW27814   5.465   0.454   5.570
 8972SOL    HW127815   5.402   0.521   5.608
 8972SOL    HW227816   5.413   0.386   5.518
 8973SOL     OW27817   1.995   4.381   6.834
 8973SOL    HW127818   1.993   4.282   6.852
 8973SOL    HW227819   2.062   4.424   6.893
 8974SOL     OW27820   1.062   2.577   4.060
 8974SOL    HW127821   1.116   2.590   4.143
 8974SOL    HW227822   1.023   2.665   4.031
 8975SOL     OW27823   3.631   1.179   6.468
 8975SOL    HW127824   3.698   1.109   6.442
 8975SOL    HW227825   3.597   1.225   6.386
 8976SOL     OW27826   1.677   6.144   4.296
 8976SOL    HW127827   1.693   6.158   4.198
 8976SOL    HW227828   1.711   6.224   4.346
 8977SOL     OW27829   5.658   1.813   0.176
 8977SOL    HW127830   5.694   1.812   0.270
 8977SOL    HW227831   5.573   1.761   0.172
 8978SOL     OW27832   5.438   4.532   2.538
 8978SOL    HW127833   5.523   4.483   2.518
 8978SOL    HW227834   5.399   4.499   2.624
 8979SOL     OW27835   0.795   4.478   4.965
 8979SOL    HW127836   0.746   4.565   4.957
 8979SOL    HW227837   0.885   4.486   4.921
 8980SOL     OW27838   3.067   3.150   3.612
 8980SOL    HW127839   3.159   3.168   3.646
 8980SOL    HW227840   3.005   3.135   3.690
 8981SOL     OW27841   3.152   2.249   5.428
 8981SOL    HW127842   3.061   2.214   5.451
 8981SOL    HW227843   3.152   2.285   5.335
 8982SOL     OW27844   2.830   5.068   0.177
 8982SOL    HW127845   2.761   5.051   0.107
 8982SOL    HW227846   2.910   5.011   0.158
 8983SOL     OW27847   4.945   4.278   0.898
 8983SOL    HW127848   5.028   4.282   0.953
 8983SOL    HW227849   4.908   4.186   0.900
 8984SOL     OW27850   1.712   6.461   2.557
 8984SOL    HW127851   1.758   6.388   2.607
 8984SOL    HW227852   1.715   6.441   2.459
 8985SOL     OW27853   3.298   3.018   6.308
 8985SOL    HW127854   3.362   2.959   6.357
 8985SOL    HW227855   3.282   3.101   6.361
 8986SOL     OW27856   2.616   6.198   2.188
 8986SOL    HW127857   2.542   6.141   2.154
 8986SOL    HW227858   2.618   6.194   2.288
 8987SOL     OW27859   5.236   6.570   2.563
 8987SOL    HW127860   5.250   6.634   2.638
 8987SOL    HW227861   5.144   6.583   2.526
 8988SOL     OW27862   0.783   4.279   5.194
 8988SOL    HW127863   0.696   4.263   5.242
 8988SOL    HW227864   0.772   4.353   5.129
 8989SOL     OW27865   2.189   2.579   6.816
 8989SOL    HW127866   2.274   2.630   6.832
 8989SOL    HW227867   2.210   2.482   6.807
 8990SOL     OW27868   6.903   4.807   4.697
 8990SOL    HW127869   6.941   4.739   4.635
 8990SOL    HW227870   6.915   4.898   4.657
 8991SOL     OW27871   1.217   2.063   5.043
 8991SOL    HW127872   1.202   2.086   5.139
 8991SOL    HW227873   1.128   2.046   4.999
 8992SOL     OW27874   6.282   1.420   1.397
 8992SOL    HW127875   6.367   1.424   1.449
 8992SOL    HW227876   6.228   1.502   1.414
 8993SOL     OW27877   4.545   2.288   0.998
 8993SOL    HW127878   4.527   2.205   1.050
 8993SOL    HW227879   4.609   2.346   1.048
 8994SOL     OW27880   2.203   5.364   2.773
 8994SOL    HW127881   2.289   5.401   2.809
 8994SOL    HW227882   2.144   5.339   2.850
 8995SOL     OW27883   0.500   0.502   1.006
 8995SOL    HW127884   0.524   0.412   0.968
 8995SOL    HW227885   0.576   0.565   0.989
 8996SOL     OW27886   4.383   5.753   5.625
 8996SOL    HW127887   4.304   5.691   5.628
 8996SOL    HW227888   4.352   5.845   5.601
 8997SOL     OW27889   5.605   6.902   4.776
 8997SOL    HW127890   5.536   6.922   4.845
 8997SOL    HW227891   5.563   6.849   4.702
 8998SOL     OW27892   6.993   4.028   5.155
 8998SOL    HW127893   6.955   3.946   5.197
 8998SOL    HW227894   6.931   4.061   5.083
 8999SOL     OW27895   4.197   5.763   6.396
 8999SOL    HW127896   4.218   5.704   6.318
 8999SOL    HW227897   4.267   5.833   6.406
 9000SOL     OW27898   1.751   4.135   1.341
 9000SOL    HW127899   1.700   4.053   1.314
 9000SOL    HW227900   1.782   4.184   1.260
 9001SOL     OW27901   1.348   5.266   0.870
 9001SOL    HW127902   1.321   5.349   0.822
 9001SOL    HW227903   1.269   5.205   0.879
 9002SOL     OW27904   6.666   6.522   6.639
 9002SOL    HW127905   6.576   6.555   6.667
 9002SOL    HW227906   6.726   6.516   6.720
 9003SOL     OW27907   4.856   6.663   1.085
 9003SOL    HW127908   4.833   6.568   1.107
 9003SOL    HW227909   4.797   6.695   1.012
 9004SOL     OW27910   6.497   4.923   1.743
 9004SOL    HW127911   6.570   4.856   1.759
 9004SOL    HW227912   6.408   4.878   1.758
 9005SOL     OW27913   4.945   1.218   4.895
 9005SOL    HW127914   5.017   1.283   4.918
 9005SOL    HW227915   4.913   1.235   4.802
 9006SOL     OW27916   3.272   6.344   0.509
 9006SOL    HW127917   3.325   6.361   0.592
 9006SOL    HW227918   3.224   6.257   0.517
 9007SOL     OW27919   0.158   0.585   3.119
 9007SOL    HW127920   0.232   0.648   3.147
 9007SOL    HW227921   0.103   0.628   3.048
 9008SOL     OW27922   6.912   5.168   2.089
 9008SOL    HW127923   6.833   5.127   2.042
 9008SOL    HW227924   6.996   5.138   2.045
 9009SOL     OW27925   3.415   6.509   2.236
 9009SOL    HW127926   3.496   6.479   2.286
 9009SOL    HW227927   3.439   6.585   2.176
 9010SOL     OW27928   1.989   5.250   4.842
 9010SOL    HW127929   2.049   5.265   4.764
 9010SOL    HW227930   2.044   5.225   4.922
 9011SOL     OW27931   2.657   1.966   1.771
 9011SOL    HW127932   2.690   1.955   1.677
 9011SOL    HW227933   2.719   1.916   1.833
 9012SOL     OW27934   2.269   6.321   0.057
 9012SOL    HW127935   2.212   6.239   0.048
 9012SOL    HW227936   2.356   6.296   0.099
 9013SOL     OW27937   1.820   0.465   4.694
 9013SOL    HW127938   1.805   0.398   4.621
 9013SOL    HW227939   1.812   0.419   4.783
 9014SOL     OW27940   5.805   3.314   3.218
 9014SOL    HW127941   5.752   3.243   3.263
 9014SOL    HW227942   5.830   3.283   3.126
 9015SOL     OW27943   3.803   6.333   6.222
 9015SOL    HW127944   3.852   6.346   6.308
 9015SOL    HW227945   3.717   6.383   6.224
 9016SOL     OW27946   4.763   4.182   5.989
 9016SOL    HW127947   4.706   4.251   5.945
 9016SOL    HW227948   4.723   4.156   6.077
 9017SOL     OW27949   2.814   0.242   5.738
 9017SOL    HW127950   2.757   0.239   5.656
 9017SOL    HW227951   2.772   0.186   5.809
 9018SOL     OW27952   3.576   4.909   0.381
 9018SOL    HW127953   3.667   4.897   0.342
 9018SOL    HW227954   3.525   4.824   0.373
 9019SOL     OW27955   0.455   4.082   4.686
 9019SOL    HW127956   0.537   4.064   4.631
 9019SOL    HW227957   0.420   4.173   4.666
 9020SOL     OW27958   5.553   5.407   3.431
 9020SOL    HW127959   5.537   5.481   3.497
 9020SOL    HW227960   5.596   5.330   3.478
 9021SOL     OW27961   0.098   1.401   4.426
 9021SOL    HW127962   0.072   1.401   4.523
 9021SOL    HW227963   0.016   1.408   4.369
 9022SOL     OW27964   4.474   3.378   6.598
 9022SOL    HW127965   4.535   3.446   6.558
 9022SOL    HW227966   4.525   3.294   6.616
 9023SOL     OW27967   0.380   4.691   0.907
 9023SOL    HW127968   0.289   4.665   0.942
 9023SOL    HW227969   0.448   4.673   0.978
 9024SOL     OW27970   2.009   4.564   6.239
 9024SOL    HW127971   1.971   4.547   6.329
 9024SOL    HW227972   1.963   4.642   6.197
 9025SOL     OW27973   0.409   6.052   1.907
 9025SOL    HW127974   0.499   6.012   1.889
 9025SOL    HW227975   0.399   6.067   2.006
 9026SOL     OW27976   5.950   1.469   6.626
 9026SOL    HW127977   5.998   1.545   6.583
 9026SOL    HW227978   5.973   1.384   6.580
 9027SOL     OW27979   0.178   4.454   3.021
 9027SOL    HW127980   0.221   4.453   3.111
 9027SOL    HW227981   0.082   4.481   3.030
 9028SOL     OW27982   3.035   4.756   6.986
 9028SOL    HW127983   3.012   4.805   0.049
 9028SOL    HW227984   3.126   4.715   6.996
 9029SOL     OW27985   4.157   6.352   4.567
 9029SOL    HW127986   4.139   6.259   4.535
 9029SOL    HW227987   4.256   6.368   4.570
 9030SOL     OW27988   2.993   2.190   2.267
 9030SOL    HW127989   3.091   2.176   2.257
 9030SOL    HW227990   2.957   2.235   2.185
 9031SOL     OW27991   5.429   6.933   4.976
 9031SOL    HW127992   5.467   0.004   4.995
 9031SOL    HW227993   5.330   6.936   4.984
 9032SOL     OW27994   4.838   3.096   1.164
 9032SOL    HW127995   4.818   3.053   1.252
 9032SOL    HW227996   4.753   3.132   1.124
 9033SOL     OW27997   1.168   6.013   2.373
 9033SOL    HW127998   1.170   5.913   2.377
 9033SOL    HW227999   1.162   6.043   2.278
 9034SOL     OW28000   4.165   6.676   5.130
 9034SOL    HW128001   4.137   6.772   5.126
 9034SOL    HW228002   4.094   6.619   5.087
 9035SOL     OW28003   2.125   5.640   5.875
 9035SOL    HW128004   2.085   5.560   5.920
 9035SOL    HW228005   2.216   5.656   5.911
 9036SOL     OW28006   0.086   5.134   5.063
 9036SOL    HW128007   7.011   5.153   5.086
 9036SOL    HW228008   0.144   5.153   5.142
 9037SOL     OW28009   6.775   0.802   2.391
 9037SOL    HW128010   6.872   0.811   2.369
 9037SOL    HW228011   6.725   0.768   2.312
 9038SOL     OW28012   3.357   3.615   5.959
 9038SOL    HW128013   3.338   3.684   5.888
 9038SOL    HW228014   3.426   3.551   5.925
 9039SOL     OW28015   4.471   6.448   6.185
 9039SOL    HW128016   4.463   6.541   6.149
 9039SOL    HW228017   4.381   6.417   6.217
 9040SOL     OW28018   2.518   2.302   1.264
 9040SOL    HW128019   2.484   2.209   1.269
 9040SOL    HW228020   2.545   2.324   1.170
 9041SOL     OW28021   6.628   2.682   3.348
 9041SOL    HW128022   6.612   2.714   3.255
 9041SOL    HW228023   6.550   2.707   3.406
 9042SOL     OW28024   6.302   5.170   6.440
 9042SOL    HW128025   6.321   5.072   6.436
 9042SOL    HW228026   6.218   5.185   6.493
 9043SOL     OW28027   3.170   2.780   1.871
 9043SOL    HW128028   3.230   2.726   1.929
 9043SOL    HW228029   3.139   2.861   1.921
 9044SOL     OW28030   1.965   1.212   0.372
 9044SOL    HW128031   1.984   1.135   0.311
 9044SOL    HW228032   1.981   1.298   0.322
 9045SOL     OW28033   3.268   0.557   4.177
 9045SOL    HW128034   3.203   0.539   4.251
 9045SOL    HW228035   3.281   0.474   4.122
 9046SOL     OW28036   4.147   3.818   1.911
 9046SOL    HW128037   4.139   3.773   1.999
 9046SOL    HW228038   4.100   3.906   1.914
 9047SOL     OW28039   0.751   3.873   5.584
 9047SOL    HW128040   0.744   3.961   5.537
 9047SOL    HW228041   0.827   3.876   5.649
 9048SOL     OW28042   0.782   2.539   5.358
 9048SOL    HW128043   0.755   2.623   5.311
 9048SOL    HW228044   0.715   2.467   5.337
 9049SOL     OW28045   0.427   6.596   5.046
 9049SOL    HW128046   0.500   6.531   5.026
 9049SOL    HW228047   0.355   6.550   5.098
 9050SOL     OW28048   1.172   4.227   0.104
 9050SOL    HW128049   1.209   4.200   0.015
 9050SOL    HW228050   1.098   4.293   0.090
 9051SOL     OW28051   1.793   0.921   1.520
 9051SOL    HW128052   1.759   0.856   1.452
 9051SOL    HW228053   1.893   0.922   1.517
 9052SOL     OW28054   2.436   2.712   6.837
 9052SOL    HW128055   2.501   2.683   6.767
 9052SOL    HW228056   2.442   2.812   6.848
 9053SOL     OW28057   0.504   1.320   0.547
 9053SOL    HW128058   0.560   1.251   0.503
 9053SOL    HW228059   0.535   1.411   0.519
 9054SOL     OW28060   1.151   5.457   3.186
 9054SOL    HW128061   1.236   5.460   3.240
 9054SOL    HW228062   1.134   5.548   3.147
 9055SOL     OW28063   0.558   2.698   6.326
 9055SOL    HW128064   0.460   2.711   6.339
 9055SOL    HW228065   0.606   2.782   6.352
 9056SOL     OW28066   5.049   0.942   4.187
 9056SOL    HW128067   5.053   0.970   4.283
 9056SOL    HW228068   4.980   0.996   4.139
 9057SOL     OW28069   4.839   1.530   3.849
 9057SOL    HW128070   4.770   1.495   3.913
 9057SOL    HW228071   4.808   1.514   3.755
 9058SOL     OW28072   1.894   6.755   5.806
 9058SOL    HW128073   1.927   6.765   5.712
 9058SOL    HW228074   1.805   6.708   5.806
 9059SOL     OW28075   2.062   2.093   3.697
 9059SOL    HW128076   2.161   2.078   3.698
 9059SOL    HW228077   2.042   2.188   3.671
 9060SOL     OW28078   5.591   2.135   5.383
 9060SOL    HW128079   5.661   2.067   5.363
 9060SOL    HW228080   5.618   2.189   5.464
 9061SOL     OW28081   2.291   4.830   3.980
 9061SOL    HW128082   2.263   4.742   3.941
 9061SOL    HW228083   2.226   4.900   3.953
 9062SOL     OW28084   2.030   6.359   1.536
 9062SOL    HW128085   2.026   6.299   1.616
 9062SOL    HW228086   1.954   6.424   1.540
 9063SOL     OW28087   2.742   1.643   1.528
 9063SOL    HW128088   2.650   1.607   1.538
 9063SOL    HW228089   2.741   1.742   1.537
 9064SOL     OW28090   3.999   3.711   0.383
 9064SOL    HW128091   4.098   3.708   0.376
 9064SOL    HW228092   3.967   3.805   0.371
 9065SOL     OW28093   2.866   1.049   0.751
 9065SOL    HW128094   2.870   1.064   0.652
 9065SOL    HW228095   2.854   1.137   0.797
 9066SOL     OW28096   4.961   6.638   0.201
 9066SOL    HW128097   4.944   6.546   0.235
 9066SOL    HW228098   4.882   6.670   0.149
 9067SOL     OW28099   0.603   0.590   2.164
 9067SOL    HW128100   0.597   0.670   2.105
 9067SOL    HW228101   0.660   0.520   2.120
 9068SOL     OW28102   0.644   6.314   6.224
 9068SOL    HW128103   0.562   6.265   6.196
 9068SOL    HW228104   0.626   6.412   6.224
 9069SOL     OW28105   1.109   2.499   5.740
 9069SOL    HW128106   1.051   2.580   5.728
 9069SOL    HW228107   1.194   2.512   5.689
 9070SOL     OW28108   1.404   3.936   4.664
 9070SOL    HW128109   1.430   3.978   4.578
 9070SOL    HW228110   1.479   3.876   4.696
 9071SOL     OW28111   4.976   5.358   6.866
 9071SOL    HW128112   5.016   5.294   6.932
 9071SOL    HW228113   5.019   5.344   6.777
 9072SOL     OW28114   5.593   4.197   0.678
 9072SOL    HW128115   5.632   4.289   0.681
 9072SOL    HW228116   5.497   4.202   0.707
 9073SOL     OW28117   2.017   0.004   1.413
 9073SOL    HW128118   2.092   6.960   1.429
 9073SOL    HW228119   1.958   0.007   1.493
 9074SOL     OW28120   1.059   1.089   1.210
 9074SOL    HW128121   0.971   1.133   1.228
 9074SOL    HW228122   1.133   1.156   1.216
 9075SOL     OW28123   6.311   0.261   1.064
 9075SOL    HW128124   6.338   0.332   0.999
 9075SOL    HW228125   6.370   0.266   1.144
 9076SOL     OW28126   1.123   2.745   5.494
 9076SOL    HW128127   1.096   2.652   5.472
 9076SOL    HW228128   1.073   2.810   5.437
 9077SOL     OW28129   5.553   5.391   1.781
 9077SOL    HW128130   5.478   5.388   1.714
 9077SOL    HW228131   5.555   5.481   1.825
 9078SOL     OW28132   4.956   3.112   5.328
 9078SOL    HW128133   4.925   3.200   5.292
 9078SOL    HW228134   4.922   3.038   5.269
 9079SOL     OW28135   1.341   0.415   5.404
 9079SOL    HW128136   1.347   0.514   5.403
 9079SOL    HW228137   1.431   0.376   5.425
 9080SOL     OW28138   4.294   0.915   0.419
 9080SOL    HW128139   4.296   1.006   0.459
 9080SOL    HW228140   4.377   0.901   0.364
 9081SOL     OW28141   5.730   6.593   3.845
 9081SOL    HW128142   5.650   6.560   3.795
 9081SOL    HW228143   5.786   6.650   3.784
 9082SOL     OW28144   2.120   0.131   2.250
 9082SOL    HW128145   2.041   0.175   2.208
 9082SOL    HW228146   2.190   0.114   2.180
 9083SOL     OW28147   4.262   5.178   3.287
 9083SOL    HW128148   4.284   5.260   3.235
 9083SOL    HW228149   4.163   5.170   3.296
 9084SOL     OW28150   3.672   3.657   2.679
 9084SOL    HW128151   3.709   3.713   2.753
 9084SOL    HW228152   3.609   3.713   2.624
 9085SOL     OW28153   1.619   2.013   0.599
 9085SOL    HW128154   1.697   1.996   0.659
 9085SOL    HW228155   1.611   2.112   0.583
 9086SOL     OW28156   6.758   3.489   1.114
 9086SOL    HW128157   6.832   3.540   1.070
 9086SOL    HW228158   6.673   3.540   1.106
 9087SOL     OW28159   5.200   4.098   1.914
 9087SOL    HW128160   5.265   4.163   1.954
 9087SOL    HW228161   5.173   4.031   1.984
 9088SOL     OW28162   6.192   4.905   2.381
 9088SOL    HW128163   6.251   4.847   2.438
 9088SOL    HW228164   6.158   4.851   2.304
 9089SOL     OW28165   4.766   1.049   5.854
 9089SOL    HW128166   4.731   1.138   5.885
 9089SOL    HW228167   4.771   0.986   5.931
 9090SOL     OW28168   0.116   2.481   3.866
 9090SOL    HW128169   0.188   2.414   3.883
 9090SOL    HW228170   0.047   2.441   3.805
 9091SOL     OW28171   4.118   3.148   5.831
 9091SOL    HW128172   4.059   3.206   5.887
 9091SOL    HW228173   4.079   3.056   5.825
 9092SOL     OW28174   6.932   4.003   6.213
 9092SOL    HW128175   6.906   4.083   6.159
 9092SOL    HW228176   6.875   3.925   6.188
 9093SOL     OW28177   2.570   6.337   4.749
 9093SOL    HW128178   2.663   6.301   4.753
 9093SOL    HW228179   2.525   6.322   4.838
 9094SOL     OW28180   1.723   4.163   0.396
 9094SOL    HW128181   1.758   4.227   0.464
 9094SOL    HW228182   1.656   4.102   0.439
 9095SOL     OW28183   0.321   0.386   5.954
 9095SOL    HW128184   0.306   0.365   5.857
 9095SOL    HW228185   0.295   0.307   6.009
 9096SOL     OW28186   6.346   5.311   3.938
 9096SOL    HW128187   6.371   5.320   4.034
 9096SOL    HW228188   6.338   5.214   3.914
 9097SOL     OW28189   0.611   4.307   1.099
 9097SOL    HW128190   0.655   4.287   1.187
 9097SOL    HW228191   0.534   4.244   1.085
 9098SOL     OW28192   2.074   5.450   4.628
 9098SOL    HW128193   2.026   5.527   4.586
 9098SOL    HW228194   2.086   5.377   4.561
 9099SOL     OW28195   1.754   0.973   6.499
 9099SOL    HW128196   1.735   1.036   6.424
 9099SOL    HW228197   1.798   1.022   6.574
 9100SOL     OW28198   1.585   4.950   4.210
 9100SOL    HW128199   1.589   5.009   4.291
 9100SOL    HW228200   1.675   4.910   4.194
 9101SOL     OW28201   6.302   2.007   1.557
 9101SOL    HW128202   6.286   2.042   1.649
 9101SOL    HW228203   6.214   1.985   1.514
 9102SOL     OW28204   4.052   0.791   2.990
 9102SOL    HW128205   4.027   0.695   3.004
 9102SOL    HW228206   3.991   0.850   3.044
 9103SOL     OW28207   5.761   0.814   1.167
 9103SOL    HW128208   5.813   0.754   1.228
 9103SOL    HW228209   5.774   0.785   1.072
 9104SOL     OW28210   4.998   2.637   5.832
 9104SOL    HW128211   4.990   2.647   5.931
 9104SOL    HW228212   4.958   2.716   5.787
 9105SOL     OW28213   2.945   0.612   0.167
 9105SOL    HW128214   2.956   0.607   0.266
 9105SOL    HW228215   3.011   0.677   0.130
 9106SOL     OW28216   2.370   2.943   6.154
 9106SOL    HW128217   2.304   2.917   6.084
 9106SOL    HW228218   2.413   2.860   6.191
 9107SOL     OW28219   3.844   0.463   0.878
 9107SOL    HW128220   3.897   0.526   0.821
 9107SOL    HW228221   3.766   0.511   0.918
 9108SOL     OW28222   6.150   6.724   5.735
 9108SOL    HW128223   6.150   6.811   5.685
 9108SOL    HW228224   6.170   6.650   5.671
 9109SOL     OW28225   5.549   3.894   3.275
 9109SOL    HW128226   5.511   3.898   3.182
 9109SOL    HW228227   5.646   3.874   3.271
 9110SOL     OW28228   0.826   6.111   1.792
 9110SOL    HW128229   0.782   6.042   1.851
 9110SOL    HW228230   0.857   6.067   1.708
 9111SOL     OW28231   5.143   3.341   5.555
 9111SOL    HW128232   5.204   3.405   5.603
 9111SOL    HW228233   5.187   3.311   5.470
 9112SOL     OW28234   0.654   4.828   1.708
 9112SOL    HW128235   0.683   4.883   1.629
 9112SOL    HW228236   0.614   4.742   1.675
 9113SOL     OW28237   5.536   0.169   5.006
 9113SOL    HW128238   5.616   0.220   4.975
 9113SOL    HW228239   5.511   0.197   5.099
 9114SOL     OW28240   6.726   1.524   6.121
 9114SOL    HW128241   6.679   1.437   6.111
 9114SOL    HW228242   6.735   1.547   6.218
 9115SOL     OW28243   5.153   3.752   4.519
 9115SOL    HW128244   5.167   3.721   4.613
 9115SOL    HW228245   5.238   3.746   4.468
 9116SOL     OW28246   0.663   5.377   3.379
 9116SOL    HW128247   0.568   5.357   3.403
 9116SOL    HW228248   0.720   5.296   3.397
 9117SOL     OW28249   1.945   6.480   6.825
 9117SOL    HW128250   1.982   6.492   6.917
 9117SOL    HW228251   1.963   6.387   6.794
 9118SOL     OW28252   0.160   4.719   1.112
 9118SOL    HW128253   0.242   4.770   1.137
 9118SOL    HW228254   0.100   4.778   1.057
 9119SOL     OW28255   3.753   2.161   0.896
 9119SOL    HW128256   3.830   2.190   0.952
 9119SOL    HW228257   3.723   2.236   0.838
 9120SOL     OW28258   6.471   4.849   5.011
 9120SOL    HW128259   6.433   4.762   4.980
 9120SOL    HW228260   6.566   4.835   5.042
 9121SOL     OW28261   4.457   1.295   4.824
 9121SOL    HW128262   4.495   1.328   4.738
 9121SOL    HW228263   4.508   1.334   4.901
 9122SOL     OW28264   0.197   1.644   2.445
 9122SOL    HW128265   0.110   1.668   2.488
 9122SOL    HW228266   0.212   1.703   2.366
 9123SOL     OW28267   0.542   6.044   4.781
 9123SOL    HW128268   0.453   6.033   4.826
 9123SOL    HW228269   0.577   5.953   4.756
 9124SOL     OW28270   2.908   5.501   0.799
 9124SOL    HW128271   2.869   5.424   0.848
 9124SOL    HW228272   2.898   5.487   0.700
 9125SOL     OW28273   4.584   6.646   2.059
 9125SOL    HW128274   4.591   6.682   1.966
 9125SOL    HW228275   4.535   6.559   2.058
 9126SOL     OW28276   3.847   4.871   0.220
 9126SOL    HW128277   3.923   4.877   0.156
 9126SOL    HW228278   3.768   4.831   0.175
 9127SOL     OW28279   5.951   3.994   6.542
 9127SOL    HW128280   6.025   3.991   6.475
 9127SOL    HW228281   5.907   4.084   6.539
 9128SOL     OW28282   5.214   3.135   7.018
 9128SOL    HW128283   5.189   3.050   6.972
 9128SOL    HW228284   5.249   3.200   6.951
 9129SOL     OW28285   0.745   2.367   1.402
 9129SOL    HW128286   0.718   2.279   1.364
 9129SOL    HW228287   0.838   2.360   1.439
 9130SOL     OW28288   3.054   4.056   6.316
 9130SOL    HW128289   3.034   4.129   6.381
 9130SOL    HW228290   3.093   3.977   6.365
 9131SOL     OW28291   6.103   3.245   0.801
 9131SOL    HW128292   6.017   3.282   0.767
 9131SOL    HW228293   6.143   3.183   0.732
 9132SOL     OW28294   1.117   4.413   3.733
 9132SOL    HW128295   1.099   4.393   3.637
 9132SOL    HW228296   1.073   4.500   3.758
 9133SOL     OW28297   5.203   6.591   0.764
 9133SOL    HW128298   5.257   6.523   0.814
 9133SOL    HW228299   5.166   6.549   0.681
 9134SOL     OW28300   4.831   3.980   6.843
 9134SOL    HW128301   4.852   3.994   6.746
 9134SOL    HW228302   4.732   3.964   6.853
 9135SOL     OW28303   6.408   5.051   2.259
 9135SOL    HW128304   6.316   5.018   2.276
 9135SOL    HW228305   6.464   5.038   2.341
 9136SOL     OW28306   0.373   5.139   6.693
 9136SOL    HW128307   0.378   5.156   6.791
 9136SOL    HW228308   0.303   5.069   6.675
 9137SOL     OW28309   6.008   5.546   5.962
 9137SOL    HW128310   5.977   5.543   6.057
 9137SOL    HW228311   6.007   5.453   5.925
 9138SOL     OW28312   1.714   3.826   5.701
 9138SOL    HW128313   1.696   3.729   5.685
 9138SOL    HW228314   1.672   3.880   5.627
 9139SOL     OW28315   0.725   6.989   0.960
 9139SOL    HW128316   0.784   6.953   0.887
 9139SOL    HW228317   0.715   6.919   1.031
 9140SOL     OW28318   0.353   4.459   2.766
 9140SOL    HW128319   0.288   4.453   2.841
 9140SOL    HW228320   0.417   4.382   2.771
 9141SOL     OW28321   0.094   5.413   4.307
 9141SOL    HW128322   0.015   5.366   4.269
 9141SOL    HW228323   0.141   5.353   4.372
 9142SOL     OW28324   1.701   5.327   3.141
 9142SOL    HW128325   1.694   5.406   3.202
 9142SOL    HW228326   1.614   5.277   3.142
 9143SOL     OW28327   5.366   3.266   2.250
 9143SOL    HW128328   5.316   3.346   2.284
 9143SOL    HW228329   5.384   3.204   2.325
 9144SOL     OW28330   2.698   4.632   5.575
 9144SOL    HW128331   2.741   4.549   5.539
 9144SOL    HW228332   2.661   4.685   5.499
 9145SOL     OW28333   2.501   5.295   6.726
 9145SOL    HW128334   2.517   5.239   6.645
 9145SOL    HW228335   2.421   5.354   6.711
 9146SOL     OW28336   5.229   1.422   4.401
 9146SOL    HW128337   5.191   1.468   4.321
 9146SOL    HW228338   5.296   1.481   4.445
 9147SOL     OW28339   3.603   6.762   6.513
 9147SOL    HW128340   3.605   6.846   6.458
 9147SOL    HW228341   3.697   6.729   6.526
 9148SOL     OW28342   3.351   5.852   1.836
 9148SOL    HW128343   3.299   5.937   1.850
 9148SOL    HW228344   3.402   5.857   1.750
 9149SOL     OW28345   0.904   4.150   2.137
 9149SOL    HW128346   0.910   4.240   2.093
 9149SOL    HW228347   0.953   4.083   2.082
 9150SOL     OW28348   3.803   3.609   0.119
 9150SOL    HW128349   3.880   3.629   0.059
 9150SOL    HW228350   3.831   3.543   0.189
 9151SOL     OW28351   2.332   4.211   3.767
 9151SOL    HW128352   2.363   4.306   3.767
 9151SOL    HW228353   2.331   4.177   3.861
 9152SOL     OW28354   1.777   5.337   2.154
 9152SOL    HW128355   1.782   5.238   2.147
 9152SOL    HW228356   1.709   5.362   2.222
 9153SOL     OW28357   0.903   3.520   1.257
 9153SOL    HW128358   0.852   3.497   1.174
 9153SOL    HW228359   0.916   3.438   1.312
 9154SOL     OW28360   4.448   5.448   2.394
 9154SOL    HW128361   4.446   5.409   2.486
 9154SOL    HW228362   4.401   5.536   2.394
 9155SOL     OW28363   0.412   0.283   1.878
 9155SOL    HW128364   0.411   0.345   1.955
 9155SOL    HW228365   0.506   0.258   1.856
 9156SOL     OW28366   6.746   4.611   5.740
 9156SOL    HW128367   6.656   4.601   5.697
 9156SOL    HW228368   6.737   4.606   5.839
 9157SOL     OW28369   2.398   4.712   4.987
 9157SOL    HW128370   2.442   4.796   5.019
 9157SOL    HW228371   2.427   4.635   5.045
 9158SOL     OW28372   6.936   2.786   3.867
 9158SOL    HW128373   0.011   2.812   3.854
 9158SOL    HW228374   6.900   2.747   3.782
 9159SOL     OW28375   1.908   0.499   3.274
 9159SOL    HW128376   1.844   0.507   3.198
 9159SOL    HW228377   1.980   0.433   3.251
 9160SOL     OW28378   0.327   3.494   6.795
 9160SOL    HW128379   0.400   3.558   6.771
 9160SOL    HW228380   0.367   3.411   6.835
 9161SOL     OW28381   6.143   2.973   2.867
 9161SOL    HW128382   6.204   2.979   2.945
 9161SOL    HW228383   6.158   3.052   2.807
 9162SOL     OW28384   5.460   2.205   1.791
 9162SOL    HW128385   5.387   2.236   1.730
 9162SOL    HW228386   5.485   2.111   1.768
 9163SOL     OW28387   1.237   3.941   2.703
 9163SOL    HW128388   1.323   3.920   2.656
 9163SOL    HW228389   1.185   3.856   2.715
 9164SOL     OW28390   4.188   0.868   0.773
 9164SOL    HW128391   4.267   0.808   0.761
 9164SOL    HW228392   4.218   0.963   0.771
 9165SOL     OW28393   6.663   0.230   0.305
 9165SOL    HW128394   6.575   0.239   0.351
 9165SOL    HW228395   6.648   0.206   0.209
 9166SOL     OW28396   4.117   5.560   2.000
 9166SOL    HW128397   4.098   5.527   2.093
 9166SOL    HW228398   4.129   5.482   1.939
 9167SOL     OW28399   0.557   2.991   5.074
 9167SOL    HW128400   0.622   3.012   5.147
 9167SOL    HW228401   0.565   3.060   5.001
 9168SOL     OW28402   6.414   6.803   5.104
 9168SOL    HW128403   6.381   6.806   5.010
 9168SOL    HW228404   6.510   6.775   5.104
 9169SOL     OW28405   5.655   5.819   0.137
 9169SOL    HW128406   5.594   5.797   0.061
 9169SOL    HW228407   5.683   5.735   0.183
 9170SOL     OW28408   1.437   6.779   4.914
 9170SOL    HW128409   1.485   6.817   4.993
 9170SOL    HW228410   1.446   6.841   4.837
 9171SOL     OW28411   4.470   5.545   6.707
 9171SOL    HW128412   4.384   5.552   6.656
 9171SOL    HW228413   4.524   5.469   6.671
 9172SOL     OW28414   5.145   0.309   5.994
 9172SOL    HW128415   5.239   0.343   5.984
 9172SOL    HW228416   5.092   0.332   5.913
 9173SOL     OW28417   5.637   4.017   6.765
 9173SOL    HW128418   5.586   4.042   6.682
 9173SOL    HW228419   5.604   4.071   6.842
 9174SOL     OW28420   5.592   5.239   6.903
 9174SOL    HW128421   5.626   5.322   6.857
 9174SOL    HW228422   5.493   5.237   6.898
 9175SOL     OW28423   2.423   0.789   1.979
 9175SOL    HW128424   2.337   0.743   2.003
 9175SOL    HW228425   2.482   0.724   1.931
 9176SOL     OW28426   1.192   6.713   2.150
 9176SOL    HW128427   1.139   6.699   2.233
 9176SOL    HW228428   1.267   6.646   2.146
 9177SOL     OW28429   0.417   5.765   2.974
 9177SOL    HW128430   0.407   5.678   3.022
 9177SOL    HW228431   0.416   5.840   3.040
 9178SOL     OW28432   0.750   2.801   1.397
 9178SOL    HW128433   0.804   2.875   1.359
 9178SOL    HW228434   0.708   2.748   1.324
 9179SOL     OW28435   3.625   6.041   2.511
 9179SOL    HW128436   3.716   6.083   2.501
 9179SOL    HW228437   3.620   5.959   2.455
 9180SOL     OW28438   0.877   1.381   4.085
 9180SOL    HW128439   0.792   1.329   4.095
 9180SOL    HW228440   0.955   1.321   4.102
 9181SOL     OW28441   3.146   1.936   2.728
 9181SOL    HW128442   3.126   1.952   2.632
 9181SOL    HW228443   3.193   1.848   2.739
 9182SOL     OW28444   6.412   0.925   2.761
 9182SOL    HW128445   6.479   0.921   2.687
 9182SOL    HW228446   6.416   0.841   2.815
 9183SOL     OW28447   2.850   1.592   5.485
 9183SOL    HW128448   2.907   1.520   5.525
 9183SOL    HW228449   2.754   1.576   5.509
 9184SOL     OW28450   2.733   6.534   0.156
 9184SOL    HW128451   2.806   6.528   0.224
 9184SOL    HW228452   2.752   6.610   0.093
 9185SOL     OW28453   0.858   1.100   4.824
 9185SOL    HW128454   0.943   1.152   4.812
 9185SOL    HW228455   0.871   1.029   4.892
 9186SOL     OW28456   4.832   6.607   5.848
 9186SOL    HW128457   4.843   6.521   5.897
 9186SOL    HW228458   4.895   6.610   5.771
 9187SOL     OW28459   4.649   3.249   1.365
 9187SOL    HW128460   4.650   3.221   1.269
 9187SOL    HW228461   4.561   3.291   1.387
 9188SOL     OW28462   1.737   0.889   2.480
 9188SOL    HW128463   1.738   0.928   2.388
 9188SOL    HW228464   1.679   0.944   2.539
 9189SOL     OW28465   3.206   0.343   6.961
 9189SOL    HW128466   3.147   0.413   6.920
 9189SOL    HW228467   3.174   0.322   0.033
 9190SOL     OW28468   3.613   0.660   6.338
 9190SOL    HW128469   3.529   0.642   6.287
 9190SOL    HW228470   3.688   0.680   6.275
 9191SOL     OW28471   5.103   0.527   1.558
 9191SOL    HW128472   5.040   0.456   1.590
 9191SOL    HW228473   5.072   0.616   1.591
 9192SOL     OW28474   4.382   4.694   3.603
 9192SOL    HW128475   4.329   4.683   3.519
 9192SOL    HW228476   4.371   4.788   3.636
 9193SOL     OW28477   3.849   3.970   1.938
 9193SOL    HW128478   3.851   3.988   2.036
 9193SOL    HW228479   3.789   3.892   1.919
 9194SOL     OW28480   2.543   5.466   3.394
 9194SOL    HW128481   2.608   5.542   3.399
 9194SOL    HW228482   2.590   5.381   3.419
 9195SOL     OW28483   0.196   3.484   3.751
 9195SOL    HW128484   0.273   3.421   3.740
 9195SOL    HW228485   0.192   3.546   3.673
 9196SOL     OW28486   5.556   5.526   3.192
 9196SOL    HW128487   5.551   5.484   3.282
 9196SOL    HW228488   5.627   5.597   3.191
 9197SOL     OW28489   4.303   2.514   6.481
 9197SOL    HW128490   4.319   2.510   6.383
 9197SOL    HW228491   4.353   2.591   6.520
 9198SOL     OW28492   6.853   3.250   4.583
 9198SOL    HW128493   6.947   3.283   4.595
 9198SOL    HW228494   6.798   3.279   4.661
 9199SOL     OW28495   0.747   3.458   6.602
 9199SOL    HW128496   0.719   3.401   6.525
 9199SOL    HW228497   0.686   3.537   6.608
 9200SOL     OW28498   4.341   6.004   2.058
 9200SOL    HW128499   4.426   6.021   2.108
 9200SOL    HW228500   4.298   6.090   2.033
 9201SOL     OW28501   0.272   2.842   2.517
 9201SOL    HW128502   0.294   2.855   2.613
 9201SOL    HW228503   0.283   2.929   2.468
 9202SOL     OW28504   1.954   6.330   2.984
 9202SOL    HW128505   2.022   6.284   2.927
 9202SOL    HW228506   1.939   6.423   2.950
 9203SOL     OW28507   5.197   2.322   0.279
 9203SOL    HW128508   5.267   2.372   0.331
 9203SOL    HW228509   5.225   2.227   0.267
 9204SOL     OW28510   5.189   3.999   1.654
 9204SOL    HW128511   5.189   4.026   1.750
 9204SOL    HW228512   5.216   3.903   1.645
 9205SOL     OW28513   4.878   2.532   0.764
 9205SOL    HW128514   4.911   2.608   0.821
 9205SOL    HW228515   4.947   2.510   0.696
 9206SOL     OW28516   6.814   0.422   5.084
 9206SOL    HW128517   6.770   0.446   5.170
 9206SOL    HW228518   6.898   0.370   5.102
 9207SOL     OW28519   5.743   6.232   0.641
 9207SOL    HW128520   5.658   6.202   0.598
 9207SOL    HW228521   5.811   6.159   0.635
 9208SOL     OW28522   6.297   3.796   1.447
 9208SOL    HW128523   6.343   3.797   1.536
 9208SOL    HW228524   6.231   3.722   1.444
 9209SOL     OW28525   5.058   0.457   3.993
 9209SOL    HW128526   5.024   0.546   4.023
 9209SOL    HW228527   5.035   0.387   4.060
 9210SOL     OW28528   1.726   6.504   0.478
 9210SOL    HW128529   1.770   6.514   0.388
 9210SOL    HW228530   1.673   6.419   0.479
 9211SOL     OW28531   5.382   1.100   6.274
 9211SOL    HW128532   5.304   1.043   6.300
 9211SOL    HW228533   5.391   1.100   6.175
 9212SOL     OW28534   5.905   3.529   5.986
 9212SOL    HW128535   5.949   3.547   6.074
 9212SOL    HW228536   5.893   3.431   5.974
 9213SOL     OW28537   0.546   6.237   3.363
 9213SOL    HW128538   0.572   6.205   3.271
 9213SOL    HW228539   0.512   6.331   3.357
 9214SOL     OW28540   1.450   1.067   5.636
 9214SOL    HW128541   1.536   1.036   5.676
 9214SOL    HW228542   1.467   1.109   5.547
 9215SOL     OW28543   6.681   4.552   3.772
 9215SOL    HW128544   6.713   4.552   3.677
 9215SOL    HW228545   6.596   4.604   3.778
 9216SOL     OW28546   1.376   0.029   3.249
 9216SOL    HW128547   1.314   6.979   3.215
 9216SOL    HW228548   1.456   0.035   3.189
 9217SOL     OW28549   4.030   2.422   0.143
 9217SOL    HW128550   4.080   2.409   0.229
 9217SOL    HW228551   4.019   2.520   0.125
 9218SOL     OW28552   5.150   5.957   6.038
 9218SOL    HW128553   5.107   6.047   6.037
 9218SOL    HW228554   5.099   5.895   5.978
 9219SOL     OW28555   3.191   2.636   5.669
 9219SOL    HW128556   3.124   2.701   5.633
 9219SOL    HW228557   3.144   2.555   5.705
 9220SOL     OW28558   0.364   6.646   3.582
 9220SOL    HW128559   0.383   6.604   3.671
 9220SOL    HW228560   0.356   6.745   3.593
 9221SOL     OW28561   2.541   1.290   2.263
 9221SOL    HW128562   2.460   1.303   2.205
 9221SOL    HW228563   2.515   1.301   2.359
 9222SOL     OW28564   2.651   6.203   2.765
 9222SOL    HW128565   2.680   6.110   2.742
 9222SOL    HW228566   2.699   6.268   2.705
 9223SOL     OW28567   5.787   2.702   4.963
 9223SOL    HW128568   5.819   2.702   4.868
 9223SOL    HW228569   5.782   2.608   4.997
 9224SOL     OW28570   2.197   5.624   2.622
 9224SOL    HW128571   2.256   5.550   2.654
 9224SOL    HW228572   2.209   5.704   2.681
 9225SOL     OW28573   6.878   6.044   5.537
 9225SOL    HW128574   6.877   6.143   5.552
 9225SOL    HW228575   6.950   6.003   5.592
 9226SOL     OW28576   0.247   6.594   4.836
 9226SOL    HW128577   0.282   6.665   4.775
 9226SOL    HW228578   0.302   6.592   4.920
 9227SOL     OW28579   4.666   2.833   1.061
 9227SOL    HW128580   4.608   2.848   0.981
 9227SOL    HW228581   4.616   2.861   1.143
 9228SOL     OW28582   3.384   3.764   4.089
 9228SOL    HW128583   3.449   3.767   4.014
 9228SOL    HW228584   3.414   3.826   4.162
 9229SOL     OW28585   0.190   6.196   1.497
 9229SOL    HW128586   0.198   6.295   1.500
 9229SOL    HW228587   0.143   6.168   1.414
 9230SOL     OW28588   3.335   6.369   5.584
 9230SOL    HW128589   3.263   6.418   5.536
 9230SOL    HW228590   3.294   6.310   5.654
 9231SOL     OW28591   4.962   5.715   1.901
 9231SOL    HW128592   4.982   5.729   1.998
 9231SOL    HW228593   5.022   5.773   1.846
 9232SOL     OW28594   1.327   5.030   1.455
 9232SOL    HW128595   1.234   5.034   1.417
 9232SOL    HW228596   1.390   5.079   1.394
 9233SOL     OW28597   0.895   1.071   5.948
 9233SOL    HW128598   0.838   1.098   6.026
 9233SOL    HW228599   0.947   0.989   5.971
 9234SOL     OW28600   3.014   3.868   0.321
 9234SOL    HW128601   3.106   3.899   0.345
 9234SOL    HW228602   2.946   3.930   0.360
 9235SOL     OW28603   1.156   2.406   2.936
 9235SOL    HW128604   1.179   2.483   2.877
 9235SOL    HW228605   1.225   2.334   2.924
 9236SOL     OW28606   2.118   4.013   6.113
 9236SOL    HW128607   2.091   4.030   6.208
 9236SOL    HW228608   2.142   4.100   6.070
 9237SOL     OW28609   6.652   5.984   3.662
 9237SOL    HW128610   6.646   6.038   3.579
 9237SOL    HW228611   6.744   5.990   3.700
 9238SOL     OW28612   2.154   2.460   5.608
 9238SOL    HW128613   2.164   2.555   5.639
 9238SOL    HW228614   2.059   2.442   5.582
 9239SOL     OW28615   2.056   5.926   6.364
 9239SOL    HW128616   2.096   5.834   6.361
 9239SOL    HW228617   1.957   5.920   6.350
 9240SOL     OW28618   3.652   1.455   5.275
 9240SOL    HW128619   3.676   1.545   5.240
 9240SOL    HW228620   3.726   1.390   5.255
 9241SOL     OW28621   5.350   5.820   0.047
 9241SOL    HW128622   5.369   5.910   0.007
 9241SOL    HW228623   5.265   5.824   0.100
 9242SOL     OW28624   1.960   2.969   6.985
 9242SOL    HW128625   2.042   2.964   0.023
 9242SOL    HW228626   1.945   2.880   6.942
 9243SOL     OW28627   1.927   0.148   0.089
 9243SOL    HW128628   1.984   0.228   0.108
 9243SOL    HW228629   1.895   0.151   7.015
 9244SOL     OW28630   3.524   6.169   6.189
 9244SOL    HW128631   3.545   6.116   6.107
 9244SOL    HW228632   3.477   6.253   6.163
 9245SOL     OW28633   1.029   4.321   3.494
 9245SOL    HW128634   0.945   4.267   3.499
 9245SOL    HW228635   1.032   4.370   3.406
 9246SOL     OW28636   5.302   1.724   6.718
 9246SOL    HW128637   5.360   1.655   6.759
 9246SOL    HW228638   5.231   1.752   6.784
 9247SOL     OW28639   2.943   6.296   2.312
 9247SOL    HW128640   2.904   6.319   2.401
 9247SOL    HW228641   2.955   6.197   2.304
 9248SOL     OW28642   2.893   6.995   6.645
 9248SOL    HW128643   2.985   0.002   6.673
 9248SOL    HW228644   2.838   0.057   6.629
 9249SOL     OW28645   2.916   1.646   0.522
 9249SOL    HW128646   3.014   1.656   0.504
 9249SOL    HW228647   2.878   1.575   0.463
 9250SOL     OW28648   0.994   3.925   1.966
 9250SOL    HW128649   1.068   3.861   1.987
 9250SOL    HW228650   0.959   3.907   1.875
 9251SOL     OW28651   4.320   1.441   0.882
 9251SOL    HW128652   4.243   1.477   0.830
 9251SOL    HW228653   4.387   1.401   0.820
 9252SOL     OW28654   6.125   1.419   4.950
 9252SOL    HW128655   6.111   1.321   4.932
 9252SOL    HW228656   6.213   1.447   4.912
 9253SOL     OW28657   2.738   5.342   4.081
 9253SOL    HW128658   2.813   5.369   4.142
 9253SOL    HW228659   2.709   5.249   4.103
 9254SOL     OW28660   6.218   5.677   2.090
 9254SOL    HW128661   6.266   5.761   2.063
 9254SOL    HW228662   6.186   5.629   2.008
 9255SOL     OW28663   0.421   3.242   1.906
 9255SOL    HW128664   0.485   3.300   1.956
 9255SOL    HW228665   0.440   3.247   1.808
 9256SOL     OW28666   1.352   6.432   0.575
 9256SOL    HW128667   1.413   6.511   0.564
 9256SOL    HW228668   1.261   6.464   0.601
 9257SOL     OW28669   6.471   6.809   5.536
 9257SOL    HW128670   6.449   6.907   5.541
 9257SOL    HW228671   6.388   6.758   5.513
 9258SOL     OW28672   5.084   3.741   3.287
 9258SOL    HW128673   4.990   3.772   3.273
 9258SOL    HW228674   5.097   3.651   3.245
 9259SOL     OW28675   1.365   2.717   6.229
 9259SOL    HW128676   1.276   2.695   6.190
 9259SOL    HW228677   1.427   2.747   6.156
 9260SOL     OW28678   5.358   4.591   5.098
 9260SOL    HW128679   5.425   4.660   5.126
 9260SOL    HW228680   5.405   4.505   5.079
 9261SOL     OW28681   1.329   3.127   1.085
 9261SOL    HW128682   1.285   3.194   1.145
 9261SOL    HW228683   1.409   3.169   1.042
 9262SOL     OW28684   6.552   6.315   5.603
 9262SOL    HW128685   6.473   6.303   5.543
 9262SOL    HW228686   6.528   6.376   5.678
 9263SOL     OW28687   1.794   4.506   2.549
 9263SOL    HW128688   1.893   4.517   2.546
 9263SOL    HW228689   1.769   4.420   2.505
 9264SOL     OW28690   5.953   3.819   5.634
 9264SOL    HW128691   5.951   3.915   5.604
 9264SOL    HW228692   6.027   3.806   5.699
 9265SOL     OW28693   4.124   0.578   2.157
 9265SOL    HW128694   4.052   0.554   2.222
 9265SOL    HW228695   4.168   0.664   2.185
 9266SOL     OW28696   0.169   4.903   1.464
 9266SOL    HW128697   0.203   4.996   1.479
 9266SOL    HW228698   0.187   4.876   1.370
 9267SOL     OW28699   6.779   1.087   3.483
 9267SOL    HW128700   6.684   1.121   3.481
 9267SOL    HW228701   6.836   1.144   3.424
 9268SOL     OW28702   0.073   0.187   0.541
 9268SOL    HW128703   7.010   0.207   0.489
 9268SOL    HW228704   0.048   0.170   0.637
 9269SOL     OW28705   3.517   6.678   1.413
 9269SOL    HW128706   3.479   6.769   1.398
 9269SOL    HW228707   3.456   6.626   1.472
 9270SOL     OW28708   1.967   0.885   5.487
 9270SOL    HW128709   2.040   0.840   5.539
 9270SOL    HW228710   2.007   0.934   5.409
 9271SOL     OW28711   1.129   5.495   5.533
 9271SOL    HW128712   1.184   5.515   5.452
 9271SOL    HW228713   1.135   5.571   5.598
 9272SOL     OW28714   6.406   6.801   5.835
 9272SOL    HW128715   6.465   6.799   5.754
 9272SOL    HW228716   6.319   6.757   5.813
 9273SOL     OW28717   5.990   4.017   3.337
 9273SOL    HW128718   5.975   4.004   3.435
 9273SOL    HW228719   5.951   4.104   3.309
 9274SOL     OW28720   6.793   2.962   1.755
 9274SOL    HW128721   6.811   3.050   1.797
 9274SOL    HW228722   6.816   2.967   1.657
 9275SOL     OW28723   4.386   1.660   0.232
 9275SOL    HW128724   4.481   1.685   0.251
 9275SOL    HW228725   4.384   1.585   0.167
 9276SOL     OW28726   1.538   3.676   0.964
 9276SOL    HW128727   1.628   3.656   0.926
 9276SOL    HW228728   1.475   3.699   0.890
 9277SOL     OW28729   3.369   5.657   2.739
 9277SOL    HW128730   3.286   5.666   2.684
 9277SOL    HW228731   3.368   5.569   2.787
 9278SOL     OW28732   1.227   6.794   4.576
 9278SOL    HW128733   1.239   6.713   4.634
 9278SOL    HW228734   1.197   6.765   4.485
 9279SOL     OW28735   3.906   5.839   2.423
 9279SOL    HW128736   3.857   5.784   2.490
 9279SOL    HW228737   3.889   5.803   2.331
 9280SOL     OW28738   1.394   4.355   2.128
 9280SOL    HW128739   1.420   4.439   2.174
 9280SOL    HW228740   1.313   4.371   2.071
 9281SOL     OW28741   1.262   5.486   0.402
 9281SOL    HW128742   1.254   5.504   0.500
 9281SOL    HW228743   1.178   5.515   0.355
 9282SOL     OW28744   1.738   0.533   3.735
 9282SOL    HW128745   1.837   0.542   3.725
 9282SOL    HW228746   1.694   0.551   3.646
 9283SOL     OW28747   5.589   4.955   6.492
 9283SOL    HW128748   5.638   5.041   6.475
 9283SOL    HW228749   5.580   4.905   6.406
 9284SOL     OW28750   3.928   6.150   1.235
 9284SOL    HW128751   3.950   6.059   1.270
 9284SOL    HW228752   3.841   6.146   1.186
 9285SOL     OW28753   6.598   5.878   3.115
 9285SOL    HW128754   6.569   5.959   3.063
 9285SOL    HW228755   6.538   5.802   3.094
 9286SOL     OW28756   5.122   5.578   1.679
 9286SOL    HW128757   5.129   5.644   1.754
 9286SOL    HW228758   5.179   5.499   1.698
 9287SOL     OW28759   4.316   4.340   0.267
 9287SOL    HW128760   4.385   4.387   0.322
 9287SOL    HW228761   4.324   4.241   0.281
 9288SOL     OW28762   3.471   0.781   3.583
 9288SOL    HW128763   3.394   0.774   3.646
 9288SOL    HW228764   3.537   0.847   3.618
 9289SOL     OW28765   4.490   5.886   2.332
 9289SOL    HW128766   4.526   5.975   2.362
 9289SOL    HW228767   4.406   5.899   2.281
 9290SOL     OW28768   5.391   0.093   3.515
 9290SOL    HW128769   5.403   0.188   3.542
 9290SOL    HW228770   5.469   0.039   3.547
 9291SOL     OW28771   0.393   5.310   5.429
 9291SOL    HW128772   0.352   5.250   5.497
 9291SOL    HW228773   0.411   5.400   5.469
 9292SOL     OW28774   1.949   1.845   0.476
 9292SOL    HW128775   1.977   1.831   0.571
 9292SOL    HW228776   1.873   1.783   0.454
 9293SOL     OW28777   3.975   1.222   6.404
 9293SOL    HW128778   3.935   1.149   6.349
 9293SOL    HW228779   3.902   1.270   6.454
 9294SOL     OW28780   5.335   6.658   6.107
 9294SOL    HW128781   5.396   6.612   6.043
 9294SOL    HW228782   5.309   6.595   6.180
 9295SOL     OW28783   6.276   0.854   3.108
 9295SOL    HW128784   6.226   0.796   3.171
 9295SOL    HW228785   6.346   0.800   3.061
 9296SOL     OW28786   2.230   2.685   5.749
 9296SOL    HW128787   2.173   2.765   5.730
 9296SOL    HW228788   2.320   2.698   5.706
 9297SOL     OW28789   0.090   5.407   1.915
 9297SOL    HW128790   0.098   5.394   2.013
 9297SOL    HW228791   0.065   5.503   1.896
 9298SOL     OW28792   6.568   4.063   0.340
 9298SOL    HW128793   6.566   4.014   0.253
 9298SOL    HW228794   6.486   4.119   0.349
 9299SOL     OW28795   3.778   2.145   4.035
 9299SOL    HW128796   3.701   2.182   3.984
 9299SOL    HW228797   3.745   2.092   4.113
 9300SOL     OW28798   2.394   6.257   5.798
 9300SOL    HW128799   2.412   6.214   5.886
 9300SOL    HW228800   2.296   6.269   5.785
 9301SOL     OW28801   0.352   3.823   3.942
 9301SOL    HW128802   0.373   3.733   3.982
 9301SOL    HW228803   0.409   3.838   3.861
 9302SOL     OW28804   3.306   5.995   3.985
 9302SOL    HW128805   3.383   6.005   4.048
 9302SOL    HW228806   3.318   6.056   3.907
 9303SOL     OW28807   2.819   4.194   0.099
 9303SOL    HW128808   2.761   4.166   0.175
 9303SOL    HW228809   2.909   4.221   0.134
 9304SOL     OW28810   5.974   5.622   6.899
 9304SOL    HW128811   5.954   5.543   6.956
 9304SOL    HW228812   5.985   5.703   6.957
 9305SOL     OW28813   2.475   1.844   0.614
 9305SOL    HW128814   2.483   1.928   0.667
 9305SOL    HW228815   2.478   1.865   0.516
 9306SOL     OW28816   6.494   6.319   3.141
 9306SOL    HW128817   6.403   6.308   3.180
 9306SOL    HW228818   6.514   6.417   3.132
 9307SOL     OW28819   1.944   3.629   1.126
 9307SOL    HW128820   1.936   3.631   1.226
 9307SOL    HW228821   2.027   3.579   1.101
 9308SOL     OW28822   2.318   2.947   0.891
 9308SOL    HW128823   2.321   2.991   0.981
 9308SOL    HW228824   2.410   2.945   0.851
 9309SOL     OW28825   3.480   5.146   6.232
 9309SOL    HW128826   3.437   5.179   6.316
 9309SOL    HW228827   3.512   5.224   6.179
 9310SOL     OW28828   6.143   6.978   5.910
 9310SOL    HW128829   6.045   6.976   5.888
 9310SOL    HW228830   6.163   6.909   5.979
 9311SOL     OW28831   5.117   4.262   0.287
 9311SOL    HW128832   5.169   4.208   0.353
 9311SOL    HW228833   5.090   4.349   0.328
 9312SOL     OW28834   6.305   3.302   4.393
 9312SOL    HW128835   6.266   3.286   4.484
 9312SOL    HW228836   6.230   3.313   4.327
 9313SOL     OW28837   6.929   0.179   1.995
 9313SOL    HW128838   7.015   0.186   1.944
 9313SOL    HW228839   6.949   0.176   2.093
 9314SOL     OW28840   5.784   4.648   1.843
 9314SOL    HW128841   5.835   4.709   1.905
 9314SOL    HW228842   5.710   4.604   1.893
 9315SOL     OW28843   5.350   5.237   5.161
 9315SOL    HW128844   5.283   5.164   5.150
 9315SOL    HW228845   5.442   5.198   5.165
 9316SOL     OW28846   5.214   6.074   6.784
 9316SOL    HW128847   5.289   6.070   6.850
 9316SOL    HW228848   5.152   5.997   6.799
 9317SOL     OW28849   2.746   6.622   3.242
 9317SOL    HW128850   2.746   6.718   3.214
 9317SOL    HW228851   2.687   6.610   3.322
 9318SOL     OW28852   3.569   0.308   3.892
 9318SOL    HW128853   3.577   0.217   3.853
 9318SOL    HW228854   3.660   0.339   3.922
 9319SOL     OW28855   4.337   2.540   0.899
 9319SOL    HW128856   4.325   2.517   0.802
 9319SOL    HW228857   4.428   2.510   0.929
 9320SOL     OW28858   6.469   0.428   6.975
 9320SOL    HW128859   6.420   0.458   6.893
 9320SOL    HW228860   6.426   0.469   0.036
 9321SOL     OW28861   1.406   2.523   3.921
 9321SOL    HW128862   1.448   2.457   3.983
 9321SOL    HW228863   1.307   2.522   3.933
 9322SOL     OW28864   5.470   3.451   0.654
 9322SOL    HW128865   5.389   3.475   0.601
 9322SOL    HW228866   5.548   3.503   0.619
 9323SOL     OW28867   0.402   2.807   4.923
 9323SOL    HW128868   0.471   2.864   4.967
 9323SOL    HW228869   0.411   2.814   4.824
 9324SOL     OW28870   1.244   4.070   1.393
 9324SOL    HW128871   1.323   4.026   1.435
 9324SOL    HW228872   1.187   4.002   1.348
 9325SOL     OW28873   0.311   3.638   3.014
 9325SOL    HW128874   0.230   3.609   2.964
 9325SOL    HW228875   0.326   3.736   2.999
 9326SOL     OW28876   3.476   4.678   1.115
 9326SOL    HW128877   3.528   4.739   1.175
 9326SOL    HW228878   3.484   4.710   1.020
 9327SOL     OW28879   2.113   1.878   3.139
 9327SOL    HW128880   2.053   1.916   3.210
 9327SOL    HW228881   2.192   1.938   3.126
 9328SOL     OW28882   0.812   0.079   3.477
 9328SOL    HW128883   0.762   0.145   3.534
 9328SOL    HW228884   0.808   7.009   3.521
 9329SOL     OW28885   1.372   5.084   6.413
 9329SOL    HW128886   1.423   5.037   6.342
 9329SOL    HW228887   1.274   5.064   6.403
 9330SOL     OW28888   0.496   6.023   1.058
 9330SOL    HW128889   0.433   6.076   1.001
 9330SOL    HW228890   0.563   6.084   1.100
 9331SOL     OW28891   2.338   5.774   5.139
 9331SOL    HW128892   2.305   5.739   5.226
 9331SOL    HW228893   2.360   5.698   5.078
 9332SOL     OW28894   6.304   6.109   0.662
 9332SOL    HW128895   6.303   6.109   0.562
 9332SOL    HW228896   6.223   6.155   0.697
 9333SOL     OW28897   0.873   5.902   1.192
 9333SOL    HW128898   0.894   5.999   1.202
 9333SOL    HW228899   0.809   5.890   1.116
 9334SOL     OW28900   6.810   6.304   0.210
 9334SOL    HW128901   6.871   6.326   0.286
 9334SOL    HW228902   6.783   6.389   0.164
 9335SOL     OW28903   0.302   3.293   0.903
 9335SOL    HW128904   0.238   3.369   0.911
 9335SOL    HW228905   0.252   3.207   0.904
 9336SOL     OW28906   5.034   5.822   5.757
 9336SOL    HW128907   5.026   5.915   5.722
 9336SOL    HW228908   5.114   5.779   5.717
 9337SOL     OW28909   2.936   1.726   4.828
 9337SOL    HW128910   2.922   1.657   4.757
 9337SOL    HW228911   2.851   1.739   4.879
 9338SOL     OW28912   4.202   0.241   1.741
 9338SOL    HW128913   4.193   0.150   1.781
 9338SOL    HW228914   4.171   0.310   1.806
 9339SOL     OW28915   0.277   3.611   4.602
 9339SOL    HW128916   0.329   3.600   4.686
 9339SOL    HW228917   0.321   3.679   4.544
 9340SOL     OW28918   3.058   4.785   2.028
 9340SOL    HW128919   2.972   4.738   2.009
 9340SOL    HW228920   3.130   4.745   1.971
 9341SOL     OW28921   4.951   5.707   1.517
 9341SOL    HW128922   4.860   5.683   1.550
 9341SOL    HW228923   5.020   5.670   1.580
 9342SOL     OW28924   2.798   0.736   4.794
 9342SOL    HW128925   2.790   0.810   4.861
 9342SOL    HW228926   2.754   0.654   4.830
 9343SOL     OW28927   5.594   3.858   0.939
 9343SOL    HW128928   5.653   3.897   1.010
 9343SOL    HW228929   5.638   3.868   0.850
 9344SOL     OW28930   5.102   6.528   5.009
 9344SOL    HW128931   5.147   6.495   4.926
 9344SOL    HW228932   5.170   6.537   5.082
 9345SOL     OW28933   6.954   4.853   6.509
 9345SOL    HW128934   6.934   4.755   6.501
 9345SOL    HW228935   0.011   4.876   6.449
 9346SOL     OW28936   5.126   0.798   2.446
 9346SOL    HW128937   5.149   0.844   2.532
 9346SOL    HW228938   5.116   0.700   2.463
 9347SOL     OW28939   4.975   6.651   2.549
 9347SOL    HW128940   4.901   6.630   2.485
 9347SOL    HW228941   4.937   6.692   2.632
 9348SOL     OW28942   2.451   5.187   2.143
 9348SOL    HW128943   2.404   5.219   2.061
 9348SOL    HW228944   2.546   5.165   2.120
 9349SOL     OW28945   1.106   4.645   1.550
 9349SOL    HW128946   1.132   4.564   1.497
 9349SOL    HW228947   1.186   4.704   1.561
 9350SOL     OW28948   6.763   1.035   6.863
 9350SOL    HW128949   6.778   0.963   6.795
 9350SOL    HW228950   6.691   1.006   6.926
 9351SOL     OW28951   4.226   4.000   6.205
 9351SOL    HW128952   4.162   4.022   6.278
 9351SOL    HW228953   4.189   4.032   6.118
 9352SOL     OW28954   2.701   1.718   0.147
 9352SOL    HW128955   2.743   1.661   0.218
 9352SOL    HW228956   2.678   1.661   0.069
 9353SOL     OW28957   1.218   3.058   2.235
 9353SOL    HW128958   1.218   3.115   2.317
 9353SOL    HW228959   1.220   3.116   2.154
 9354SOL     OW28960   5.875   2.162   2.295
 9354SOL    HW128961   5.974   2.159   2.280
 9354SOL    HW228962   5.829   2.186   2.210
 9355SOL     OW28963   0.587   2.177   2.018
 9355SOL    HW128964   0.593   2.178   1.918
 9355SOL    HW228965   0.558   2.087   2.049
 9356SOL     OW28966   4.497   2.485   2.116
 9356SOL    HW128967   4.551   2.402   2.103
 9356SOL    HW228968   4.527   2.555   2.050
 9357SOL     OW28969   1.967   4.118   6.887
 9357SOL    HW128970   1.870   4.104   6.906
 9357SOL    HW228971   2.018   4.036   6.912
 9358SOL     OW28972   5.369   4.754   3.507
 9358SOL    HW128973   5.387   4.819   3.433
 9358SOL    HW228974   5.311   4.680   3.472
 9359SOL     OW28975   4.147   5.369   5.492
 9359SOL    HW128976   4.126   5.324   5.405
 9359SOL    HW228977   4.176   5.301   5.559
 9360SOL     OW28978   0.721   0.212   5.603
 9360SOL    HW128979   0.671   0.214   5.516
 9360SOL    HW228980   0.769   0.299   5.616
 9361SOL     OW28981   1.095   1.480   2.516
 9361SOL    HW128982   1.078   1.530   2.601
 9361SOL    HW228983   1.127   1.544   2.446
 9362SOL     OW28984   1.349   1.787   2.909
 9362SOL    HW128985   1.411   1.784   2.831
 9362SOL    HW228986   1.337   1.694   2.946
 9363SOL     OW28987   0.671   6.656   1.986
 9363SOL    HW128988   0.584   6.688   1.948
 9363SOL    HW228989   0.717   6.598   1.918
 9364SOL     OW28990   5.880   3.756   0.669
 9364SOL    HW128991   5.813   3.830   0.673
 9364SOL    HW228992   5.972   3.794   0.663
 9365SOL     OW28993   2.889   0.990   4.442
 9365SOL    HW128994   2.859   1.077   4.482
 9365SOL    HW228995   2.887   0.996   4.343
 9366SOL     OW28996   2.558   1.598   0.542
 9366SOL    HW128997   2.509   1.660   0.603
 9366SOL    HW228998   2.564   1.638   0.451
 9367SOL     OW28999   5.284   6.718   4.777
 9367SOL    HW129000   5.306   6.808   4.737
 9367SOL    HW229001   5.330   6.647   4.725
 9368SOL     OW29002   5.634   3.135   1.262
 9368SOL    HW129003   5.546   3.170   1.292
 9368SOL    HW229004   5.665   3.063   1.325
 9369SOL     OW29005   0.343   2.524   5.762
 9369SOL    HW129006   0.309   2.548   5.854
 9369SOL    HW229007   0.342   2.424   5.752
 9370SOL     OW29008   5.810   5.405   1.671
 9370SOL    HW129009   5.872   5.436   1.744
 9370SOL    HW229010   5.716   5.415   1.702
 9371SOL     OW29011   2.166   6.986   0.735
 9371SOL    HW129012   2.195   0.056   0.703
 9371SOL    HW229013   2.199   6.916   0.671
 9372SOL     OW29014   5.184   5.721   0.305
 9372SOL    HW129015   5.157   5.751   0.396
 9372SOL    HW229016   5.283   5.709   0.302
 9373SOL     OW29017   4.804   2.796   4.853
 9373SOL    HW129018   4.767   2.874   4.803
 9373SOL    HW229019   4.729   2.741   4.890
 9374SOL     OW29020   5.061   4.233   7.014
 9374SOL    HW129021   5.036   4.169   6.941
 9374SOL    HW229022   5.108   4.185   0.067
 9375SOL     OW29023   6.446   6.422   3.907
 9375SOL    HW129024   6.487   6.340   3.868
 9375SOL    HW229025   6.355   6.436   3.867
 9376SOL     OW29026   2.845   3.242   2.052
 9376SOL    HW129027   2.875   3.337   2.040
 9376SOL    HW229028   2.748   3.240   2.076
 9377SOL     OW29029   0.156   4.381   3.637
 9377SOL    HW129030   0.237   4.439   3.637
 9377SOL    HW229031   0.181   4.288   3.611
 9378SOL     OW29032   4.142   6.017   1.675
 9378SOL    HW129033   4.238   5.995   1.654
 9378SOL    HW229034   4.082   5.952   1.629
 9379SOL     OW29035   4.370   4.838   5.251
 9379SOL    HW129036   4.343   4.742   5.243
 9379SOL    HW229037   4.438   4.861   5.181
 9380SOL     OW29038   0.157   5.602   5.569
 9380SOL    HW129039   0.059   5.611   5.550
 9380SOL    HW229040   0.174   5.625   5.665
 9381SOL     OW29041   0.699   1.135   0.153
 9381SOL    HW129042   0.724   1.199   0.080
 9381SOL    HW229043   0.706   1.041   0.118
 9382SOL     OW29044   6.161   2.219   2.171
 9382SOL    HW129045   6.172   2.140   2.112
 9382SOL    HW229046   6.155   2.302   2.115
 9383SOL     OW29047   0.164   5.370   6.939
 9383SOL    HW129048   0.075   5.332   6.914
 9383SOL    HW229049   0.180   5.358   0.016
 9384SOL     OW29050   3.316   6.883   2.447
 9384SOL    HW129051   3.312   6.972   2.402
 9384SOL    HW229052   3.366   6.891   2.533
 9385SOL     OW29053   4.247   6.636   3.491
 9385SOL    HW129054   4.223   6.616   3.586
 9385SOL    HW229055   4.308   6.715   3.488
 9386SOL     OW29056   3.385   6.669   4.759
 9386SOL    HW129057   3.373   6.668   4.859
 9386SOL    HW229058   3.437   6.751   4.733
 9387SOL     OW29059   4.940   6.003   0.735
 9387SOL    HW129060   4.926   5.908   0.761
 9387SOL    HW229061   4.880   6.062   0.789
 9388SOL     OW29062   6.366   0.230   1.398
 9388SOL    HW129063   6.446   0.286   1.378
 9388SOL    HW229064   6.373   0.142   1.350
 9389SOL     OW29065   3.320   1.159   1.151
 9389SOL    HW129066   3.330   1.183   1.054
 9389SOL    HW229067   3.270   1.073   1.158
 9390SOL     OW29068   3.741   6.558   0.851
 9390SOL    HW129069   3.661   6.594   0.901
 9390SOL    HW229070   3.824   6.579   0.903
 9391SOL     OW29071   5.317   0.342   3.669
 9391SOL    HW129072   5.223   0.309   3.674
 9391SOL    HW229073   5.341   0.386   3.756
 9392SOL     OW29074   0.738   0.019   5.002
 9392SOL    HW129075   0.813   6.975   4.990
 9392SOL    HW229076   0.655   6.990   5.028
 9393SOL     OW29077   4.948   1.481   5.395
 9393SOL    HW129078   4.966   1.393   5.440
 9393SOL    HW229079   5.031   1.536   5.393
 9394SOL     OW29080   6.423   1.701   2.437
 9394SOL    HW129081   6.517   1.719   2.465
 9394SOL    HW229082   6.422   1.663   2.345
 9395SOL     OW29083   1.758   2.890   0.165
 9395SOL    HW129084   1.730   2.936   0.250
 9395SOL    HW229085   1.841   2.932   0.130
 9396SOL     OW29086   0.818   1.263   5.251
 9396SOL    HW129087   0.825   1.220   5.341
 9396SOL    HW229088   0.808   1.192   5.181
 9397SOL     OW29089   1.732   2.050   1.050
 9397SOL    HW129090   1.767   2.012   0.964
 9397SOL    HW229091   1.646   2.097   1.033
 9398SOL     OW29092   2.366   2.039   1.277
 9398SOL    HW129093   2.318   2.022   1.191
 9398SOL    HW229094   2.299   2.054   1.349
 9399SOL     OW29095   6.903   0.620   5.359
 9399SOL    HW129096   6.834   0.674   5.311
 9399SOL    HW229097   6.958   0.681   5.417
 9400SOL     OW29098   4.101   1.464   4.146
 9400SOL    HW129099   4.027   1.517   4.187
 9400SOL    HW229100   4.139   1.515   4.069
 9401SOL     OW29101   4.201   6.873   4.036
 9401SOL    HW129102   4.269   6.926   3.984
 9401SOL    HW229103   4.141   6.824   3.972
 9402SOL     OW29104   2.363   4.600   6.496
 9402SOL    HW129105   2.435   4.539   6.531
 9402SOL    HW229106   2.318   4.556   6.418
 9403SOL     OW29107   6.253   0.283   3.363
 9403SOL    HW129108   6.312   0.209   3.395
 9403SOL    HW229109   6.176   0.294   3.426
 9404SOL     OW29110   2.115   4.616   4.942
 9404SOL    HW129111   2.157   4.634   5.031
 9404SOL    HW229112   2.111   4.518   4.926
 9405SOL     OW29113   0.222   0.789   1.126
 9405SOL    HW129114   0.265   0.769   1.038
 9405SOL    HW229115   0.133   0.832   1.111
 9406SOL     OW29116   6.583   1.745   5.089
 9406SOL    HW129117   6.674   1.719   5.123
 9406SOL    HW229118   6.587   1.759   4.990
 9407SOL     OW29119   3.348   5.588   3.816
 9407SOL    HW129120   3.422   5.615   3.877
 9407SOL    HW229121   3.287   5.666   3.801
 9408SOL     OW29122   3.484   1.575   0.268
 9408SOL    HW129123   3.515   1.524   0.188
 9408SOL    HW229124   3.543   1.553   0.346
 9409SOL     OW29125   6.238   4.015   3.735
 9409SOL    HW129126   6.260   4.051   3.644
 9409SOL    HW229127   6.292   3.932   3.752
 9410SOL     OW29128   4.212   6.814   2.241
 9410SOL    HW129129   4.207   6.904   2.283
 9410SOL    HW229130   4.203   6.822   2.142
 9411SOL     OW29131   5.089   4.304   2.463
 9411SOL    HW129132   5.016   4.254   2.509
 9411SOL    HW229133   5.052   4.389   2.424
 9412SOL     OW29134   6.918   1.649   3.341
 9412SOL    HW129135   6.833   1.620   3.297
 9412SOL    HW229136   6.949   1.735   3.301
 9413SOL     OW29137   4.446   5.391   3.656
 9413SOL    HW129138   4.486   5.377   3.566
 9413SOL    HW229139   4.517   5.419   3.720
 9414SOL     OW29140   2.362   0.323   1.978
 9414SOL    HW129141   2.327   0.243   2.028
 9414SOL    HW229142   2.330   0.319   1.884
 9415SOL     OW29143   0.971   6.920   2.173
 9415SOL    HW129144   1.026   6.991   2.130
 9415SOL    HW229145   1.015   6.831   2.160
 9416SOL     OW29146   1.519   1.741   1.472
 9416SOL    HW129147   1.586   1.811   1.499
 9416SOL    HW229148   1.557   1.651   1.491
 9417SOL     OW29149   0.960   0.550   4.204
 9417SOL    HW129150   0.932   0.630   4.257
 9417SOL    HW229151   1.051   0.565   4.165
 9418SOL     OW29152   4.311   4.424   0.592
 9418SOL    HW129153   4.340   4.333   0.620
 9418SOL    HW229154   4.336   4.491   0.662
 9419SOL     OW29155   2.640   5.929   3.655
 9419SOL    HW129156   2.683   5.839   3.661
 9419SOL    HW229157   2.711   6.000   3.664
 9420SOL     OW29158   1.128   0.503   2.737
 9420SOL    HW129159   1.125   0.596   2.773
 9420SOL    HW229160   1.174   0.503   2.648
 9421SOL     OW29161   1.766   4.456   5.500
 9421SOL    HW129162   1.728   4.439   5.591
 9421SOL    HW229163   1.691   4.471   5.436
 9422SOL     OW29164   3.491   1.003   3.202
 9422SOL    HW129165   3.576   0.986   3.152
 9422SOL    HW229166   3.414   0.996   3.138
 9423SOL     OW29167   4.614   0.438   5.018
 9423SOL    HW129168   4.620   0.491   4.934
 9423SOL    HW229169   4.572   0.493   5.090
 9424SOL     OW29170   2.975   5.828   3.340
 9424SOL    HW129171   3.038   5.867   3.408
 9424SOL    HW229172   2.921   5.902   3.299
 9425SOL     OW29173   0.243   5.954   2.359
 9425SOL    HW129174   0.210   5.910   2.276
 9425SOL    HW229175   0.247   5.887   2.433
 9426SOL     OW29176   3.548   5.923   0.956
 9426SOL    HW129177   3.511   5.937   0.864
 9426SOL    HW229178   3.474   5.896   1.018
 9427SOL     OW29179   3.033   4.930   4.351
 9427SOL    HW129180   3.119   4.975   4.325
 9427SOL    HW229181   3.041   4.895   4.444
 9428SOL     OW29182   4.333   6.364   2.291
 9428SOL    HW129183   4.355   6.367   2.193
 9428SOL    HW229184   4.266   6.435   2.313
 9429SOL     OW29185   0.598   3.556   3.044
 9429SOL    HW129186   0.518   3.612   3.023
 9429SOL    HW229187   0.671   3.574   2.978
 9430SOL     OW29188   6.492   6.773   1.729
 9430SOL    HW129189   6.463   6.863   1.698
 9430SOL    HW229190   6.557   6.735   1.664
 9431SOL     OW29191   6.308   4.523   0.532
 9431SOL    HW129192   6.356   4.535   0.445
 9431SOL    HW229193   6.212   4.502   0.514
 9432SOL     OW29194   6.121   6.510   3.337
 9432SOL    HW129195   6.144   6.442   3.267
 9432SOL    HW229196   6.174   6.593   3.322
 9433SOL     OW29197   2.471   5.531   4.594
 9433SOL    HW129198   2.446   5.435   4.579
 9433SOL    HW229199   2.390   5.588   4.587
 9434SOL     OW29200   6.017   4.725   3.640
 9434SOL    HW129201   5.939   4.672   3.606
 9434SOL    HW229202   5.988   4.818   3.661
 9435SOL     OW29203   2.792   2.593   6.149
 9435SOL    HW129204   2.867   2.545   6.103
 9435SOL    HW229205   2.830   2.660   6.213
 9436SOL     OW29206   3.592   2.259   5.339
 9436SOL    HW129207   3.545   2.313   5.409
 9436SOL    HW229208   3.527   2.199   5.294
 9437SOL     OW29209   0.389   6.099   4.565
 9437SOL    HW129210   0.385   6.197   4.547
 9437SOL    HW229211   0.456   6.081   4.637
 9438SOL     OW29212   0.018   6.578   1.739
 9438SOL    HW129213   0.067   6.521   1.673
 9438SOL    HW229214   0.022   6.536   1.829
 9439SOL     OW29215   1.567   2.742   1.969
 9439SOL    HW129216   1.602   2.668   1.912
 9439SOL    HW229217   1.596   2.728   2.063
 9440SOL     OW29218   3.170   6.536   3.381
 9440SOL    HW129219   3.208   6.454   3.338
 9440SOL    HW229220   3.121   6.590   3.313
 9441SOL     OW29221   1.131   5.191   6.161
 9441SOL    HW129222   1.154   5.259   6.231
 9441SOL    HW229223   1.065   5.126   6.198
 9442SOL     OW29224   1.093   1.880   1.250
 9442SOL    HW129225   1.062   1.796   1.205
 9442SOL    HW229226   1.152   1.858   1.327
 9443SOL     OW29227   1.149   1.969   0.928
 9443SOL    HW129228   1.058   1.941   0.957
 9443SOL    HW229229   1.209   1.889   0.923
 9444SOL     OW29230   1.155   3.927   5.086
 9444SOL    HW129231   1.079   3.862   5.097
 9444SOL    HW229232   1.179   3.965   5.175
 9445SOL     OW29233   5.340   1.928   2.109
 9445SOL    HW129234   5.349   1.926   2.010
 9445SOL    HW229235   5.352   2.022   2.141
 9446SOL     OW29236   5.292   5.162   0.404
 9446SOL    HW129237   5.236   5.088   0.443
 9446SOL    HW229238   5.355   5.124   0.336
 9447SOL     OW29239   5.453   1.037   1.518
 9447SOL    HW129240   5.401   1.016   1.601
 9447SOL    HW229241   5.547   1.059   1.541
 9448SOL     OW29242   6.085   6.735   0.653
 9448SOL    HW129243   6.132   6.722   0.566
 9448SOL    HW229244   6.135   6.687   0.725
 9449SOL     OW29245   5.673   5.294   4.826
 9449SOL    HW129246   5.635   5.284   4.734
 9449SOL    HW229247   5.604   5.332   4.887
 9450SOL     OW29248   2.059   6.119   4.016
 9450SOL    HW129249   2.019   6.210   4.021
 9450SOL    HW229250   2.013   6.065   3.946
 9451SOL     OW29251   4.173   3.334   4.678
 9451SOL    HW129252   4.232   3.253   4.670
 9451SOL    HW229253   4.128   3.334   4.768
 9452SOL     OW29254   3.684   4.537   0.688
 9452SOL    HW129255   3.742   4.555   0.767
 9452SOL    HW229256   3.733   4.480   0.623
 9453SOL     OW29257   3.312   6.500   1.050
 9453SOL    HW129258   3.213   6.506   1.038
 9453SOL    HW229259   3.357   6.537   0.969
 9454SOL     OW29260   2.350   1.695   5.631
 9454SOL    HW129261   2.327   1.762   5.560
 9454SOL    HW229262   2.284   1.620   5.628
 9455SOL     OW29263   1.940   2.125   1.563
 9455SOL    HW129264   2.039   2.119   1.552
 9455SOL    HW229265   1.904   2.199   1.506
 9456SOL     OW29266   1.424   3.000   0.259
 9456SOL    HW129267   1.423   3.043   0.168
 9456SOL    HW229268   1.518   2.996   0.293
 9457SOL     OW29269   5.950   3.617   0.332
 9457SOL    HW129270   5.998   3.607   0.419
 9457SOL    HW229271   5.958   3.533   0.279
 9458SOL     OW29272   1.386   5.818   4.087
 9458SOL    HW129273   1.311   5.829   4.152
 9458SOL    HW229274   1.431   5.906   4.073
 9459SOL     OW29275   3.879   6.194   0.490
 9459SOL    HW129276   3.906   6.287   0.513
 9459SOL    HW229277   3.950   6.130   0.521
 9460SOL     OW29278   1.541   3.735   5.285
 9460SOL    HW129279   1.592   3.791   5.220
 9460SOL    HW229280   1.597   3.656   5.311
 9461SOL     OW29281   1.405   0.556   2.538
 9461SOL    HW129282   1.327   0.595   2.489
 9461SOL    HW229283   1.386   0.461   2.559
 9462SOL     OW29284   0.462   3.381   3.704
 9462SOL    HW129285   0.461   3.393   3.803
 9462SOL    HW229286   0.514   3.456   3.662
 9463SOL     OW29287   4.923   2.123   6.113
 9463SOL    HW129288   5.003   2.172   6.079
 9463SOL    HW229289   4.840   2.172   6.087
 9464SOL     OW29290   3.812   6.804   6.254
 9464SOL    HW129291   3.745   6.878   6.241
 9464SOL    HW229292   3.785   6.726   6.198
 9465SOL     OW29293   4.221   6.219   4.257
 9465SOL    HW129294   4.317   6.198   4.241
 9465SOL    HW229295   4.184   6.161   4.329
 9466SOL     OW29296   3.428   1.879   6.771
 9466SOL    HW129297   3.474   1.792   6.752
 9466SOL    HW229298   3.420   1.931   6.687
 9467SOL     OW29299   1.210   3.201   2.484
 9467SOL    HW129300   1.267   3.283   2.477
 9467SOL    HW229301   1.172   3.194   2.576
 9468SOL     OW29302   0.297   2.748   6.379
 9468SOL    HW129303   0.230   2.724   6.309
 9468SOL    HW229304   0.252   2.749   6.469
 9469SOL     OW29305   0.312   4.199   2.544
 9469SOL    HW129306   0.218   4.211   2.578
 9469SOL    HW229307   0.376   4.202   2.620
 9470SOL     OW29308   6.265   3.756   1.753
 9470SOL    HW129309   6.218   3.824   1.808
 9470SOL    HW229310   6.207   3.675   1.743
 9471SOL     OW29311   0.017   2.754   5.762
 9471SOL    HW129312   7.008   2.666   5.725
 9471SOL    HW229313   0.110   2.774   5.732
 9472SOL     OW29314   6.253   2.277   5.220
 9472SOL    HW129315   6.302   2.228   5.147
 9472SOL    HW229316   6.316   2.292   5.297
 9473SOL     OW29317   3.126   4.807   6.188
 9473SOL    HW129318   3.153   4.718   6.225
 9473SOL    HW229319   3.169   4.821   6.098
 9474SOL     OW29320   3.745   5.691   4.342
 9474SOL    HW129321   3.813   5.730   4.280
 9474SOL    HW229322   3.656   5.689   4.297
 9475SOL     OW29323   2.796   3.177   1.420
 9475SOL    HW129324   2.883   3.219   1.447
 9475SOL    HW229325   2.736   3.171   1.500
 9476SOL     OW29326   2.781   3.390   5.486
 9476SOL    HW129327   2.880   3.394   5.501
 9476SOL    HW229328   2.761   3.313   5.425
 9477SOL     OW29329   1.209   2.358   0.516
 9477SOL    HW129330   1.266   2.407   0.583
 9477SOL    HW229331   1.182   2.420   0.443
 9478SOL     OW29332   5.680   3.478   6.831
 9478SOL    HW129333   5.628   3.444   6.910
 9478SOL    HW229334   5.740   3.552   6.860
 9479SOL     OW29335   5.553   4.790   5.150
 9479SOL    HW129336   5.620   4.746   5.090
 9479SOL    HW229337   5.594   4.872   5.191
 9480SOL     OW29338   0.120   3.588   6.141
 9480SOL    HW129339   0.028   3.577   6.179
 9480SOL    HW229340   0.185   3.535   6.195
 9481SOL     OW29341   0.932   2.820   3.495
 9481SOL    HW129342   0.910   2.750   3.563
 9481SOL    HW229343   0.849   2.870   3.471
 9482SOL     OW29344   4.189   1.433   2.352
 9482SOL    HW129345   4.111   1.384   2.313
 9482SOL    HW229346   4.191   1.420   2.451
 9483SOL     OW29347   1.927   1.027   0.699
 9483SOL    HW129348   1.874   1.003   0.781
 9483SOL    HW229349   1.889   1.110   0.658
 9484SOL     OW29350   6.527   0.037   3.162
 9484SOL    HW129351   6.575   0.087   3.235
 9484SOL    HW229352   6.523   6.960   3.185
 9485SOL     OW29353   0.246   6.980   3.366
 9485SOL    HW129354   0.302   6.898   3.356
 9485SOL    HW229355   0.269   0.005   3.452
 9486SOL     OW29356   2.852   0.079   2.067
 9486SOL    HW129357   2.908   0.023   2.005
 9486SOL    HW229358   2.897   0.085   2.156
 9487SOL     OW29359   3.343   2.899   3.455
 9487SOL    HW129360   3.404   2.863   3.385
 9487SOL    HW229361   3.361   2.855   3.542
 9488SOL     OW29362   1.888   0.181   1.790
 9488SOL    HW129363   1.977   0.159   1.748
 9488SOL    HW229364   1.847   0.258   1.742
 9489SOL     OW29365   2.943   5.046   0.736
 9489SOL    HW129366   2.845   5.030   0.747
 9489SOL    HW229367   2.984   4.970   0.686
 9490SOL     OW29368   4.644   1.778   0.269
 9490SOL    HW129369   4.689   1.824   0.193
 9490SOL    HW229370   4.685   1.688   0.283
 9491SOL     OW29371   5.984   6.003   6.371
 9491SOL    HW129372   5.953   5.918   6.415
 9491SOL    HW229373   6.074   5.989   6.331
 9492SOL     OW29374   2.367   5.618   1.097
 9492SOL    HW129375   2.445   5.558   1.114
 9492SOL    HW229376   2.282   5.572   1.122
 9493SOL     OW29377   4.873   5.724   2.370
 9493SOL    HW129378   4.823   5.656   2.423
 9493SOL    HW229379   4.969   5.698   2.365
 9494SOL     OW29380   3.604   3.167   6.610
 9494SOL    HW129381   3.573   3.166   6.515
 9494SOL    HW229382   3.603   3.261   6.644
 9495SOL     OW29383   5.284   2.822   4.413
 9495SOL    HW129384   5.253   2.852   4.503
 9495SOL    HW229385   5.364   2.762   4.424
 9496SOL     OW29386   6.968   4.408   6.765
 9496SOL    HW129387   6.942   4.384   6.859
 9496SOL    HW229388   6.945   4.332   6.704
 9497SOL     OW29389   0.914   6.227   6.241
 9497SOL    HW129390   0.821   6.262   6.251
 9497SOL    HW229391   0.951   6.253   6.152
 9498SOL     OW29392   4.495   6.701   6.391
 9498SOL    HW129393   4.477   6.710   6.293
 9498SOL    HW229394   4.548   6.780   6.422
 9499SOL     OW29395   4.665   4.104   5.654
 9499SOL    HW129396   4.609   4.025   5.629
 9499SOL    HW229397   4.727   4.079   5.729
 9500SOL     OW29398   4.065   5.895   0.631
 9500SOL    HW129399   4.042   5.880   0.535
 9500SOL    HW229400   3.988   5.941   0.676
 9501SOL     OW29401   3.231   2.000   4.964
 9501SOL    HW129402   3.185   2.086   4.986
 9501SOL    HW229403   3.181   1.952   4.892
 9502SOL     OW29404   3.796   3.086   6.234
 9502SOL    HW129405   3.726   3.156   6.247
 9502SOL    HW229406   3.753   2.996   6.231
 9503SOL     OW29407   0.925   6.597   1.064
 9503SOL    HW129408   0.919   6.635   0.972
 9503SOL    HW229409   1.015   6.555   1.076
 9504SOL     OW29410   0.081   3.126   0.842
 9504SOL    HW129411   0.004   3.113   0.904
 9504SOL    HW229412   0.109   3.038   0.804
 9505SOL     OW29413   4.823   3.075   3.256
 9505SOL    HW129414   4.821   2.985   3.211
 9505SOL    HW229415   4.805   3.146   3.188
 9506SOL     OW29416   6.425   2.120   0.977
 9506SOL    HW129417   6.511   2.100   1.024
 9506SOL    HW229418   6.429   2.212   0.938
 9507SOL     OW29419   1.548   3.233   5.468
 9507SOL    HW129420   1.467   3.284   5.441
 9507SOL    HW229421   1.528   3.136   5.470
 9508SOL     OW29422   4.263   1.044   5.274
 9508SOL    HW129423   4.352   1.067   5.235
 9508SOL    HW229424   4.195   1.109   5.242
 9509SOL     OW29425   3.407   6.812   5.898
 9509SOL    HW129426   3.385   6.833   5.993
 9509SOL    HW229427   3.451   6.891   5.855
 9510SOL     OW29428   6.762   4.304   2.982
 9510SOL    HW129429   6.778   4.383   2.923
 9510SOL    HW229430   6.673   4.264   2.960
 9511SOL     OW29431   1.998   1.883   1.291
 9511SOL    HW129432   2.081   1.848   1.335
 9511SOL    HW229433   1.936   1.807   1.271
 9512SOL     OW29434   1.948   3.627   5.487
 9512SOL    HW129435   1.854   3.595   5.501
 9512SOL    HW229436   1.947   3.714   5.437
 9513SOL     OW29437   2.887   4.861   4.123
 9513SOL    HW129438   2.908   4.941   4.067
 9513SOL    HW229439   2.952   4.857   4.199
 9514SOL     OW29440   3.125   3.078   5.495
 9514SOL    HW129441   3.114   3.113   5.401
 9514SOL    HW229442   3.221   3.085   5.521
 9515SOL     OW29443   1.653   5.810   5.683
 9515SOL    HW129444   1.668   5.711   5.686
 9515SOL    HW229445   1.622   5.836   5.591
 9516SOL     OW29446   6.288   4.312   4.663
 9516SOL    HW129447   6.356   4.292   4.592
 9516SOL    HW229448   6.265   4.409   4.661
 9517SOL     OW29449   0.366   5.264   2.461
 9517SOL    HW129450   0.413   5.305   2.538
 9517SOL    HW229451   0.274   5.236   2.489
 9518SOL     OW29452   0.900   3.108   5.144
 9518SOL    HW129453   0.992   3.092   5.109
 9518SOL    HW229454   0.879   3.205   5.142
 9519SOL     OW29455   3.330   3.581   3.598
 9519SOL    HW129456   3.277   3.498   3.582
 9519SOL    HW229457   3.268   3.660   3.599
 9520SOL     OW29458   4.858   1.345   5.963
 9520SOL    HW129459   4.881   1.372   5.869
 9520SOL    HW229460   4.768   1.301   5.964
 9521SOL     OW29461   3.828   1.465   1.495
 9521SOL    HW129462   3.792   1.396   1.559
 9521SOL    HW229463   3.828   1.554   1.539
 9522SOL     OW29464   3.685   6.597   1.200
 9522SOL    HW129465   3.625   6.607   1.279
 9522SOL    HW229466   3.779   6.617   1.227
 9523SOL     OW29467   2.684   4.760   4.846
 9523SOL    HW129468   2.606   4.717   4.800
 9523SOL    HW229469   2.705   4.710   4.930
 9524SOL     OW29470   1.881   3.766   0.240
 9524SOL    HW129471   1.832   3.749   0.155
 9524SOL    HW229472   1.912   3.861   0.242
 9525SOL     OW29473   2.577   2.576   6.545
 9525SOL    HW129474   2.672   2.552   6.564
 9525SOL    HW229475   2.517   2.516   6.598
 9526SOL     OW29476   5.338   4.560   6.082
 9526SOL    HW129477   5.421   4.504   6.075
 9526SOL    HW229478   5.258   4.500   6.093
 9527SOL     OW29479   4.063   5.849   4.552
 9527SOL    HW129480   4.016   5.805   4.628
 9527SOL    HW229481   4.120   5.782   4.505
 9528SOL     OW29482   5.016   2.393   1.102
 9528SOL    HW129483   4.977   2.379   1.193
 9528SOL    HW229484   4.953   2.357   1.033
 9529SOL     OW29485   5.963   0.045   1.972
 9529SOL    HW129486   6.032   0.077   1.908
 9529SOL    HW229487   5.940   0.118   2.036
 9530SOL     OW29488   1.031   6.187   3.594
 9530SOL    HW129489   0.973   6.267   3.580
 9530SOL    HW229490   1.028   6.160   3.690
 9531SOL     OW29491   3.721   6.017   1.498
 9531SOL    HW129492   3.728   6.114   1.475
 9531SOL    HW229493   3.690   5.966   1.417
 9532SOL     OW29494   6.969   5.069   4.640
 9532SOL    HW129495   7.012   5.083   4.551
 9532SOL    HW229496   6.955   5.157   4.685
 9533SOL     OW29497   1.129   4.163   3.879
 9533SOL    HW129498   1.202   4.186   3.943
 9533SOL    HW229499   1.094   4.247   3.836
 9534SOL     OW29500   4.991   5.921   4.305
 9534SOL    HW129501   5.002   5.965   4.216
 9534SOL    HW229502   4.962   5.989   4.373
 9535SOL     OW29503   0.143   1.639   4.210
 9535SOL    HW129504   0.046   1.647   4.232
 9535SOL    HW229505   0.172   1.718   4.156
 9536SOL     OW29506   3.384   3.673   5.162
 9536SOL    HW129507   3.399   3.771   5.152
 9536SOL    HW229508   3.472   3.628   5.175
 9537SOL     OW29509   0.087   0.744   4.270
 9537SOL    HW129510   0.112   0.729   4.366
 9537SOL    HW229511   0.164   0.719   4.211
 9538SOL     OW29512   5.543   0.952   4.927
 9538SOL    HW129513   5.497   0.976   4.841
 9538SOL    HW229514   5.493   0.878   4.972
 9539SOL     OW29515   3.834   4.034   2.204
 9539SOL    HW129516   3.834   4.133   2.211
 9539SOL    HW229517   3.801   3.994   2.289
 9540SOL     OW29518   4.025   4.832   3.331
 9540SOL    HW129519   4.043   4.788   3.243
 9540SOL    HW229520   4.107   4.827   3.388
 9541SOL     OW29521   1.646   5.495   5.729
 9541SOL    HW129522   1.595   5.469   5.811
 9541SOL    HW229523   1.594   5.470   5.647
 9542SOL     OW29524   6.479   3.946   3.281
 9542SOL    HW129525   6.427   3.997   3.213
 9542SOL    HW229526   6.472   3.848   3.262
 9543SOL     OW29527   2.028   0.718   5.909
 9543SOL    HW129528   1.947   0.762   5.947
 9543SOL    HW229529   2.098   0.711   5.980
 9544SOL     OW29530   5.983   3.386   4.513
 9544SOL    HW129531   6.068   3.374   4.565
 9544SOL    HW229532   5.907   3.396   4.577
 9545SOL     OW29533   6.383   4.075   1.636
 9545SOL    HW129534   6.457   4.103   1.574
 9545SOL    HW229535   6.296   4.079   1.588
 9546SOL     OW29536   3.417   2.589   0.572
 9546SOL    HW129537   3.414   2.514   0.505
 9546SOL    HW229538   3.428   2.551   0.664
 9547SOL     OW29539   4.339   0.735   3.464
 9547SOL    HW129540   4.408   0.682   3.513
 9547SOL    HW229541   4.312   0.686   3.381
 9548SOL     OW29542   0.976   5.037   5.490
 9548SOL    HW129543   0.984   5.045   5.390
 9548SOL    HW229544   0.923   5.114   5.525
 9549SOL     OW29545   4.433   1.105   1.564
 9549SOL    HW129546   4.369   1.166   1.518
 9549SOL    HW229547   4.522   1.151   1.574
 9550SOL     OW29548   6.779   2.137   1.734
 9550SOL    HW129549   6.759   2.062   1.671
 9550SOL    HW229550   6.696   2.188   1.753
 9551SOL     OW29551   6.407   3.292   6.797
 9551SOL    HW129552   6.415   3.304   6.896
 9551SOL    HW229553   6.345   3.362   6.760
 9552SOL     OW29554   3.037   1.452   0.147
 9552SOL    HW129555   3.097   1.372   0.157
 9552SOL    HW229556   3.076   1.515   0.081
 9553SOL     OW29557   5.394   1.698   0.098
 9553SOL    HW129558   5.354   1.778   0.054
 9553SOL    HW229559   5.392   1.621   0.035
 9554SOL     OW29560   2.671   0.999   4.686
 9554SOL    HW129561   2.741   1.062   4.652
 9554SOL    HW229562   2.599   0.989   4.617
 9555SOL     OW29563   0.441   6.583   2.508
 9555SOL    HW129564   0.478   6.495   2.477
 9555SOL    HW229565   0.357   6.566   2.559
 9556SOL     OW29566   2.436   4.541   6.808
 9556SOL    HW129567   2.345   4.583   6.817
 9556SOL    HW229568   2.468   4.511   6.898
 9557SOL     OW29569   5.342   0.984   0.388
 9557SOL    HW129570   5.292   1.020   0.309
 9557SOL    HW229571   5.313   1.032   0.471
 9558SOL     OW29572   5.680   5.831   5.572
 9558SOL    HW129573   5.778   5.844   5.584
 9558SOL    HW229574   5.662   5.742   5.531
 9559SOL     OW29575   2.311   4.211   0.133
 9559SOL    HW129576   2.289   4.204   0.231
 9559SOL    HW229577   2.270   4.134   0.084
 9560SOL     OW29578   2.732   0.279   1.919
 9560SOL    HW129579   2.765   0.373   1.925
 9560SOL    HW229580   2.779   0.222   1.986
 9561SOL     OW29581   0.147   1.315   0.132
 9561SOL    HW129582   0.147   1.290   0.035
 9561SOL    HW229583   0.236   1.355   0.156
 9562SOL     OW29584   2.023   5.827   2.833
 9562SOL    HW129585   1.947   5.765   2.853
 9562SOL    HW229586   2.015   5.862   2.740
 9563SOL     OW29587   0.448   5.744   6.849
 9563SOL    HW129588   0.496   5.692   6.919
 9563SOL    HW229589   0.353   5.713   6.843
 9564SOL     OW29590   0.950   1.862   0.408
 9564SOL    HW129591   0.879   1.932   0.397
 9564SOL    HW229592   1.040   1.905   0.405
 9565SOL     OW29593   2.154   2.268   4.571
 9565SOL    HW129594   2.099   2.271   4.655
 9565SOL    HW229595   2.202   2.181   4.565
 9566SOL     OW29596   3.095   0.541   6.790
 9566SOL    HW129597   3.129   0.627   6.752
 9566SOL    HW229598   3.108   0.468   6.723
 9567SOL     OW29599   6.746   4.435   1.027
 9567SOL    HW129600   6.697   4.487   0.957
 9567SOL    HW229601   6.833   4.481   1.047
 9568SOL     OW29602   4.603   2.225   5.529
 9568SOL    HW129603   4.623   2.240   5.626
 9568SOL    HW229604   4.551   2.140   5.519
 9569SOL     OW29605   5.499   0.551   1.899
 9569SOL    HW129606   5.592   0.568   1.931
 9569SOL    HW229607   5.502   0.506   1.810
 9570SOL     OW29608   0.750   3.973   2.495
 9570SOL    HW129609   0.815   3.898   2.503
 9570SOL    HW229610   0.729   3.989   2.399
 9571SOL     OW29611   1.660   1.179   6.755
 9571SOL    HW129612   1.749   1.219   6.729
 9571SOL    HW229613   1.598   1.184   6.676
 9572SOL     OW29614   2.983   4.823   4.933
 9572SOL    HW129615   2.988   4.769   5.017
 9572SOL    HW229616   2.893   4.809   4.890
 9573SOL     OW29617   5.766   0.057   4.608
 9573SOL    HW129618   5.724   0.002   4.680
 9573SOL    HW229619   5.755   0.011   4.520
 9574SOL     OW29620   4.654   2.509   1.105
 9574SOL    HW129621   4.746   2.530   1.070
 9574SOL    HW229622   4.604   2.594   1.121
 9575SOL     OW29623   5.008   0.777   1.629
 9575SOL    HW129624   4.926   0.798   1.683
 9575SOL    HW229625   5.005   0.830   1.544
 9576SOL     OW29626   1.193   1.126   5.584
 9576SOL    HW129627   1.177   1.222   5.609
 9576SOL    HW229628   1.283   1.097   5.619
 9577SOL     OW29629   0.713   5.379   2.810
 9577SOL    HW129630   0.733   5.457   2.868
 9577SOL    HW229631   0.709   5.296   2.866
 9578SOL     OW29632   1.904   3.340   3.327
 9578SOL    HW129633   1.969   3.264   3.328
 9578SOL    HW229634   1.886   3.367   3.232
 9579SOL     OW29635   5.648   4.985   2.372
 9579SOL    HW129636   5.681   4.951   2.284
 9579SOL    HW229637   5.636   4.909   2.436
 9580SOL     OW29638   4.828   3.855   3.910
 9580SOL    HW129639   4.816   3.814   4.000
 9580SOL    HW229640   4.848   3.783   3.843
 9581SOL     OW29641   4.786   2.146   6.393
 9581SOL    HW129642   4.862   2.147   6.458
 9581SOL    HW229643   4.819   2.119   6.303
 9582SOL     OW29644   4.532   6.832   5.169
 9582SOL    HW129645   4.619   6.872   5.141
 9582SOL    HW229646   4.524   6.739   5.131
 9583SOL     OW29647   2.556   5.306   0.987
 9583SOL    HW129648   2.566   5.229   1.051
 9583SOL    HW229649   2.573   5.392   1.036
 9584SOL     OW29650   2.416   5.238   4.571
 9584SOL    HW129651   2.330   5.255   4.524
 9584SOL    HW229652   2.447   5.145   4.551
 9585SOL     OW29653   4.426   6.765   1.121
 9585SOL    HW129654   4.517   6.786   1.158
 9585SOL    HW229655   4.359   6.765   1.195
 9586SOL     OW29656   3.095   5.207   3.147
 9586SOL    HW129657   3.074   5.129   3.088
 9586SOL    HW229658   3.040   5.201   3.230
 9587SOL     OW29659   3.676   6.367   6.859
 9587SOL    HW129660   3.664   6.310   6.940
 9587SOL    HW229661   3.608   6.440   6.858
 9588SOL     OW29662   6.428   5.865   0.754
 9588SOL    HW129663   6.396   5.959   0.748
 9588SOL    HW229664   6.462   5.835   0.665
 9589SOL     OW29665   1.137   1.379   5.641
 9589SOL    HW129666   1.041   1.353   5.648
 9589SOL    HW229667   1.175   1.392   5.732
 9590SOL     OW29668   5.407   0.582   0.399
 9590SOL    HW129669   5.322   0.624   0.369
 9590SOL    HW229670   5.391   0.534   0.486
 9591SOL     OW29671   4.939   1.094   6.653
 9591SOL    HW129672   4.932   1.017   6.590
 9591SOL    HW229673   5.026   1.142   6.636
 9592SOL     OW29674   1.530   5.781   5.412
 9592SOL    HW129675   1.538   5.684   5.391
 9592SOL    HW229676   1.435   5.804   5.429
 9593SOL     OW29677   2.359   2.333   4.193
 9593SOL    HW129678   2.294   2.318   4.119
 9593SOL    HW229679   2.310   2.360   4.276
 9594SOL     OW29680   0.414   6.500   3.327
 9594SOL    HW129681   0.411   6.534   3.421
 9594SOL    HW229682   0.334   6.533   3.277
 9595SOL     OW29683   0.647   3.635   3.324
 9595SOL    HW129684   0.647   3.599   3.231
 9595SOL    HW229685   0.687   3.727   3.324
 9596SOL     OW29686   1.532   6.338   1.405
 9596SOL    HW129687   1.571   6.251   1.378
 9596SOL    HW229688   1.530   6.400   1.326
 9597SOL     OW29689   1.082   3.716   2.243
 9597SOL    HW129690   1.095   3.619   2.226
 9597SOL    HW229691   1.152   3.769   2.195
 9598SOL     OW29692   2.680   4.678   3.980
 9598SOL    HW129693   2.683   4.593   4.034
 9598SOL    HW229694   2.771   4.720   3.979
 9599SOL     OW29695   4.882   0.381   5.072
 9599SOL    HW129696   4.786   0.408   5.065
 9599SOL    HW229697   4.888   0.289   5.110
 9600SOL     OW29698   4.284   1.137   0.751
 9600SOL    HW129699   4.368   1.188   0.731
 9600SOL    HW229700   4.207   1.181   0.705
 9601SOL     OW29701   0.863   3.868   0.689
 9601SOL    HW129702   0.957   3.860   0.655
 9601SOL    HW229703   0.864   3.861   0.789
 9602SOL     OW29704   4.105   4.285   5.680
 9602SOL    HW129705   4.032   4.353   5.672
 9602SOL    HW229706   4.067   4.194   5.669
 9603SOL     OW29707   5.244   6.840   5.915
 9603SOL    HW129708   5.273   6.793   5.999
 9603SOL    HW229709   5.170   6.903   5.936
 9604SOL     OW29710   4.623   6.718   1.699
 9604SOL    HW129711   4.644   6.814   1.715
 9604SOL    HW229712   4.533   6.697   1.738
 9605SOL     OW29713   5.067   4.927   1.447
 9605SOL    HW129714   5.155   4.941   1.402
 9605SOL    HW229715   5.049   5.002   1.511
 9606SOL     OW29716   1.538   1.554   6.623
 9606SOL    HW129717   1.572   1.640   6.584
 9606SOL    HW229718   1.438   1.556   6.626
 9607SOL     OW29719   1.546   2.440   6.745
 9607SOL    HW129720   1.494   2.522   6.720
 9607SOL    HW229721   1.541   2.373   6.671
 9608SOL     OW29722   6.587   2.389   4.557
 9608SOL    HW129723   6.624   2.422   4.644
 9608SOL    HW229724   6.494   2.423   4.544
 9609SOL     OW29725   4.591   3.190   1.097
 9609SOL    HW129726   4.580   3.246   1.014
 9609SOL    HW229727   4.505   3.145   1.118
 9610SOL     OW29728   1.286   4.982   2.840
 9610SOL    HW129729   1.379   5.011   2.817
 9610SOL    HW229730   1.225   5.062   2.840
 9611SOL     OW29731   2.501   0.600   0.577
 9611SOL    HW129732   2.511   0.620   0.479
 9611SOL    HW229733   2.544   0.512   0.598
 9612SOL     OW29734   6.772   1.484   3.738
 9612SOL    HW129735   6.749   1.549   3.665
 9612SOL    HW229736   6.724   1.398   3.722
 9613SOL     OW29737   5.782   4.757   4.636
 9613SOL    HW129738   5.738   4.694   4.700
 9613SOL    HW229739   5.722   4.835   4.618
 9614SOL     OW29740   4.139   1.656   3.163
 9614SOL    HW129741   4.094   1.651   3.252
 9614SOL    HW229742   4.225   1.706   3.171
 9615SOL     OW29743   1.953   3.651   1.390
 9615SOL    HW129744   1.985   3.740   1.424
 9615SOL    HW229745   2.026   3.583   1.403
 9616SOL     OW29746   4.095   4.062   5.976
 9616SOL    HW129747   4.060   4.143   5.928
 9616SOL    HW229748   4.163   4.017   5.919
 9617SOL     OW29749   1.104   3.125   2.744
 9617SOL    HW129750   1.049   3.189   2.797
 9617SOL    HW229751   1.117   3.041   2.797
 9618SOL     OW29752   2.634   2.495   0.641
 9618SOL    HW129753   2.555   2.508   0.582
 9618SOL    HW229754   2.603   2.473   0.734
 9619SOL     OW29755   2.409   6.904   6.674
 9619SOL    HW129756   2.505   6.878   6.687
 9619SOL    HW229757   2.380   6.879   6.581
 9620SOL     OW29758   5.538   1.177   5.076
 9620SOL    HW129759   5.536   1.094   5.021
 9620SOL    HW229760   5.585   1.250   5.027
 9621SOL     OW29761   1.825   3.566   3.471
 9621SOL    HW129762   1.919   3.558   3.502
 9621SOL    HW229763   1.790   3.476   3.446
 9622SOL     OW29764   4.443   0.033   0.010
 9622SOL    HW129765   4.424   0.129   0.026
 9622SOL    HW229766   4.517   0.003   0.071
 9623SOL     OW29767   0.642   3.285   6.407
 9623SOL    HW129768   0.730   3.238   6.394
 9623SOL    HW229769   0.634   3.358   6.340
 9624SOL     OW29770   6.227   3.242   3.878
 9624SOL    HW129771   6.257   3.154   3.916
 9624SOL    HW229772   6.275   3.316   3.925
 9625SOL     OW29773   5.610   6.015   1.941
 9625SOL    HW129774   5.647   6.105   1.961
 9625SOL    HW229775   5.673   5.945   1.974
 9626SOL     OW29776   3.785   0.549   0.315
 9626SOL    HW129777   3.856   0.519   0.379
 9626SOL    HW229778   3.823   0.619   0.254
 9627SOL     OW29779   0.583   0.305   0.838
 9627SOL    HW129780   0.681   0.302   0.819
 9627SOL    HW229781   0.538   0.366   0.773
 9628SOL     OW29782   3.543   6.851   1.765
 9628SOL    HW129783   3.590   6.882   1.847
 9628SOL    HW229784   3.455   6.810   1.790
 9629SOL     OW29785   2.354   0.211   0.851
 9629SOL    HW129786   2.298   0.273   0.795
 9629SOL    HW229787   2.411   0.265   0.913
 9630SOL     OW29788   0.188   2.432   6.323
 9630SOL    HW129789   0.273   2.434   6.375
 9630SOL    HW229790   0.198   2.370   6.245
 9631SOL     OW29791   6.542   5.313   0.702
 9631SOL    HW129792   6.580   5.221   0.707
 9631SOL    HW229793   6.584   5.362   0.625
 9632SOL     OW29794   1.934   5.528   2.670
 9632SOL    HW129795   2.020   5.489   2.702
 9632SOL    HW229796   1.949   5.623   2.640
 9633SOL     OW29797   0.464   5.132   6.965
 9633SOL    HW129798   0.501   5.042   6.989
 9633SOL    HW229799   0.368   5.137   6.994
 9634SOL     OW29800   0.071   5.858   5.943
 9634SOL    HW129801   0.127   5.914   6.003
 9634SOL    HW229802   7.002   5.841   5.985
 9635SOL     OW29803   6.148   5.985   5.987
 9635SOL    HW129804   6.119   6.063   5.932
 9635SOL    HW229805   6.143   5.901   5.934
 9636SOL     OW29806   3.902   1.320   0.863
 9636SOL    HW129807   3.829   1.382   0.891
 9636SOL    HW229808   3.984   1.339   0.917
 9637SOL     OW29809   2.806   1.282   6.958
 9637SOL    HW129810   2.810   1.225   0.019
 9637SOL    HW229811   2.898   1.293   6.920
 9638SOL     OW29812   6.514   2.514   6.539
 9638SOL    HW129813   6.554   2.584   6.480
 9638SOL    HW229814   6.415   2.530   6.547
 9639SOL     OW29815   3.490   0.352   2.428
 9639SOL    HW129816   3.493   0.432   2.368
 9639SOL    HW229817   3.509   0.379   2.522
 9640SOL     OW29818   2.182   1.612   3.179
 9640SOL    HW129819   2.133   1.697   3.159
 9640SOL    HW229820   2.130   1.559   3.246
 9641SOL     OW29821   5.082   5.639   6.214
 9641SOL    HW129822   5.127   5.719   6.254
 9641SOL    HW229823   5.088   5.644   6.114
 9642SOL     OW29824   3.242   7.006   3.294
 9642SOL    HW129825   3.159   6.961   3.262
 9642SOL    HW229826   3.252   0.075   3.249
 9643SOL     OW29827   3.860   4.926   2.243
 9643SOL    HW129828   3.939   4.972   2.203
 9643SOL    HW229829   3.783   4.931   2.179
 9644SOL     OW29830   2.795   0.899   0.293
 9644SOL    HW129831   2.714   0.867   0.342
 9644SOL    HW229832   2.847   0.820   0.259
 9645SOL     OW29833   3.004   4.882   5.531
 9645SOL    HW129834   3.027   4.817   5.604
 9645SOL    HW229835   2.915   4.922   5.549
 9646SOL     OW29836   3.502   5.015   3.893
 9646SOL    HW129837   3.463   5.107   3.904
 9646SOL    HW229838   3.490   4.984   3.799
 9647SOL     OW29839   6.467   3.001   5.823
 9647SOL    HW129840   6.456   3.099   5.843
 9647SOL    HW229841   6.535   2.989   5.750
 9648SOL     OW29842   4.354   4.010   0.694
 9648SOL    HW129843   4.393   3.925   0.730
 9648SOL    HW229844   4.364   4.083   0.761
 9649SOL     OW29845   2.455   4.373   1.055
 9649SOL    HW129846   2.434   4.469   1.074
 9649SOL    HW229847   2.372   4.325   1.028
 9650SOL     OW29848   1.626   0.434   1.424
 9650SOL    HW129849   1.612   0.533   1.430
 9650SOL    HW229850   1.719   0.415   1.394
 9651SOL     OW29851   0.845   1.959   6.960
 9651SOL    HW129852   0.940   1.938   6.936
 9651SOL    HW229853   0.784   1.903   6.903
 9652SOL     OW29854   2.140   4.522   1.241
 9652SOL    HW129855   2.041   4.516   1.229
 9652SOL    HW229856   2.170   4.616   1.220
 9653SOL     OW29857   6.300   6.507   4.552
 9653SOL    HW129858   6.303   6.465   4.643
 9653SOL    HW229859   6.342   6.597   4.557
 9654SOL     OW29860   2.150   2.841   2.217
 9654SOL    HW129861   2.164   2.879   2.125
 9654SOL    HW229862   2.214   2.766   2.232
 9655SOL     OW29863   6.212   2.306   0.168
 9655SOL    HW129864   6.197   2.400   0.137
 9655SOL    HW229865   6.296   2.271   0.126
 9656SOL     OW29866   2.905   1.925   2.239
 9656SOL    HW129867   2.897   2.022   2.260
 9656SOL    HW229868   2.991   1.890   2.275
 9657SOL     OW29869   0.745   0.287   4.957
 9657SOL    HW129870   0.658   0.303   4.909
 9657SOL    HW229871   0.756   0.189   4.973
 9658SOL     OW29872   5.963   1.448   2.767
 9658SOL    HW129873   6.026   1.442   2.689
 9658SOL    HW229874   5.893   1.376   2.758
 9659SOL     OW29875   1.532   5.121   6.830
 9659SOL    HW129876   1.514   5.213   6.796
 9659SOL    HW229877   1.579   5.068   6.759
 9660SOL     OW29878   1.145   4.163   0.563
 9660SOL    HW129879   1.095   4.217   0.496
 9660SOL    HW229880   1.097   4.166   0.651
 9661SOL     OW29881   3.960   0.685   0.720
 9661SOL    HW129882   4.024   0.756   0.748
 9661SOL    HW229883   3.873   0.698   0.767
 9662SOL     OW29884   5.107   2.506   4.127
 9662SOL    HW129885   5.172   2.530   4.055
 9662SOL    HW229886   5.016   2.495   4.087
 9663SOL     OW29887   3.074   6.003   2.508
 9663SOL    HW129888   3.051   6.019   2.412
 9663SOL    HW229889   3.092   5.905   2.522
 9664SOL     OW29890   2.959   5.916   1.508
 9664SOL    HW129891   3.020   5.864   1.567
 9664SOL    HW229892   2.885   5.857   1.476
 9665SOL     OW29893   5.588   4.727   3.670
 9665SOL    HW129894   5.507   4.729   3.611
 9665SOL    HW229895   5.655   4.663   3.632
 9666SOL     OW29896   5.583   5.077   5.158
 9666SOL    HW129897   5.660   5.055   5.098
 9666SOL    HW229898   5.617   5.127   5.238
 9667SOL     OW29899   2.919   3.275   2.987
 9667SOL    HW129900   2.971   3.252   3.069
 9667SOL    HW229901   2.821   3.264   3.005
 9668SOL     OW29902   0.534   1.398   4.937
 9668SOL    HW129903   0.565   1.442   5.021
 9668SOL    HW229904   0.545   1.299   4.946
 9669SOL     OW29905   1.458   6.776   6.803
 9669SOL    HW129906   1.453   6.874   6.786
 9669SOL    HW229907   1.544   6.740   6.767
 9670SOL     OW29908   6.427   3.865   6.808
 9670SOL    HW129909   6.346   3.856   6.750
 9670SOL    HW229910   6.443   3.779   6.857
 9671SOL     OW29911   6.852   1.844   0.021
 9671SOL    HW129912   6.841   1.848   6.942
 9671SOL    HW229913   6.930   1.899   0.049
 9672SOL     OW29914   0.274   6.727   6.042
 9672SOL    HW129915   0.329   6.644   6.049
 9672SOL    HW229916   0.216   6.722   5.962
 9673SOL     OW29917   1.971   2.247   5.528
 9673SOL    HW129918   1.945   2.203   5.442
 9673SOL    HW229919   1.895   2.242   5.593
 9674SOL     OW29920   2.765   6.512   2.253
 9674SOL    HW129921   2.740   6.548   2.163
 9674SOL    HW229922   2.810   6.423   2.241
 9675SOL     OW29923   6.742   2.506   1.946
 9675SOL    HW129924   6.807   2.459   2.005
 9675SOL    HW229925   6.791   2.565   1.882
 9676SOL     OW29926   6.767   3.115   4.279
 9676SOL    HW129927   6.785   3.210   4.304
 9676SOL    HW229928   6.691   3.111   4.214
 9677SOL     OW29929   1.986   3.563   5.891
 9677SOL    HW129930   2.026   3.650   5.918
 9677SOL    HW229931   1.888   3.574   5.872
 9678SOL     OW29932   3.837   3.734   3.305
 9678SOL    HW129933   3.751   3.749   3.257
 9678SOL    HW229934   3.912   3.776   3.252
 9679SOL     OW29935   0.290   3.433   1.417
 9679SOL    HW129936   0.278   3.486   1.500
 9679SOL    HW229937   0.324   3.341   1.440
 9680SOL     OW29938   4.331   5.345   2.676
 9680SOL    HW129939   4.324   5.249   2.703
 9680SOL    HW229940   4.357   5.401   2.755
 9681SOL     OW29941   1.096   0.850   4.153
 9681SOL    HW129942   1.023   0.836   4.220
 9681SOL    HW229943   1.184   0.855   4.200
 9682SOL     OW29944   0.700   4.340   2.178
 9682SOL    HW129945   0.766   4.324   2.251
 9682SOL    HW229946   0.611   4.302   2.203
 9683SOL     OW29947   4.406   0.101   4.712
 9683SOL    HW129948   4.460   0.152   4.779
 9683SOL    HW229949   4.405   0.004   4.737
 9684SOL     OW29950   1.613   4.273   3.148
 9684SOL    HW129951   1.619   4.177   3.122
 9684SOL    HW229952   1.581   4.280   3.242
 9685SOL     OW29953   1.772   1.447   6.505
 9685SOL    HW129954   1.751   1.382   6.432
 9685SOL    HW229955   1.707   1.435   6.580
 9686SOL     OW29956   5.669   2.420   2.345
 9686SOL    HW129957   5.765   2.406   2.317
 9686SOL    HW229958   5.609   2.372   2.281
 9687SOL     OW29959   3.276   1.505   5.004
 9687SOL    HW129960   3.213   1.550   5.069
 9687SOL    HW229961   3.228   1.487   4.919
 9688SOL     OW29962   5.380   2.048   4.210
 9688SOL    HW129963   5.376   2.049   4.310
 9688SOL    HW229964   5.335   2.130   4.174
 9689SOL     OW29965   3.245   5.141   6.015
 9689SOL    HW129966   3.214   5.236   6.016
 9689SOL    HW229967   3.296   5.121   6.099
 9690SOL     OW29968   6.484   3.569   0.263
 9690SOL    HW129969   6.558   3.532   0.206
 9690SOL    HW229970   6.426   3.494   0.294
 9691SOL     OW29971   1.350   4.308   0.997
 9691SOL    HW129972   1.287   4.270   1.064
 9691SOL    HW229973   1.425   4.354   1.044
 9692SOL     OW29974   3.331   5.588   0.620
 9692SOL    HW129975   3.339   5.680   0.582
 9692SOL    HW229976   3.353   5.521   0.549
 9693SOL     OW29977   5.825   5.593   1.091
 9693SOL    HW129978   5.911   5.630   1.055
 9693SOL    HW229979   5.838   5.497   1.114
 9694SOL     OW29980   1.154   1.006   0.363
 9694SOL    HW129981   1.121   1.069   0.293
 9694SOL    HW229982   1.085   0.936   0.380
 9695SOL     OW29983   6.071   4.670   6.995
 9695SOL    HW129984   6.014   4.627   6.924
 9695SOL    HW229985   6.122   4.746   6.954
 9696SOL     OW29986   3.901   4.250   0.071
 9696SOL    HW129987   3.863   4.181   0.010
 9696SOL    HW229988   3.906   4.214   0.164
 9697SOL     OW29989   0.160   6.036   6.816
 9697SOL    HW129990   0.145   6.103   6.744
 9697SOL    HW229991   0.257   6.011   6.820
 9698SOL     OW29992   4.807   1.586   5.745
 9698SOL    HW129993   4.873   1.655   5.715
 9698SOL    HW229994   4.809   1.508   5.682
 9699SOL     OW29995   1.443   2.095   6.337
 9699SOL    HW129996   1.352   2.081   6.298
 9699SOL    HW229997   1.435   2.144   6.424
 9700SOL     OW29998   3.762   2.965   3.733
 9700SOL    HW129999   3.769   2.964   3.833
 9700SOL    HW230000   3.699   3.037   3.706
 9701SOL     OW30001   4.026   4.942   4.090
 9701SOL    HW130002   3.936   4.914   4.059
 9701SOL    HW230003   4.047   5.033   4.055
 9702SOL     OW30004   5.494   0.474   6.876
 9702SOL    HW130005   5.483   0.411   6.953
 9702SOL    HW230006   5.591   0.495   6.864
 9703SOL     OW30007   2.532   5.920   4.816
 9703SOL    HW130008   2.474   5.997   4.790
 9703SOL    HW230009   2.573   5.938   4.905
 9704SOL     OW30010   2.995   1.341   4.341
 9704SOL    HW130011   2.912   1.383   4.378
 9704SOL    HW230012   2.975   1.303   4.251
 9705SOL     OW30013   3.235   3.940   0.533
 9705SOL    HW130014   3.255   3.935   0.631
 9705SOL    HW230015   3.315   3.910   0.481
 9706SOL     OW30016   6.926   1.993   3.753
 9706SOL    HW130017   6.944   1.900   3.724
 9706SOL    HW230018   6.994   2.021   3.821
 9707SOL     OW30019   2.618   5.506   1.203
 9707SOL    HW130020   2.717   5.503   1.220
 9707SOL    HW230021   2.570   5.522   1.288
 9708SOL     OW30022   1.902   1.611   1.511
 9708SOL    HW130023   1.863   1.666   1.585
 9708SOL    HW230024   1.880   1.514   1.526
 9709SOL     OW30025   1.464   6.354   3.949
 9709SOL    HW130026   1.384   6.363   4.007
 9709SOL    HW230027   1.508   6.443   3.938
 9710SOL     OW30028   1.731   0.023   3.945
 9710SOL    HW130029   1.737   0.115   3.906
 9710SOL    HW230030   1.690   0.027   4.036
 9711SOL     OW30031   2.084   3.019   6.555
 9711SOL    HW130032   2.166   3.051   6.602
 9711SOL    HW230033   2.109   2.978   6.468
 9712SOL     OW30034   5.215   3.718   4.787
 9712SOL    HW130035   5.133   3.733   4.843
 9712SOL    HW230036   5.249   3.626   4.804
 9713SOL     OW30037   0.640   5.838   3.465
 9713SOL    HW130038   0.658   5.772   3.537
 9713SOL    HW230039   0.723   5.889   3.443
 9714SOL     OW30040   2.645   2.055   2.174
 9714SOL    HW130041   2.610   1.968   2.208
 9714SOL    HW230042   2.729   2.039   2.122
 9715SOL     OW30043   5.866   5.625   6.256
 9715SOL    HW130044   5.964   5.610   6.270
 9715SOL    HW230045   5.842   5.717   6.289
 9716SOL     OW30046   3.348   0.651   5.685
 9716SOL    HW130047   3.422   0.664   5.619
 9716SOL    HW230048   3.289   0.577   5.655
 9717SOL     OW30049   6.121   5.169   3.328
 9717SOL    HW130050   6.211   5.178   3.370
 9717SOL    HW230051   6.058   5.234   3.370
 9718SOL     OW30052   6.213   2.440   2.015
 9718SOL    HW130053   6.145   2.488   2.070
 9718SOL    HW230054   6.305   2.459   2.051
 9719SOL     OW30055   0.509   1.256   6.951
 9719SOL    HW130056   0.491   1.159   6.937
 9719SOL    HW230057   0.497   1.279   0.027
 9720SOL     OW30058   0.870   0.948   0.683
 9720SOL    HW130059   0.869   0.886   0.605
 9720SOL    HW230060   0.925   0.909   0.757
 9721SOL     OW30061   0.608   2.204   3.641
 9721SOL    HW130062   0.598   2.173   3.736
 9721SOL    HW230063   0.703   2.194   3.613
 9722SOL     OW30064   0.123   0.250   4.457
 9722SOL    HW130065   0.170   0.163   4.447
 9722SOL    HW230066   0.027   0.234   4.481
 9723SOL     OW30067   6.629   1.149   4.175
 9723SOL    HW130068   6.684   1.081   4.223
 9723SOL    HW230069   6.677   1.180   4.093
 9724SOL     OW30070   3.869   2.827   1.729
 9724SOL    HW130071   3.960   2.788   1.744
 9724SOL    HW230072   3.799   2.758   1.748
 9725SOL     OW30073   3.948   2.932   5.887
 9725SOL    HW130074   4.011   2.896   5.956
 9725SOL    HW230075   3.861   2.884   5.893
 9726SOL     OW30076   4.885   6.064   4.792
 9726SOL    HW130077   4.940   6.090   4.872
 9726SOL    HW230078   4.915   5.975   4.758
 9727SOL     OW30079   0.332   0.876   6.558
 9727SOL    HW130080   0.303   0.972   6.560
 9727SOL    HW230081   0.268   0.821   6.612
 9728SOL     OW30082   3.080   5.920   6.054
 9728SOL    HW130083   2.994   5.969   6.068
 9728SOL    HW230084   3.149   5.983   6.018
 9729SOL     OW30085   3.520   5.575   2.239
 9729SOL    HW130086   3.509   5.598   2.143
 9729SOL    HW230087   3.602   5.520   2.252
 9730SOL     OW30088   5.213   3.862   2.928
 9730SOL    HW130089   5.148   3.787   2.936
 9730SOL    HW230090   5.187   3.920   2.850
 9731SOL     OW30091   5.396   4.512   0.526
 9731SOL    HW130092   5.376   4.580   0.597
 9731SOL    HW230093   5.399   4.421   0.566
 9732SOL     OW30094   5.338   6.399   4.908
 9732SOL    HW130095   5.341   6.320   4.848
 9732SOL    HW230096   5.378   6.375   4.997
 9733SOL     OW30097   4.852   4.559   4.178
 9733SOL    HW130098   4.903   4.494   4.233
 9733SOL    HW230099   4.760   4.570   4.216
 9734SOL     OW30100   6.348   2.395   5.743
 9734SOL    HW130101   6.316   2.309   5.783
 9734SOL    HW230102   6.277   2.431   5.681
 9735SOL     OW30103   3.098   5.143   1.205
 9735SOL    HW130104   3.011   5.151   1.156
 9735SOL    HW230105   3.091   5.070   1.273
 9736SOL     OW30106   3.831   1.845   2.017
 9736SOL    HW130107   3.741   1.869   2.055
 9736SOL    HW230108   3.842   1.887   1.927
 9737SOL     OW30109   4.480   1.647   4.678
 9737SOL    HW130110   4.526   1.560   4.665
 9737SOL    HW230111   4.381   1.634   4.669
 9738SOL     OW30112   2.600   0.517   2.325
 9738SOL    HW130113   2.599   0.548   2.230
 9738SOL    HW230114   2.515   0.546   2.370
 9739SOL     OW30115   4.927   4.372   2.800
 9739SOL    HW130116   5.005   4.313   2.824
 9739SOL    HW230117   4.892   4.416   2.882
 9740SOL     OW30118   6.651   3.206   3.284
 9740SOL    HW130119   6.678   3.162   3.370
 9740SOL    HW230120   6.602   3.140   3.227
 9741SOL     OW30121   3.849   1.949   2.676
 9741SOL    HW130122   3.779   1.956   2.747
 9741SOL    HW230123   3.850   1.857   2.639
 9742SOL     OW30124   3.563   1.232   2.896
 9742SOL    HW130125   3.503   1.247   2.975
 9742SOL    HW230126   3.515   1.260   2.812
 9743SOL     OW30127   1.279   1.075   5.917
 9743SOL    HW130128   1.217   0.997   5.930
 9743SOL    HW230129   1.336   1.059   5.836
 9744SOL     OW30130   2.345   0.092   1.476
 9744SOL    HW130131   2.319   0.188   1.464
 9744SOL    HW230132   2.375   0.055   1.388
 9745SOL     OW30133   0.833   1.083   4.321
 9745SOL    HW130134   0.772   1.059   4.397
 9745SOL    HW230135   0.783   1.138   4.255
 9746SOL     OW30136   6.008   6.975   4.771
 9746SOL    HW130137   5.975   6.881   4.765
 9746SOL    HW230138   5.980   0.005   4.689
 9747SOL     OW30139   6.600   0.477   6.047
 9747SOL    HW130140   6.562   0.435   6.130
 9747SOL    HW230141   6.591   0.412   5.971
 9748SOL     OW30142   1.913   4.813   4.630
 9748SOL    HW130143   1.830   4.758   4.628
 9748SOL    HW230144   1.983   4.770   4.573
 9749SOL     OW30145   0.795   4.751   4.880
 9749SOL    HW130146   0.858   4.812   4.929
 9749SOL    HW230147   0.723   4.806   4.837
 9750SOL     OW30148   2.651   5.334   2.722
 9750SOL    HW130149   2.621   5.364   2.631
 9750SOL    HW230150   2.571   5.319   2.780
 9751SOL     OW30151   1.359   1.936   0.558
 9751SOL    HW130152   1.453   1.941   0.593
 9751SOL    HW230153   1.351   1.991   0.475
 9752SOL     OW30154   3.002   6.523   6.104
 9752SOL    HW130155   3.037   6.616   6.116
 9752SOL    HW230156   2.939   6.521   6.026
 9753SOL     OW30157   0.300   0.389   6.719
 9753SOL    HW130158   0.289   0.414   6.815
 9753SOL    HW230159   0.385   0.338   6.706
 9754SOL     OW30160   0.107   3.243   6.586
 9754SOL    HW130161   0.120   3.342   6.574
 9754SOL    HW230162   0.027   3.213   6.534
 9755SOL     OW30163   4.366   5.782   4.609
 9755SOL    HW130164   4.292   5.742   4.555
 9755SOL    HW230165   4.454   5.743   4.579
 9756SOL     OW30166   4.237   3.062   6.219
 9756SOL    HW130167   4.258   3.115   6.301
 9756SOL    HW230168   4.174   3.114   6.161
 9757SOL     OW30169   5.682   0.801   4.212
 9757SOL    HW130170   5.625   0.866   4.262
 9757SOL    HW230171   5.638   0.778   4.125
 9758SOL     OW30172   3.447   0.249   0.582
 9758SOL    HW130173   3.511   0.326   0.583
 9758SOL    HW230174   3.485   0.175   0.526
 9759SOL     OW30175   3.022   5.792   1.963
 9759SOL    HW130176   2.950   5.758   2.022
 9759SOL    HW230177   3.111   5.767   2.000
 9760SOL     OW30178   4.783   3.680   6.289
 9760SOL    HW130179   4.688   3.693   6.259
 9760SOL    HW230180   4.843   3.679   6.208
 9761SOL     OW30181   5.090   5.548   3.092
 9761SOL    HW130182   4.992   5.529   3.104
 9761SOL    HW230183   5.102   5.639   3.054
 9762SOL     OW30184   3.560   1.182   2.446
 9762SOL    HW130185   3.467   1.191   2.411
 9762SOL    HW230186   3.625   1.190   2.371
 9763SOL     OW30187   2.204   2.016   1.496
 9763SOL    HW130188   2.261   2.052   1.570
 9763SOL    HW230189   2.165   1.928   1.523
 9764SOL     OW30190   1.155   2.874   4.295
 9764SOL    HW130191   1.158   2.775   4.313
 9764SOL    HW230192   1.212   2.921   4.362
 9765SOL     OW30193   0.246   1.386   5.493
 9765SOL    HW130194   0.189   1.449   5.440
 9765SOL    HW230195   0.333   1.430   5.515
 9766SOL     OW30196   3.098   0.648   1.541
 9766SOL    HW130197   3.029   0.672   1.609
 9766SOL    HW230198   3.067   0.570   1.487
 9767SOL     OW30199   4.307   0.431   5.130
 9767SOL    HW130200   4.302   0.498   5.056
 9767SOL    HW230201   4.215   0.411   5.163
 9768SOL     OW30202   4.623   1.897   2.929
 9768SOL    HW130203   4.542   1.955   2.922
 9768SOL    HW230204   4.598   1.803   2.905
 9769SOL     OW30205   6.951   2.567   0.483
 9769SOL    HW130206   6.886   2.523   0.421
 9769SOL    HW230207   0.008   2.506   0.499
 9770SOL     OW30208   0.335   3.226   4.669
 9770SOL    HW130209   0.356   3.317   4.633
 9770SOL    HW230210   0.369   3.156   4.606
 9771SOL     OW30211   1.901   6.334   4.010
 9771SOL    HW130212   1.829   6.290   3.957
 9771SOL    HW230213   1.895   6.434   3.998
 9772SOL     OW30214   5.685   6.383   1.424
 9772SOL    HW130215   5.741   6.400   1.504
 9772SOL    HW230216   5.704   6.453   1.354
 9773SOL     OW30217   5.252   5.294   3.730
 9773SOL    HW130218   5.183   5.305   3.802
 9773SOL    HW230219   5.268   5.197   3.713
 9774SOL     OW30220   6.403   6.175   4.220
 9774SOL    HW130221   6.479   6.162   4.284
 9774SOL    HW230222   6.396   6.272   4.196
 9775SOL     OW30223   2.934   1.517   4.642
 9775SOL    HW130224   2.906   1.515   4.546
 9775SOL    HW230225   3.022   1.470   4.651
 9776SOL     OW30226   0.429   4.677   4.525
 9776SOL    HW130227   0.423   4.606   4.456
 9776SOL    HW230228   0.354   4.666   4.591
 9777SOL     OW30229   4.723   5.639   6.156
 9777SOL    HW130230   4.809   5.587   6.162
 9777SOL    HW230231   4.740   5.726   6.109
 9778SOL     OW30232   3.111   0.713   4.684
 9778SOL    HW130233   3.142   0.798   4.641
 9778SOL    HW230234   3.011   0.708   4.678
 9779SOL     OW30235   3.329   2.185   6.647
 9779SOL    HW130236   3.367   2.161   6.736
 9779SOL    HW230237   3.347   2.110   6.583
 9780SOL     OW30238   2.051   3.175   1.442
 9780SOL    HW130239   2.029   3.267   1.477
 9780SOL    HW230240   1.980   3.146   1.379
 9781SOL     OW30241   0.267   0.388   4.161
 9781SOL    HW130242   0.314   0.470   4.130
 9781SOL    HW230243   0.278   0.379   4.261
 9782SOL     OW30244   5.607   0.180   0.413
 9782SOL    HW130245   5.707   0.178   0.412
 9782SOL    HW230246   5.574   0.260   0.362
 9783SOL     OW30247   6.217   6.823   3.858
 9783SOL    HW130248   6.159   6.904   3.860
 9783SOL    HW230249   6.242   6.798   3.952
 9784SOL     OW30250   4.879   0.816   4.690
 9784SOL    HW130251   4.829   0.809   4.604
 9784SOL    HW230252   4.860   0.736   4.747
 9785SOL     OW30253   1.092   1.976   0.670
 9785SOL    HW130254   1.100   1.978   0.770
 9785SOL    HW230255   1.183   1.974   0.630
 9786SOL     OW30256   1.379   0.330   3.350
 9786SOL    HW130257   1.378   0.391   3.271
 9786SOL    HW230258   1.378   0.235   3.319
 9787SOL     OW30259   6.234   3.625   0.887
 9787SOL    HW130260   6.244   3.577   0.974
 9787SOL    HW230261   6.205   3.719   0.904
 9788SOL     OW30262   0.085   0.132   6.444
 9788SOL    HW130263   0.087   0.075   6.526
 9788SOL    HW230264   0.021   0.093   6.378
 9789SOL     OW30265   1.954   4.536   3.967
 9789SOL    HW130266   1.937   4.438   3.958
 9789SOL    HW230267   1.985   4.556   4.060
 9790SOL     OW30268   0.407   0.981   3.566
 9790SOL    HW130269   0.355   1.053   3.520
 9790SOL    HW230270   0.390   0.985   3.664
 9791SOL     OW30271   1.320   2.153   0.355
 9791SOL    HW130272   1.267   2.100   0.289
 9791SOL    HW230273   1.265   2.229   0.389
 9792SOL     OW30274   4.740   5.341   2.945
 9792SOL    HW130275   4.754   5.278   2.869
 9792SOL    HW230276   4.784   5.428   2.924
 9793SOL     OW30277   5.182   6.057   2.190
 9793SOL    HW130278   5.142   5.974   2.231
 9793SOL    HW230279   5.242   6.032   2.114
 9794SOL     OW30280   3.626   4.385   0.090
 9794SOL    HW130281   3.718   4.360   0.121
 9794SOL    HW230282   3.632   4.463   0.029
 9795SOL     OW30283   2.300   4.944   2.893
 9795SOL    HW130284   2.359   4.998   2.834
 9795SOL    HW230285   2.316   4.970   2.989
 9796SOL     OW30286   4.047   5.171   6.325
 9796SOL    HW130287   4.106   5.227   6.384
 9796SOL    HW230288   3.959   5.158   6.369
 9797SOL     OW30289   6.415   3.238   4.951
 9797SOL    HW130290   6.442   3.175   5.025
 9797SOL    HW230291   6.378   3.322   4.991
 9798SOL     OW30292   3.359   1.236   1.565
 9798SOL    HW130293   3.379   1.157   1.507
 9798SOL    HW230294   3.404   1.225   1.653
 9799SOL     OW30295   4.076   3.810   3.133
 9799SOL    HW130296   3.999   3.873   3.135
 9799SOL    HW230297   4.162   3.861   3.134
 9800SOL     OW30298   4.123   6.573   0.341
 9800SOL    HW130299   4.122   6.660   0.291
 9800SOL    HW230300   4.195   6.514   0.305
 9801SOL     OW30301   5.760   5.124   1.681
 9801SOL    HW130302   5.847   5.098   1.723
 9801SOL    HW230303   5.774   5.202   1.620
 9802SOL     OW30304   0.693   6.388   2.227
 9802SOL    HW130305   0.687   6.445   2.145
 9802SOL    HW230306   0.601   6.364   2.257
 9803SOL     OW30307   5.503   0.190   6.259
 9803SOL    HW130308   5.594   0.230   6.267
 9803SOL    HW230309   5.437   0.247   6.308
 9804SOL     OW30310   5.150   5.749   3.960
 9804SOL    HW130311   5.096   5.765   3.878
 9804SOL    HW230312   5.190   5.657   3.956
 9805SOL     OW30313   3.521   4.526   0.339
 9805SOL    HW130314   3.471   4.454   0.386
 9805SOL    HW230315   3.616   4.526   0.369
 9806SOL     OW30316   0.418   1.062   3.184
 9806SOL    HW130317   0.464   1.140   3.143
 9806SOL    HW230318   0.320   1.081   3.191
 9807SOL     OW30319   2.012   3.908   1.088
 9807SOL    HW130320   2.098   3.857   1.083
 9807SOL    HW230321   1.939   3.849   1.121
 9808SOL     OW30322   2.674   1.955   2.884
 9808SOL    HW130323   2.617   2.015   2.828
 9808SOL    HW230324   2.755   1.928   2.831
 9809SOL     OW30325   0.420   0.199   4.071
 9809SOL    HW130326   0.427   0.131   4.144
 9809SOL    HW230327   0.345   0.262   4.092
 9810SOL     OW30328   4.886   1.552   2.686
 9810SOL    HW130329   4.803   1.526   2.735
 9810SOL    HW230330   4.864   1.569   2.590
 9811SOL     OW30331   1.313   0.335   2.881
 9811SOL    HW130332   1.271   0.246   2.898
 9811SOL    HW230333   1.244   0.398   2.845
 9812SOL     OW30334   5.962   2.696   6.869
 9812SOL    HW130335   5.942   2.695   6.967
 9812SOL    HW230336   5.941   2.606   6.831
 9813SOL     OW30337   6.393   4.259   0.142
 9813SOL    HW130338   6.352   4.323   0.077
 9813SOL    HW230339   6.320   4.209   0.189
 9814SOL     OW30340   6.569   1.259   5.649
 9814SOL    HW130341   6.538   1.165   5.632
 9814SOL    HW230342   6.524   1.294   5.732
 9815SOL     OW30343   0.230   5.412   2.169
 9815SOL    HW130344   0.227   5.323   2.214
 9815SOL    HW230345   0.188   5.481   2.228
 9816SOL     OW30346   6.973   2.294   5.191
 9816SOL    HW130347   0.015   2.364   5.157
 9816SOL    HW230348   6.936   2.322   5.280
 9817SOL     OW30349   2.218   1.884   0.357
 9817SOL    HW130350   2.259   1.943   0.427
 9817SOL    HW230351   2.119   1.879   0.372
 9818SOL     OW30352   0.308   0.346   2.565
 9818SOL    HW130353   0.384   0.395   2.523
 9818SOL    HW230354   0.265   0.286   2.497
 9819SOL     OW30355   6.244   1.183   5.151
 9819SOL    HW130356   6.271   1.208   5.058
 9819SOL    HW230357   6.164   1.123   5.147
 9820SOL     OW30358   3.204   0.775   6.711
 9820SOL    HW130359   3.264   0.749   6.636
 9820SOL    HW230360   3.217   0.872   6.733
 9821SOL     OW30361   4.457   4.230   6.391
 9821SOL    HW130362   4.473   4.225   6.292
 9821SOL    HW230363   4.487   4.145   6.434
 9822SOL     OW30364   2.986   6.723   3.781
 9822SOL    HW130365   3.024   6.644   3.830
 9822SOL    HW230366   3.023   6.807   3.820
 9823SOL     OW30367   3.957   5.907   2.859
 9823SOL    HW130368   3.948   6.006   2.875
 9823SOL    HW230369   3.962   5.860   2.947
 9824SOL     OW30370   1.504   6.079   5.493
 9824SOL    HW130371   1.548   6.014   5.431
 9824SOL    HW230372   1.489   6.165   5.445
 9825SOL     OW30373   0.363   6.354   4.508
 9825SOL    HW130374   0.356   6.451   4.482
 9825SOL    HW230375   0.324   6.342   4.599
 9826SOL     OW30376   1.415   6.184   4.897
 9826SOL    HW130377   1.334   6.205   4.953
 9826SOL    HW230378   1.481   6.259   4.904
 9827SOL     OW30379   1.360   4.765   1.540
 9827SOL    HW130380   1.416   4.717   1.472
 9827SOL    HW230381   1.343   4.859   1.509
 9828SOL     OW30382   5.125   2.223   4.285
 9828SOL    HW130383   5.038   2.254   4.324
 9828SOL    HW230384   5.191   2.297   4.288
 9829SOL     OW30385   5.577   4.009   5.623
 9829SOL    HW130386   5.535   4.057   5.701
 9829SOL    HW230387   5.527   4.033   5.539
 9830SOL     OW30388   6.108   0.670   3.228
 9830SOL    HW130389   6.127   0.697   3.323
 9830SOL    HW230390   6.066   0.580   3.227
 9831SOL     OW30391   0.856   4.931   1.182
 9831SOL    HW130392   0.951   4.961   1.181
 9831SOL    HW230393   0.796   5.011   1.188
 9832SOL     OW30394   5.532   5.918   5.341
 9832SOL    HW130395   5.521   5.824   5.373
 9832SOL    HW230396   5.626   5.948   5.358
 9833SOL     OW30397   3.552   2.938   4.420
 9833SOL    HW130398   3.635   2.908   4.374
 9833SOL    HW230399   3.559   2.918   4.518
 9834SOL     OW30400   3.296   6.039   5.939
 9834SOL    HW130401   3.395   6.032   5.954
 9834SOL    HW230402   3.269   5.978   5.865
 9835SOL     OW30403   3.510   2.918   3.958
 9835SOL    HW130404   3.576   2.911   4.033
 9835SOL    HW230405   3.457   3.002   3.968
 9836SOL     OW30406   6.452   2.893   6.419
 9836SOL    HW130407   6.441   2.870   6.515
 9836SOL    HW230408   6.466   2.810   6.365
 9837SOL     OW30409   6.338   0.677   4.749
 9837SOL    HW130410   6.374   0.702   4.839
 9837SOL    HW230411   6.286   0.754   4.711
 9838SOL     OW30412   0.297   5.836   1.100
 9838SOL    HW130413   0.218   5.865   1.045
 9838SOL    HW230414   0.364   5.910   1.103
 9839SOL     OW30415   3.687   6.555   3.735
 9839SOL    HW130416   3.772   6.607   3.742
 9839SOL    HW230417   3.610   6.613   3.763
 9840SOL     OW30418   6.406   2.281   5.452
 9840SOL    HW130419   6.324   2.223   5.452
 9840SOL    HW230420   6.381   2.373   5.483
 9841SOL     OW30421   6.773   5.784   2.214
 9841SOL    HW130422   6.753   5.836   2.132
 9841SOL    HW230423   6.689   5.745   2.251
 9842SOL     OW30424   4.395   0.656   0.103
 9842SOL    HW130425   4.348   0.625   0.186
 9842SOL    HW230426   4.493   0.664   0.120
 9843SOL     OW30427   0.452   0.027   0.561
 9843SOL    HW130428   0.483   0.043   0.655
 9843SOL    HW230429   0.419   0.113   0.522
 9844SOL     OW30430   5.549   1.141   4.615
 9844SOL    HW130431   5.532   1.193   4.531
 9844SOL    HW230432   5.463   1.125   4.662
 9845SOL     OW30433   1.142   3.382   2.250
 9845SOL    HW130434   1.223   3.402   2.306
 9845SOL    HW230435   1.063   3.369   2.309
 9846SOL     OW30436   5.765   2.096   2.996
 9846SOL    HW130437   5.724   2.088   2.905
 9846SOL    HW230438   5.855   2.137   2.988
 9847SOL     OW30439   4.048   3.609   0.018
 9847SOL    HW130440   4.144   3.586   0.004
 9847SOL    HW230441   4.038   3.708   0.030
 9848SOL     OW30442   2.834   3.703   6.178
 9848SOL    HW130443   2.771   3.680   6.104
 9848SOL    HW230444   2.831   3.801   6.195
 9849SOL     OW30445   1.695   1.892   2.181
 9849SOL    HW130446   1.729   1.803   2.211
 9849SOL    HW230447   1.647   1.936   2.257
 9850SOL     OW30448   2.097   0.834   4.199
 9850SOL    HW130449   2.016   0.777   4.212
 9850SOL    HW230450   2.083   0.922   4.245
 9851SOL     OW30451   3.719   6.128   3.842
 9851SOL    HW130452   3.768   6.067   3.905
 9851SOL    HW230453   3.733   6.223   3.870
 9852SOL     OW30454   2.305   0.479   6.538
 9852SOL    HW130455   2.402   0.469   6.559
 9852SOL    HW230456   2.274   0.570   6.564
 9853SOL     OW30457   0.369   4.138   3.717
 9853SOL    HW130458   0.453   4.086   3.737
 9853SOL    HW230459   0.293   4.074   3.708
 9854SOL     OW30460   6.283   3.850   0.155
 9854SOL    HW130461   6.368   3.901   0.160
 9854SOL    HW230462   6.297   3.765   0.104
 9855SOL     OW30463   0.404   6.209   0.862
 9855SOL    HW130464   0.336   6.238   0.929
 9855SOL    HW230465   0.361   6.201   0.772
 9856SOL     OW30466   4.599   4.350   3.211
 9856SOL    HW130467   4.573   4.275   3.151
 9856SOL    HW230468   4.620   4.315   3.302
 9857SOL     OW30469   4.100   6.740   5.716
 9857SOL    HW130470   4.135   6.699   5.632
 9857SOL    HW230471   4.140   6.832   5.727
 9858SOL     OW30472   6.754   5.396   2.796
 9858SOL    HW130473   6.824   5.390   2.868
 9858SOL    HW230474   6.707   5.484   2.803
 9859SOL     OW30475   0.390   6.908   2.915
 9859SOL    HW130476   0.387   6.953   3.004
 9859SOL    HW230477   0.405   6.810   2.928
 9860SOL     OW30478   1.282   3.788   3.524
 9860SOL    HW130479   1.201   3.730   3.523
 9860SOL    HW230480   1.268   3.865   3.587
 9861SOL     OW30481   3.969   2.191   4.372
 9861SOL    HW130482   3.968   2.128   4.294
 9861SOL    HW230483   3.892   2.173   4.432
 9862SOL     OW30484   1.215   2.925   6.454
 9862SOL    HW130485   1.224   3.004   6.514
 9862SOL    HW230486   1.307   2.893   6.428
 9863SOL     OW30487   3.981   5.731   1.844
 9863SOL    HW130488   3.895   5.679   1.846
 9863SOL    HW230489   4.049   5.685   1.902
 9864SOL     OW30490   3.050   6.251   5.116
 9864SOL    HW130491   3.004   6.179   5.063
 9864SOL    HW230492   2.983   6.295   5.176
 9865SOL     OW30493   2.404   4.772   6.256
 9865SOL    HW130494   2.336   4.831   6.212
 9865SOL    HW230495   2.411   4.796   6.353
 9866SOL     OW30496   0.853   5.891   5.276
 9866SOL    HW130497   0.850   5.934   5.186
 9866SOL    HW230498   0.809   5.801   5.272
 9867SOL     OW30499   5.368   1.548   2.543
 9867SOL    HW130500   5.288   1.498   2.509
 9867SOL    HW230501   5.436   1.483   2.578
 9868SOL     OW30502   2.389   5.052   3.157
 9868SOL    HW130503   2.313   5.117   3.164
 9868SOL    HW230504   2.464   5.094   3.106
 9869SOL     OW30505   5.997   1.735   2.752
 9869SOL    HW130506   5.970   1.643   2.780
 9869SOL    HW230507   5.964   1.802   2.819
 9870SOL     OW30508   2.220   2.771   2.756
 9870SOL    HW130509   2.197   2.862   2.789
 9870SOL    HW230510   2.171   2.702   2.809
 9871SOL     OW30511   5.998   5.112   3.089
 9871SOL    HW130512   6.037   5.110   3.181
 9871SOL    HW230513   5.918   5.052   3.085
 9872SOL     OW30514   0.367   6.620   4.414
 9872SOL    HW130515   0.303   6.638   4.339
 9872SOL    HW230516   0.424   6.700   4.429
 9873SOL     OW30517   0.462   0.548   4.975
 9873SOL    HW130518   0.391   0.515   5.037
 9873SOL    HW230519   0.424   0.614   4.911
 9874SOL     OW30520   6.922   2.351   4.131
 9874SOL    HW130521   6.868   2.399   4.062
 9874SOL    HW230522   6.868   2.344   4.215
 9875SOL     OW30523   5.616   5.740   0.553
 9875SOL    HW130524   5.708   5.770   0.527
 9875SOL    HW230525   5.569   5.815   0.600
 9876SOL     OW30526   0.719   0.404   2.766
 9876SOL    HW130527   0.778   0.377   2.842
 9876SOL    HW230528   0.722   0.504   2.755
 9877SOL     OW30529   1.528   5.808   5.132
 9877SOL    HW130530   1.552   5.888   5.077
 9877SOL    HW230531   1.504   5.838   5.225
 9878SOL     OW30532   4.650   4.209   0.657
 9878SOL    HW130533   4.562   4.191   0.612
 9878SOL    HW230534   4.721   4.216   0.588
 9879SOL     OW30535   5.658   5.469   4.387
 9879SOL    HW130536   5.662   5.562   4.350
 9879SOL    HW230537   5.716   5.463   4.468
 9880SOL     OW30538   2.673   1.367   0.657
 9880SOL    HW130539   2.659   1.464   0.634
 9880SOL    HW230540   2.598   1.313   0.618
 9881SOL     OW30541   6.512   0.450   2.768
 9881SOL    HW130542   6.439   0.436   2.702
 9881SOL    HW230543   6.506   0.380   2.840
 9882SOL     OW30544   3.144   4.069   4.564
 9882SOL    HW130545   3.060   4.122   4.551
 9882SOL    HW230546   3.155   4.004   4.489
 9883SOL     OW30547   0.911   5.284   2.615
 9883SOL    HW130548   0.831   5.327   2.657
 9883SOL    HW230549   0.973   5.252   2.687
 9884SOL     OW30550   3.416   2.661   5.375
 9884SOL    HW130551   3.407   2.708   5.287
 9884SOL    HW230552   3.328   2.622   5.401
 9885SOL     OW30553   4.977   2.075   5.217
 9885SOL    HW130554   5.020   2.094   5.128
 9885SOL    HW230555   4.921   2.153   5.243
 9886SOL     OW30556   2.466   5.899   1.263
 9886SOL    HW130557   2.452   5.993   1.232
 9886SOL    HW230558   2.387   5.843   1.235
 9887SOL     OW30559   3.713   1.677   7.001
 9887SOL    HW130560   3.650   1.600   7.002
 9887SOL    HW230561   3.769   1.677   0.063
 9888SOL     OW30562   6.242   6.713   4.117
 9888SOL    HW130563   6.320   6.748   4.168
 9888SOL    HW230564   6.160   6.717   4.174
 9889SOL     OW30565   6.543   6.010   2.215
 9889SOL    HW130566   6.513   5.934   2.158
 9889SOL    HW230567   6.640   6.027   2.200
 9890SOL     OW30568   1.663   3.122   3.387
 9890SOL    HW130569   1.685   3.212   3.350
 9890SOL    HW230570   1.686   3.052   3.319
 9891SOL     OW30571   3.547   0.281   1.805
 9891SOL    HW130572   3.616   0.208   1.804
 9891SOL    HW230573   3.578   0.356   1.864
 9892SOL     OW30574   1.867   5.988   3.086
 9892SOL    HW130575   1.917   6.071   3.062
 9892SOL    HW230576   1.923   5.932   3.146
 9893SOL     OW30577   5.613   4.950   4.673
 9893SOL    HW130578   5.587   4.985   4.583
 9893SOL    HW230579   5.582   5.014   4.744
 9894SOL     OW30580   4.853   3.198   6.056
 9894SOL    HW130581   4.917   3.172   6.128
 9894SOL    HW230582   4.825   3.293   6.069
 9895SOL     OW30583   5.538   2.951   5.878
 9895SOL    HW130584   5.506   3.009   5.803
 9895SOL    HW230585   5.487   2.866   5.879
 9896SOL     OW30586   3.683   4.088   6.426
 9896SOL    HW130587   3.716   3.994   6.431
 9896SOL    HW230588   3.760   4.150   6.413
 9897SOL     OW30589   1.132   0.761   2.764
 9897SOL    HW130590   1.102   0.793   2.854
 9897SOL    HW230591   1.179   0.836   2.716
 9898SOL     OW30592   0.348   5.286   6.416
 9898SOL    HW130593   0.413   5.226   6.463
 9898SOL    HW230594   0.311   5.352   6.481
 9899SOL     OW30595   3.490   4.840   0.850
 9899SOL    HW130596   3.450   4.874   0.764
 9899SOL    HW230597   3.540   4.913   0.895
 9900SOL     OW30598   2.772   5.652   3.366
 9900SOL    HW130599   2.817   5.570   3.329
 9900SOL    HW230600   2.838   5.725   3.375
 9901SOL     OW30601   2.962   1.317   6.409
 9901SOL    HW130602   2.906   1.234   6.413
 9901SOL    HW230603   2.928   1.376   6.336
 9902SOL     OW30604   4.126   4.544   6.726
 9902SOL    HW130605   4.074   4.590   6.654
 9902SOL    HW230606   4.105   4.446   6.725
 9903SOL     OW30607   3.119   1.324   0.750
 9903SOL    HW130608   3.071   1.404   0.788
 9903SOL    HW230609   3.170   1.352   0.669
 9904SOL     OW30610   6.317   6.124   1.592
 9904SOL    HW130611   6.309   6.117   1.692
 9904SOL    HW230612   6.372   6.047   1.558
 9905SOL     OW30613   2.110   6.669   6.712
 9905SOL    HW130614   2.051   6.594   6.742
 9905SOL    HW230615   2.096   6.748   6.771
 9906SOL     OW30616   2.900   3.612   6.447
 9906SOL    HW130617   2.879   3.656   6.359
 9906SOL    HW230618   2.815   3.599   6.499
 9907SOL     OW30619   0.852   6.851   3.082
 9907SOL    HW130620   0.842   6.804   3.170
 9907SOL    HW230621   0.891   6.941   3.096
 9908SOL     OW30622   0.001   3.044   6.222
 9908SOL    HW130623   0.037   2.970   6.279
 9908SOL    HW230624   6.931   3.019   6.187
 9909SOL     OW30625   2.270   6.083   2.795
 9909SOL    HW130626   2.276   5.983   2.794
 9909SOL    HW230627   2.242   6.113   2.887
 9910SOL     OW30628   1.032   5.477   0.216
 9910SOL    HW130629   1.015   5.443   0.124
 9910SOL    HW230630   0.957   5.538   0.243
 9911SOL     OW30631   2.863   4.720   1.694
 9911SOL    HW130632   2.850   4.806   1.743
 9911SOL    HW230633   2.850   4.643   1.756
 9912SOL     OW30634   6.206   6.432   0.076
 9912SOL    HW130635   6.164   6.520   0.056
 9912SOL    HW230636   6.162   6.391   0.155
 9913SOL     OW30637   6.380   1.727   1.522
 9913SOL    HW130638   6.373   1.824   1.545
 9913SOL    HW230639   6.291   1.695   1.488
 9914SOL     OW30640   2.057   5.368   3.660
 9914SOL    HW130641   2.063   5.279   3.616
 9914SOL    HW230642   2.129   5.428   3.625
 9915SOL     OW30643   6.057   4.888   4.261
 9915SOL    HW130644   6.148   4.924   4.279
 9915SOL    HW230645   6.010   4.948   4.196
 9916SOL     OW30646   1.553   3.283   1.394
 9916SOL    HW130647   1.541   3.185   1.379
 9916SOL    HW230648   1.464   3.326   1.405
 9917SOL     OW30649   1.961   4.196   4.551
 9917SOL    HW130650   1.922   4.275   4.599
 9917SOL    HW230651   2.041   4.164   4.600
 9918SOL     OW30652   2.676   1.786   3.933
 9918SOL    HW130653   2.734   1.867   3.942
 9918SOL    HW230654   2.581   1.815   3.920
 9919SOL     OW30655   0.661   5.800   1.525
 9919SOL    HW130656   0.622   5.752   1.604
 9919SOL    HW230657   0.596   5.870   1.494
 9920SOL     OW30658   3.603   0.650   2.997
 9920SOL    HW130659   3.508   0.655   3.028
 9920SOL    HW230660   3.608   0.680   2.901
 9921SOL     OW30661   4.440   0.038   2.501
 9921SOL    HW130662   4.443   6.959   2.512
 9921SOL    HW230663   4.529   0.071   2.468
 9922SOL     OW30664   6.236   2.740   2.265
 9922SOL    HW130665   6.142   2.706   2.273
 9922SOL    HW230666   6.237   2.840   2.266
 9923SOL     OW30667   5.623   6.833   6.051
 9923SOL    HW130668   5.533   6.878   6.053
 9923SOL    HW230669   5.632   6.774   6.131
 9924SOL     OW30670   5.936   6.792   4.003
 9924SOL    HW130671   5.941   6.729   3.925
 9924SOL    HW230672   5.951   6.740   4.087
 9925SOL     OW30673   3.989   2.185   5.077
 9925SOL    HW130674   4.038   2.271   5.064
 9925SOL    HW230675   3.930   2.193   5.158
 9926SOL     OW30676   1.617   1.164   5.946
 9926SOL    HW130677   1.680   1.140   6.019
 9926SOL    HW230678   1.615   1.264   5.936
 9927SOL     OW30679   2.369   4.240   4.428
 9927SOL    HW130680   2.465   4.231   4.403
 9927SOL    HW230681   2.336   4.330   4.403
 9928SOL     OW30682   6.647   3.466   3.188
 9928SOL    HW130683   6.674   3.373   3.211
 9928SOL    HW230684   6.715   3.507   3.128
 9929SOL     OW30685   1.296   4.750   5.236
 9929SOL    HW130686   1.346   4.743   5.149
 9929SOL    HW230687   1.330   4.827   5.289
 9930SOL     OW30688   6.860   6.514   6.843
 9930SOL    HW130689   6.886   6.418   6.848
 9930SOL    HW230690   6.833   6.546   6.934
 9931SOL     OW30691   1.256   3.821   6.916
 9931SOL    HW130692   1.219   3.732   6.944
 9931SOL    HW230693   1.188   3.892   6.935
 9932SOL     OW30694   1.995   1.651   0.982
 9932SOL    HW130695   1.954   1.661   1.073
 9932SOL    HW230696   1.988   1.556   0.953
 9933SOL     OW30697   1.703   1.495   3.388
 9933SOL    HW130698   1.770   1.433   3.349
 9933SOL    HW230699   1.611   1.464   3.366
 9934SOL     OW30700   4.610   0.503   5.427
 9934SOL    HW130701   4.532   0.446   5.453
 9934SOL    HW230702   4.603   0.591   5.474
 9935SOL     OW30703   3.613   2.581   6.908
 9935SOL    HW130704   3.624   2.504   6.845
 9935SOL    HW230705   3.635   2.666   6.861
 9936SOL     OW30706   4.982   6.170   0.498
 9936SOL    HW130707   4.997   6.130   0.588
 9936SOL    HW230708   4.902   6.126   0.455
 9937SOL     OW30709   1.042   6.931   5.409
 9937SOL    HW130710   1.003   6.972   5.491
 9937SOL    HW230711   0.974   6.871   5.367
 9938SOL     OW30712   1.217   1.821   3.306
 9938SOL    HW130713   1.268   1.880   3.370
 9938SOL    HW230714   1.201   1.871   3.221
 9939SOL     OW30715   3.165   3.521   0.679
 9939SOL    HW130716   3.080   3.540   0.728
 9939SOL    HW230717   3.188   3.424   0.690
 9940SOL     OW30718   6.221   1.210   3.091
 9940SOL    HW130719   6.308   1.172   3.059
 9940SOL    HW230720   6.185   1.152   3.164
 9941SOL     OW30721   5.825   3.087   0.565
 9941SOL    HW130722   5.912   3.039   0.561
 9941SOL    HW230723   5.842   3.186   0.573
 9942SOL     OW30724   5.260   4.433   3.032
 9942SOL    HW130725   5.319   4.488   3.092
 9942SOL    HW230726   5.221   4.357   3.085
 9943SOL     OW30727   1.564   4.562   5.311
 9943SOL    HW130728   1.489   4.591   5.371
 9943SOL    HW230729   1.623   4.640   5.292
 9944SOL     OW30730   2.086   5.385   6.737
 9944SOL    HW130731   2.164   5.324   6.735
 9944SOL    HW230732   2.086   5.437   6.823
 9945SOL     OW30733   5.983   3.335   5.310
 9945SOL    HW130734   5.888   3.366   5.315
 9945SOL    HW230735   6.042   3.412   5.284
 9946SOL     OW30736   5.902   1.648   0.994
 9946SOL    HW130737   5.992   1.604   0.989
 9946SOL    HW230738   5.841   1.609   0.925
 9947SOL     OW30739   0.073   0.377   3.334
 9947SOL    HW130740   0.044   0.291   3.292
 9947SOL    HW230741   0.072   0.449   3.264
 9948SOL     OW30742   4.885   1.170   5.386
 9948SOL    HW130743   4.803   1.183   5.443
 9948SOL    HW230744   4.878   1.082   5.338
 9949SOL     OW30745   6.761   3.139   2.504
 9949SOL    HW130746   6.816   3.066   2.463
 9949SOL    HW230747   6.721   3.196   2.432
 9950SOL     OW30748   4.935   4.438   6.463
 9950SOL    HW130749   4.966   4.343   6.464
 9950SOL    HW230750   4.964   4.484   6.547
 9951SOL     OW30751   6.820   2.436   2.484
 9951SOL    HW130752   6.860   2.372   2.419
 9951SOL    HW230753   6.846   2.530   2.459
 9952SOL     OW30754   1.515   4.659   1.339
 9952SOL    HW130755   1.447   4.587   1.349
 9952SOL    HW230756   1.527   4.680   1.242
 9953SOL     OW30757   6.288   3.924   5.405
 9953SOL    HW130758   6.252   3.998   5.462
 9953SOL    HW230759   6.322   3.851   5.464
 9954SOL     OW30760   4.457   2.483   1.709
 9954SOL    HW130761   4.525   2.551   1.735
 9954SOL    HW230762   4.394   2.523   1.642
 9955SOL     OW30763   6.076   4.596   2.178
 9955SOL    HW130764   6.138   4.583   2.256
 9955SOL    HW230765   6.068   4.511   2.127
 9956SOL     OW30766   1.696   4.875   3.417
 9956SOL    HW130767   1.615   4.854   3.472
 9956SOL    HW230768   1.683   4.838   3.325
 9957SOL     OW30769   5.571   6.832   0.654
 9957SOL    HW130770   5.486   6.849   0.605
 9957SOL    HW230771   5.649   6.852   0.595
 9958SOL     OW30772   6.144   6.440   5.327
 9958SOL    HW130773   6.183   6.532   5.327
 9958SOL    HW230774   6.068   6.436   5.262
 9959SOL     OW30775   5.878   5.350   6.988
 9959SOL    HW130776   5.810   5.370   6.918
 9959SOL    HW230777   5.966   5.329   6.944
 9960SOL     OW30778   6.268   0.583   6.338
 9960SOL    HW130779   6.301   0.581   6.244
 9960SOL    HW230780   6.232   0.674   6.359
 9961SOL     OW30781   2.876   7.001   6.941
 9961SOL    HW130782   2.921   0.026   7.019
 9961SOL    HW230783   2.941   6.994   6.865
 9962SOL     OW30784   4.366   1.124   2.014
 9962SOL    HW130785   4.424   1.195   1.975
 9962SOL    HW230786   4.274   1.130   1.976
 9963SOL     OW30787   0.581   0.355   6.373
 9963SOL    HW130788   0.618   0.268   6.341
 9963SOL    HW230789   0.481   0.354   6.365
 9964SOL     OW30790   4.806   5.522   5.291
 9964SOL    HW130791   4.786   5.444   5.233
 9964SOL    HW230792   4.731   5.535   5.357
 9965SOL     OW30793   1.936   5.123   5.303
 9965SOL    HW130794   1.862   5.114   5.236
 9965SOL    HW230795   2.009   5.179   5.264
 9966SOL     OW30796   1.843   4.408   1.939
 9966SOL    HW130797   1.774   4.395   2.010
 9966SOL    HW230798   1.875   4.502   1.940
 9967SOL     OW30799   6.650   0.652   2.209
 9967SOL    HW130800   6.696   0.601   2.136
 9967SOL    HW230801   6.572   0.600   2.242
 9968SOL     OW30802   4.363   6.056   6.521
 9968SOL    HW130803   4.421   5.983   6.484
 9968SOL    HW230804   4.420   6.121   6.572
 9969SOL     OW30805   0.904   6.721   2.847
 9969SOL    HW130806   0.878   6.770   2.930
 9969SOL    HW230807   0.823   6.711   2.788
 9970SOL     OW30808   0.698   3.296   1.530
 9970SOL    HW130809   0.763   3.370   1.546
 9970SOL    HW230810   0.679   3.289   1.432
 9971SOL     OW30811   0.462   5.529   5.839
 9971SOL    HW130812   0.545   5.549   5.786
 9971SOL    HW230813   0.446   5.431   5.839
 9972SOL     OW30814   3.077   4.733   5.788
 9972SOL    HW130815   3.129   4.785   5.855
 9972SOL    HW230816   3.003   4.684   5.834
 9973SOL     OW30817   3.438   2.054   2.808
 9973SOL    HW130818   3.349   2.054   2.852
 9973SOL    HW230819   3.427   2.078   2.711
 9974SOL     OW30820   0.661   3.876   3.140
 9974SOL    HW130821   0.622   3.961   3.176
 9974SOL    HW230822   0.632   3.864   3.045
 9975SOL     OW30823   1.391   4.717   0.033
 9975SOL    HW130824   1.440   4.685   0.114
 9975SOL    HW230825   1.433   4.679   6.971
 9976SOL     OW30826   4.438   5.461   4.625
 9976SOL    HW130827   4.378   5.406   4.567
 9976SOL    HW230828   4.387   5.493   4.705
 9977SOL     OW30829   3.785   6.919   5.866
 9977SOL    HW130830   3.699   6.964   5.886
 9977SOL    HW230831   3.794   6.907   5.767
 9978SOL     OW30832   6.579   3.167   0.172
 9978SOL    HW130833   6.643   3.199   0.242
 9978SOL    HW230834   6.625   3.100   0.113
 9979SOL     OW30835   3.437   4.065   4.044
 9979SOL    HW130836   3.372   4.024   3.980
 9979SOL    HW230837   3.387   4.113   4.116
 9980SOL     OW30838   0.757   0.059   6.987
 9980SOL    HW130839   0.839   0.032   6.936
 9980SOL    HW230840   0.696   7.000   6.995
 9981SOL     OW30841   5.485   1.344   1.394
 9981SOL    HW130842   5.478   1.245   1.411
 9981SOL    HW230843   5.405   1.375   1.343
 9982SOL     OW30844   2.680   0.788   5.378
 9982SOL    HW130845   2.720   0.859   5.319
 9982SOL    HW230846   2.633   0.831   5.455
 9983SOL     OW30847   0.540   2.522   1.911
 9983SOL    HW130848   0.532   2.518   2.011
 9983SOL    HW230849   0.621   2.574   1.886
 9984SOL     OW30850   1.574   4.781   0.940
 9984SOL    HW130851   1.534   4.742   0.857
 9984SOL    HW230852   1.541   4.875   0.952
 9985SOL     OW30853   5.700   4.602   6.291
 9985SOL    HW130854   5.723   4.549   6.210
 9985SOL    HW230855   5.662   4.690   6.265
 9986SOL     OW30856   5.877   4.246   0.094
 9986SOL    HW130857   5.947   4.208   0.033
 9986SOL    HW230858   5.867   4.344   0.075
 9987SOL     OW30859   5.024   1.738   0.967
 9987SOL    HW130860   5.095   1.762   1.033
 9987SOL    HW230861   5.063   1.740   0.874
 9988SOL     OW30862   5.338   6.676   4.410
 9988SOL    HW130863   5.257   6.735   4.421
 9988SOL    HW230864   5.309   6.585   4.381
 9989SOL     OW30865   6.741   5.345   1.729
 9989SOL    HW130866   6.744   5.430   1.676
 9989SOL    HW230867   6.827   5.295   1.718
 9990SOL     OW30868   0.347   6.138   2.909
 9990SOL    HW130869   0.445   6.120   2.908
 9990SOL    HW230870   0.329   6.220   2.964
 9991SOL     OW30871   2.142   3.234   2.001
 9991SOL    HW130872   2.044   3.248   1.986
 9991SOL    HW230873   2.189   3.322   2.005
 9992SOL     OW30874   1.899   4.031   0.221
 9992SOL    HW130875   1.843   4.062   0.143
 9992SOL    HW230876   1.860   4.067   0.306
 9993SOL     OW30877   3.782   0.324   4.462
 9993SOL    HW130878   3.881   0.311   4.460
 9993SOL    HW230879   3.760   0.412   4.419
 9994SOL     OW30880   5.692   4.713   5.631
 9994SOL    HW130881   5.788   4.714   5.603
 9994SOL    HW230882   5.636   4.756   5.560
 9995SOL     OW30883   3.889   1.674   6.127
 9995SOL    HW130884   3.828   1.665   6.049
 9995SOL    HW230885   3.978   1.634   6.105
 9996SOL     OW30886   2.733   4.523   1.319
 9996SOL    HW130887   2.648   4.498   1.365
 9996SOL    HW230888   2.810   4.514   1.383
 9997SOL     OW30889   5.500   0.490   3.053
 9997SOL    HW130890   5.509   0.435   3.135
 9997SOL    HW230891   5.588   0.496   3.006
 9998SOL     OW30892   5.639   3.625   2.470
 9998SOL    HW130893   5.661   3.720   2.447
 9998SOL    HW230894   5.603   3.620   2.563
 9999SOL     OW30895   0.946   0.148   4.371
 9999SOL    HW130896   0.940   0.083   4.447
 9999SOL    HW230897   0.861   0.144   4.318
10000SOL     OW30898   4.551   3.403   1.652
10000SOL    HW130899   4.504   3.317   1.676
10000SOL    HW230900   4.484   3.477   1.646
10001SOL     OW30901   4.028   6.344   1.418
10001SOL    HW130902   3.971   6.317   1.341
10001SOL    HW230903   3.996   6.300   1.502
10002SOL     OW30904   2.483   6.746   2.943
10002SOL    HW130905   2.469   6.834   2.898
10002SOL    HW230906   2.402   6.725   2.999
10003SOL     OW30907   0.977   1.450   3.004
10003SOL    HW130908   1.012   1.376   3.062
10003SOL    HW230909   0.882   1.430   2.979
10004SOL     OW30910   0.156   2.402   3.097
10004SOL    HW130911   0.219   2.395   3.020
10004SOL    HW230912   0.170   2.324   3.158
10005SOL     OW30913   2.096   5.921   2.400
10005SOL    HW130914   2.041   5.879   2.472
10005SOL    HW230915   2.189   5.883   2.402
10006SOL     OW30916   5.400   1.944   6.541
10006SOL    HW130917   5.343   1.890   6.605
10006SOL    HW230918   5.354   2.030   6.521
10007SOL     OW30919   1.850   5.101   3.253
10007SOL    HW130920   1.811   5.100   3.345
10007SOL    HW230921   1.816   5.181   3.203
10008SOL     OW30922   3.431   0.249   6.041
10008SOL    HW130923   3.488   0.276   6.119
10008SOL    HW230924   3.447   0.312   5.965
10009SOL     OW30925   1.232   5.573   1.574
10009SOL    HW130926   1.263   5.664   1.546
10009SOL    HW230927   1.143   5.581   1.620
10010SOL     OW30928   2.283   5.212   0.581
10010SOL    HW130929   2.246   5.138   0.637
10010SOL    HW230930   2.368   5.247   0.622
10011SOL     OW30931   3.230   3.180   7.016
10011SOL    HW130932   3.205   3.084   0.006
10011SOL    HW230933   3.257   3.198   6.921
10012SOL     OW30934   5.475   2.140   3.084
10012SOL    HW130935   5.414   2.093   3.020
10012SOL    HW230936   5.566   2.098   3.080
10013SOL     OW30937   0.054   5.959   5.690
10013SOL    HW130938   0.138   6.014   5.697
10013SOL    HW230939   0.041   5.907   5.774
10014SOL     OW30940   1.280   1.541   3.032
10014SOL    HW130941   1.342   1.464   3.018
10014SOL    HW230942   1.192   1.521   2.989
10015SOL     OW30943   3.932   0.744   0.181
10015SOL    HW130944   3.953   0.778   0.272
10015SOL    HW230945   4.005   0.770   0.118
10016SOL     OW30946   2.486   1.428   5.103
10016SOL    HW130947   2.445   1.488   5.172
10016SOL    HW230948   2.584   1.418   5.122
10017SOL     OW30949   3.225   1.792   3.294
10017SOL    HW130950   3.190   1.731   3.366
10017SOL    HW230951   3.185   1.883   3.306
10018SOL     OW30952   0.118   4.448   5.468
10018SOL    HW130953   0.038   4.506   5.483
10018SOL    HW230954   0.092   4.352   5.473
10019SOL     OW30955   0.485   1.805   2.708
10019SOL    HW130956   0.513   1.901   2.701
10019SOL    HW230957   0.563   1.746   2.690
10020SOL     OW30958   6.867   1.276   3.261
10020SOL    HW130959   6.770   1.285   3.238
10020SOL    HW230960   6.921   1.267   3.177
10021SOL     OW30961   2.234   4.362   1.931
10021SOL    HW130962   2.184   4.285   1.971
10021SOL    HW230963   2.243   4.434   2.000
10022SOL     OW30964   0.682   6.753   6.012
10022SOL    HW130965   0.604   6.807   6.041
10022SOL    HW230966   0.651   6.665   5.976
10023SOL     OW30967   1.174   1.558   4.574
10023SOL    HW130968   1.205   1.628   4.637
10023SOL    HW230969   1.226   1.473   4.590
10024SOL     OW30970   2.117   3.633   3.233
10024SOL    HW130971   2.025   3.656   3.266
10024SOL    HW230972   2.184   3.697   3.271
10025SOL     OW30973   0.467   2.405   1.162
10025SOL    HW130974   0.482   2.357   1.248
10025SOL    HW230975   0.382   2.457   1.168
10026SOL     OW30976   6.304   1.606   4.717
10026SOL    HW130977   6.309   1.513   4.680
10026SOL    HW230978   6.223   1.652   4.680
10027SOL     OW30979   3.371   1.269   5.857
10027SOL    HW130980   3.429   1.197   5.895
10027SOL    HW230981   3.405   1.297   5.767
10028SOL     OW30982   4.151   6.234   2.013
10028SOL    HW130983   4.109   6.270   2.097
10028SOL    HW230984   4.110   6.278   1.934
10029SOL     OW30985   7.009   4.747   3.713
10029SOL    HW130986   0.070   4.781   3.666
10029SOL    HW230987   0.014   4.707   3.801
10030SOL     OW30988   2.520   6.758   3.948
10030SOL    HW130989   2.581   6.786   3.873
10030SOL    HW230990   2.558   6.678   3.993
10031SOL     OW30991   1.806   6.581   3.708
10031SOL    HW130992   1.736   6.548   3.645
10031SOL    HW230993   1.828   6.676   3.687
10032SOL     OW30994   2.298   5.404   5.002
10032SOL    HW130995   2.261   5.470   4.936
10032SOL    HW230996   2.374   5.447   5.052
10033SOL     OW30997   1.879   1.432   4.676
10033SOL    HW130998   1.905   1.335   4.683
10033SOL    HW230999   1.920   1.471   4.594
10034SOL     OW31000   2.423   1.040   1.904
10034SOL    HW131001   2.436   0.947   1.936
10034SOL    HW231002   2.510   1.088   1.903
10035SOL     OW31003   0.660   2.814   2.137
10035SOL    HW131004   0.665   2.873   2.218
10035SOL    HW231005   0.573   2.828   2.090
10036SOL     OW31006   0.633   1.518   0.294
10036SOL    HW131007   0.706   1.513   0.362
10036SOL    HW231008   0.667   1.564   0.212
10037SOL     OW31009   6.272   0.985   6.343
10037SOL    HW131010   6.279   1.076   6.301
10037SOL    HW231011   6.328   0.982   6.426
10038SOL     OW31012   4.632   0.272   6.827
10038SOL    HW131013   4.663   0.230   6.912
10038SOL    HW231014   4.551   0.328   6.845
10039SOL     OW31015   0.196   4.522   1.309
10039SOL    HW131016   0.179   4.601   1.250
10039SOL    HW231017   0.210   4.441   1.253
10040SOL     OW31018   3.223   0.394   0.410
10040SOL    HW131019   3.190   0.334   0.483
10040SOL    HW231020   3.228   0.488   0.444
10041SOL     OW31021   5.889   4.464   5.920
10041SOL    HW131022   5.943   4.458   6.004
10041SOL    HW231023   5.815   4.397   5.923
10042SOL     OW31024   6.253   0.426   5.083
10042SOL    HW131025   6.206   0.372   5.013
10042SOL    HW231026   6.349   0.439   5.057
10043SOL     OW31027   0.837   0.523   3.409
10043SOL    HW131028   0.889   0.451   3.362
10043SOL    HW231029   0.843   0.510   3.508
10044SOL     OW31030   3.075   2.034   6.681
10044SOL    HW131031   3.002   2.045   6.613
10044SOL    HW231032   3.144   2.105   6.667
10045SOL     OW31033   3.842   7.014   4.715
10045SOL    HW131034   3.799   0.083   4.733
10045SOL    HW231035   3.859   6.967   4.802
10046SOL     OW31036   6.277   1.951   0.795
10046SOL    HW131037   6.320   2.039   0.774
10046SOL    HW231038   6.247   1.951   0.891
10047SOL     OW31039   0.880   2.423   2.918
10047SOL    HW131040   0.856   2.512   2.877
10047SOL    HW231041   0.978   2.419   2.934
10048SOL     OW31042   2.996   2.295   1.686
10048SOL    HW131043   2.952   2.330   1.768
10048SOL    HW231044   3.051   2.215   1.709
10049SOL     OW31045   1.063   5.259   4.901
10049SOL    HW131046   1.132   5.188   4.918
10049SOL    HW231047   0.991   5.251   4.970
10050SOL     OW31048   5.812   1.388   5.111
10050SOL    HW131049   5.901   1.403   5.068
10050SOL    HW231050   5.817   1.308   5.171
10051SOL     OW31051   5.834   1.956   0.505
10051SOL    HW131052   5.933   1.974   0.503
10051SOL    HW231053   5.818   1.862   0.538
10052SOL     OW31054   2.060   5.339   0.885
10052SOL    HW131055   2.003   5.338   0.803
10052SOL    HW231056   2.145   5.290   0.867
10053SOL     OW31057   2.766   6.357   3.489
10053SOL    HW131058   2.816   6.443   3.492
10053SOL    HW231059   2.752   6.330   3.394
10054SOL     OW31060   5.236   4.365   3.967
10054SOL    HW131061   5.183   4.323   4.042
10054SOL    HW231062   5.203   4.329   3.880
10055SOL     OW31063   5.083   2.665   6.909
10055SOL    HW131064   5.126   2.618   6.987
10055SOL    HW231065   4.992   2.627   6.895
10056SOL     OW31066   4.873   3.880   2.917
10056SOL    HW131067   4.815   3.875   2.998
10056SOL    HW231068   4.916   3.791   2.901
10057SOL     OW31069   2.129   2.315   2.881
10057SOL    HW131070   2.167   2.279   2.966
10057SOL    HW231071   2.191   2.294   2.805
10058SOL     OW31072   0.997   5.069   3.914
10058SOL    HW131073   0.936   5.012   3.969
10058SOL    HW231074   1.084   5.082   3.963
10059SOL     OW31075   4.449   6.233   1.801
10059SOL    HW131076   4.401   6.146   1.811
10059SOL    HW231077   4.503   6.231   1.717
10060SOL     OW31078   2.330   2.251   2.359
10060SOL    HW131079   2.379   2.328   2.400
10060SOL    HW231080   2.379   2.221   2.277
10061SOL     OW31081   0.216   1.799   5.588
10061SOL    HW131082   0.145   1.737   5.554
10061SOL    HW231083   0.270   1.751   5.658
10062SOL     OW31084   5.727   6.125   2.970
10062SOL    HW131085   5.788   6.121   2.891
10062SOL    HW231086   5.677   6.039   2.977
10063SOL     OW31087   0.906   2.802   2.450
10063SOL    HW131088   0.972   2.769   2.382
10063SOL    HW231089   0.955   2.845   2.525
10064SOL     OW31090   5.122   4.719   5.452
10064SOL    HW131091   5.040   4.664   5.434
10064SOL    HW231092   5.103   4.784   5.526
10065SOL     OW31093   0.461   0.320   2.802
10065SOL    HW131094   0.412   0.358   2.724
10065SOL    HW231095   0.550   0.364   2.810
10066SOL     OW31096   6.506   0.411   4.399
10066SOL    HW131097   6.474   0.374   4.312
10066SOL    HW231098   6.606   0.413   4.400
10067SOL     OW31099   4.744   6.536   3.108
10067SOL    HW131100   4.820   6.574   3.160
10067SOL    HW231101   4.693   6.611   3.064
10068SOL     OW31102   5.362   3.253   5.363
10068SOL    HW131103   5.315   3.321   5.306
10068SOL    HW231104   5.327   3.162   5.340
10069SOL     OW31105   4.817   1.243   4.362
10069SOL    HW131106   4.777   1.322   4.316
10069SOL    HW231107   4.749   1.171   4.371
10070SOL     OW31108   1.026   6.937   4.201
10070SOL    HW131109   1.079   6.868   4.250
10070SOL    HW231110   1.016   7.019   4.258
10071SOL     OW31111   4.816   4.795   5.164
10071SOL    HW131112   4.746   4.727   5.186
10071SOL    HW231113   4.876   4.758   5.093
10072SOL     OW31114   0.489   6.037   4.190
10072SOL    HW131115   0.449   5.966   4.132
10072SOL    HW231116   0.487   6.007   4.286
10073SOL     OW31117   6.775   6.959   6.484
10073SOL    HW131118   6.818   7.015   6.414
10073SOL    HW231119   6.828   6.876   6.498
10074SOL     OW31120   1.896   6.357   4.738
10074SOL    HW131121   1.906   6.289   4.666
10074SOL    HW231122   1.986   6.385   4.771
10075SOL     OW31123   1.134   2.590   4.344
10075SOL    HW131124   1.089   2.583   4.433
10075SOL    HW231125   1.205   2.521   4.336
10076SOL     OW31126   5.569   6.941   3.667
10076SOL    HW131127   5.566   6.924   3.766
10076SOL    HW231128   5.660   6.974   3.642
10077SOL     OW31129   2.722   1.086   5.583
10077SOL    HW131130   2.742   1.147   5.506
10077SOL    HW231131   2.679   1.003   5.550
10078SOL     OW31132   5.276   6.323   5.420
10078SOL    HW131133   5.362   6.325   5.470
10078SOL    HW231134   5.276   6.394   5.350
10079SOL     OW31135   0.868   3.319   6.028
10079SOL    HW131136   0.839   3.411   6.004
10079SOL    HW231137   0.902   3.272   5.947
10080SOL     OW31138   1.395   2.499   5.386
10080SOL    HW131139   1.298   2.525   5.383
10080SOL    HW231140   1.449   2.569   5.339
10081SOL     OW31141   0.521   0.897   0.523
10081SOL    HW131142   0.576   0.967   0.477
10081SOL    HW231143   0.552   0.807   0.493
10082SOL     OW31144   6.802   0.918   0.127
10082SOL    HW131145   6.891   0.962   0.135
10082SOL    HW231146   6.730   0.983   0.149
10083SOL     OW31147   5.669   1.285   4.832
10083SOL    HW131148   5.598   1.354   4.846
10083SOL    HW231149   5.646   1.230   4.752
10084SOL     OW31150   2.720   0.696   6.578
10084SOL    HW131151   2.785   0.724   6.648
10084SOL    HW231152   2.726   0.757   6.500
10085SOL     OW31153   0.897   5.825   2.862
10085SOL    HW131154   0.849   5.788   2.782
10085SOL    HW231155   0.833   5.837   2.937
10086SOL     OW31156   6.826   2.356   2.739
10086SOL    HW131157   6.824   2.392   2.646
10086SOL    HW231158   6.915   2.374   2.780
10087SOL     OW31159   1.797   0.226   3.383
10087SOL    HW131160   1.719   0.288   3.397
10087SOL    HW231161   1.876   0.278   3.351
10088SOL     OW31162   5.467   0.348   4.534
10088SOL    HW131163   5.536   0.332   4.463
10088SOL    HW231164   5.381   0.378   4.491
10089SOL     OW31165   2.295   2.629   2.337
10089SOL    HW131166   2.366   2.605   2.403
10089SOL    HW231167   2.228   2.555   2.332
10090SOL     OW31168   0.484   5.539   2.184
10090SOL    HW131169   0.390   5.506   2.176
10090SOL    HW231170   0.498   5.578   2.276
10091SOL     OW31171   0.834   1.406   4.408
10091SOL    HW131172   0.736   1.417   4.421
10091SOL    HW231173   0.855   1.405   4.310
10092SOL     OW31174   2.265   2.189   5.547
10092SOL    HW131175   2.337   2.247   5.585
10092SOL    HW231176   2.176   2.232   5.559
10093SOL     OW31177   6.831   6.708   5.774
10093SOL    HW131178   6.777   6.667   5.847
10093SOL    HW231179   6.784   6.788   5.738
10094SOL     OW31180   1.488   0.560   1.716
10094SOL    HW131181   1.448   0.560   1.624
10094SOL    HW231182   1.430   0.506   1.777
10095SOL     OW31183   0.526   2.549   4.932
10095SOL    HW131184   0.465   2.625   4.953
10095SOL    HW231185   0.621   2.581   4.927
10096SOL     OW31186   6.353   5.549   2.684
10096SOL    HW131187   6.317   5.640   2.664
10096SOL    HW231188   6.304   5.481   2.629
10097SOL     OW31189   1.380   2.521   5.965
10097SOL    HW131190   1.430   2.552   5.884
10097SOL    HW231191   1.302   2.581   5.981
10098SOL     OW31192   3.548   5.410   6.136
10098SOL    HW131193   3.600   5.437   6.217
10098SOL    HW231194   3.477   5.479   6.118
10099SOL     OW31195   1.044   3.817   4.085
10099SOL    HW131196   0.955   3.837   4.126
10099SOL    HW231197   1.046   3.723   4.053
10100SOL     OW31198   4.669   0.186   5.517
10100SOL    HW131199   4.665   0.217   5.422
10100SOL    HW231200   4.580   0.146   5.542
10101SOL     OW31201   6.989   4.333   2.428
10101SOL    HW131202   6.920   4.308   2.360
10101SOL    HW231203   0.050   4.369   2.382
10102SOL     OW31204   4.391   0.555   4.280
10102SOL    HW131205   4.410   0.466   4.322
10102SOL    HW231206   4.293   0.565   4.267
10103SOL     OW31207   0.210   2.840   0.647
10103SOL    HW131208   0.208   2.746   0.679
10103SOL    HW231209   0.298   2.858   0.602
10104SOL     OW31210   2.096   5.165   5.785
10104SOL    HW131211   2.176   5.190   5.731
10104SOL    HW231212   2.125   5.125   5.872
10105SOL     OW31213   3.961   0.593   6.934
10105SOL    HW131214   3.876   0.608   6.883
10105SOL    HW231215   3.986   0.677   6.981
10106SOL     OW31216   4.964   5.719   0.823
10106SOL    HW131217   4.872   5.681   0.827
10106SOL    HW231218   5.016   5.689   0.902
10107SOL     OW31219   5.723   1.382   6.277
10107SOL    HW131220   5.669   1.465   6.292
10107SOL    HW231221   5.784   1.396   6.198
10108SOL     OW31222   5.101   6.216   6.048
10108SOL    HW131223   5.127   6.282   6.118
10108SOL    HW231224   5.165   6.221   5.972
10109SOL     OW31225   4.974   6.039   3.782
10109SOL    HW131226   5.006   6.088   3.701
10109SOL    HW231227   4.978   5.941   3.765
10110SOL     OW31228   3.371   2.294   5.770
10110SOL    HW131229   3.411   2.334   5.688
10110SOL    HW231230   3.369   2.195   5.761
10111SOL     OW31231   6.930   2.691   1.408
10111SOL    HW131232   6.852   2.753   1.414
10111SOL    HW231233   6.996   2.714   1.480
10112SOL     OW31234   4.978   3.953   5.582
10112SOL    HW131235   4.983   3.860   5.545
10112SOL    HW231236   4.912   3.955   5.657
10113SOL     OW31237   3.035   0.043   1.132
10113SOL    HW131238   2.940   0.032   1.161
10113SOL    HW231239   3.085   6.979   1.150
10114SOL     OW31240   4.552   1.674   1.642
10114SOL    HW131241   4.644   1.668   1.678
10114SOL    HW231242   4.495   1.602   1.681
10115SOL     OW31243   1.258   1.755   4.725
10115SOL    HW131244   1.236   1.848   4.754
10115SOL    HW231245   1.353   1.750   4.696
10116SOL     OW31246   0.309   0.716   0.862
10116SOL    HW131247   0.248   0.657   0.809
10116SOL    HW231248   0.402   0.680   0.858
10117SOL     OW31249   4.030   6.995   6.191
10117SOL    HW131250   3.968   6.917   6.205
10117SOL    HW231251   4.098   6.997   6.264
10118SOL     OW31252   5.426   5.287   2.594
10118SOL    HW131253   5.378   5.199   2.588
10118SOL    HW231254   5.488   5.286   2.672
10119SOL     OW31255   2.045   0.079   6.429
10119SOL    HW131256   2.073   7.008   6.459
10119SOL    HW231257   2.114   0.146   6.459
10120SOL     OW31258   5.962   3.282   3.816
10120SOL    HW131259   6.058   3.255   3.824
10120SOL    HW231260   5.929   3.312   3.905
10121SOL     OW31261   5.871   4.584   4.065
10121SOL    HW131262   5.815   4.502   4.049
10121SOL    HW231263   5.817   4.665   4.042
10122SOL     OW31264   5.353   2.323   1.053
10122SOL    HW131265   5.442   2.287   1.026
10122SOL    HW231266   5.365   2.409   1.102
10123SOL     OW31267   0.412   6.337   0.547
10123SOL    HW131268   0.379   6.422   0.589
10123SOL    HW231269   0.339   6.269   0.548
10124SOL     OW31270   3.360   4.342   0.473
10124SOL    HW131271   3.375   4.348   0.572
10124SOL    HW231272   3.262   4.346   0.454
10125SOL     OW31273   2.485   0.757   6.746
10125SOL    HW131274   2.522   0.756   6.839
10125SOL    HW231275   2.550   0.714   6.683
10126SOL     OW31276   5.719   5.127   5.853
10126SOL    HW131277   5.810   5.095   5.828
10126SOL    HW231278   5.670   5.157   5.771
10127SOL     OW31279   4.006   4.843   5.249
10127SOL    HW131280   4.049   4.764   5.293
10127SOL    HW231281   3.918   4.862   5.294
10128SOL     OW31282   1.297   0.942   0.909
10128SOL    HW131283   1.298   0.997   0.993
10128SOL    HW231284   1.381   0.888   0.904
10129SOL     OW31285   5.596   2.760   3.004
10129SOL    HW131286   5.662   2.834   2.995
10129SOL    HW231287   5.618   2.688   2.938
10130SOL     OW31288   5.916   5.441   0.802
10130SOL    HW131289   5.977   5.520   0.786
10130SOL    HW231290   5.835   5.450   0.744
10131SOL     OW31291   0.666   0.283   0.061
10131SOL    HW131292   0.658   0.278   0.160
10131SOL    HW231293   0.682   0.191   0.025
10132SOL     OW31294   2.653   6.574   2.767
10132SOL    HW131295   2.581   6.629   2.808
10132SOL    HW231296   2.648   6.580   2.667
10133SOL     OW31297   6.206   4.574   2.465
10133SOL    HW131298   6.298   4.601   2.491
10133SOL    HW231299   6.194   4.475   2.479
10134SOL     OW31300   0.609   1.589   1.698
10134SOL    HW131301   0.567   1.668   1.654
10134SOL    HW231302   0.708   1.600   1.699
10135SOL     OW31303   3.282   6.404   2.674
10135SOL    HW131304   3.234   6.364   2.752
10135SOL    HW231305   3.291   6.335   2.602
10136SOL     OW31306   6.387   6.596   2.828
10136SOL    HW131307   6.310   6.658   2.841
10136SOL    HW231308   6.354   6.506   2.800
10137SOL     OW31309   5.684   4.534   4.494
10137SOL    HW131310   5.681   4.489   4.404
10137SOL    HW231311   5.750   4.609   4.491
10138SOL     OW31312   5.592   3.107   6.083
10138SOL    HW131313   5.627   3.089   6.176
10138SOL    HW231314   5.588   3.021   6.032
10139SOL     OW31315   3.981   3.106   3.431
10139SOL    HW131316   3.959   3.155   3.515
10139SOL    HW231317   3.902   3.051   3.403
10140SOL     OW31318   0.948   4.765   4.318
10140SOL    HW131319   0.975   4.719   4.233
10140SOL    HW231320   0.856   4.735   4.344
10141SOL     OW31321   1.975   0.556   3.600
10141SOL    HW131322   1.926   0.565   3.514
10141SOL    HW231323   2.051   0.491   3.589
10142SOL     OW31324   5.333   5.599   4.257
10142SOL    HW131325   5.432   5.587   4.260
10142SOL    HW231326   5.308   5.686   4.299
10143SOL     OW31327   4.693   6.438   1.146
10143SOL    HW131328   4.626   6.511   1.136
10143SOL    HW231329   4.646   6.350   1.153
10144SOL     OW31330   3.191   5.134   2.617
10144SOL    HW131331   3.216   5.046   2.576
10144SOL    HW231332   3.269   5.197   2.610
10145SOL     OW31333   2.622   6.973   6.212
10145SOL    HW131334   2.619   0.014   6.291
10145SOL    HW231335   2.538   6.919   6.209
10146SOL     OW31336   4.571   4.511   3.620
10146SOL    HW131337   4.579   4.468   3.710
10146SOL    HW231338   4.501   4.582   3.624
10147SOL     OW31339   4.973   5.428   4.797
10147SOL    HW131340   5.029   5.507   4.821
10147SOL    HW231341   4.970   5.365   4.874
10148SOL     OW31342   6.053   5.761   0.999
10148SOL    HW131343   6.018   5.798   0.913
10148SOL    HW231344   6.014   5.812   1.076
10149SOL     OW31345   3.869   2.707   1.405
10149SOL    HW131346   3.802   2.781   1.409
10149SOL    HW231347   3.827   2.623   1.438
10150SOL     OW31348   5.368   4.135   0.819
10150SOL    HW131349   5.394   4.146   0.915
10150SOL    HW231350   5.333   4.043   0.803
10151SOL     OW31351   0.433   5.095   6.202
10151SOL    HW131352   0.460   5.063   6.292
10151SOL    HW231353   0.386   5.183   6.210
10152SOL     OW31354   0.408   5.701   4.206
10152SOL    HW131355   0.456   5.753   4.135
10152SOL    HW231356   0.469   5.632   4.244
10153SOL     OW31357   5.527   5.401   3.818
10153SOL    HW131358   5.465   5.328   3.791
10153SOL    HW231359   5.548   5.457   3.738
10154SOL     OW31360   6.382   5.649   5.397
10154SOL    HW131361   6.381   5.718   5.324
10154SOL    HW231362   6.302   5.660   5.455
10155SOL     OW31363   4.019   1.376   5.819
10155SOL    HW131364   3.974   1.297   5.778
10155SOL    HW231365   3.980   1.394   5.909
10156SOL     OW31366   5.853   0.208   2.268
10156SOL    HW131367   5.883   0.218   2.363
10156SOL    HW231368   5.753   0.201   2.266
10157SOL     OW31369   5.182   0.536   3.526
10157SOL    HW131370   5.216   0.565   3.437
10157SOL    HW231371   5.252   0.481   3.572
10158SOL     OW31372   4.829   3.210   5.748
10158SOL    HW131373   4.851   3.205   5.846
10158SOL    HW231374   4.903   3.167   5.696
10159SOL     OW31375   1.240   0.818   6.644
10159SOL    HW131376   1.290   0.812   6.730
10159SOL    HW231377   1.195   0.731   6.625
10160SOL     OW31378   0.312   6.816   3.842
10160SOL    HW131379   0.238   6.884   3.841
10160SOL    HW231380   0.398   6.861   3.865
10161SOL     OW31381   2.539   5.539   5.068
10161SOL    HW131382   2.573   5.610   5.006
10161SOL    HW231383   2.610   5.515   5.133
10162SOL     OW31384   2.429   2.088   5.783
10162SOL    HW131385   2.491   2.009   5.780
10162SOL    HW231386   2.482   2.172   5.791
10163SOL     OW31387   0.639   3.282   5.351
10163SOL    HW131388   0.582   3.362   5.332
10163SOL    HW231389   0.720   3.284   5.292
10164SOL     OW31390   1.901   2.528   6.331
10164SOL    HW131391   1.957   2.477   6.397
10164SOL    HW231392   1.832   2.582   6.379
10165SOL     OW31393   6.970   2.143   3.466
10165SOL    HW131394   6.923   2.055   3.470
10165SOL    HW231395   6.944   2.198   3.546
10166SOL     OW31396   0.479   1.102   2.124
10166SOL    HW131397   0.569   1.102   2.168
10166SOL    HW231398   0.409   1.126   2.191
10167SOL     OW31399   4.965   0.299   0.509
10167SOL    HW131400   4.995   0.260   0.596
10167SOL    HW231401   4.974   0.398   0.512
10168SOL     OW31402   6.568   4.259   5.270
10168SOL    HW131403   6.596   4.233   5.363
10168SOL    HW231404   6.582   4.357   5.257
10169SOL     OW31405   6.719   4.364   4.688
10169SOL    HW131406   6.742   4.371   4.785
10169SOL    HW231407   6.798   4.388   4.632
10170SOL     OW31408   1.460   4.270   4.927
10170SOL    HW131409   1.518   4.330   4.983
10170SOL    HW231410   1.485   4.175   4.943
10171SOL     OW31411   6.267   2.758   6.054
10171SOL    HW131412   6.282   2.660   6.044
10171SOL    HW231413   6.239   2.796   5.965
10172SOL     OW31414   5.269   0.500   4.937
10172SOL    HW131415   5.361   0.502   4.978
10172SOL    HW231416   5.201   0.508   5.009
10173SOL     OW31417   1.828   2.529   2.603
10173SOL    HW131418   1.857   2.450   2.658
10173SOL    HW231419   1.900   2.551   2.537
10174SOL     OW31420   6.533   4.795   1.201
10174SOL    HW131421   6.547   4.810   1.299
10174SOL    HW231422   6.436   4.781   1.182
10175SOL     OW31423   5.703   2.342   5.592
10175SOL    HW131424   5.682   2.321   5.687
10175SOL    HW231425   5.620   2.372   5.545
10176SOL     OW31426   3.065   3.048   0.860
10176SOL    HW131427   3.034   2.998   0.780
10176SOL    HW231428   3.056   2.990   0.941
10177SOL     OW31429   0.708   0.006   5.332
10177SOL    HW131430   0.723   7.013   5.234
10177SOL    HW231431   0.700   6.937   5.377
10178SOL     OW31432   5.640   2.917   5.028
10178SOL    HW131433   5.685   2.830   5.006
10178SOL    HW231434   5.635   2.974   4.946
10179SOL     OW31435   0.167   3.515   0.411
10179SOL    HW131436   0.087   3.455   0.410
10179SOL    HW231437   0.200   3.528   0.318
10180SOL     OW31438   1.818   6.462   6.194
10180SOL    HW131439   1.794   6.550   6.237
10180SOL    HW231440   1.734   6.419   6.159
10181SOL     OW31441   5.956   3.492   2.058
10181SOL    HW131442   6.045   3.446   2.061
10181SOL    HW231443   5.944   3.538   1.971
10182SOL     OW31444   4.113   1.358   1.073
10182SOL    HW131445   4.101   1.316   1.163
10182SOL    HW231446   4.206   1.339   1.040
10183SOL     OW31447   1.560   1.396   5.825
10183SOL    HW131448   1.618   1.477   5.829
10183SOL    HW231449   1.477   1.416   5.773
10184SOL     OW31450   4.783   0.187   0.075
10184SOL    HW131451   4.718   0.115   0.098
10184SOL    HW231452   4.851   0.151   0.011
10185SOL     OW31453   4.380   1.234   0.433
10185SOL    HW131454   4.291   1.244   0.387
10185SOL    HW231455   4.450   1.283   0.380
10186SOL     OW31456   4.825   2.282   2.508
10186SOL    HW131457   4.829   2.376   2.475
10186SOL    HW231458   4.818   2.282   2.608
10187SOL     OW31459   6.991   2.456   2.085
10187SOL    HW131460   7.019   2.435   2.179
10187SOL    HW231461   0.024   2.402   2.021
10188SOL     OW31462   4.066   6.061   0.235
10188SOL    HW131463   3.997   6.021   0.174
10188SOL    HW231464   4.110   6.138   0.189
10189SOL     OW31465   0.805   6.804   4.657
10189SOL    HW131466   0.838   6.737   4.591
10189SOL    HW231467   0.744   6.758   4.723
10190SOL     OW31468   5.617   3.117   6.874
10190SOL    HW131469   5.612   3.164   6.786
10190SOL    HW231470   5.687   3.045   6.868
10191SOL     OW31471   6.548   4.447   6.768
10191SOL    HW131472   6.455   4.474   6.743
10191SOL    HW231473   6.544   4.366   6.827
10192SOL     OW31474   3.624   1.891   0.192
10192SOL    HW131475   3.608   1.825   0.118
10192SOL    HW231476   3.718   1.926   0.185
10193SOL     OW31477   5.216   4.284   0.657
10193SOL    HW131478   5.165   4.365   0.684
10193SOL    HW231479   5.282   4.261   0.729
10194SOL     OW31480   4.969   2.602   4.705
10194SOL    HW131481   4.911   2.678   4.734
10194SOL    HW231482   4.927   2.515   4.732
10195SOL     OW31483   5.926   5.010   2.475
10195SOL    HW131484   6.005   4.950   2.460
10195SOL    HW231485   5.844   4.967   2.437
10196SOL     OW31486   0.936   1.449   4.665
10196SOL    HW131487   0.885   1.398   4.596
10196SOL    HW231488   1.022   1.481   4.626
10197SOL     OW31489   5.007   0.688   6.741
10197SOL    HW131490   5.068   0.758   6.778
10197SOL    HW231491   5.060   0.621   6.689
10198SOL     OW31492   4.483   6.756   2.444
10198SOL    HW131493   4.430   6.673   2.461
10198SOL    HW231494   4.559   6.760   2.510
10199SOL     OW31495   0.640   2.198   5.725
10199SOL    HW131496   0.670   2.168   5.634
10199SOL    HW231497   0.658   2.125   5.791
10200SOL     OW31498   5.509   2.605   2.469
10200SOL    HW131499   5.424   2.567   2.506
10200SOL    HW231500   5.567   2.531   2.437
10201SOL     OW31501   1.798   3.626   0.892
10201SOL    HW131502   1.843   3.623   0.981
10201SOL    HW231503   1.850   3.687   0.831
10202SOL     OW31504   5.335   0.133   3.262
10202SOL    HW131505   5.244   0.170   3.245
10202SOL    HW231506   5.344   0.112   3.360
10203SOL     OW31507   0.345   3.229   5.434
10203SOL    HW131508   0.304   3.175   5.361
10203SOL    HW231509   0.438   3.197   5.450
10204SOL     OW31510   4.554   4.474   6.163
10204SOL    HW131511   4.527   4.509   6.253
10204SOL    HW231512   4.512   4.386   6.146
10205SOL     OW31513   6.734   1.725   6.709
10205SOL    HW131514   6.656   1.756   6.763
10205SOL    HW231515   6.777   1.647   6.754
10206SOL     OW31516   2.302   2.035   4.569
10206SOL    HW131517   2.366   2.037   4.492
10206SOL    HW231518   2.313   1.949   4.619
10207SOL     OW31519   2.229   2.336   6.278
10207SOL    HW131520   2.298   2.403   6.307
10207SOL    HW231521   2.203   2.355   6.183
10208SOL     OW31522   6.488   0.330   5.840
10208SOL    HW131523   6.426   0.252   5.844
10208SOL    HW231524   6.444   0.405   5.791
10209SOL     OW31525   6.935   6.588   5.551
10209SOL    HW131526   6.938   6.490   5.571
10209SOL    HW231527   6.878   6.633   5.620
10210SOL     OW31528   3.468   0.412   1.596
10210SOL    HW131529   3.404   0.481   1.631
10210SOL    HW231530   3.495   0.352   1.671
10211SOL     OW31531   5.599   5.572   6.298
10211SOL    HW131532   5.552   5.484   6.301
10211SOL    HW231533   5.694   5.558   6.271
10212SOL     OW31534   0.622   0.244   0.338
10212SOL    HW131535   0.526   0.249   0.365
10212SOL    HW231536   0.680   0.270   0.415
10213SOL     OW31537   6.760   3.225   1.541
10213SOL    HW131538   6.683   3.261   1.593
10213SOL    HW231539   6.835   3.292   1.542
10214SOL     OW31540   1.344   2.494   0.737
10214SOL    HW131541   1.282   2.507   0.814
10214SOL    HW231542   1.388   2.581   0.715
10215SOL     OW31543   3.715   3.723   2.277
10215SOL    HW131544   3.629   3.770   2.298
10215SOL    HW231545   3.711   3.686   2.184
10216SOL     OW31546   0.534   6.400   1.879
10216SOL    HW131547   0.468   6.392   1.953
10216SOL    HW231548   0.625   6.375   1.913
10217SOL     OW31549   3.924   1.585   5.097
10217SOL    HW131550   4.009   1.630   5.123
10217SOL    HW231551   3.847   1.632   5.140
10218SOL     OW31552   0.831   2.637   2.761
10218SOL    HW131553   0.791   2.729   2.756
10218SOL    HW231554   0.878   2.617   2.675
10219SOL     OW31555   6.721   6.127   2.670
10219SOL    HW131556   6.698   6.150   2.764
10219SOL    HW231557   6.806   6.173   2.645
10220SOL     OW31558   3.547   2.879   0.142
10220SOL    HW131559   3.480   2.950   0.161
10220SOL    HW231560   3.568   2.829   0.226
10221SOL     OW31561   1.154   5.805   2.717
10221SOL    HW131562   1.065   5.839   2.750
10221SOL    HW231563   1.209   5.882   2.684
10222SOL     OW31564   2.860   3.404   3.397
10222SOL    HW131565   2.785   3.361   3.446
10222SOL    HW231566   2.910   3.335   3.344
10223SOL     OW31567   2.864   6.807   0.526
10223SOL    HW131568   2.953   6.796   0.571
10223SOL    HW231569   2.875   6.797   0.427
10224SOL     OW31570   6.944   3.365   3.580
10224SOL    HW131571   7.008   3.331   3.511
10224SOL    HW231572   6.928   3.463   3.566
10225SOL     OW31573   2.336   3.787   5.804
10225SOL    HW131574   2.310   3.738   5.721
10225SOL    HW231575   2.428   3.759   5.832
10226SOL     OW31576   3.966   4.509   6.392
10226SOL    HW131577   3.896   4.443   6.364
10226SOL    HW231578   3.962   4.589   6.334
10227SOL     OW31579   5.349   3.869   0.813
10227SOL    HW131580   5.343   3.836   0.718
10227SOL    HW231581   5.444   3.867   0.843
10228SOL     OW31582   5.471   6.996   0.006
10228SOL    HW131583   5.502   0.051   6.968
10228SOL    HW231584   5.535   6.919   7.017
10229SOL     OW31585   0.274   2.059   5.033
10229SOL    HW131586   0.250   2.144   4.985
10229SOL    HW231587   0.242   2.065   5.128
10230SOL     OW31588   5.664   5.857   1.648
10230SOL    HW131589   5.599   5.831   1.576
10230SOL    HW231590   5.646   5.950   1.678
10231SOL     OW31591   0.269   4.052   2.094
10231SOL    HW131592   0.193   4.091   2.042
10231SOL    HW231593   0.247   3.957   2.118
10232SOL     OW31594   4.585   4.756   2.228
10232SOL    HW131595   4.668   4.732   2.179
10232SOL    HW231596   4.602   4.837   2.285
10233SOL     OW31597   3.537   3.209   6.327
10233SOL    HW131598   3.596   3.286   6.303
10233SOL    HW231599   3.527   3.149   6.248
10234SOL     OW31600   0.873   0.777   2.042
10234SOL    HW131601   0.773   0.782   2.051
10234SOL    HW231602   0.903   0.839   1.969
10235SOL     OW31603   1.011   0.370   3.257
10235SOL    HW131604   1.051   0.297   3.312
10235SOL    HW231605   1.083   0.417   3.206
10236SOL     OW31606   1.011   0.235   2.713
10236SOL    HW131607   1.022   0.331   2.737
10236SOL    HW231608   1.037   0.178   2.791
10237SOL     OW31609   0.002   3.931   5.867
10237SOL    HW131610   0.055   3.846   5.873
10237SOL    HW231611   6.928   3.913   5.896
10238SOL     OW31612   2.790   6.952   0.737
10238SOL    HW131613   2.704   7.000   0.720
10238SOL    HW231614   2.808   6.890   0.660
10239SOL     OW31615   1.047   2.543   4.965
10239SOL    HW131616   1.090   2.629   4.989
10239SOL    HW231617   0.948   2.557   4.953
10240SOL     OW31618   1.813   6.511   1.603
10240SOL    HW131619   1.753   6.573   1.553
10240SOL    HW231620   1.759   6.437   1.643
10241SOL     OW31621   4.296   3.893   1.673
10241SOL    HW131622   4.246   3.857   1.752
10241SOL    HW231623   4.267   3.986   1.654
10242SOL     OW31624   0.887   3.767   1.413
10242SOL    HW131625   0.934   3.840   1.364
10242SOL    HW231626   0.880   3.686   1.354
10243SOL     OW31627   3.749   5.403   2.202
10243SOL    HW131628   3.735   5.367   2.109
10243SOL    HW231629   3.846   5.417   2.218
10244SOL     OW31630   1.885   5.823   1.313
10244SOL    HW131631   1.867   5.742   1.368
10244SOL    HW231632   1.856   5.905   1.364
10245SOL     OW31633   6.306   4.083   1.257
10245SOL    HW131634   6.244   4.012   1.223
10245SOL    HW231635   6.396   4.043   1.275
10246SOL     OW31636   3.645   3.214   3.679
10246SOL    HW131637   3.581   3.291   3.687
10246SOL    HW231638   3.737   3.249   3.660
10247SOL     OW31639   0.500   3.411   4.528
10247SOL    HW131640   0.581   3.446   4.482
10247SOL    HW231641   0.429   3.481   4.529
10248SOL     OW31642   1.085   1.098   4.450
10248SOL    HW131643   1.140   1.174   4.418
10248SOL    HW231644   0.995   1.100   4.404
10249SOL     OW31645   2.686   4.395   6.119
10249SOL    HW131646   2.649   4.308   6.087
10249SOL    HW231647   2.743   4.436   6.048
10250SOL     OW31648   3.125   2.839   0.405
10250SOL    HW131649   3.196   2.780   0.368
10250SOL    HW231650   3.035   2.801   0.384
10251SOL     OW31651   0.848   0.692   5.234
10251SOL    HW131652   0.915   0.703   5.160
10251SOL    HW231653   0.788   0.615   5.213
10252SOL     OW31654   5.225   3.785   6.084
10252SOL    HW131655   5.275   3.780   6.170
10252SOL    HW231656   5.272   3.730   6.015
10253SOL     OW31657   3.726   5.824   0.405
10253SOL    HW131658   3.684   5.914   0.419
10253SOL    HW231659   3.707   5.766   0.484
10254SOL     OW31660   6.526   1.503   6.712
10254SOL    HW131661   6.482   1.415   6.695
10254SOL    HW231662   6.612   1.488   6.762
10255SOL     OW31663   4.044   4.606   1.688
10255SOL    HW131664   4.081   4.648   1.605
10255SOL    HW231665   4.119   4.575   1.746
10256SOL     OW31666   2.043   1.205   4.715
10256SOL    HW131667   2.076   1.208   4.809
10256SOL    HW231668   1.994   1.119   4.700
10257SOL     OW31669   3.320   6.265   3.274
10257SOL    HW131670   3.304   6.216   3.188
10257SOL    HW231671   3.409   6.310   3.269
10258SOL     OW31672   3.184   1.727   2.331
10258SOL    HW131673   3.155   1.635   2.305
10258SOL    HW231674   3.261   1.755   2.274
10259SOL     OW31675   1.863   4.015   3.771
10259SOL    HW131676   1.814   3.932   3.742
10259SOL    HW231677   1.798   4.084   3.801
10260SOL     OW31678   0.419   0.254   3.798
10260SOL    HW131679   0.343   0.319   3.801
10260SOL    HW231680   0.437   0.219   3.890
10261SOL     OW31681   6.830   4.092   1.623
10261SOL    HW131682   6.751   4.135   1.580
10261SOL    HW231683   6.805   4.001   1.655
10262SOL     OW31684   4.699   0.928   6.378
10262SOL    HW131685   4.795   0.939   6.406
10262SOL    HW231686   4.643   0.908   6.458
10263SOL     OW31687   5.373   0.254   2.927
10263SOL    HW131688   5.416   0.315   2.994
10263SOL    HW231689   5.434   0.177   2.909
10264SOL     OW31690   6.989   1.227   5.902
10264SOL    HW131691   6.903   1.273   5.878
10264SOL    HW231692   7.005   1.151   5.840
10265SOL     OW31693   1.951   0.537   2.741
10265SOL    HW131694   1.990   0.446   2.752
10265SOL    HW231695   1.906   0.566   2.826
10266SOL     OW31696   2.625   3.745   1.696
10266SOL    HW131697   2.705   3.701   1.737
10266SOL    HW231698   2.647   3.839   1.670
10267SOL     OW31699   6.419   1.056   0.943
10267SOL    HW131700   6.393   1.095   0.855
10267SOL    HW231701   6.370   0.970   0.957
10268SOL     OW31702   3.677   5.647   2.534
10268SOL    HW131703   3.616   5.709   2.485
10268SOL    HW231704   3.628   5.562   2.556
10269SOL     OW31705   2.644   1.515   6.963
10269SOL    HW131706   2.705   1.438   6.940
10269SOL    HW231707   2.682   1.599   6.924
10270SOL     OW31708   2.743   0.350   3.661
10270SOL    HW131709   2.652   0.391   3.666
10270SOL    HW231710   2.766   0.309   3.749
10271SOL     OW31711   2.396   0.989   0.042
10271SOL    HW131712   2.441   1.077   0.029
10271SOL    HW231713   2.461   0.915   0.025
10272SOL     OW31714   5.764   6.673   5.251
10272SOL    HW131715   5.762   6.673   5.151
10272SOL    HW231716   5.736   6.583   5.285
10273SOL     OW31717   1.937   5.291   2.949
10273SOL    HW131718   1.975   5.201   2.972
10273SOL    HW231719   1.894   5.330   3.030
10274SOL     OW31720   0.807   4.002   5.249
10274SOL    HW131721   0.731   3.951   5.208
10274SOL    HW231722   0.807   4.095   5.212
10275SOL     OW31723   0.474   0.970   1.684
10275SOL    HW131724   0.526   0.897   1.640
10275SOL    HW231725   0.433   1.029   1.615
10276SOL     OW31726   3.344   4.791   5.244
10276SOL    HW131727   3.413   4.720   5.246
10276SOL    HW231728   3.254   4.751   5.262
10277SOL     OW31729   0.400   5.283   3.866
10277SOL    HW131730   0.459   5.344   3.918
10277SOL    HW231731   0.337   5.236   3.928
10278SOL     OW31732   5.909   0.213   4.075
10278SOL    HW131733   5.949   0.143   4.017
10278SOL    HW231734   5.956   0.216   4.163
10279SOL     OW31735   1.068   4.660   4.105
10279SOL    HW131736   1.120   4.713   4.038
10279SOL    HW231737   1.115   4.572   4.120
10280SOL     OW31738   6.292   5.652   0.817
10280SOL    HW131739   6.340   5.733   0.785
10280SOL    HW231740   6.253   5.670   0.908
10281SOL     OW31741   5.854   0.056   4.999
10281SOL    HW131742   5.901   0.021   4.919
10281SOL    HW231743   5.807   0.142   4.976
10282SOL     OW31744   5.117   2.421   2.950
10282SOL    HW131745   5.170   2.346   2.911
10282SOL    HW231746   5.173   2.472   3.015
10283SOL     OW31747   0.173   2.540   0.718
10283SOL    HW131748   0.095   2.575   0.770
10283SOL    HW231749   0.140   2.482   0.643
10284SOL     OW31750   1.017   4.831   5.085
10284SOL    HW131751   1.011   4.763   5.158
10284SOL    HW231752   1.105   4.820   5.037
10285SOL     OW31753   6.918   6.725   6.526
10285SOL    HW131754   6.937   6.636   6.486
10285SOL    HW231755   6.857   6.714   6.605
10286SOL     OW31756   3.052   0.929   1.492
10286SOL    HW131757   3.112   0.849   1.500
10286SOL    HW231758   2.981   0.911   1.423
10287SOL     OW31759   0.058   5.966   2.700
10287SOL    HW131760   7.002   5.904   2.716
10287SOL    HW231761   0.097   5.994   2.788
10288SOL     OW31762   3.900   6.006   4.394
10288SOL    HW131763   3.807   5.994   4.428
10288SOL    HW231764   3.964   5.959   4.456
10289SOL     OW31765   4.023   6.382   6.570
10289SOL    HW131766   4.099   6.447   6.573
10289SOL    HW231767   4.056   6.293   6.537
10290SOL     OW31768   3.638   3.113   2.568
10290SOL    HW131769   3.730   3.125   2.530
10290SOL    HW231770   3.573   3.167   2.515
10291SOL     OW31771   3.610   2.007   2.142
10291SOL    HW131772   3.596   2.071   2.067
10291SOL    HW231773   3.695   2.030   2.190
10292SOL     OW31774   0.099   0.593   5.558
10292SOL    HW131775   0.172   0.583   5.626
10292SOL    HW231776   0.082   0.506   5.513
10293SOL     OW31777   1.677   3.127   5.698
10293SOL    HW131778   1.628   3.165   5.620
10293SOL    HW231779   1.763   3.175   5.711
10294SOL     OW31780   1.215   6.946   1.595
10294SOL    HW131781   1.115   6.940   1.603
10294SOL    HW231782   1.257   6.872   1.648
10295SOL     OW31783   2.470   1.285   0.902
10295SOL    HW131784   2.500   1.237   0.984
10295SOL    HW231785   2.475   1.223   0.824
10296SOL     OW31786   6.506   2.798   4.999
10296SOL    HW131787   6.469   2.876   5.048
10296SOL    HW231788   6.446   2.719   5.012
10297SOL     OW31789   4.706   1.085   1.184
10297SOL    HW131790   4.699   1.171   1.134
10297SOL    HW231791   4.616   1.044   1.193
10298SOL     OW31792   1.356   1.279   1.907
10298SOL    HW131793   1.302   1.315   1.983
10298SOL    HW231794   1.409   1.200   1.939
10299SOL     OW31795   5.567   0.060   2.886
10299SOL    HW131796   5.656   0.093   2.916
10299SOL    HW231797   5.579   7.014   2.811
10300SOL     OW31798   1.277   3.089   0.699
10300SOL    HW131799   1.232   3.069   0.612
10300SOL    HW231800   1.368   3.049   0.699
10301SOL     OW31801   4.475   1.496   0.018
10301SOL    HW131802   4.520   1.570   6.988
10301SOL    HW231803   4.425   1.438   6.975
10302SOL     OW31804   3.214   5.836   5.773
10302SOL    HW131805   3.242   5.753   5.724
10302SOL    HW231806   3.121   5.823   5.809
10303SOL     OW31807   0.691   4.382   5.550
10303SOL    HW131808   0.692   4.481   5.563
10303SOL    HW231809   0.672   4.360   5.454
10304SOL     OW31810   5.026   5.445   1.031
10304SOL    HW131811   5.120   5.412   1.040
10304SOL    HW231812   4.963   5.374   1.064
10305SOL     OW31813   2.821   3.623   5.238
10305SOL    HW131814   2.868   3.706   5.210
10305SOL    HW231815   2.750   3.645   5.304
10306SOL     OW31816   3.806   0.938   1.493
10306SOL    HW131817   3.817   0.888   1.407
10306SOL    HW231818   3.803   0.874   1.569
10307SOL     OW31819   1.725   6.270   4.922
10307SOL    HW131820   1.777   6.298   4.841
10307SOL    HW231821   1.755   6.323   5.001
10308SOL     OW31822   2.592   4.610   1.857
10308SOL    HW131823   2.687   4.582   1.871
10308SOL    HW231824   2.567   4.596   1.761
10309SOL     OW31825   0.384   0.777   4.785
10309SOL    HW131826   0.433   0.750   4.702
10309SOL    HW231827   0.416   0.867   4.815
10310SOL     OW31828   3.082   3.900   6.081
10310SOL    HW131829   3.068   3.971   6.151
10310SOL    HW231830   3.003   3.898   6.019
10311SOL     OW31831   5.272   6.476   0.002
10311SOL    HW131832   5.267   6.575   7.016
10311SOL    HW231833   5.221   6.435   6.947
10312SOL     OW31834   2.549   6.965   2.117
10312SOL    HW131835   2.585   6.991   2.027
10312SOL    HW231836   2.625   6.960   2.182
10313SOL     OW31837   5.085   6.474   3.425
10313SOL    HW131838   5.111   6.570   3.440
10313SOL    HW231839   5.050   6.463   3.333
10314SOL     OW31840   0.718   6.654   0.663
10314SOL    HW131841   0.655   6.718   0.706
10314SOL    HW231842   0.704   6.657   0.563
10315SOL     OW31843   4.814   4.498   3.937
10315SOL    HW131844   4.821   4.507   4.036
10315SOL    HW231845   4.809   4.589   3.895
10316SOL     OW31846   1.245   2.200   7.014
10316SOL    HW131847   1.343   2.190   7.003
10316SOL    HW231848   1.225   2.251   0.078
10317SOL     OW31849   4.177   6.099   4.503
10317SOL    HW131850   4.271   6.121   4.529
10317SOL    HW231851   4.155   6.006   4.534
10318SOL     OW31852   6.259   6.961   6.964
10318SOL    HW131853   6.334   6.969   0.009
10318SOL    HW231854   6.194   0.015   6.979
10319SOL     OW31855   1.039   4.372   4.376
10319SOL    HW131856   1.044   4.455   4.431
10319SOL    HW231857   1.083   4.388   4.287
10320SOL     OW31858   6.979   6.851   3.054
10320SOL    HW131859   6.891   6.896   3.042
10320SOL    HW231860   7.015   6.822   2.965
10321SOL     OW31861   5.951   2.484   3.029
10321SOL    HW131862   5.853   2.463   3.031
10321SOL    HW231863   5.964   2.582   3.014
10322SOL     OW31864   4.584   4.512   5.120
10322SOL    HW131865   4.633   4.489   5.036
10322SOL    HW231866   4.487   4.525   5.099
10323SOL     OW31867   0.884   4.475   6.039
10323SOL    HW131868   0.815   4.405   6.058
10323SOL    HW231869   0.972   4.431   6.019
10324SOL     OW31870   3.078   3.516   2.930
10324SOL    HW131871   3.006   3.453   2.960
10324SOL    HW231872   3.167   3.469   2.935
10325SOL     OW31873   6.157   6.176   5.266
10325SOL    HW131874   6.158   6.271   5.296
10325SOL    HW231875   6.250   6.141   5.259
10326SOL     OW31876   5.078   3.910   6.907
10326SOL    HW131877   4.986   3.930   6.870
10326SOL    HW231878   5.147   3.954   6.849
10327SOL     OW31879   1.420   5.614   6.879
10327SOL    HW131880   1.348   5.662   6.930
10327SOL    HW231881   1.507   5.663   6.891
10328SOL     OW31882   5.950   2.346   2.763
10328SOL    HW131883   5.931   2.399   2.846
10328SOL    HW231884   5.971   2.251   2.788
10329SOL     OW31885   3.436   2.110   1.819
10329SOL    HW131886   3.508   2.126   1.886
10329SOL    HW231887   3.458   2.159   1.735
10330SOL     OW31888   5.015   6.612   1.959
10330SOL    HW131889   5.030   6.695   1.906
10330SOL    HW231890   5.051   6.625   2.052
10331SOL     OW31891   5.277   5.702   5.715
10331SOL    HW131892   5.311   5.624   5.663
10331SOL    HW231893   5.355   5.752   5.754
10332SOL     OW31894   2.189   1.461   6.523
10332SOL    HW131895   2.236   1.406   6.453
10332SOL    HW231896   2.218   1.557   6.514
10333SOL     OW31897   1.736   3.637   4.183
10333SOL    HW131898   1.744   3.683   4.272
10333SOL    HW231899   1.699   3.545   4.197
10334SOL     OW31900   3.460   1.303   4.157
10334SOL    HW131901   3.385   1.294   4.223
10334SOL    HW231902   3.547   1.301   4.206
10335SOL     OW31903   2.088   3.526   4.269
10335SOL    HW131904   2.106   3.428   4.259
10335SOL    HW231905   2.096   3.571   4.180
10336SOL     OW31906   6.019   6.870   3.253
10336SOL    HW131907   5.986   6.847   3.162
10336SOL    HW231908   6.110   6.830   3.267
10337SOL     OW31909   6.097   6.411   6.784
10337SOL    HW131910   6.047   6.494   6.760
10337SOL    HW231911   6.192   6.434   6.807
10338SOL     OW31912   0.548   6.233   1.596
10338SOL    HW131913   0.478   6.299   1.570
10338SOL    HW231914   0.582   6.255   1.688
10339SOL     OW31915   5.346   2.527   6.065
10339SOL    HW131916   5.317   2.564   5.977
10339SOL    HW231917   5.280   2.555   6.136
10340SOL     OW31918   3.098   3.828   6.515
10340SOL    HW131919   3.174   3.870   6.564
10340SOL    HW231920   3.111   3.729   6.511
10341SOL     OW31921   3.376   5.085   3.378
10341SOL    HW131922   3.351   5.020   3.307
10341SOL    HW231923   3.416   5.167   3.336
10342SOL     OW31924   0.817   1.415   3.741
10342SOL    HW131925   0.876   1.354   3.794
10342SOL    HW231926   0.780   1.366   3.663
10343SOL     OW31927   4.202   5.430   1.727
10343SOL    HW131928   4.155   5.364   1.668
10343SOL    HW231929   4.260   5.488   1.670
10344SOL     OW31930   4.810   6.725   6.471
10344SOL    HW131931   4.831   6.654   6.538
10344SOL    HW231932   4.890   6.783   6.457
10345SOL     OW31933   1.258   4.323   4.756
10345SOL    HW131934   1.254   4.270   4.671
10345SOL    HW231935   1.339   4.295   4.808
10346SOL     OW31936   0.517   5.712   0.415
10346SOL    HW131937   0.427   5.711   0.459
10346SOL    HW231938   0.583   5.668   0.476
10347SOL     OW31939   0.108   2.094   5.254
10347SOL    HW131940   0.074   2.016   5.202
10347SOL    HW231941   0.046   2.172   5.243
10348SOL     OW31942   0.308   5.144   1.480
10348SOL    HW131943   0.333   5.241   1.481
10348SOL    HW231944   0.376   5.092   1.532
10349SOL     OW31945   6.768   0.191   6.597
10349SOL    HW131946   6.818   0.209   6.682
10349SOL    HW231947   6.780   0.095   6.571
10350SOL     OW31948   3.987   0.238   6.363
10350SOL    HW131949   4.003   0.262   6.268
10350SOL    HW231950   3.916   0.168   6.369
10351SOL     OW31951   4.736   5.875   5.995
10351SOL    HW131952   4.638   5.884   6.011
10351SOL    HW231953   4.769   5.953   5.942
10352SOL     OW31954   4.839   4.975   6.021
10352SOL    HW131955   4.749   5.016   6.010
10352SOL    HW231956   4.844   4.926   6.108
10353SOL     OW31957   0.491   3.591   4.816
10353SOL    HW131958   0.565   3.657   4.825
10353SOL    HW231959   0.509   3.511   4.874
10354SOL     OW31960   5.115   1.315   1.056
10354SOL    HW131961   5.028   1.350   1.093
10354SOL    HW231962   5.106   1.218   1.038
10355SOL     OW31963   0.910   4.601   3.034
10355SOL    HW131964   0.939   4.509   3.010
10355SOL    HW231965   0.810   4.605   3.034
10356SOL     OW31966   0.527   3.168   4.878
10356SOL    HW131967   0.475   3.165   4.793
10356SOL    HW231968   0.495   3.245   4.934
10357SOL     OW31969   2.955   3.048   6.089
10357SOL    HW131970   2.925   3.003   6.005
10357SOL    HW231971   2.985   3.141   6.068
10358SOL     OW31972   1.000   0.674   2.257
10358SOL    HW131973   0.959   0.694   2.168
10358SOL    HW231974   0.942   0.714   2.329
10359SOL     OW31975   1.277   1.660   0.618
10359SOL    HW131976   1.253   1.601   0.540
10359SOL    HW231977   1.255   1.755   0.596
10360SOL     OW31978   0.072   4.316   3.889
10360SOL    HW131979   0.119   4.360   3.813
10360SOL    HW231980   6.996   4.301   3.864
10361SOL     OW31981   2.746   5.701   0.199
10361SOL    HW131982   2.724   5.688   0.102
10361SOL    HW231983   2.845   5.695   0.211
10362SOL     OW31984   0.994   4.585   5.643
10362SOL    HW131985   1.051   4.531   5.704
10362SOL    HW231986   1.047   4.663   5.609
10363SOL     OW31987   5.235   0.601   4.378
10363SOL    HW131988   5.140   0.568   4.379
10363SOL    HW231989   5.279   0.575   4.464
10364SOL     OW31990   1.327   3.746   0.804
10364SOL    HW131991   1.301   3.829   0.853
10364SOL    HW231992   1.255   3.724   0.737
10365SOL     OW31993   5.547   4.971   6.996
10365SOL    HW131994   5.570   5.064   6.966
10365SOL    HW231995   5.491   4.927   6.926
10366SOL     OW31996   4.697   6.954   3.600
10366SOL    HW131997   4.631   7.018   3.638
10366SOL    HW231998   4.790   6.990   3.613
10367SOL     OW31999   6.205   1.538   3.239
10367SOL    HW132000   6.298   1.575   3.230
10367SOL    HW232001   6.171   1.512   3.149
10368SOL     OW32002   2.309   0.144   1.121
10368SOL    HW132003   2.282   0.159   1.026
10368SOL    HW232004   2.298   0.048   1.145
10369SOL     OW32005   4.964   3.001   6.665
10369SOL    HW132006   5.034   2.952   6.613
10369SOL    HW232007   4.875   2.958   6.652
10370SOL     OW32008   2.545   0.517   5.089
10370SOL    HW132009   2.517   0.429   5.128
10370SOL    HW232010   2.622   0.554   5.141
10371SOL     OW32011   4.619   6.905   5.579
10371SOL    HW132012   4.550   6.976   5.592
10371SOL    HW232013   4.581   6.816   5.602
10372SOL     OW32014   0.336   0.663   4.145
10372SOL    HW132015   0.402   0.707   4.206
10372SOL    HW232016   0.330   0.715   4.060
10373SOL     OW32017   1.437   6.320   5.274
10373SOL    HW132018   1.428   6.376   5.191
10373SOL    HW232019   1.352   6.269   5.289
10374SOL     OW32020   3.444   1.278   3.122
10374SOL    HW132021   3.447   1.207   3.192
10374SOL    HW232022   3.421   1.366   3.164
10375SOL     OW32023   0.028   2.279   1.025
10375SOL    HW132024   0.011   2.351   0.959
10375SOL    HW232025   7.000   2.300   1.111
10376SOL     OW32026   5.760   0.402   3.984
10376SOL    HW132027   5.809   0.326   4.026
10376SOL    HW232028   5.787   0.410   3.888
10377SOL     OW32029   6.778   6.460   3.386
10377SOL    HW132030   6.703   6.477   3.450
10377SOL    HW232031   6.824   6.546   3.365
10378SOL     OW32032   6.290   6.513   5.657
10378SOL    HW132033   6.383   6.546   5.675
10378SOL    HW232034   6.294   6.440   5.589
10379SOL     OW32035   4.274   1.219   4.325
10379SOL    HW132036   4.316   1.240   4.237
10379SOL    HW232037   4.291   1.123   4.348
10380SOL     OW32038   3.459   0.816   4.678
10380SOL    HW132039   3.380   0.786   4.732
10380SOL    HW232040   3.429   0.839   4.585
10381SOL     OW32041   3.378   5.534   5.110
10381SOL    HW132042   3.350   5.479   5.031
10381SOL    HW232043   3.307   5.530   5.180
10382SOL     OW32044   6.990   5.271   1.705
10382SOL    HW132045   7.015   5.320   1.789
10382SOL    HW232046   0.015   5.313   1.627
10383SOL     OW32047   5.522   3.473   1.227
10383SOL    HW132048   5.574   3.418   1.293
10383SOL    HW232049   5.425   3.468   1.247
10384SOL     OW32050   5.229   1.394   6.796
10384SOL    HW132051   5.270   1.403   6.706
10384SOL    HW232052   5.130   1.385   6.787
10385SOL     OW32053   6.691   3.327   6.716
10385SOL    HW132054   6.602   3.333   6.762
10385SOL    HW232055   6.746   3.257   6.761
10386SOL     OW32056   0.045   1.538   6.183
10386SOL    HW132057   0.129   1.582   6.151
10386SOL    HW232058   6.989   1.603   6.177
10387SOL     OW32059   1.584   3.790   2.953
10387SOL    HW132060   1.654   3.732   2.994
10387SOL    HW232061   1.596   3.791   2.854
10388SOL     OW32062   1.454   4.540   2.309
10388SOL    HW132063   1.375   4.533   2.371
10388SOL    HW232064   1.475   4.637   2.294
10389SOL     OW32065   1.589   5.578   3.236
10389SOL    HW132066   1.516   5.549   3.298
10389SOL    HW232067   1.552   5.641   3.168
10390SOL     OW32068   2.128   3.360   3.587
10390SOL    HW132069   2.131   3.459   3.589
10390SOL    HW232070   2.036   3.328   3.609
10391SOL     OW32071   3.330   5.209   4.577
10391SOL    HW132072   3.425   5.230   4.598
10391SOL    HW232073   3.270   5.271   4.627
10392SOL     OW32074   0.075   5.545   6.168
10392SOL    HW132075   0.049   5.642   6.161
10392SOL    HW232076   0.007   5.496   6.223
10393SOL     OW32077   1.329   1.737   4.163
10393SOL    HW132078   1.378   1.741   4.250
10393SOL    HW232079   1.272   1.655   4.161
10394SOL     OW32080   3.201   6.807   0.889
10394SOL    HW132081   3.199   6.799   0.989
10394SOL    HW232082   3.168   6.898   0.862
10395SOL     OW32083   1.112   0.114   3.363
10395SOL    HW132084   1.037   0.085   3.423
10395SOL    HW232085   1.178   0.040   3.355
10396SOL     OW32086   0.545   0.709   4.586
10396SOL    HW132087   0.551   0.798   4.540
10396SOL    HW232088   0.556   0.636   4.519
10397SOL     OW32089   4.954   3.051   2.406
10397SOL    HW132090   4.923   3.067   2.500
10397SOL    HW232091   4.955   2.953   2.387
10398SOL     OW32092   0.105   2.180   2.455
10398SOL    HW132093   0.125   2.084   2.475
10398SOL    HW232094   0.035   2.185   2.383
10399SOL     OW32095   6.782   2.916   5.842
10399SOL    HW132096   6.753   2.980   5.914
10399SOL    HW232097   6.855   2.858   5.877
10400SOL     OW32098   2.089   5.178   2.457
10400SOL    HW132099   2.034   5.259   2.477
10400SOL    HW232100   2.052   5.099   2.505
10401SOL     OW32101   1.153   6.010   0.914
10401SOL    HW132102   1.083   6.081   0.909
10401SOL    HW232103   1.221   6.036   0.984
10402SOL     OW32104   1.155   2.322   4.672
10402SOL    HW132105   1.254   2.337   4.668
10402SOL    HW232106   1.107   2.404   4.639
10403SOL     OW32107   5.449   1.382   3.624
10403SOL    HW132108   5.446   1.465   3.567
10403SOL    HW232109   5.529   1.385   3.683
10404SOL     OW32110   6.336   0.157   4.379
10404SOL    HW132111   6.372   0.237   4.427
10404SOL    HW232112   6.404   0.125   4.313
10405SOL     OW32113   3.584   6.986   6.355
10405SOL    HW132114   3.587   0.017   6.269
10405SOL    HW232115   3.615   0.025   6.429
10406SOL     OW32116   1.044   6.399   4.620
10406SOL    HW132117   1.141   6.379   4.604
10406SOL    HW232118   0.993   6.314   4.627
10407SOL     OW32119   3.409   0.504   0.062
10407SOL    HW132120   3.341   0.453   0.008
10407SOL    HW232121   3.431   0.452   0.144
10408SOL     OW32122   2.991   0.440   2.533
10408SOL    HW132123   3.041   0.520   2.566
10408SOL    HW232124   2.896   0.465   2.513
10409SOL     OW32125   0.268   4.868   1.876
10409SOL    HW132126   0.316   4.947   1.913
10409SOL    HW232127   0.333   4.793   1.863
10410SOL     OW32128   5.446   5.716   0.350
10410SOL    HW132129   5.507   5.672   0.285
10410SOL    HW232130   5.492   5.728   0.438
10411SOL     OW32131   2.215   4.920   2.099
10411SOL    HW132132   2.249   4.945   2.189
10411SOL    HW232133   2.284   4.865   2.051
10412SOL     OW32134   0.696   3.705   6.048
10412SOL    HW132135   0.723   3.622   5.999
10412SOL    HW232136   0.770   3.772   6.043
10413SOL     OW32137   6.686   0.868   4.802
10413SOL    HW132138   6.604   0.925   4.797
10413SOL    HW232139   6.708   0.848   4.897
10414SOL     OW32140   5.696   5.241   5.358
10414SOL    HW132141   5.746   5.328   5.360
10414SOL    HW232142   5.741   5.175   5.419
10415SOL     OW32143   6.958   4.663   3.026
10415SOL    HW132144   7.020   4.725   2.978
10415SOL    HW232145   6.887   4.631   2.963
10416SOL     OW32146   5.131   0.374   0.091
10416SOL    HW132147   5.040   0.364   0.051
10416SOL    HW232148   5.163   0.468   0.078
10417SOL     OW32149   4.937   4.562   4.546
10417SOL    HW132150   4.937   4.499   4.468
10417SOL    HW232151   4.892   4.647   4.520
10418SOL     OW32152   5.743   2.995   0.104
10418SOL    HW132153   5.726   3.036   0.014
10418SOL    HW232154   5.657   2.960   0.141
10419SOL     OW32155   0.946   6.867   4.914
10419SOL    HW132156   1.012   6.823   4.975
10419SOL    HW232157   0.945   6.820   4.826
10420SOL     OW32158   6.439   4.188   3.919
10420SOL    HW132159   6.438   4.277   3.965
10420SOL    HW232160   6.477   4.199   3.827
10421SOL     OW32161   0.071   3.414   3.992
10421SOL    HW132162   0.008   3.484   4.023
10421SOL    HW232163   0.090   3.427   3.894
10422SOL     OW32164   5.756   3.283   5.913
10422SOL    HW132165   5.676   3.240   5.955
10422SOL    HW232166   5.819   3.212   5.882
10423SOL     OW32167   2.759   5.552   1.608
10423SOL    HW132168   2.703   5.614   1.663
10423SOL    HW232169   2.701   5.481   1.568
10424SOL     OW32170   4.822   0.754   2.326
10424SOL    HW132171   4.841   0.852   2.333
10424SOL    HW232172   4.749   0.740   2.259
10425SOL     OW32173   0.551   4.589   1.131
10425SOL    HW132174   0.573   4.493   1.147
10425SOL    HW232175   0.570   4.642   1.214
10426SOL     OW32176   6.497   2.524   0.098
10426SOL    HW132177   6.575   2.576   0.133
10426SOL    HW232178   6.472   2.454   0.164
10427SOL     OW32179   6.315   0.547   3.655
10427SOL    HW132180   6.369   0.610   3.599
10427SOL    HW232181   6.369   0.466   3.676
10428SOL     OW32182   1.636   0.565   5.290
10428SOL    HW132183   1.640   0.471   5.254
10428SOL    HW232184   1.546   0.581   5.330
10429SOL     OW32185   1.963   5.174   1.784
10429SOL    HW132186   2.057   5.161   1.813
10429SOL    HW232187   1.959   5.247   1.715
10430SOL     OW32188   3.482   1.613   4.660
10430SOL    HW132189   3.466   1.645   4.753
10430SOL    HW232190   3.544   1.534   4.662
10431SOL     OW32191   4.449   2.365   3.471
10431SOL    HW132192   4.478   2.339   3.563
10431SOL    HW232193   4.467   2.290   3.408
10432SOL     OW32194   1.859   4.526   1.208
10432SOL    HW132195   1.827   4.611   1.251
10432SOL    HW232196   1.782   4.480   1.164
10433SOL     OW32197   3.112   6.677   4.234
10433SOL    HW132198   3.134   6.728   4.317
10433SOL    HW232199   3.107   6.579   4.256
10434SOL     OW32200   4.163   1.668   0.810
10434SOL    HW132201   4.139   1.632   0.719
10434SOL    HW232202   4.246   1.722   0.803
10435SOL     OW32203   2.788   1.147   1.540
10435SOL    HW132204   2.805   1.243   1.517
10435SOL    HW232205   2.823   1.089   1.466
10436SOL     OW32206   1.689   3.840   5.054
10436SOL    HW132207   1.757   3.914   5.056
10436SOL    HW232208   1.677   3.808   4.960
10437SOL     OW32209   6.577   0.197   5.117
10437SOL    HW132210   6.629   0.277   5.146
10437SOL    HW232211   6.583   0.187   5.018
10438SOL     OW32212   6.946   6.243   6.841
10438SOL    HW132213   6.959   6.261   6.938
10438SOL    HW232214   0.003   6.190   6.806
10439SOL     OW32215   5.820   5.071   5.527
10439SOL    HW132216   5.836   4.975   5.507
10439SOL    HW232217   5.888   5.104   5.593
10440SOL     OW32218   5.762   2.607   1.671
10440SOL    HW132219   5.694   2.671   1.706
10440SOL    HW232220   5.718   2.520   1.648
10441SOL     OW32221   5.510   1.587   5.598
10441SOL    HW132222   5.565   1.562   5.677
10441SOL    HW232223   5.432   1.525   5.590
10442SOL     OW32224   2.838   0.654   6.013
10442SOL    HW132225   2.816   0.585   6.083
10442SOL    HW232226   2.908   0.617   5.952
10443SOL     OW32227   0.921   1.157   6.733
10443SOL    HW132228   0.939   1.255   6.733
10443SOL    HW232229   0.825   1.141   6.707
10444SOL     OW32230   4.513   5.513   3.392
10444SOL    HW132231   4.559   5.601   3.378
10444SOL    HW232232   4.424   5.529   3.434
10445SOL     OW32233   1.378   3.307   3.829
10445SOL    HW132234   1.284   3.342   3.822
10445SOL    HW232235   1.377   3.208   3.820
10446SOL     OW32236   3.087   4.686   5.280
10446SOL    HW132237   3.019   4.623   5.242
10446SOL    HW232238   3.041   4.755   5.336
10447SOL     OW32239   1.788   1.988   2.882
10447SOL    HW132240   1.844   2.001   2.964
10447SOL    HW232241   1.721   2.062   2.876
10448SOL     OW32242   0.665   5.047   2.008
10448SOL    HW132243   0.719   5.129   2.026
10448SOL    HW232244   0.719   4.966   2.028
10449SOL     OW32245   3.774   5.310   4.352
10449SOL    HW132246   3.692   5.311   4.295
10449SOL    HW232247   3.759   5.251   4.432
10450SOL     OW32248   0.517   2.391   4.501
10450SOL    HW132249   0.417   2.384   4.509
10450SOL    HW232250   0.541   2.437   4.416
10451SOL     OW32251   1.989   2.300   4.784
10451SOL    HW132252   1.988   2.378   4.846
10451SOL    HW232253   1.960   2.218   4.833
10452SOL     OW32254   6.836   2.635   4.355
10452SOL    HW132255   6.854   2.538   4.369
10452SOL    HW232256   6.886   2.668   4.276
10453SOL     OW32257   3.141   5.979   4.188
10453SOL    HW132258   3.112   5.884   4.193
10453SOL    HW232259   3.198   5.992   4.107
10454SOL     OW32260   6.665   2.094   6.849
10454SOL    HW132261   6.574   2.129   6.826
10454SOL    HW232262   6.734   2.148   6.800
10455SOL     OW32263   0.967   6.118   2.742
10455SOL    HW132264   1.039   6.160   2.798
10455SOL    HW232265   0.944   6.028   2.779
10456SOL     OW32266   1.112   5.648   6.412
10456SOL    HW132267   1.202   5.684   6.438
10456SOL    HW232268   1.112   5.549   6.421
10457SOL     OW32269   4.433   1.582   1.111
10457SOL    HW132270   4.492   1.516   1.157
10457SOL    HW232271   4.397   1.542   1.026
10458SOL     OW32272   1.981   6.942   6.884
10458SOL    HW132273   2.052   7.000   6.926
10458SOL    HW232274   1.901   6.998   6.863
10459SOL     OW32275   5.682   6.127   1.044
10459SOL    HW132276   5.707   6.039   1.003
10459SOL    HW232277   5.612   6.113   1.113
10460SOL     OW32278   6.487   1.414   6.992
10460SOL    HW132279   6.399   1.423   0.018
10460SOL    HW232280   6.476   1.433   6.895
10461SOL     OW32281   6.726   4.140   5.778
10461SOL    HW132282   6.735   4.043   5.755
10461SOL    HW232283   6.801   4.191   5.738
10462SOL     OW32284   4.445   3.739   0.174
10462SOL    HW132285   4.438   3.836   0.150
10462SOL    HW232286   4.373   3.716   0.240
10463SOL     OW32287   4.599   2.899   5.235
10463SOL    HW132288   4.570   2.963   5.306
10463SOL    HW232289   4.549   2.813   5.245
10464SOL     OW32290   6.143   4.737   1.861
10464SOL    HW132291   6.064   4.748   1.920
10464SOL    HW232292   6.118   4.762   1.767
10465SOL     OW32293   5.217   4.070   0.510
10465SOL    HW132294   5.230   4.127   0.591
10465SOL    HW232295   5.120   4.070   0.485
10466SOL     OW32296   6.364   3.777   5.601
10466SOL    HW132297   6.432   3.709   5.629
10466SOL    HW232298   6.284   3.770   5.661
10467SOL     OW32299   0.611   3.624   6.771
10467SOL    HW132300   0.657   3.660   6.852
10467SOL    HW232301   0.595   3.698   6.706
10468SOL     OW32302   1.572   4.380   3.709
10468SOL    HW132303   1.493   4.428   3.670
10468SOL    HW232304   1.600   4.426   3.793
10469SOL     OW32305   1.518   0.686   4.216
10469SOL    HW132306   1.503   0.734   4.130
10469SOL    HW232307   1.436   0.695   4.274
10470SOL     OW32308   2.488   4.256   1.730
10470SOL    HW132309   2.425   4.326   1.763
10470SOL    HW232310   2.569   4.300   1.691
10471SOL     OW32311   1.945   4.665   5.831
10471SOL    HW132312   1.989   4.736   5.776
10471SOL    HW232313   1.868   4.705   5.881
10472SOL     OW32314   4.343   5.575   5.933
10472SOL    HW132315   4.437   5.540   5.934
10472SOL    HW232316   4.341   5.662   5.885
10473SOL     OW32317   5.829   5.882   0.476
10473SOL    HW132318   5.886   5.828   0.413
10473SOL    HW232319   5.783   5.955   0.425
10474SOL     OW32320   6.059   5.854   5.046
10474SOL    HW132321   6.061   5.843   5.146
10474SOL    HW232322   5.969   5.829   5.012
10475SOL     OW32323   6.698   6.298   1.530
10475SOL    HW132324   6.610   6.294   1.578
10475SOL    HW232325   6.686   6.346   1.443
10476SOL     OW32326   5.081   6.415   1.333
10476SOL    HW132327   5.153   6.416   1.263
10476SOL    HW232328   5.096   6.339   1.396
10477SOL     OW32329   0.011   5.614   3.226
10477SOL    HW132330   6.993   5.669   3.152
10477SOL    HW232331   0.091   5.661   3.263
10478SOL     OW32332   0.026   1.495   0.473
10478SOL    HW132333   0.006   1.497   0.571
10478SOL    HW232334   6.991   1.423   0.430
10479SOL     OW32335   0.250   4.711   2.686
10479SOL    HW132336   0.278   4.618   2.708
10479SOL    HW232337   0.328   4.761   2.646
10480SOL     OW32338   2.532   1.491   3.631
10480SOL    HW132339   2.457   1.538   3.677
10480SOL    HW232340   2.618   1.538   3.652
10481SOL     OW32341   5.764   0.574   1.977
10481SOL    HW132342   5.811   0.662   1.975
10481SOL    HW232343   5.831   0.500   1.976
10482SOL     OW32344   4.631   4.361   4.607
10482SOL    HW132345   4.621   4.411   4.694
10482SOL    HW232346   4.727   4.334   4.596
10483SOL     OW32347   6.394   1.270   6.653
10483SOL    HW132348   6.298   1.284   6.678
10483SOL    HW232349   6.410   1.173   6.635
10484SOL     OW32350   5.770   0.508   1.599
10484SOL    HW132351   5.850   0.516   1.658
10484SOL    HW232352   5.793   0.451   1.520
10485SOL     OW32353   5.769   3.461   5.450
10485SOL    HW132354   5.752   3.437   5.545
10485SOL    HW232355   5.770   3.560   5.440
10486SOL     OW32356   6.407   2.654   2.880
10486SOL    HW132357   6.430   2.684   2.788
10486SOL    HW232358   6.344   2.577   2.875
10487SOL     OW32359   3.853   0.122   2.775
10487SOL    HW132360   3.922   0.089   2.711
10487SOL    HW232361   3.879   0.213   2.807
10488SOL     OW32362   3.971   3.874   0.062
10488SOL    HW132363   4.021   3.959   0.080
10488SOL    HW232364   3.884   3.895   0.016
10489SOL     OW32365   1.483   5.505   5.485
10489SOL    HW132366   1.402   5.553   5.451
10489SOL    HW232367   1.500   5.424   5.428
10490SOL     OW32368   5.996   0.293   4.594
10490SOL    HW132369   5.897   0.309   4.602
10490SOL    HW232370   6.012   0.226   4.521
10491SOL     OW32371   6.770   5.684   5.054
10491SOL    HW132372   6.857   5.648   5.020
10491SOL    HW232373   6.705   5.690   4.979
10492SOL     OW32374   4.547   3.835   5.827
10492SOL    HW132375   4.558   3.838   5.728
10492SOL    HW232376   4.565   3.742   5.860
10493SOL     OW32377   3.653   1.192   0.330
10493SOL    HW132378   3.675   1.288   0.349
10493SOL    HW232379   3.722   1.133   0.373
10494SOL     OW32380   5.712   1.433   5.413
10494SOL    HW132381   5.697   1.527   5.444
10494SOL    HW232382   5.808   1.423   5.384
10495SOL     OW32383   0.769   0.883   0.092
10495SOL    HW132384   0.811   0.809   0.146
10495SOL    HW232385   0.840   0.928   0.038
10496SOL     OW32386   7.019   0.358   5.421
10496SOL    HW132387   0.024   0.295   5.348
10496SOL    HW232388   6.970   0.436   5.383
10497SOL     OW32389   2.335   0.993   6.448
10497SOL    HW132390   2.376   1.003   6.539
10497SOL    HW232391   2.259   0.929   6.452
10498SOL     OW32392   2.972   5.290   5.715
10498SOL    HW132393   3.023   5.204   5.723
10498SOL    HW232394   2.876   5.271   5.698
10499SOL     OW32395   3.533   6.357   2.466
10499SOL    HW132396   3.513   6.259   2.470
10499SOL    HW232397   3.448   6.409   2.456
10500SOL     OW32398   2.062   1.498   6.257
10500SOL    HW132399   2.039   1.590   6.225
10500SOL    HW232400   2.042   1.491   6.355
10501SOL     OW32401   1.596   3.365   3.293
10501SOL    HW132402   1.568   3.393   3.385
10501SOL    HW232403   1.596   3.444   3.232
10502SOL     OW32404   3.032   6.594   5.177
10502SOL    HW132405   3.117   6.574   5.128
10502SOL    HW232406   2.992   6.508   5.211
10503SOL     OW32407   2.660   3.397   6.985
10503SOL    HW132408   2.713   3.316   7.012
10503SOL    HW232409   2.567   3.389   7.020
10504SOL     OW32410   1.842   2.924   0.531
10504SOL    HW132411   1.924   2.876   0.501
10504SOL    HW232412   1.837   2.924   0.631
10505SOL     OW32413   0.252   5.744   0.492
10505SOL    HW132414   0.195   5.690   0.430
10505SOL    HW232415   0.252   5.840   0.462
10506SOL     OW32416   6.666   5.633   6.160
10506SOL    HW132417   6.620   5.660   6.245
10506SOL    HW232418   6.653   5.535   6.145
10507SOL     OW32419   3.183   0.925   3.897
10507SOL    HW132420   3.116   0.862   3.936
10507SOL    HW232421   3.206   0.897   3.804
10508SOL     OW32422   5.284   5.781   3.232
10508SOL    HW132423   5.370   5.829   3.251
10508SOL    HW232424   5.303   5.702   3.173
10509SOL     OW32425   1.888   1.125   5.294
10509SOL    HW132426   1.978   1.085   5.279
10509SOL    HW232427   1.817   1.054   5.285
10510SOL     OW32428   5.695   0.997   6.120
10510SOL    HW132429   5.732   0.932   6.054
10510SOL    HW232430   5.605   1.028   6.089
10511SOL     OW32431   6.870   2.689   1.759
10511SOL    HW132432   6.956   2.699   1.809
10511SOL    HW232433   6.821   2.777   1.761
10512SOL     OW32434   2.232   0.082   6.953
10512SOL    HW132435   2.281   7.016   6.946
10512SOL    HW232436   2.244   0.135   6.869
10513SOL     OW32437   6.958   2.525   0.876
10513SOL    HW132438   6.946   2.572   0.963
10513SOL    HW232439   6.877   2.540   0.818
10514SOL     OW32440   1.871   2.824   1.599
10514SOL    HW132441   1.863   2.726   1.619
10514SOL    HW232442   1.828   2.877   1.672
10515SOL     OW32443   6.882   3.663   4.839
10515SOL    HW132444   6.924   3.591   4.784
10515SOL    HW232445   6.951   3.730   4.865
10516SOL     OW32446   2.768   6.762   0.015
10516SOL    HW132447   2.804   6.851   7.006
10516SOL    HW232448   2.715   6.721   6.961
10517SOL     OW32449   0.630   2.453   3.503
10517SOL    HW132450   0.605   2.404   3.587
10517SOL    HW232451   0.706   2.406   3.458
10518SOL     OW32452   0.735   6.460   2.914
10518SOL    HW132453   0.682   6.406   2.848
10518SOL    HW232454   0.730   6.557   2.891
10519SOL     OW32455   3.763   3.380   4.866
10519SOL    HW132456   3.792   3.375   4.961
10519SOL    HW232457   3.818   3.317   4.811
10520SOL     OW32458   3.044   4.955   6.779
10520SOL    HW132459   2.949   4.974   6.754
10520SOL    HW232460   3.046   4.880   6.846
10521SOL     OW32461   6.776   5.571   1.907
10521SOL    HW132462   6.716   5.519   1.847
10521SOL    HW232463   6.800   5.515   1.987
10522SOL     OW32464   6.173   6.748   2.924
10522SOL    HW132465   6.130   6.682   2.986
10522SOL    HW232466   6.110   6.822   2.904
10523SOL     OW32467   5.827   6.400   6.605
10523SOL    HW132468   5.895   6.363   6.668
10523SOL    HW232469   5.832   6.350   6.518
10524SOL     OW32470   4.871   1.359   4.607
10524SOL    HW132471   4.907   1.452   4.597
10524SOL    HW232472   4.862   1.317   4.517
10525SOL     OW32473   1.597   0.316   5.184
10525SOL    HW132474   1.499   0.315   5.163
10525SOL    HW232475   1.625   0.225   5.215
10526SOL     OW32476   4.470   5.109   2.531
10526SOL    HW132477   4.388   5.161   2.507
10526SOL    HW232478   4.527   5.096   2.450
10527SOL     OW32479   1.871   2.882   4.062
10527SOL    HW132480   1.797   2.894   3.996
10527SOL    HW232481   1.863   2.793   4.105
10528SOL     OW32482   5.551   4.074   6.486
10528SOL    HW132483   5.487   4.150   6.496
10528SOL    HW232484   5.533   4.027   6.400
10529SOL     OW32485   0.064   5.630   5.262
10529SOL    HW132486   0.067   5.605   5.165
10529SOL    HW232487   0.043   5.549   5.317
10530SOL     OW32488   1.239   1.669   5.021
10530SOL    HW132489   1.221   1.709   4.930
10530SOL    HW232490   1.206   1.575   5.023
10531SOL     OW32491   2.774   2.348   4.390
10531SOL    HW132492   2.709   2.324   4.318
10531SOL    HW232493   2.867   2.338   4.357
10532SOL     OW32494   3.454   3.551   4.677
10532SOL    HW132495   3.493   3.604   4.751
10532SOL    HW232496   3.473   3.596   4.590
10533SOL     OW32497   3.381   1.025   6.450
10533SOL    HW132498   3.365   0.934   6.487
10533SOL    HW232499   3.463   1.064   6.491
10534SOL     OW32500   5.865   4.141   2.164
10534SOL    HW132501   5.852   4.240   2.175
10534SOL    HW232502   5.928   4.125   2.087
10535SOL     OW32503   0.050   1.370   1.703
10535SOL    HW132504   0.126   1.358   1.767
10535SOL    HW232505   0.079   1.341   1.612
10536SOL     OW32506   5.829   6.005   2.649
10536SOL    HW132507   5.818   5.907   2.633
10536SOL    HW232508   5.910   6.020   2.706
10537SOL     OW32509   6.244   5.080   1.190
10537SOL    HW132510   6.310   5.134   1.242
10537SOL    HW232511   6.220   5.129   1.106
10538SOL     OW32512   4.225   3.649   6.607
10538SOL    HW132513   4.190   3.568   6.654
10538SOL    HW232514   4.311   3.678   6.649
10539SOL     OW32515   1.415   3.158   5.205
10539SOL    HW132516   1.487   3.103   5.163
10539SOL    HW232517   1.364   3.101   5.270
10540SOL     OW32518   3.333   1.191   0.885
10540SOL    HW132519   3.251   1.240   0.856
10540SOL    HW232520   3.323   1.094   0.862
10541SOL     OW32521   3.252   2.371   1.584
10541SOL    HW132522   3.164   2.349   1.627
10541SOL    HW232523   3.289   2.454   1.626
10542SOL     OW32524   2.101   2.602   0.063
10542SOL    HW132525   2.014   2.555   0.078
10542SOL    HW232526   2.126   2.595   6.987
10543SOL     OW32527   2.835   0.400   4.223
10543SOL    HW132528   2.888   0.407   4.308
10543SOL    HW232529   2.892   0.428   4.146
10544SOL     OW32530   0.300   1.816   1.205
10544SOL    HW132531   0.205   1.787   1.220
10544SOL    HW232532   0.302   1.914   1.186
10545SOL     OW32533   3.770   0.899   3.100
10545SOL    HW132534   3.855   0.909   3.152
10545SOL    HW232535   3.733   0.807   3.113
10546SOL     OW32536   4.662   1.102   4.789
10546SOL    HW132537   4.686   1.041   4.865
10546SOL    HW232538   4.601   1.174   4.823
10547SOL     OW32539   4.690   6.042   1.979
10547SOL    HW132540   4.705   5.962   2.037
10547SOL    HW232541   4.689   6.014   1.883
10548SOL     OW32542   4.583   4.314   5.485
10548SOL    HW132543   4.613   4.255   5.559
10548SOL    HW232544   4.484   4.328   5.491
10549SOL     OW32545   0.317   1.314   2.301
10549SOL    HW132546   0.305   1.249   2.375
10549SOL    HW232547   0.298   1.407   2.335
10550SOL     OW32548   4.839   0.126   4.915
10550SOL    HW132549   4.849   0.225   4.908
10550SOL    HW232550   4.902   0.081   4.851
10551SOL     OW32551   2.201   2.789   5.989
10551SOL    HW132552   2.176   2.739   6.072
10551SOL    HW232553   2.227   2.724   5.918
10552SOL     OW32554   3.352   0.911   5.630
10552SOL    HW132555   3.355   0.812   5.643
10552SOL    HW232556   3.257   0.942   5.631
10553SOL     OW32557   2.680   4.696   6.686
10553SOL    HW132558   2.599   4.666   6.736
10553SOL    HW232559   2.759   4.641   6.715
10554SOL     OW32560   6.231   3.742   6.070
10554SOL    HW132561   6.165   3.703   6.134
10554SOL    HW232562   6.315   3.688   6.070
10555SOL     OW32563   3.478   2.509   0.921
10555SOL    HW132564   3.379   2.507   0.933
10555SOL    HW232565   3.519   2.562   0.996
10556SOL     OW32566   2.334   5.158   4.116
10556SOL    HW132567   2.264   5.118   4.175
10556SOL    HW232568   2.409   5.094   4.104
10557SOL     OW32569   5.421   1.483   2.947
10557SOL    HW132570   5.498   1.526   2.899
10557SOL    HW232571   5.397   1.397   2.902
10558SOL     OW32572   6.132   5.557   6.243
10558SOL    HW132573   6.189   5.632   6.278
10558SOL    HW232574   6.184   5.502   6.178
10559SOL     OW32575   4.316   3.084   1.455
10559SOL    HW132576   4.357   3.100   1.545
10559SOL    HW232577   4.237   3.023   1.465
10560SOL     OW32578   0.087   2.177   4.247
10560SOL    HW132579   0.081   2.086   4.205
10560SOL    HW232580   0.033   2.242   4.194
10561SOL     OW32581   1.651   4.068   6.416
10561SOL    HW132582   1.554   4.090   6.424
10561SOL    HW232583   1.700   4.144   6.374
10562SOL     OW32584   4.644   1.833   0.999
10562SOL    HW132585   4.654   1.755   1.060
10562SOL    HW232586   4.581   1.809   0.925
10563SOL     OW32587   1.834   2.306   2.293
10563SOL    HW132588   1.802   2.238   2.359
10563SOL    HW232589   1.757   2.363   2.265
10564SOL     OW32590   6.974   1.757   2.526
10564SOL    HW132591   7.007   1.831   2.585
10564SOL    HW232592   6.921   1.692   2.581
10565SOL     OW32593   5.364   2.119   5.153
10565SOL    HW132594   5.432   2.098   5.223
10565SOL    HW232595   5.294   2.180   5.192
10566SOL     OW32596   5.059   5.612   6.965
10566SOL    HW132597   5.034   5.600   0.041
10566SOL    HW232598   5.037   5.529   6.914
10567SOL     OW32599   2.078   5.652   5.104
10567SOL    HW132600   2.069   5.566   5.054
10567SOL    HW232601   2.171   5.688   5.090
10568SOL     OW32602   4.089   0.369   4.077
10568SOL    HW132603   4.118   0.350   3.983
10568SOL    HW232604   4.063   0.283   4.122
10569SOL     OW32605   6.655   1.887   4.000
10569SOL    HW132606   6.639   1.792   3.975
10569SOL    HW232607   6.653   1.944   3.918
10570SOL     OW32608   0.903   3.031   1.696
10570SOL    HW132609   0.813   2.996   1.669
10570SOL    HW232610   0.972   2.996   1.632
10571SOL     OW32611   0.038   6.996   4.718
10571SOL    HW132612   0.045   0.076   4.719
10571SOL    HW232613   7.020   6.964   4.804
10572SOL     OW32614   6.524   3.885   2.742
10572SOL    HW132615   6.561   3.869   2.834
10572SOL    HW232616   6.487   3.799   2.706
10573SOL     OW32617   6.489   4.707   5.530
10573SOL    HW132618   6.549   4.628   5.512
10573SOL    HW232619   6.425   4.684   5.603
10574SOL     OW32620   0.641   2.429   2.565
10574SOL    HW132621   0.627   2.525   2.541
10574SOL    HW232622   0.558   2.377   2.546
10575SOL     OW32623   0.205   7.018   5.946
10575SOL    HW132624   0.192   6.919   5.945
10575SOL    HW232625   0.257   0.025   5.865
10576SOL     OW32626   0.532   5.926   3.706
10576SOL    HW132627   0.562   5.837   3.741
10576SOL    HW232628   0.524   5.921   3.607
10577SOL     OW32629   0.361   3.062   5.640
10577SOL    HW132630   0.318   3.106   5.719
10577SOL    HW232631   0.334   3.108   5.556
10578SOL     OW32632   5.164   0.924   5.070
10578SOL    HW132633   5.092   0.920   5.001
10578SOL    HW232634   5.234   0.857   5.049
10579SOL     OW32635   5.579   6.619   1.230
10579SOL    HW132636   5.632   6.576   1.158
10579SOL    HW232637   5.488   6.642   1.196
10580SOL     OW32638   1.099   5.749   0.470
10580SOL    HW132639   1.027   5.772   0.535
10580SOL    HW232640   1.060   5.735   0.379
10581SOL     OW32641   4.292   2.270   2.813
10581SOL    HW132642   4.339   2.336   2.755
10581SOL    HW232643   4.267   2.314   2.899
10582SOL     OW32644   3.511   4.067   6.739
10582SOL    HW132645   3.555   3.982   6.708
10582SOL    HW232646   3.481   4.056   6.834
10583SOL     OW32647   4.681   0.717   1.509
10583SOL    HW132648   4.682   0.627   1.551
10583SOL    HW232649   4.678   0.787   1.580
10584SOL     OW32650   5.447   6.992   1.659
10584SOL    HW132651   5.447   0.039   1.733
10584SOL    HW232652   5.445   6.900   1.697
10585SOL     OW32653   3.031   4.190   6.746
10585SOL    HW132654   2.959   4.242   6.792
10585SOL    HW232655   3.045   4.226   6.654
10586SOL     OW32656   5.074   2.002   1.765
10586SOL    HW132657   5.126   2.046   1.691
10586SOL    HW232658   5.012   1.934   1.725
10587SOL     OW32659   0.362   3.750   0.601
10587SOL    HW132660   0.328   3.663   0.637
10587SOL    HW232661   0.290   3.819   0.607
10588SOL     OW32662   1.786   5.413   3.592
10588SOL    HW132663   1.874   5.398   3.639
10588SOL    HW232664   1.763   5.510   3.597
10589SOL     OW32665   5.893   0.690   4.556
10589SOL    HW132666   5.837   0.765   4.591
10589SOL    HW232667   5.970   0.727   4.504
10590SOL     OW32668   0.660   0.152   4.271
10590SOL    HW132669   0.603   0.155   4.353
10590SOL    HW232670   0.674   0.057   4.244
10591SOL     OW32671   1.321   2.448   1.468
10591SOL    HW132672   1.399   2.499   1.432
10591SOL    HW232673   1.324   2.354   1.434
10592SOL     OW32674   5.064   1.654   6.121
10592SOL    HW132675   4.981   1.610   6.154
10592SOL    HW232676   5.040   1.726   6.055
10593SOL     OW32677   1.706   3.787   2.297
10593SOL    HW132678   1.635   3.737   2.247
10593SOL    HW232679   1.735   3.867   2.245
10594SOL     OW32680   1.360   1.328   4.686
10594SOL    HW132681   1.438   1.385   4.712
10594SOL    HW232682   1.394   1.243   4.644
10595SOL     OW32683   1.385   5.598   4.960
10595SOL    HW132684   1.396   5.645   5.048
10595SOL    HW232685   1.381   5.666   4.887
10596SOL     OW32686   2.734   1.037   1.053
10596SOL    HW132687   2.731   0.951   1.002
10596SOL    HW232688   2.734   1.114   0.990
10597SOL     OW32689   1.846   0.842   3.870
10597SOL    HW132690   1.812   0.768   3.927
10597SOL    HW232691   1.935   0.817   3.831
10598SOL     OW32692   2.948   0.659   0.430
10598SOL    HW132693   3.045   0.683   0.441
10598SOL    HW232694   2.921   0.597   0.504
10599SOL     OW32695   4.641   0.095   5.957
10599SOL    HW132696   4.597   0.157   5.893
10599SOL    HW232697   4.682   0.019   5.907
10600SOL     OW32698   2.029   2.915   5.442
10600SOL    HW132699   2.106   2.930   5.381
10600SOL    HW232700   2.045   2.962   5.529
10601SOL     OW32701   4.567   6.306   5.263
10601SOL    HW132702   4.530   6.312   5.170
10601SOL    HW232703   4.562   6.397   5.306
10602SOL     OW32704   4.925   2.543   2.141
10602SOL    HW132705   4.897   2.625   2.092
10602SOL    HW232706   4.879   2.463   2.100
10603SOL     OW32707   0.615   5.405   5.069
10603SOL    HW132708   0.617   5.342   5.146
10603SOL    HW232709   0.521   5.421   5.041
10604SOL     OW32710   0.629   4.436   6.764
10604SOL    HW132711   0.555   4.497   6.737
10604SOL    HW232712   0.591   4.349   6.795
10605SOL     OW32713   1.255   4.586   0.432
10605SOL    HW132714   1.210   4.591   0.521
10605SOL    HW232715   1.294   4.495   0.419
10606SOL     OW32716   1.472   1.057   2.023
10606SOL    HW132717   1.564   1.035   2.055
10606SOL    HW232718   1.445   0.990   1.954
10607SOL     OW32719   5.619   4.168   6.989
10607SOL    HW132720   5.712   4.196   7.015
10607SOL    HW232721   5.556   4.195   0.041
10608SOL     OW32722   5.590   6.088   2.554
10608SOL    HW132723   5.606   6.129   2.464
10608SOL    HW232724   5.676   6.052   2.590
10609SOL     OW32725   3.957   6.828   3.236
10609SOL    HW132726   3.949   6.859   3.141
10609SOL    HW232727   3.949   6.729   3.239
10610SOL     OW32728   2.278   4.851   5.231
10610SOL    HW132729   2.321   4.929   5.185
10610SOL    HW232730   2.182   4.845   5.204
10611SOL     OW32731   4.680   2.269   6.013
10611SOL    HW132732   4.584   2.241   6.015
10611SOL    HW232733   4.688   2.354   5.960
10612SOL     OW32734   2.091   0.439   1.529
10612SOL    HW132735   2.145   0.496   1.466
10612SOL    HW232736   2.036   0.374   1.476
10613SOL     OW32737   1.403   6.457   0.205
10613SOL    HW132738   1.501   6.476   0.203
10613SOL    HW232739   1.387   6.359   0.212
10614SOL     OW32740   0.538   1.166   2.909
10614SOL    HW132741   0.540   1.066   2.903
10614SOL    HW232742   0.550   1.205   2.818
10615SOL     OW32743   0.499   6.310   5.683
10615SOL    HW132744   0.562   6.353   5.747
10615SOL    HW232745   0.412   6.292   5.730
10616SOL     OW32746   3.613   5.412   1.635
10616SOL    HW132747   3.579   5.322   1.663
10616SOL    HW232748   3.586   5.429   1.540
10617SOL     OW32749   6.118   2.159   6.395
10617SOL    HW132750   6.190   2.116   6.449
10617SOL    HW232751   6.150   2.172   6.302
10618SOL     OW32752   6.963   4.129   1.073
10618SOL    HW132753   6.896   4.152   1.003
10618SOL    HW232754   6.917   4.115   1.161
10619SOL     OW32755   0.359   3.580   3.992
10619SOL    HW132756   0.286   3.548   3.932
10619SOL    HW232757   0.348   3.540   4.083
10620SOL     OW32758   1.614   5.046   3.729
10620SOL    HW132759   1.690   4.986   3.708
10620SOL    HW232760   1.622   5.081   3.822
10621SOL     OW32761   3.615   1.006   0.658
10621SOL    HW132762   3.535   1.034   0.605
10621SOL    HW232763   3.585   0.956   0.739
10622SOL     OW32764   4.517   2.230   0.745
10622SOL    HW132765   4.527   2.245   0.844
10622SOL    HW232766   4.600   2.260   0.698
10623SOL     OW32767   6.832   1.550   4.189
10623SOL    HW132768   6.856   1.479   4.255
10623SOL    HW232769   6.760   1.609   4.228
10624SOL     OW32770   2.332   1.616   3.793
10624SOL    HW132771   2.396   1.691   3.807
10624SOL    HW232772   2.262   1.643   3.727
10625SOL     OW32773   0.940   2.606   1.466
10625SOL    HW132774   0.851   2.647   1.449
10625SOL    HW232775   0.990   2.600   1.380
10626SOL     OW32776   0.174   2.149   3.212
10626SOL    HW132777   0.182   2.161   3.311
10626SOL    HW232778   0.249   2.092   3.180
10627SOL     OW32779   3.114   5.508   4.507
10627SOL    HW132780   3.048   5.471   4.442
10627SOL    HW232781   3.195   5.540   4.458
10628SOL     OW32782   0.457   0.179   5.135
10628SOL    HW132783   0.477   0.150   5.041
10628SOL    HW232784   0.411   0.268   5.134
10629SOL     OW32785   3.272   4.330   6.856
10629SOL    HW132786   3.182   4.298   6.827
10629SOL    HW232787   3.263   4.421   6.896
10630SOL     OW32788   5.505   1.382   1.696
10630SOL    HW132789   5.508   1.282   1.705
10630SOL    HW232790   5.515   1.407   1.600
10631SOL     OW32791   1.606   0.005   4.165
10631SOL    HW132792   1.678   6.963   4.196
10631SOL    HW232793   1.521   7.004   4.213
10632SOL     OW32794   6.765   2.976   0.383
10632SOL    HW132795   6.842   2.926   0.423
10632SOL    HW232796   6.768   2.967   0.284
10633SOL     OW32797   1.610   4.846   6.744
10633SOL    HW132798   1.680   4.903   6.786
10633SOL    HW232799   1.610   4.756   6.786
10634SOL     OW32800   3.251   6.220   2.472
10634SOL    HW132801   3.258   6.247   2.376
10634SOL    HW232802   3.225   6.123   2.477
10635SOL     OW32803   0.787   0.371   1.453
10635SOL    HW132804   0.736   0.446   1.412
10635SOL    HW232805   0.885   0.387   1.441
10636SOL     OW32806   5.107   1.803   6.883
10636SOL    HW132807   5.123   1.746   6.964
10636SOL    HW232808   5.052   1.883   6.909
10637SOL     OW32809   3.278   3.557   6.746
10637SOL    HW132810   3.302   3.626   6.814
10637SOL    HW232811   3.183   3.570   6.718
10638SOL     OW32812   6.887   1.357   5.513
10638SOL    HW132813   6.857   1.417   5.587
10638SOL    HW232814   6.856   1.263   5.531
10639SOL     OW32815   3.431   1.821   4.490
10639SOL    HW132816   3.377   1.897   4.526
10639SOL    HW232817   3.438   1.749   4.559
10640SOL     OW32818   4.858   6.367   0.816
10640SOL    HW132819   4.830   6.276   0.846
10640SOL    HW232820   4.896   6.418   0.893
10641SOL     OW32821   3.475   6.559   6.880
10641SOL    HW132822   3.496   6.637   6.821
10641SOL    HW232823   3.419   6.589   6.957
10642SOL     OW32824   0.347   6.128   2.163
10642SOL    HW132825   0.325   6.081   2.249
10642SOL    HW232826   0.293   6.212   2.156
10643SOL     OW32827   3.562   3.635   6.161
10643SOL    HW132828   3.471   3.663   6.193
10643SOL    HW232829   3.552   3.569   6.087
10644SOL     OW32830   4.173   1.400   5.168
10644SOL    HW132831   4.176   1.499   5.154
10644SOL    HW232832   4.144   1.380   5.262
10645SOL     OW32833   1.923   0.890   3.098
10645SOL    HW132834   1.947   0.828   3.023
10645SOL    HW232835   1.827   0.915   3.091
10646SOL     OW32836   6.637   4.743   6.381
10646SOL    HW132837   6.682   4.832   6.367
10646SOL    HW232838   6.680   4.696   6.458
10647SOL     OW32839   6.222   6.218   1.220
10647SOL    HW132840   6.124   6.211   1.205
10647SOL    HW232841   6.257   6.129   1.251
10648SOL     OW32842   4.541   3.706   6.152
10648SOL    HW132843   4.473   3.672   6.217
10648SOL    HW232844   4.524   3.666   6.062
10649SOL     OW32845   6.488   4.619   6.180
10649SOL    HW132846   6.512   4.686   6.251
10649SOL    HW232847   6.461   4.533   6.223
10650SOL     OW32848   1.784   0.436   5.714
10650SOL    HW132849   1.779   0.364   5.783
10650SOL    HW232850   1.880   0.453   5.690
10651SOL     OW32851   1.432   0.560   5.859
10651SOL    HW132852   1.494   0.559   5.937
10651SOL    HW232853   1.402   0.466   5.839
10652SOL     OW32854   4.806   6.966   0.439
10652SOL    HW132855   4.854   6.882   0.466
10652SOL    HW232856   4.791   0.003   0.520
10653SOL     OW32857   6.137   4.281   3.689
10653SOL    HW132858   6.163   4.336   3.769
10653SOL    HW232859   6.152   4.184   3.710
10654SOL     OW32860   4.953   0.291   1.662
10654SOL    HW132861   4.979   0.285   1.758
10654SOL    HW232862   5.012   0.232   1.607
10655SOL     OW32863   2.946   5.988   1.033
10655SOL    HW132864   2.952   5.898   0.991
10655SOL    HW232865   2.868   5.992   1.095
10656SOL     OW32866   0.325   3.243   5.867
10656SOL    HW132867   0.373   3.326   5.897
10656SOL    HW232868   0.261   3.214   5.938
10657SOL     OW32869   6.087   0.174   6.991
10657SOL    HW132870   6.087   0.246   6.922
10657SOL    HW232871   5.994   0.136   6.999
10658SOL     OW32872   0.033   5.952   3.827
10658SOL    HW132873   0.107   5.976   3.764
10658SOL    HW232874   0.018   5.853   3.826
10659SOL     OW32875   5.754   1.358   1.291
10659SOL    HW132876   5.749   1.277   1.232
10659SOL    HW232877   5.671   1.363   1.347
10660SOL     OW32878   4.115   5.122   4.842
10660SOL    HW132879   4.091   5.069   4.761
10660SOL    HW232880   4.125   5.061   4.921
10661SOL     OW32881   0.072   0.835   2.076
10661SOL    HW132882   0.137   0.886   2.020
10661SOL    HW232883   0.067   0.741   2.043
10662SOL     OW32884   0.534   2.442   0.428
10662SOL    HW132885   0.502   2.362   0.378
10662SOL    HW232886   0.616   2.418   0.481
10663SOL     OW32887   1.002   2.492   2.563
10663SOL    HW132888   0.977   2.414   2.506
10663SOL    HW232889   0.998   2.576   2.509
10664SOL     OW32890   2.088   5.312   6.453
10664SOL    HW132891   2.062   5.314   6.550
10664SOL    HW232892   2.107   5.217   6.426
10665SOL     OW32893   5.841   2.098   6.506
10665SOL    HW132894   5.853   2.107   6.605
10665SOL    HW232895   5.930   2.107   6.461
10666SOL     OW32896   0.275   6.092   0.625
10666SOL    HW132897   0.339   6.020   0.653
10666SOL    HW232898   0.252   6.080   0.528
10667SOL     OW32899   3.384   2.396   5.510
10667SOL    HW132900   3.298   2.360   5.474
10667SOL    HW232901   3.392   2.493   5.487
10668SOL     OW32902   1.353   6.903   6.479
10668SOL    HW132903   1.403   6.953   6.550
10668SOL    HW232904   1.382   6.807   6.479
10669SOL     OW32905   2.114   5.660   6.269
10669SOL    HW132906   2.198   5.616   6.300
10669SOL    HW232907   2.065   5.598   6.208
10670SOL     OW32908   5.854   4.078   5.624
10670SOL    HW132909   5.759   4.048   5.635
10670SOL    HW232910   5.860   4.141   5.547
10671SOL     OW32911   2.238   2.695   3.498
10671SOL    HW132912   2.245   2.732   3.405
10671SOL    HW232913   2.163   2.739   3.546
10672SOL     OW32914   6.732   2.544   0.705
10672SOL    HW132915   6.649   2.594   0.732
10672SOL    HW232916   6.760   2.574   0.614
10673SOL     OW32917   3.232   3.950   3.611
10673SOL    HW132918   3.326   3.925   3.585
10673SOL    HW232919   3.170   3.934   3.535
10674SOL     OW32920   3.870   1.504   2.518
10674SOL    HW132921   3.794   1.497   2.583
10674SOL    HW232922   3.925   1.585   2.541
10675SOL     OW32923   1.275   1.821   5.441
10675SOL    HW132924   1.303   1.913   5.412
10675SOL    HW232925   1.347   1.781   5.498
10676SOL     OW32926   6.261   1.021   6.943
10676SOL    HW132927   6.312   0.936   6.940
10676SOL    HW232928   6.251   1.058   6.850
10677SOL     OW32929   4.930   0.630   6.377
10677SOL    HW132930   4.952   0.633   6.279
10677SOL    HW232931   5.009   0.592   6.427
10678SOL     OW32932   2.328   5.703   3.902
10678SOL    HW132933   2.364   5.610   3.897
10678SOL    HW232934   2.254   5.707   3.969
10679SOL     OW32935   6.053   5.165   4.057
10679SOL    HW132936   6.047   5.251   4.106
10679SOL    HW232937   5.964   5.143   4.017
10680SOL     OW32938   0.255   2.402   3.540
10680SOL    HW132939   0.311   2.391   3.458
10680SOL    HW232940   0.245   2.499   3.561
10681SOL     OW32941   0.689   3.038   6.782
10681SOL    HW132942   0.760   3.028   6.712
10681SOL    HW232943   0.669   2.948   6.821
10682SOL     OW32944   6.220   2.332   3.621
10682SOL    HW132945   6.235   2.236   3.643
10682SOL    HW232946   6.307   2.375   3.596
10683SOL     OW32947   0.741   0.381   4.120
10683SOL    HW132948   0.779   0.437   4.193
10683SOL    HW232949   0.692   0.304   4.159
10684SOL     OW32950   5.313   6.127   0.775
10684SOL    HW132951   5.275   6.210   0.815
10684SOL    HW232952   5.253   6.094   0.702
10685SOL     OW32953   6.664   2.314   3.736
10685SOL    HW132954   6.577   2.352   3.768
10685SOL    HW232955   6.674   2.221   3.770
10686SOL     OW32956   5.704   4.310   1.489
10686SOL    HW132957   5.622   4.312   1.433
10686SOL    HW232958   5.756   4.227   1.471
10687SOL     OW32959   0.501   5.051   1.073
10687SOL    HW132960   0.566   5.090   1.138
10687SOL    HW232961   0.408   5.079   1.097
10688SOL     OW32962   1.885   5.167   1.248
10688SOL    HW132963   1.882   5.094   1.179
10688SOL    HW232964   1.876   5.256   1.204
10689SOL     OW32965   0.063   0.707   1.711
10689SOL    HW132966   0.036   0.802   1.725
10689SOL    HW232967   0.056   0.684   1.614
10690SOL     OW32968   3.728   0.495   2.738
10690SOL    HW132969   3.801   0.488   2.669
10690SOL    HW232970   3.690   0.587   2.736
10691SOL     OW32971   5.582   1.628   1.391
10691SOL    HW132972   5.621   1.636   1.483
10691SOL    HW232973   5.524   1.547   1.386
10692SOL     OW32974   5.726   6.522   4.108
10692SOL    HW132975   5.730   6.557   4.015
10692SOL    HW232976   5.649   6.563   4.156
10693SOL     OW32977   4.157   2.291   4.520
10693SOL    HW132978   4.087   2.243   4.468
10693SOL    HW232979   4.181   2.375   4.473
10694SOL     OW32980   2.981   6.557   0.311
10694SOL    HW132981   2.961   6.460   0.326
10694SOL    HW232982   3.073   6.578   0.344
10695SOL     OW32983   5.733   2.851   5.699
10695SOL    HW132984   5.653   2.845   5.760
10695SOL    HW232985   5.702   2.870   5.606
10696SOL     OW32986   6.728   0.716   1.152
10696SOL    HW132987   6.644   0.663   1.157
10696SOL    HW232988   6.727   0.773   1.070
10697SOL     OW32989   3.363   6.155   2.944
10697SOL    HW132990   3.312   6.237   2.920
10697SOL    HW232991   3.301   6.077   2.949
10698SOL     OW32992   4.033   6.800   3.798
10698SOL    HW132993   3.982   6.811   3.713
10698SOL    HW232994   4.090   6.718   3.792
10699SOL     OW32995   0.121   4.003   3.236
10699SOL    HW132996   0.054   4.065   3.196
10699SOL    HW232997   0.075   3.939   3.297
10700SOL     OW32998   0.389   2.716   3.253
10700SOL    HW132999   0.379   2.674   3.163
10700SOL    HW233000   0.342   2.661   3.322
10701SOL     OW33001   2.472   6.745   1.811
10701SOL    HW133002   2.475   6.839   1.776
10701SOL    HW233003   2.381   6.727   1.849
10702SOL     OW33004   4.845   1.714   1.312
10702SOL    HW133005   4.922   1.776   1.295
10702SOL    HW233006   4.759   1.761   1.292
10703SOL     OW33007   3.406   4.177   4.628
10703SOL    HW133008   3.426   4.187   4.726
10703SOL    HW233009   3.312   4.147   4.616
10704SOL     OW33010   5.349   5.063   1.295
10704SOL    HW133011   5.274   5.032   1.237
10704SOL    HW233012   5.433   5.015   1.270
10705SOL     OW33013   1.247   3.093   0.040
10705SOL    HW133014   1.265   2.995   0.041
10705SOL    HW233015   1.149   3.109   0.040
10706SOL     OW33016   2.943   3.304   0.241
10706SOL    HW133017   2.995   3.348   0.168
10706SOL    HW233018   3.005   3.256   0.303
10707SOL     OW33019   6.444   0.945   6.617
10707SOL    HW133020   6.521   0.911   6.671
10707SOL    HW233021   6.382   0.870   6.596
10708SOL     OW33022   4.380   3.334   1.362
10708SOL    HW133023   4.363   3.238   1.385
10708SOL    HW233024   4.358   3.392   1.440
10709SOL     OW33025   0.903   1.318   5.832
10709SOL    HW133026   0.888   1.227   5.871
10709SOL    HW233027   0.949   1.376   5.900
10710SOL     OW33028   6.641   6.659   3.635
10710SOL    HW133029   6.575   6.584   3.625
10710SOL    HW233030   6.706   6.636   3.707
10711SOL     OW33031   2.076   4.115   5.194
10711SOL    HW133032   2.099   4.212   5.204
10711SOL    HW233033   2.157   4.064   5.169
10712SOL     OW33034   3.762   1.978   5.547
10712SOL    HW133035   3.825   1.963   5.624
10712SOL    HW233036   3.705   2.058   5.567
10713SOL     OW33037   2.571   0.277   0.083
10713SOL    HW133038   2.612   0.233   0.163
10713SOL    HW233039   2.472   0.284   0.097
10714SOL     OW33040   5.033   5.431   4.532
10714SOL    HW133041   5.004   5.437   4.628
10714SOL    HW233042   5.007   5.515   4.485
10715SOL     OW33043   5.653   6.904   2.680
10715SOL    HW133044   5.731   6.952   2.639
10715SOL    HW233045   5.608   6.849   2.610
10716SOL     OW33046   6.449   2.024   2.669
10716SOL    HW133047   6.379   2.061   2.607
10716SOL    HW233048   6.524   1.986   2.615
10717SOL     OW33049   0.167   6.628   0.915
10717SOL    HW133050   0.178   6.727   0.903
10717SOL    HW233051   0.117   6.591   0.837
10718SOL     OW33052   0.746   4.702   5.396
10718SOL    HW133053   0.839   4.730   5.373
10718SOL    HW233054   0.736   4.701   5.496
10719SOL     OW33055   3.729   6.482   3.349
10719SOL    HW133056   3.728   6.479   3.449
10719SOL    HW233057   3.820   6.506   3.318
10720SOL     OW33058   1.427   3.091   5.852
10720SOL    HW133059   1.520   3.113   5.822
10720SOL    HW233060   1.431   3.036   5.936
10721SOL     OW33061   5.474   0.913   4.355
10721SOL    HW133062   5.442   1.001   4.391
10721SOL    HW233063   5.409   0.877   4.289
10722SOL     OW33064   0.630   5.143   0.772
10722SOL    HW133065   0.571   5.065   0.750
10722SOL    HW233066   0.574   5.218   0.808
10723SOL     OW33067   0.019   4.996   5.992
10723SOL    HW133068   0.034   5.063   6.065
10723SOL    HW233069   7.003   4.911   6.031
10724SOL     OW33070   3.752   6.516   5.530
10724SOL    HW133071   3.800   6.472   5.453
10724SOL    HW233072   3.808   6.591   5.564
10725SOL     OW33073   6.517   0.146   4.848
10725SOL    HW133074   6.550   0.165   4.756
10725SOL    HW233075   6.443   0.079   4.844
10726SOL     OW33076   6.841   0.523   3.680
10726SOL    HW133077   6.843   0.536   3.779
10726SOL    HW233078   6.811   0.430   3.659
10727SOL     OW33079   5.386   5.865   5.917
10727SOL    HW133080   5.313   5.918   5.961
10727SOL    HW233081   5.427   5.804   5.984
10728SOL     OW33082   5.225   5.838   4.674
10728SOL    HW133083   5.259   5.913   4.731
10728SOL    HW233084   5.158   5.784   4.726
10729SOL     OW33085   6.525   3.458   4.334
10729SOL    HW133086   6.548   3.436   4.240
10729SOL    HW233087   6.446   3.404   4.363
10730SOL     OW33088   0.858   6.172   4.103
10730SOL    HW133089   0.944   6.191   4.149
10730SOL    HW233090   0.817   6.259   4.073
10731SOL     OW33091   5.151   4.029   5.386
10731SOL    HW133092   5.110   4.097   5.324
10731SOL    HW233093   5.082   3.997   5.451
10732SOL     OW33094   5.526   5.858   2.270
10732SOL    HW133095   5.506   5.784   2.334
10732SOL    HW233096   5.441   5.899   2.238
10733SOL     OW33097   0.850   1.641   6.074
10733SOL    HW133098   0.818   1.694   5.995
10733SOL    HW233099   0.851   1.699   6.155
10734SOL     OW33100   0.349   0.861   4.373
10734SOL    HW133101   0.256   0.874   4.408
10734SOL    HW233102   0.410   0.926   4.418
10735SOL     OW33103   0.605   0.839   2.017
10735SOL    HW133104   0.587   0.851   1.919
10735SOL    HW233105   0.622   0.928   2.059
10736SOL     OW33106   5.434   6.013   4.567
10736SOL    HW133107   5.519   5.968   4.595
10736SOL    HW233108   5.385   5.954   4.502
10737SOL     OW33109   5.688   1.093   0.515
10737SOL    HW133110   5.779   1.054   0.504
10737SOL    HW233111   5.649   1.062   0.602
10738SOL     OW33112   0.772   6.456   2.501
10738SOL    HW133113   0.865   6.420   2.495
10738SOL    HW233114   0.723   6.434   2.416
10739SOL     OW33115   5.269   2.834   4.075
10739SOL    HW133116   5.319   2.919   4.092
10739SOL    HW233117   5.331   2.756   4.088
10740SOL     OW33118   3.174   1.152   6.301
10740SOL    HW133119   3.233   1.100   6.362
10740SOL    HW233120   3.139   1.233   6.347
10741SOL     OW33121   2.398   2.688   3.755
10741SOL    HW133122   2.299   2.687   3.745
10741SOL    HW233123   2.441   2.701   3.665
10742SOL     OW33124   6.898   0.158   2.505
10742SOL    HW133125   6.828   0.227   2.489
10742SOL    HW233126   6.955   0.187   2.582
10743SOL     OW33127   3.873   2.634   6.177
10743SOL    HW133128   3.841   2.546   6.141
10743SOL    HW233129   3.947   2.669   6.120
10744SOL     OW33130   1.611   1.519   0.875
10744SOL    HW133131   1.597   1.579   0.796
10744SOL    HW233132   1.628   1.426   0.844
10745SOL     OW33133   3.998   5.511   2.251
10745SOL    HW133134   4.071   5.498   2.319
10745SOL    HW233135   3.986   5.609   2.235
10746SOL     OW33136   2.666   5.467   5.317
10746SOL    HW133137   2.765   5.458   5.311
10746SOL    HW233138   2.623   5.377   5.310
10747SOL     OW33139   6.822   0.026   5.170
10747SOL    HW133140   6.886   0.101   5.182
10747SOL    HW233141   6.728   0.060   5.180
10748SOL     OW33142   3.790   6.050   2.148
10748SOL    HW133143   3.716   6.104   2.107
10748SOL    HW233144   3.861   6.034   2.079
10749SOL     OW33145   5.126   2.458   2.331
10749SOL    HW133146   5.130   2.359   2.324
10749SOL    HW233147   5.064   2.494   2.260
10750SOL     OW33148   3.675   1.874   3.998
10750SOL    HW133149   3.609   1.890   4.071
10750SOL    HW233150   3.661   1.941   3.925
10751SOL     OW33151   5.678   6.224   3.721
10751SOL    HW133152   5.653   6.132   3.692
10751SOL    HW233153   5.665   6.287   3.645
10752SOL     OW33154   6.943   6.244   6.421
10752SOL    HW133155   6.916   6.152   6.395
10752SOL    HW233156   0.001   6.241   6.482
10753SOL     OW33157   5.025   0.002   4.775
10753SOL    HW133158   5.015   0.000   4.676
10753SOL    HW233159   5.104   6.966   4.801
10754SOL     OW33160   6.357   5.765   1.692
10754SOL    HW133161   6.379   5.820   1.612
10754SOL    HW233162   6.266   5.723   1.681
10755SOL     OW33163   0.634   1.359   2.360
10755SOL    HW133164   0.610   1.398   2.271
10755SOL    HW233165   0.578   1.401   2.431
10756SOL     OW33166   1.000   6.716   6.999
10756SOL    HW133167   1.063   6.708   6.922
10756SOL    HW233168   0.907   6.729   6.964
10757SOL     OW33169   6.943   2.214   2.248
10757SOL    HW133170   6.964   2.223   2.150
10757SOL    HW233171   6.872   2.145   2.261
10758SOL     OW33172   0.188   1.496   1.258
10758SOL    HW133173   0.268   1.473   1.203
10758SOL    HW233174   0.217   1.546   1.340
10759SOL     OW33175   3.764   5.223   5.637
10759SOL    HW133176   3.731   5.130   5.624
10759SOL    HW233177   3.693   5.288   5.610
10760SOL     OW33178   1.219   4.743   6.440
10760SOL    HW133179   1.135   4.702   6.478
10760SOL    HW233180   1.274   4.781   6.515
10761SOL     OW33181   1.778   0.828   6.906
10761SOL    HW133182   1.771   0.915   6.859
10761SOL    HW233183   1.696   0.813   6.962
10762SOL     OW33184   1.657   5.347   0.968
10762SOL    HW133185   1.565   5.369   0.937
10762SOL    HW233186   1.704   5.293   0.897
10763SOL     OW33187   5.421   1.340   1.985
10763SOL    HW133188   5.461   1.397   1.913
10763SOL    HW233189   5.326   1.366   2.000
10764SOL     OW33190   5.199   6.798   4.167
10764SOL    HW133191   5.110   6.842   4.156
10764SOL    HW233192   5.186   6.702   4.191
10765SOL     OW33193   0.268   2.830   2.018
10765SOL    HW133194   0.248   2.927   2.010
10765SOL    HW233195   0.252   2.800   2.112
10766SOL     OW33196   3.380   5.665   6.784
10766SOL    HW133197   3.378   5.670   6.884
10766SOL    HW233198   3.287   5.671   6.749
10767SOL     OW33199   0.812   5.665   6.939
10767SOL    HW133200   0.821   5.761   6.965
10767SOL    HW233201   0.838   5.654   6.843
10768SOL     OW33202   6.365   6.440   6.871
10768SOL    HW133203   6.299   6.410   6.940
10768SOL    HW233204   6.408   6.360   6.829
10769SOL     OW33205   2.911   3.610   4.683
10769SOL    HW133206   2.950   3.525   4.646
10769SOL    HW233207   2.864   3.590   4.769
10770SOL     OW33208   4.651   0.580   4.312
10770SOL    HW133209   4.567   0.613   4.269
10770SOL    HW233210   4.631   0.546   4.404
10771SOL     OW33211   5.124   6.424   5.686
10771SOL    HW133212   5.087   6.513   5.658
10771SOL    HW233213   5.208   6.406   5.634
10772SOL     OW33214   4.934   3.507   4.103
10772SOL    HW133215   4.906   3.595   4.143
10772SOL    HW233216   4.954   3.442   4.176
10773SOL     OW33217   0.854   3.564   0.333
10773SOL    HW133218   0.928   3.559   0.267
10773SOL    HW233219   0.889   3.596   0.421
10774SOL     OW33220   6.647   2.836   1.158
10774SOL    HW133221   6.606   2.856   1.247
10774SOL    HW233222   6.637   2.916   1.098
10775SOL     OW33223   1.907   4.315   6.144
10775SOL    HW133224   1.948   4.406   6.152
10775SOL    HW233225   1.882   4.282   6.235
10776SOL     OW33226   0.270   3.668   3.568
10776SOL    HW133227   0.330   3.725   3.624
10776SOL    HW233228   0.309   3.659   3.477
10777SOL     OW33229   0.580   6.718   1.656
10777SOL    HW133230   0.676   6.710   1.681
10777SOL    HW233231   0.555   6.814   1.648
10778SOL     OW33232   4.902   6.688   3.271
10778SOL    HW133233   4.944   6.775   3.296
10778SOL    HW233234   4.880   6.636   3.353
10779SOL     OW33235   5.655   2.646   5.236
10779SOL    HW133236   5.706   2.597   5.307
10779SOL    HW233237   5.709   2.650   5.153
10780SOL     OW33238   0.987   5.796   4.667
10780SOL    HW133239   1.014   5.741   4.746
10780SOL    HW233240   0.962   5.736   4.591
10781SOL     OW33241   6.213   2.900   5.763
10781SOL    HW133242   6.144   2.964   5.732
10781SOL    HW233243   6.296   2.951   5.788
10782SOL     OW33244   1.881   3.244   4.822
10782SOL    HW133245   1.830   3.190   4.756
10782SOL    HW233246   1.820   3.273   4.896
10783SOL     OW33247   1.552   4.019   4.408
10783SOL    HW133248   1.512   4.105   4.378
10783SOL    HW233249   1.652   4.025   4.404
10784SOL     OW33250   4.636   5.758   3.522
10784SOL    HW133251   4.596   5.835   3.572
10784SOL    HW233252   4.729   5.782   3.494
10785SOL     OW33253   1.570   5.639   2.030
10785SOL    HW133254   1.655   5.588   2.034
10785SOL    HW233255   1.492   5.576   2.031
10786SOL     OW33256   4.864   1.171   2.467
10786SOL    HW133257   4.779   1.204   2.508
10786SOL    HW233258   4.917   1.121   2.536
10787SOL     OW33259   3.182   1.337   3.736
10787SOL    HW133260   3.184   1.358   3.639
10787SOL    HW233261   3.274   1.349   3.775
10788SOL     OW33262   1.428   2.671   6.652
10788SOL    HW133263   1.452   2.634   6.563
10788SOL    HW233264   1.456   2.767   6.657
10789SOL     OW33265   0.117   2.515   2.715
10789SOL    HW133266   0.207   2.549   2.688
10789SOL    HW233267   0.125   2.420   2.744
10790SOL     OW33268   6.845   3.392   4.338
10790SOL    HW133269   6.837   3.353   4.430
10790SOL    HW233270   6.845   3.491   4.343
10791SOL     OW33271   2.219   2.878   3.274
10791SOL    HW133272   2.120   2.881   3.287
10791SOL    HW233273   2.260   2.962   3.309
10792SOL     OW33274   2.993   1.005   1.754
10792SOL    HW133275   2.906   0.965   1.783
10792SOL    HW233276   3.018   0.968   1.664
10793SOL     OW33277   3.951   2.113   3.411
10793SOL    HW133278   3.991   2.108   3.503
10793SOL    HW233279   3.979   2.032   3.359
10794SOL     OW33280   4.884   2.830   0.057
10794SOL    HW133281   4.946   2.905   0.035
10794SOL    HW233282   4.869   2.827   0.156
10795SOL     OW33283   6.154   2.646   3.347
10795SOL    HW133284   6.056   2.663   3.341
10795SOL    HW233285   6.171   2.562   3.398
10796SOL     OW33286   6.827   2.248   6.696
10796SOL    HW133287   6.811   2.340   6.660
10796SOL    HW233288   6.924   2.225   6.685
10797SOL     OW33289   5.713   4.837   6.750
10797SOL    HW133290   5.777   4.890   6.806
10797SOL    HW233291   5.697   4.886   6.664
10798SOL     OW33292   2.718   5.852   0.456
10798SOL    HW133293   2.770   5.826   0.537
10798SOL    HW233294   2.746   5.796   0.378
10799SOL     OW33295   2.049   0.749   2.905
10799SOL    HW133296   2.121   0.693   2.946
10799SOL    HW233297   2.026   0.713   2.815
10800SOL     OW33298   1.078   0.383   5.426
10800SOL    HW133299   1.176   0.405   5.421
10800SOL    HW233300   1.055   0.316   5.355
10801SOL     OW33301   2.593   6.298   6.868
10801SOL    HW133302   2.581   6.281   6.966
10801SOL    HW233303   2.655   6.376   6.855
10802SOL     OW33304   1.171   5.079   3.425
10802SOL    HW133305   1.180   5.009   3.354
10802SOL    HW233306   1.232   5.057   3.501
10803SOL     OW33307   0.498   4.275   4.430
10803SOL    HW133308   0.451   4.361   4.413
10803SOL    HW233309   0.585   4.294   4.477
10804SOL     OW33310   5.264   5.282   6.074
10804SOL    HW133311   5.300   5.349   6.010
10804SOL    HW233312   5.268   5.191   6.033
10805SOL     OW33313   5.992   5.631   6.620
10805SOL    HW133314   5.994   5.636   6.720
10805SOL    HW233315   5.921   5.691   6.584
10806SOL     OW33316   6.513   3.035   5.119
10806SOL    HW133317   6.608   3.040   5.087
10806SOL    HW233318   6.505   3.084   5.205
10807SOL     OW33319   4.411   2.706   5.274
10807SOL    HW133320   4.333   2.673   5.220
10807SOL    HW233321   4.399   2.678   5.369
10808SOL     OW33322   0.686   2.334   0.972
10808SOL    HW133323   0.724   2.420   0.939
10808SOL    HW233324   0.607   2.353   1.030
10809SOL     OW33325   0.922   0.827   3.432
10809SOL    HW133326   0.919   0.799   3.528
10809SOL    HW233327   0.868   0.764   3.377
10810SOL     OW33328   1.935   1.790   6.191
10810SOL    HW133329   1.930   1.818   6.095
10810SOL    HW233330   1.916   1.869   6.249
10811SOL     OW33331   4.565   5.040   6.027
10811SOL    HW133332   4.583   4.986   6.109
10811SOL    HW233333   4.500   4.991   5.968
10812SOL     OW33334   6.622   3.219   2.289
10812SOL    HW133335   6.638   3.292   2.223
10812SOL    HW233336   6.642   3.131   2.248
10813SOL     OW33337   2.757   5.870   2.359
10813SOL    HW133338   2.702   5.952   2.369
10813SOL    HW233339   2.757   5.819   2.445
10814SOL     OW33340   2.089   6.006   4.327
10814SOL    HW133341   2.100   5.924   4.271
10814SOL    HW233342   2.037   5.983   4.409
10815SOL     OW33343   5.549   2.689   6.131
10815SOL    HW133344   5.554   2.730   6.040
10815SOL    HW233345   5.506   2.599   6.125
10816SOL     OW33346   2.119   2.642   1.139
10816SOL    HW133347   2.125   2.555   1.188
10816SOL    HW233348   2.027   2.654   1.102
10817SOL     OW33349   3.793   1.181   1.949
10817SOL    HW133350   3.723   1.240   1.907
10817SOL    HW233351   3.875   1.182   1.891
10818SOL     OW33352   4.503   3.454   5.639
10818SOL    HW133353   4.416   3.503   5.637
10818SOL    HW233354   4.517   3.408   5.551
10819SOL     OW33355   2.165   3.280   4.890
10819SOL    HW133356   2.072   3.254   4.866
10819SOL    HW233357   2.230   3.219   4.844
10820SOL     OW33358   0.545   6.205   5.059
10820SOL    HW133359   0.473   6.187   4.992
10820SOL    HW233360   0.559   6.124   5.115
10821SOL     OW33361   0.026   0.585   6.263
10821SOL    HW133362   0.006   0.500   6.312
10821SOL    HW233363   0.039   0.564   6.166
10822SOL     OW33364   0.099   5.455   5.903
10822SOL    HW133365   0.092   5.478   5.999
10822SOL    HW233366   0.136   5.533   5.852
10823SOL     OW33367   2.678   2.211   0.202
10823SOL    HW133368   2.646   2.306   0.205
10823SOL    HW233369   2.749   2.202   0.131
10824SOL     OW33370   5.024   1.607   4.634
10824SOL    HW133371   5.084   1.632   4.710
10824SOL    HW233372   5.059   1.645   4.549
10825SOL     OW33373   4.228   1.686   2.219
10825SOL    HW133374   4.218   1.587   2.210
10825SOL    HW233375   4.255   1.708   2.313
10826SOL     OW33376   0.280   3.494   0.670
10826SOL    HW133377   0.354   3.429   0.652
10826SOL    HW233378   0.232   3.514   0.584
10827SOL     OW33379   0.000   3.483   4.731
10827SOL    HW133380   0.011   3.502   4.634
10827SOL    HW233381   0.055   3.403   4.756
10828SOL     OW33382   3.262   4.576   6.970
10828SOL    HW133383   3.238   4.583   0.046
10828SOL    HW233384   3.360   4.593   6.959
10829SOL     OW33385   1.707   3.495   1.347
10829SOL    HW133386   1.799   3.476   1.379
10829SOL    HW233387   1.652   3.411   1.352
10830SOL     OW33388   6.506   0.713   3.529
10830SOL    HW133389   6.571   0.664   3.472
10830SOL    HW233390   6.516   0.812   3.514
10831SOL     OW33391   5.239   3.014   2.359
10831SOL    HW133392   5.146   3.049   2.351
10831SOL    HW233393   5.237   2.914   2.370
10832SOL     OW33394   1.553   2.783   2.486
10832SOL    HW133395   1.649   2.786   2.515
10832SOL    HW233396   1.512   2.873   2.499
10833SOL     OW33397   3.207   0.246   4.889
10833SOL    HW133398   3.241   0.238   4.983
10833SOL    HW233399   3.113   0.213   4.885
10834SOL     OW33400   6.602   2.483   5.797
10834SOL    HW133401   6.506   2.463   5.778
10834SOL    HW233402   6.636   2.549   5.730
10835SOL     OW33403   0.621   0.959   0.778
10835SOL    HW133404   0.712   0.968   0.737
10835SOL    HW233405   0.552   0.951   0.706
10836SOL     OW33406   0.154   1.026   1.360
10836SOL    HW133407   0.098   0.995   1.436
10836SOL    HW233408   0.177   0.948   1.301
10837SOL     OW33409   1.654   4.971   0.571
10837SOL    HW133410   1.753   4.986   0.571
10837SOL    HW233411   1.629   4.913   0.649
10838SOL     OW33412   6.262   6.578   1.050
10838SOL    HW133413   6.261   6.482   1.076
10838SOL    HW233414   6.262   6.635   1.132
10839SOL     OW33415   2.535   1.403   6.525
10839SOL    HW133416   2.467   1.353   6.473
10839SOL    HW233417   2.519   1.391   6.623
10840SOL     OW33418   0.888   0.756   3.692
10840SOL    HW133419   0.945   0.803   3.760
10840SOL    HW233420   0.795   0.794   3.694
10841SOL     OW33421   4.430   4.281   0.021
10841SOL    HW133422   4.499   4.344   7.006
10841SOL    HW233423   4.388   4.320   0.104
10842SOL     OW33424   6.022   1.749   2.437
10842SOL    HW133425   5.970   1.724   2.519
10842SOL    HW233426   6.021   1.672   2.373
10843SOL     OW33427   1.024   2.319   1.415
10843SOL    HW133428   1.114   2.289   1.384
10843SOL    HW233429   1.034   2.382   1.492
10844SOL     OW33430   4.346   6.425   3.348
10844SOL    HW133431   4.301   6.336   3.359
10844SOL    HW233432   4.301   6.493   3.405
10845SOL     OW33433   2.515   3.579   1.160
10845SOL    HW133434   2.593   3.522   1.186
10845SOL    HW233435   2.430   3.527   1.170
10846SOL     OW33436   2.968   1.660   1.993
10846SOL    HW133437   3.021   1.744   1.999
10846SOL    HW233438   3.005   1.592   2.056
10847SOL     OW33439   5.346   2.106   4.864
10847SOL    HW133440   5.348   2.022   4.810
10847SOL    HW233441   5.378   2.086   4.957
10848SOL     OW33442   2.342   0.084   6.371
10848SOL    HW133443   2.362   7.018   6.418
10848SOL    HW233444   2.269   0.069   6.305
10849SOL     OW33445   0.606   4.568   5.209
10849SOL    HW133446   0.682   4.597   5.267
10849SOL    HW233447   0.570   4.646   5.158
10850SOL     OW33448   6.218   0.999   3.487
10850SOL    HW133449   6.174   1.025   3.401
10850SOL    HW233450   6.165   1.034   3.564
10851SOL     OW33451   5.042   2.981   0.619
10851SOL    HW133452   4.973   2.943   0.681
10851SOL    HW233453   5.095   2.906   0.579
10852SOL     OW33454   6.111   1.706   5.715
10852SOL    HW133455   6.022   1.752   5.721
10852SOL    HW233456   6.170   1.757   5.653
10853SOL     OW33457   1.396   6.714   5.614
10853SOL    HW133458   1.410   6.615   5.625
10853SOL    HW233459   1.456   6.748   5.541
10854SOL     OW33460   5.857   6.457   0.106
10854SOL    HW133461   5.827   6.505   0.187
10854SOL    HW233462   5.825   6.505   0.024
10855SOL     OW33463   0.291   6.420   6.986
10855SOL    HW133464   0.232   6.490   0.005
10855SOL    HW233465   0.349   6.380   0.037
10856SOL     OW33466   4.271   0.096   6.383
10856SOL    HW133467   4.358   0.142   6.403
10856SOL    HW233468   4.203   0.163   6.355
10857SOL     OW33469   5.993   6.708   4.771
10857SOL    HW133470   5.973   6.667   4.860
10857SOL    HW233471   5.940   6.662   4.700
10858SOL     OW33472   1.622   2.535   1.500
10858SOL    HW133473   1.709   2.489   1.481
10858SOL    HW233474   1.606   2.533   1.599
10859SOL     OW33475   2.278   4.909   2.363
10859SOL    HW133476   2.306   4.971   2.436
10859SOL    HW233477   2.203   4.851   2.396
10860SOL     OW33478   5.797   1.342   2.447
10860SOL    HW133479   5.700   1.317   2.448
10860SOL    HW233480   5.840   1.308   2.363
10861SOL     OW33481   2.690   4.644   1.082
10861SOL    HW133482   2.752   4.636   1.004
10861SOL    HW233483   2.729   4.599   1.162
10862SOL     OW33484   3.505   4.679   5.564
10862SOL    HW133485   3.407   4.692   5.583
10862SOL    HW233486   3.559   4.716   5.640
10863SOL     OW33487   0.264   0.496   4.446
10863SOL    HW133488   0.198   0.421   4.458
10863SOL    HW233489   0.222   0.582   4.476
10864SOL     OW33490   2.950   3.353   2.460
10864SOL    HW133491   3.002   3.301   2.392
10864SOL    HW233492   2.951   3.304   2.547
10865SOL     OW33493   3.727   2.095   2.471
10865SOL    HW133494   3.770   2.042   2.544
10865SOL    HW233495   3.797   2.133   2.411
10866SOL     OW33496   0.442   3.398   5.051
10866SOL    HW133497   0.485   3.441   5.130
10866SOL    HW233498   0.343   3.396   5.064
10867SOL     OW33499   5.275   3.153   0.590
10867SOL    HW133500   5.231   3.242   0.601
10867SOL    HW233501   5.206   3.081   0.596
10868SOL     OW33502   6.674   0.773   6.061
10868SOL    HW133503   6.635   0.681   6.056
10868SOL    HW233504   6.746   0.782   5.992
10869NA      NA33505   6.802   1.693   0.183
10870NA      NA33506   5.034   4.600   4.761
10871NA      NA33507   1.292   4.712   2.757
10872NA      NA33508   6.505   3.620   3.647
10873NA      NA33509   4.278   2.357   5.261
10874NA      NA33510   2.714   3.580   6.865
10875NA      NA33511   1.352   5.247   0.367
10876NA      NA33512   4.295   4.822   1.968
10877NA      NA33513   5.634   3.636   1.068
10878NA      NA33514   3.731   1.928   0.880
10879NA      NA33515   4.910   6.113   1.346
10880NA      NA33516   2.649   6.443   4.197
10881NA      NA33517   3.472   5.802   2.888
10882NA      NA33518   4.604   5.089   5.542
   7.02026   7.02026   7.02026
