Generated by trjconv : CNT in water t= 378.00000
33518
    1C        C    1   2.842   2.770   4.745
    1C        C    2   2.900   2.724   4.866
    1C        C    3   2.844   2.776   4.983
    1C        C    4   2.853   2.780   4.259
    1C        C    5   2.900   2.728   4.382
    1C        C    6   2.845   2.773   4.504
    1C        C    7   3.013   2.641   4.626
    1C        C    8   2.894   2.718   4.625
    1C        C    9   3.077   2.602   4.745
    1C        C   10   3.005   2.629   4.863
    1C        C   11   3.179   2.491   4.978
    1C        C   12   3.059   2.563   4.974
    1C        C   13   2.850   2.771   3.772
    1C        C   14   2.902   2.722   3.894
    1C        C   15   2.853   2.778   4.014
    1C        C   16   3.020   2.649   4.139
    1C        C   17   2.904   2.730   4.137
    1C        C   18   3.083   2.618   4.262
    1C        C   19   3.017   2.650   4.383
    1C        C   20   3.209   2.559   4.504
    1C        C   21   3.077   2.609   4.504
    1C        C   22   3.278   2.537   4.625
    1C        C   23   3.209   2.548   4.748
    1C        C   24   3.413   2.487   4.863
    1C        C   25   3.270   2.502   4.868
    1C        C   26   3.489   2.488   4.981
    1C        C   27   2.846   2.770   3.281
    1C        C   28   2.898   2.721   3.403
    1C        C   29   2.849   2.767   3.527
    1C        C   30   3.018   2.642   3.647
    1C        C   31   2.900   2.720   3.650
    1C        C   32   3.078   2.608   3.771
    1C        C   33   3.016   2.640   3.894
    1C        C   34   3.209   2.554   4.015
    1C        C   35   3.081   2.612   4.017
    1C        C   36   3.277   2.538   4.138
    1C        C   37   3.213   2.562   4.261
    1C        C   38   3.419   2.513   4.379
    1C        C   39   3.279   2.538   4.383
    1C        C   40   3.487   2.501   4.502
    1C        C   41   3.415   2.504   4.623
    1C        C   42   3.630   2.480   4.747
    1C        C   43   3.488   2.486   4.743
    1C        C   44   3.707   2.488   4.865
    1C        C   45   3.628   2.487   4.981
    1C        C   46   2.835   2.749   2.794
    1C        C   47   2.892   2.708   2.916
    1C        C   48   2.841   2.757   3.038
    1C        C   49   3.018   2.641   3.161
    1C        C   50   2.899   2.718   3.160
    1C        C   51   3.080   2.608   3.283
    1C        C   52   3.014   2.641   3.404
    1C        C   53   3.206   2.547   3.525
    1C        C   54   3.078   2.605   3.525
    1C        C   55   3.275   2.527   3.648
    1C        C   56   3.208   2.552   3.769
    1C        C   57   3.412   2.503   3.895
    1C        C   58   3.273   2.526   3.892
    1C        C   59   3.488   2.502   4.014
    1C        C   60   3.415   2.509   4.135
    1C        C   61   3.629   2.501   4.260
    1C        C   62   3.488   2.504   4.256
    1C        C   63   3.700   2.509   4.382
    1C        C   64   3.629   2.500   4.504
    1C        C   65   3.834   2.547   4.624
    1C        C   66   3.700   2.500   4.626
    1C        C   67   3.909   2.563   4.742
    1C        C   68   3.841   2.532   4.862
    1C        C   69   4.050   2.585   4.977
    1C        C   70   3.921   2.531   4.977
    1C        C   71   2.824   2.732   2.307
    1C        C   72   2.885   2.689   2.427
    1C        C   73   2.831   2.743   2.547
    1C        C   74   3.008   2.631   2.674
    1C        C   75   2.887   2.704   2.670
    1C        C   76   3.074   2.598   2.794
    1C        C   77   3.010   2.630   2.916
    1C        C   78   3.209   2.553   3.039
    1C        C   79   3.077   2.603   3.038
    1C        C   80   3.277   2.529   3.160
    1C        C   81   3.209   2.550   3.282
    1C        C   82   3.416   2.505   3.405
    1C        C   83   3.276   2.526   3.404
    1C        C   84   3.486   2.499   3.528
    1C        C   85   3.414   2.504   3.649
    1C        C   86   3.624   2.501   3.771
    1C        C   87   3.482   2.495   3.773
    1C        C   88   3.697   2.508   3.891
    1C        C   89   3.629   2.505   4.016
    1C        C   90   3.836   2.547   4.137
    1C        C   91   3.700   2.511   4.138
    1C        C   92   3.901   2.574   4.260
    1C        C   93   3.835   2.549   4.382
    1C        C   94   4.029   2.637   4.499
    1C        C   95   3.903   2.573   4.504
    1C        C   96   4.093   2.670   4.620
    1C        C   97   4.037   2.624   4.742
    1C        C   98   4.190   2.769   4.864
    1C        C   99   4.103   2.654   4.864
    1C        C  100   4.213   2.842   4.981
    1C        C  101   2.824   2.735   2.070
    1C        C  102   2.992   2.595   2.189
    1C        C  103   2.873   2.674   2.187
    1C        C  104   3.065   2.574   2.309
    1C        C  105   3.004   2.614   2.431
    1C        C  106   3.200   2.537   2.551
    1C        C  107   3.069   2.588   2.554
    1C        C  108   3.270   2.520   2.673
    1C        C  109   3.205   2.544   2.795
    1C        C  110   3.413   2.497   2.918
    1C        C  111   3.275   2.529   2.917
    1C        C  112   3.487   2.492   3.039
    1C        C  113   3.417   2.507   3.160
    1C        C  114   3.629   2.495   3.281
    1C        C  115   3.488   2.503   3.283
    1C        C  116   3.697   2.504   3.404
    1C        C  117   3.627   2.494   3.526
    1C        C  118   3.832   2.542   3.647
    1C        C  119   3.695   2.508   3.649
    1C        C  120   3.900   2.567   3.768
    1C        C  121   3.834   2.539   3.890
    1C        C  122   4.025   2.632   4.014
    1C        C  123   3.898   2.570   4.012
    1C        C  124   4.087   2.674   4.134
    1C        C  125   4.027   2.639   4.256
    1C        C  126   4.199   2.765   4.378
    1C        C  127   4.087   2.680   4.378
    1C        C  128   4.252   2.816   4.499
    1C        C  129   4.197   2.765   4.619
    1C        C  130   4.324   2.935   4.741
    1C        C  131   4.243   2.818   4.742
    1C        C  132   4.357   3.001   4.861
    1C        C  133   4.283   2.962   4.974
    1C        C  134   3.174   2.466   2.083
    1C        C  135   3.040   2.508   2.086
    1C        C  136   3.263   2.482   2.190
    1C        C  137   3.197   2.522   2.308
    1C        C  138   3.405   2.479   2.427
    1C        C  139   3.266   2.506   2.430
    1C        C  140   3.479   2.482   2.548
    1C        C  141   3.409   2.492   2.670
    1C        C  142   3.619   2.496   2.791
    1C        C  143   3.478   2.486   2.793
    1C        C  144   3.695   2.502   2.911
    1C        C  145   3.628   2.492   3.035
    1C        C  146   3.832   2.540   3.155
    1C        C  147   3.698   2.497   3.157
    1C        C  148   3.899   2.565   3.277
    1C        C  149   3.834   2.540   3.400
    1C        C  150   4.027   2.621   3.522
    1C        C  151   3.900   2.560   3.524
    1C        C  152   4.084   2.664   3.644
    1C        C  153   4.024   2.635   3.769
    1C        C  154   4.193   2.762   3.888
    1C        C  155   4.083   2.673   3.891
    1C        C  156   4.242   2.811   4.010
    1C        C  157   4.193   2.768   4.135
    1C        C  158   4.341   2.923   4.253
    1C        C  159   4.248   2.816   4.256
    1C        C  160   4.378   2.984   4.375
    1C        C  161   4.335   2.930   4.498
    1C        C  162   4.435   3.117   4.616
    1C        C  163   4.371   2.991   4.620
    1C        C  164   4.463   3.186   4.736
    1C        C  165   4.432   3.120   4.856
    1C        C  166   4.513   3.322   4.972
    1C        C  167   4.478   3.188   4.970
    1C        C  168   3.479   2.438   2.073
    1C        C  169   3.402   2.456   2.189
    1C        C  170   3.620   2.465   2.307
    1C        C  171   3.478   2.461   2.308
    1C        C  172   3.694   2.488   2.425
    1C        C  173   3.620   2.491   2.545
    1C        C  174   3.825   2.540   2.668
    1C        C  175   3.688   2.508   2.668
    1C        C  176   3.900   2.554   2.787
    1C        C  177   3.832   2.534   2.910
    1C        C  178   4.025   2.623   3.032
    1C        C  179   3.899   2.560   3.032
    1C        C  180   4.087   2.659   3.154
    1C        C  181   4.027   2.623   3.277
    1C        C  182   4.198   2.746   3.399
    1C        C  183   4.086   2.660   3.400
    1C        C  184   4.249   2.797   3.521
    1C        C  185   4.192   2.756   3.643
    1C        C  186   4.335   2.916   3.765
    1C        C  187   4.244   2.808   3.764
    1C        C  188   4.373   2.977   3.886
    1C        C  189   4.334   2.919   4.009
    1C        C  190   4.435   3.108   4.127
    1C        C  191   4.378   2.979   4.129
    1C        C  192   4.465   3.175   4.247
    1C        C  193   4.437   3.112   4.371
    1C        C  194   4.507   3.313   4.488
    1C        C  195   4.465   3.179   4.492
    1C        C  196   4.525   3.385   4.609
    1C        C  197   4.514   3.319   4.733
    1C        C  198   4.558   3.535   4.851
    1C        C  199   4.532   3.394   4.853
    1C        C  200   4.580   3.623   4.962
    1C        C  201   3.617   2.413   2.074
    1C        C  202   3.828   2.510   2.184
    1C        C  203   3.695   2.458   2.186
    1C        C  204   3.901   2.534   2.304
    1C        C  205   3.832   2.516   2.426
    1C        C  206   4.024   2.613   2.545
    1C        C  207   3.896   2.553   2.546
    1C        C  208   4.085   2.653   2.666
    1C        C  209   4.023   2.623   2.790
    1C        C  210   4.200   2.744   2.911
    1C        C  211   4.087   2.658   2.910
    1C        C  212   4.251   2.794   3.032
    1C        C  213   4.198   2.747   3.155
    1C        C  214   4.333   2.910   3.274
    1C        C  215   4.247   2.798   3.277
    1C        C  216   4.366   2.972   3.396
    1C        C  217   4.331   2.912   3.519
    1C        C  218   4.429   3.101   3.639
    1C        C  219   4.369   2.973   3.640
    1C        C  220   4.453   3.171   3.759
    1C        C  221   4.430   3.106   3.882
    1C        C  222   4.503   3.307   4.002
    1C        C  223   4.459   3.173   4.003
    1C        C  224   4.515   3.380   4.122
    1C        C  225   4.507   3.310   4.245
    1C        C  226   4.520   3.524   4.364
    1C        C  227   4.519   3.382   4.366
    1C        C  228   4.518   3.597   4.485
    1C        C  229   4.532   3.526   4.607
    1C        C  230   4.500   3.737   4.725
    1C        C  231   4.538   3.600   4.727
    1C        C  232   4.492   3.819   4.840
    1C        C  233   4.549   3.759   4.954
    1C        C  234   4.022   2.601   2.069
    1C        C  235   3.899   2.536   2.066
    1C        C  236   4.094   2.634   2.184
    1C        C  237   4.028   2.598   2.304
    1C        C  238   4.199   2.733   2.423
    1C        C  239   4.084   2.650   2.422
    1C        C  240   4.256   2.778   2.545
    1C        C  241   4.201   2.733   2.666
    1C        C  242   4.336   2.901   2.784
    1C        C  243   4.250   2.789   2.786
    1C        C  244   4.373   2.963   2.906
    1C        C  245   4.338   2.905   3.030
    1C        C  246   4.442   3.092   3.148
    1C        C  247   4.375   2.967   3.152
    1C        C  248   4.457   3.160   3.271
    1C        C  249   4.428   3.099   3.395
    1C        C  250   4.489   3.304   3.514
    1C        C  251   4.452   3.168   3.516
    1C        C  252   4.508   3.375   3.635
    1C        C  253   4.496   3.306   3.758
    1C        C  254   4.522   3.517   3.879
    1C        C  255   4.517   3.375   3.879
    1C        C  256   4.516   3.593   3.998
    1C        C  257   4.516   3.521   4.119
    1C        C  258   4.487   3.731   4.242
    1C        C  259   4.516   3.593   4.241
    1C        C  260   4.473   3.803   4.363
    1C        C  261   4.491   3.735   4.486
    1C        C  262   4.421   3.938   4.604
    1C        C  263   4.476   3.808   4.605
    1C        C  264   4.398   4.010   4.723
    1C        C  265   4.432   3.946   4.844
    1C        C  266   4.317   4.129   4.959
    1C        C  267   4.395   4.014   4.961
    1C        C  268   4.262   2.768   2.066
    1C        C  269   4.197   2.730   2.184
    1C        C  270   4.352   2.885   2.301
    1C        C  271   4.257   2.779   2.303
    1C        C  272   4.386   2.951   2.421
    1C        C  273   4.343   2.889   2.541
    1C        C  274   4.444   3.080   2.661
    1C        C  275   4.380   2.954   2.661
    1C        C  276   4.469   3.148   2.782
    1C        C  277   4.438   3.088   2.906
    1C        C  278   4.502   3.295   3.025
    1C        C  279   4.469   3.157   3.026
    1C        C  280   4.509   3.364   3.148
    1C        C  281   4.491   3.297   3.271
    1C        C  282   4.511   3.512   3.391
    1C        C  283   4.502   3.371   3.391
    1C        C  284   4.512   3.585   3.512
    1C        C  285   4.516   3.516   3.636
    1C        C  286   4.491   3.727   3.753
    1C        C  287   4.511   3.588   3.758
    1C        C  288   4.471   3.796   3.875
    1C        C  289   4.485   3.731   3.999
    1C        C  290   4.435   3.938   4.116
    1C        C  291   4.473   3.802   4.121
    1C        C  292   4.402   4.001   4.238
    1C        C  293   4.424   3.935   4.361
    1C        C  294   4.329   4.129   4.479
    1C        C  295   4.393   4.003   4.481
    1C        C  296   4.286   4.191   4.598
    1C        C  297   4.328   4.134   4.720
    1C        C  298   4.199   4.312   4.838
    1C        C  299   4.280   4.193   4.840
    1C        C  300   4.173   4.404   4.944
    1C        C  301   4.347   2.878   2.066
    1C        C  302   4.469   3.067   2.177
    1C        C  303   4.397   2.943   2.179
    1C        C  304   4.484   3.138   2.299
    1C        C  305   4.451   3.076   2.421
    1C        C  306   4.510   3.285   2.537
    1C        C  307   4.473   3.148   2.541
    1C        C  308   4.517   3.356   2.659
    1C        C  309   4.499   3.286   2.780
    1C        C  310   4.516   3.501   2.899
    1C        C  311   4.510   3.360   2.900
    1C        C  312   4.514   3.573   3.021
    1C        C  313   4.516   3.505   3.145
    1C        C  314   4.491   3.717   3.262
    1C        C  315   4.511   3.578   3.266
    1C        C  316   4.476   3.789   3.383
    1C        C  317   4.487   3.724   3.508
    1C        C  318   4.431   3.929   3.627
    1C        C  319   4.475   3.795   3.629
    1C        C  320   4.397   3.990   3.750
    1C        C  321   4.421   3.928   3.874
    1C        C  322   4.324   4.119   3.991
    1C        C  323   4.399   3.999   3.994
    1C        C  324   4.284   4.178   4.113
    1C        C  325   4.331   4.123   4.234
    1C        C  326   4.184   4.278   4.354
    1C        C  327   4.290   4.185   4.355
    1C        C  328   4.138   4.339   4.473
    1C        C  329   4.188   4.292   4.597
    1C        C  330   4.022   4.433   4.714
    1C        C  331   4.135   4.347   4.716
    1C        C  332   3.971   4.492   4.831
    1C        C  333   4.050   4.470   4.944
    1C        C  334   4.538   3.266   2.063
    1C        C  335   4.540   3.126   2.067
    1C        C  336   4.530   3.348   2.176
    1C        C  337   4.512   3.277   2.297
    1C        C  338   4.516   3.496   2.412
    1C        C  339   4.518   3.355   2.415
    1C        C  340   4.520   3.569   2.533
    1C        C  341   4.522   3.497   2.655
    1C        C  342   4.491   3.710   2.773
    1C        C  343   4.516   3.570   2.775
    1C        C  344   4.476   3.780   2.894
    1C        C  345   4.493   3.713   3.017
    1C        C  346   4.423   3.915   3.138
    1C        C  347   4.475   3.783   3.138
    1C        C  348   4.395   3.983   3.258
    1C        C  349   4.429   3.922   3.382
    1C        C  350   4.320   4.104   3.504
    1C        C  351   4.404   3.991   3.503
    1C        C  352   4.277   4.163   3.625
    1C        C  353   4.325   4.112   3.748
    1C        C  354   4.181   4.273   3.865
    1C        C  355   4.281   4.173   3.868
    1C        C  356   4.123   4.314   3.988
    1C        C  357   4.182   4.276   4.110
    1C        C  358   4.010   4.400   4.229
    1C        C  359   4.128   4.323   4.232
    1C        C  360   3.952   4.442   4.351
    1C        C  361   4.022   4.419   4.471
    1C        C  362   3.828   4.515   4.592
    1C        C  363   3.959   4.462   4.590
    1C        C  364   3.762   4.550   4.712
    1C        C  365   3.838   4.542   4.830
    1C        C  366   3.629   4.591   4.947
    1C        C  367   3.767   4.573   4.947
    1C        C  368   4.506   3.564   2.052
    1C        C  369   4.518   3.489   2.170
    1C        C  370   4.493   3.705   2.289
    1C        C  371   4.504   3.564   2.289
    1C        C  372   4.481   3.780   2.407
    1C        C  373   4.500   3.709   2.528
    1C        C  374   4.426   3.909   2.648
    1C        C  375   4.477   3.777   2.650
    1C        C  376   4.395   3.973   2.770
    1C        C  377   4.429   3.914   2.894
    1C        C  378   4.329   4.103   3.015
    1C        C  379   4.397   3.979   3.015
    1C        C  380   4.279   4.158   3.135
    1C        C  381   4.318   4.101   3.259
    1C        C  382   4.175   4.257   3.376
    1C        C  383   4.270   4.153   3.381
    1C        C  384   4.125   4.308   3.498
    1C        C  385   4.178   4.263   3.621
    1C        C  386   4.007   4.390   3.742
    1C        C  387   4.126   4.315   3.742
    1C        C  388   3.943   4.427   3.863
    1C        C  389   4.003   4.389   3.985
    1C        C  390   3.818   4.489   4.108
    1C        C  391   3.947   4.431   4.107
    1C        C  392   3.750   4.512   4.230
    1C        C  393   3.821   4.496   4.351
    1C        C  394   3.617   4.559   4.472
    1C        C  395   3.756   4.530   4.472
    1C        C  396   3.546   4.566   4.594
    1C        C  397   3.622   4.564   4.713
    1C        C  398   3.409   4.554   4.840
    1C        C  399   3.548   4.573   4.834
    1C        C  400   3.343   4.512   4.956
    1C        C  401   4.506   3.703   2.051
    1C        C  402   4.451   3.913   2.165
    1C        C  403   4.493   3.778   2.168
    1C        C  404   4.412   3.979   2.284
    1C        C  405   4.437   3.914   2.406
    1C        C  406   4.326   4.097   2.527
    1C        C  407   4.402   3.978   2.527
    1C        C  408   4.286   4.156   2.649
    1C        C  409   4.326   4.097   2.770
    1C        C  410   4.180   4.252   2.888
    1C        C  411   4.283   4.155   2.892
    1C        C  412   4.124   4.299   3.009
    1C        C  413   4.174   4.252   3.132
    1C        C  414   4.004   4.381   3.254
    1C        C  415   4.121   4.302   3.253
    1C        C  416   3.941   4.413   3.376
    1C        C  417   4.005   4.382   3.498
    1C        C  418   3.810   4.468   3.618
    1C        C  419   3.943   4.421   3.619
    1C        C  420   3.744   4.499   3.739
    1C        C  421   3.814   4.484   3.861
    1C        C  422   3.613   4.537   3.985
    1C        C  423   3.751   4.507   3.985
    1C        C  424   3.542   4.541   4.107
    1C        C  425   3.611   4.536   4.230
    1C        C  426   3.401   4.554   4.359
    1C        C  427   3.542   4.554   4.352
    1C        C  428   3.331   4.549   4.481
    1C        C  429   3.405   4.564   4.600
    1C        C  430   3.193   4.524   4.724
    1C        C  431   3.333   4.549   4.721
    1C        C  432   3.125   4.500   4.847
    1C        C  433   3.204   4.499   4.962
    1C        C  434   4.383   4.124   2.052
    1C        C  435   4.446   3.998   2.054
    1C        C  436   4.299   4.161   2.161
    1C        C  437   4.330   4.095   2.283
    1C        C  438   4.183   4.251   2.402
    1C        C  439   4.282   4.151   2.404
    1C        C  440   4.128   4.300   2.523
    1C        C  441   4.187   4.257   2.643
    1C        C  442   4.009   4.374   2.766
    1C        C  443   4.130   4.300   2.765
    1C        C  444   3.947   4.413   2.886
    1C        C  445   4.005   4.376   3.010
    1C        C  446   3.814   4.472   3.129
    1C        C  447   3.944   4.417   3.131
    1C        C  448   3.745   4.486   3.251
    1C        C  449   3.810   4.466   3.374
    1C        C  450   3.606   4.523   3.495
    1C        C  451   3.743   4.492   3.496
    1C        C  452   3.538   4.539   3.618
    1C        C  453   3.608   4.536   3.741
    1C        C  454   3.399   4.544   3.867
    1C        C  455   3.540   4.550   3.864
    1C        C  456   3.330   4.536   3.990
    1C        C  457   3.401   4.541   4.112
    1C        C  458   3.197   4.503   4.240
    1C        C  459   3.333   4.541   4.236
    1C        C  460   3.128   4.484   4.362
    1C        C  461   3.194   4.513   4.484
    1C        C  462   2.997   4.435   4.602
    1C        C  463   3.122   4.500   4.604
    1C        C  464   2.933   4.404   4.724
    1C        C  465   2.994   4.441   4.847
    1C        C  466   2.804   4.335   4.961
    1C        C  467   2.908   4.429   4.961
    1C        C  468   4.121   4.290   2.042
    1C        C  469   4.182   4.244   2.160
    1C        C  470   4.003   4.367   2.279
    1C        C  471   4.125   4.293   2.280
    1C        C  472   3.940   4.403   2.400
    1C        C  473   4.006   4.372   2.521
    1C        C  474   3.813   4.457   2.643
    1C        C  475   3.945   4.405   2.644
    1C        C  476   3.747   4.485   2.765
    1C        C  477   3.817   4.469   2.886
    1C        C  478   3.607   4.514   3.008
    1C        C  479   3.747   4.494   3.006
    1C        C  480   3.536   4.522   3.129
    1C        C  481   3.607   4.518   3.252
    1C        C  482   3.394   4.530   3.379
    1C        C  483   3.535   4.533   3.373
    1C        C  484   3.323   4.531   3.501
    1C        C  485   3.396   4.541   3.622
    1C        C  486   3.191   4.500   3.746
    1C        C  487   3.328   4.535   3.745
    1C        C  488   3.127   4.480   3.871
    1C        C  489   3.193   4.504   3.994
    1C        C  490   3.003   4.417   4.117
    1C        C  491   3.128   4.483   4.118
    1C        C  492   2.939   4.386   4.239
    1C        C  493   2.999   4.428   4.360
    1C        C  494   2.827   4.303   4.481
    1C        C  495   2.936   4.393   4.481
    1C        C  496   2.774   4.258   4.604
    1C        C  497   2.823   4.315   4.724
    1C        C  498   2.666   4.168   4.843
    1C        C  499   2.760   4.273   4.843
    1C        C  500   2.602   4.117   4.957
    1C        C  501   4.001   4.360   2.040
    1C        C  502   3.812   4.463   2.157
    1C        C  503   3.940   4.404   2.159
    1C        C  504   3.741   4.477   2.278
    1C        C  505   3.808   4.452   2.401
    1C        C  506   3.603   4.507   2.520
    1C        C  507   3.741   4.477   2.523
    1C        C  508   3.535   4.514   2.643
    1C        C  509   3.608   4.508   2.764
    1C        C  510   3.395   4.522   2.886
    1C        C  511   3.536   4.520   2.886
    1C        C  512   3.324   4.517   3.008
    1C        C  513   3.395   4.525   3.130
    1C        C  514   3.192   4.488   3.256
    1C        C  515   3.329   4.524   3.255
    1C        C  516   3.123   4.464   3.377
    1C        C  517   3.186   4.494   3.500
    1C        C  518   2.999   4.407   3.627
    1C        C  519   3.124   4.473   3.625
    1C        C  520   2.943   4.369   3.751
    1C        C  521   3.002   4.415   3.871
    1C        C  522   2.839   4.283   3.997
    1C        C  523   2.947   4.375   3.994
    1C        C  524   2.785   4.238   4.119
    1C        C  525   2.831   4.295   4.240
    1C        C  526   2.697   4.132   4.366
    1C        C  527   2.775   4.249   4.361
    1C        C  528   2.664   4.072   4.489
    1C        C  529   2.690   4.144   4.608
    1C        C  530   2.581   3.961   4.729
    1C        C  531   2.638   4.091   4.728
    1C        C  532   2.536   3.901   4.850
    1C        C  533   2.532   3.996   4.957
    1C        C  534   3.613   4.560   2.042
    1C        C  535   3.745   4.513   2.044
    1C        C  536   3.532   4.539   2.158
    1C        C  537   3.602   4.506   2.277
    1C        C  538   3.390   4.516   2.402
    1C        C  539   3.531   4.515   2.399
    1C        C  540   3.318   4.513   2.524
    1C        C  541   3.394   4.511   2.644
    1C        C  542   3.183   4.491   2.766
    1C        C  543   3.322   4.514   2.765
    1C        C  544   3.118   4.469   2.889
    1C        C  545   3.185   4.489   3.012
    1C        C  546   2.995   4.404   3.138
    1C        C  547   3.122   4.466   3.135
    1C        C  548   2.933   4.368   3.260
    1C        C  549   2.996   4.403   3.381
    1C        C  550   2.825   4.285   3.507
    1C        C  551   2.935   4.374   3.505
    1C        C  552   2.775   4.235   3.629
    1C        C  553   2.832   4.281   3.750
    1C        C  554   2.699   4.123   3.878
    1C        C  555   2.788   4.233   3.875
    1C        C  556   2.661   4.062   4.000
    1C        C  557   2.699   4.125   4.120
    1C        C  558   2.599   3.943   4.248
    1C        C  559   2.663   4.069   4.244
    1C        C  560   2.564   3.880   4.369
    1C        C  561   2.593   3.950   4.488
    1C        C  562   2.531   3.748   4.615
    1C        C  563   2.563   3.886   4.611
    1C        C  564   2.512   3.680   4.737
    1C        C  565   2.520   3.759   4.855
    1C        C  566   2.541   3.545   4.977
    1C        C  567   2.531   3.684   4.973
    1C        C  568   3.325   4.474   2.043
    1C        C  569   3.393   4.508   2.160
    1C        C  570   3.179   4.477   2.280
    1C        C  571   3.318   4.508   2.281
    1C        C  572   3.114   4.460   2.404
    1C        C  573   3.180   4.482   2.527
    1C        C  574   2.981   4.409   2.650
    1C        C  575   3.109   4.469   2.648
    1C        C  576   2.927   4.366   2.774
    1C        C  577   2.991   4.407   2.893
    1C        C  578   2.827   4.273   3.017
    1C        C  579   2.934   4.366   3.016
    1C        C  580   2.773   4.227   3.140
    1C        C  581   2.823   4.279   3.261
    1C        C  582   2.693   4.117   3.387
    1C        C  583   2.777   4.230   3.386
    1C        C  584   2.655   4.059   3.510
    1C        C  585   2.692   4.120   3.632
    1C        C  586   2.597   3.937   3.756
    1C        C  587   2.655   4.066   3.757
    1C        C  588   2.578   3.870   3.879
    1C        C  589   2.603   3.933   4.003
    1C        C  590   2.537   3.737   4.129
    1C        C  591   2.578   3.872   4.128
    1C        C  592   2.521   3.668   4.252
    1C        C  593   2.531   3.742   4.372
    1C        C  594   2.515   3.533   4.497
    1C        C  595   2.524   3.674   4.496
    1C        C  596   2.520   3.464   4.620
    1C        C  597   2.518   3.538   4.741
    1C        C  598   2.539   3.325   4.861
    1C        C  599   2.529   3.466   4.862
    1C        C  600   2.533   3.249   4.979
    1C        C  601   3.192   4.438   2.045
    1C        C  602   2.976   4.400   2.161
    1C        C  603   3.111   4.446   2.159
    1C        C  604   2.919   4.367   2.287
    1C        C  605   2.984   4.405   2.407
    1C        C  606   2.817   4.274   2.530
    1C        C  607   2.921   4.371   2.528
    1C        C  608   2.766   4.223   2.651
    1C        C  609   2.823   4.271   2.771
    1C        C  610   2.687   4.113   2.897
    1C        C  611   2.777   4.222   2.896
    1C        C  612   2.652   4.053   3.020
    1C        C  613   2.689   4.113   3.142
    1C        C  614   2.590   3.929   3.267
    1C        C  615   2.654   4.055   3.266
    1C        C  616   2.572   3.863   3.390
    1C        C  617   2.599   3.929   3.512
    1C        C  618   2.531   3.732   3.641
    1C        C  619   2.570   3.868   3.636
    1C        C  620   2.517   3.664   3.764
    1C        C  621   2.539   3.734   3.885
    1C        C  622   2.498   3.527   4.010
    1C        C  623   2.519   3.667   4.008
    1C        C  624   2.498   3.456   4.132
    1C        C  625   2.508   3.528   4.253
    1C        C  626   2.522   3.318   4.378
    1C        C  627   2.509   3.459   4.377
    1C        C  628   2.551   3.250   4.498
    1C        C  629   2.541   3.324   4.619
    1C        C  630   2.593   3.117   4.739
    1C        C  631   2.552   3.253   4.740
    1C        C  632   2.618   3.052   4.863
    1C        C  633   2.565   3.113   4.981
    1C        C  634   2.773   4.313   2.058
    1C        C  635   2.888   4.391   2.048
    1C        C  636   2.749   4.231   2.169
    1C        C  637   2.809   4.277   2.288
    1C        C  638   2.679   4.109   2.409
    1C        C  639   2.761   4.224   2.410
    1C        C  640   2.641   4.049   2.532
    1C        C  641   2.684   4.108   2.653
    1C        C  642   2.591   3.920   2.779
    1C        C  643   2.648   4.050   2.777
    1C        C  644   2.562   3.856   2.902
    1C        C  645   2.587   3.928   3.022
    1C        C  646   2.530   3.725   3.149
    1C        C  647   2.566   3.862   3.145
    1C        C  648   2.517   3.658   3.273
    1C        C  649   2.534   3.726   3.396
    1C        C  650   2.507   3.520   3.521
    1C        C  651   2.515   3.661   3.519
    1C        C  652   2.513   3.450   3.644
    1C        C  653   2.515   3.523   3.765
    1C        C  654   2.536   3.316   3.891
    1C        C  655   2.511   3.455   3.889
    1C        C  656   2.554   3.249   4.014
    1C        C  657   2.529   3.318   4.135
    1C        C  658   2.595   3.117   4.258
    1C        C  659   2.537   3.246   4.257
    1C        C  660   2.618   3.048   4.379
    1C        C  661   2.582   3.113   4.500
    1C        C  662   2.708   2.935   4.623
    1C        C  663   2.626   3.050   4.619
    1C        C  664   2.749   2.877   4.745
    1C        C  665   2.701   2.936   4.865
    1C        C  666   2.747   2.876   4.983
    1C        C  667   2.683   4.021   2.056
    1C        C  668   2.687   4.104   2.169
    1C        C  669   2.589   3.913   2.291
    1C        C  670   2.642   4.045   2.289
    1C        C  671   2.565   3.847   2.414
    1C        C  672   2.589   3.918   2.534
    1C        C  673   2.527   3.718   2.662
    1C        C  674   2.568   3.853   2.657
    1C        C  675   2.509   3.649   2.784
    1C        C  676   2.526   3.720   2.905
    1C        C  677   2.507   3.511   3.031
    1C        C  678   2.523   3.652   3.029
    1C        C  679   2.508   3.443   3.155
    1C        C  680   2.507   3.517   3.276
    1C        C  681   2.534   3.309   3.401
    1C        C  682   2.509   3.448   3.399
    1C        C  683   2.554   3.242   3.524
    1C        C  684   2.531   3.310   3.646
    1C        C  685   2.604   3.114   3.770
    1C        C  686   2.553   3.246   3.769
    1C        C  687   2.634   3.051   3.894
    1C        C  688   2.602   3.116   4.015
    1C        C  689   2.712   2.937   4.137
    1C        C  690   2.634   3.054   4.138
    1C        C  691   2.754   2.881   4.260
    1C        C  692   2.705   2.937   4.381
    1C        C  693   2.753   2.880   4.501
    1C        C  694   2.631   3.891   2.057
    1C        C  695   2.523   3.705   2.174
    1C        C  696   2.577   3.835   2.174
    1C        C  697   2.509   3.639   2.298
    1C        C  698   2.522   3.713   2.419
    1C        C  699   2.489   3.506   2.544
    1C        C  700   2.505   3.646   2.542
    1C        C  701   2.502   3.435   2.665
    1C        C  702   2.503   3.508   2.786
    1C        C  703   2.525   3.299   2.911
    1C        C  704   2.508   3.439   2.910
    1C        C  705   2.546   3.231   3.034
    1C        C  706   2.533   3.304   3.154
    1C        C  707   2.599   3.107   3.279
    1C        C  708   2.549   3.240   3.278
    1C        C  709   2.635   3.046   3.401
    1C        C  710   2.609   3.112   3.524
    1C        C  711   2.707   2.928   3.649
    1C        C  712   2.637   3.051   3.648
    1C        C  713   2.755   2.876   3.771
    1C        C  714   2.710   2.932   3.892
    1C        C  715   2.752   2.877   4.015
    1C        C  716   2.445   3.498   2.067
    1C        C  717   2.490   3.630   2.060
    1C        C  718   2.457   3.422   2.188
    1C        C  719   2.484   3.500   2.304
    1C        C  720   2.520   3.291   2.431
    1C        C  721   2.488   3.428   2.426
    1C        C  722   2.539   3.221   2.552
    1C        C  723   2.518   3.294   2.671
    1C        C  724   2.589   3.093   2.791
    1C        C  725   2.536   3.224   2.792
    1C        C  726   2.622   3.030   2.913
    1C        C  727   2.597   3.100   3.034
    1C        C  728   2.703   2.920   3.158
    1C        C  729   2.629   3.040   3.158
    1C        C  730   2.745   2.868   3.282
    1C        C  731   2.707   2.925   3.406
    1C        C  732   2.749   2.868   3.528
    1C        C  733   2.496   3.207   2.072
    1C        C  734   2.484   3.282   2.189
    1C        C  735   2.586   3.089   2.308
    1C        C  736   2.533   3.221   2.308
    1C        C  737   2.615   3.022   2.428
    1C        C  738   2.583   3.087   2.549
    1C        C  739   2.697   2.907   2.668
    1C        C  740   2.623   3.027   2.671
    1C        C  741   2.737   2.851   2.792
    1C        C  742   2.697   2.911   2.913
    1C        C  743   2.743   2.859   3.037
    1C        C  744   2.549   3.078   2.074
    1C        C  745   2.687   2.903   2.186
    1C        C  746   2.604   3.017   2.188
    1C        C  747   2.729   2.838   2.304
    1C        C  748   2.689   2.901   2.423
    1C        C  749   2.738   2.849   2.545
    1C        C  750   2.734   2.841   2.069
    1C        C  751   3.664   2.286   2.014
    1C        O  752   3.652   2.169   2.060
    1C        O  753   3.667   2.285   1.874
    1C        C  754   4.610   3.054   1.958
    1C        O  755   4.564   3.032   1.843
    1C        O  756   4.726   2.981   1.989
    1C        C  757   4.438   4.234   1.969
    1C        O  758   4.497   4.331   2.023
    1C        O  759   4.409   4.239   1.832
    1C        C  760   3.583   4.653   1.931
    1C        O  761   3.588   4.779   1.923
    1C        O  762   3.548   4.595   1.809
    1C        C  763   2.897   4.475   1.926
    1C        O  764   2.879   4.427   1.810
    1C        O  765   2.857   4.609   1.921
    1C        C  766   2.336   3.475   1.969
    1C        O  767   2.356   3.412   1.861
    1C        O  768   2.204   3.511   2.000
    1C        C  769   4.692   3.599   5.055
    1C        O  770   4.680   3.650   5.170
    1C        O  771   4.823   3.576   5.009
    1C        C  772   4.290   4.462   5.014
    1C        O  773   4.305   4.448   5.138
    1C        O  774   4.393   4.528   4.946
    1C        C  775   4.141   2.522   5.076
    1C        O  776   4.200   2.412   5.063
    1C        O  777   4.124   2.552   5.212
    1C        C  778   2.881   4.527   5.069
    1C        O  779   2.795   4.618   5.055
    1C        O  780   2.886   4.506   5.207
    1C        C  781   2.467   3.045   5.070
    1C        O  782   2.390   2.961   5.016
    1C        O  783   2.509   2.989   5.190
    1C        C  784   2.432   3.989   5.067
    1C        O  785   2.316   4.034   5.049
    1C        O  786   2.458   3.954   5.200
    1C        C  787   2.965   2.405   2.010
    1C        O  788   2.883   2.438   1.920
    1C        O  789   2.923   2.284   2.064
    1C        C  790   3.169   2.365   5.055
    1C        O  791   3.134   2.254   5.005
    1C        O  792   3.184   2.367   5.194
    1C        H  793   4.302   3.010   5.068
    1C        H  794   4.157   2.824   5.070
    1C        H  795   4.522   3.125   5.045
    1C        H  796   4.569   3.358   5.056
    1C        H  797   4.584   3.821   5.034
    1C        H  798   4.411   3.967   5.055
    1C        H  799   4.261   4.146   5.049
    1C        H  800   4.014   4.496   5.042
    1C        H  801   3.821   4.625   5.023
    1C        H  802   3.594   4.661   5.020
    1C        H  803   3.391   4.440   5.019
    1C        H  804   3.156   4.522   5.055
    1C        H  805   3.888   2.467   5.057
    1C        H  806   3.679   2.507   5.073
    1C        H  807   2.990   2.555   5.055
    1C        H  808   3.439   2.526   5.068
    1C        H  809   2.842   2.714   5.070
    1C        H  810   2.720   2.911   5.081
    1C        H  811   2.489   3.291   5.067
    1C        H  812   2.604   3.508   5.055
    1C        H  813   2.486   3.720   5.063
    1C        H  814   2.620   4.166   5.050
    1C        H  815   2.740   4.337   5.047
    1C        H  816   2.685   2.858   1.975
    1C        H  817   2.863   2.708   1.975
    1C        H  818   3.208   2.416   1.995
    1C        H  819   3.428   2.451   1.980
    1C        H  820   3.882   2.460   1.993
    1C        H  821   4.042   2.658   1.981
    1C        H  822   4.300   2.689   2.005
    1C        H  823   4.337   2.942   1.980
    1C        H  824   4.569   3.310   1.970
    1C        H  825   4.526   3.516   1.958
    1C        H  826   4.550   3.748   1.964
    1C        H  827   3.799   4.518   1.952
    1C        H  828   3.937   4.339   1.957
    1C        H  829   4.158   4.263   1.946
    1C        H  830   4.541   4.003   2.005
    1C        H  831   2.622   3.848   1.960
    1C        H  832   2.664   4.074   1.964
    1C        H  833   2.722   4.285   1.967
    1C        H  834   3.354   4.522   1.952
    1C        H  835   3.171   4.360   1.975
    1C        H  836   2.568   3.032   1.979
    1C        H  837   2.431   3.228   1.990
    1C        H  838   2.540   3.648   1.967
    2V3OU   H29  839   2.806   3.549   3.977
    2V3OU   C27  840   2.788   3.501   4.076
    2V3OU   H27  841   2.729   3.571   4.141
    2V3OU   H28  842   2.739   3.403   4.053
    2V3OU   O11  843   2.914   3.475   4.139
    2V3OU   C15  844   2.929   3.401   4.254
    2V3OU   C13  845   3.053   3.378   4.318
    2V3OU   C14  846   3.080   3.272   4.406
    2V3OU   C16  847   2.977   3.188   4.447
    2V3OU    H6  848   2.993   3.101   4.512
    2V3OU   C12  849   3.216   3.233   4.448
    2V3OU    O2  850   3.240   3.128   4.512
    2V3OU   C10  851   3.327   3.315   4.397
    2V3OU    C8  852   3.457   3.275   4.424
    2V3OU   O10  853   3.487   3.153   4.474
    2V3OU   H26  854   3.403   3.109   4.498
    2V3OU    C6  855   3.567   3.353   4.377
    2V3OU    C5  856   3.541   3.470   4.305
    2V3OU    C4  857   3.703   3.291   4.371
    2V3OU    H4  858   3.725   3.224   4.459
    2V3OU    H5  859   3.708   3.230   4.276
    2V3OU    C2  860   3.816   3.394   4.373
    2V3OU    O6  861   3.803   3.474   4.490
    2V3OU   H21  862   3.776   3.556   4.447
    2V3OU    C3  863   3.786   3.494   4.261
    2V3OU    H2  864   3.865   3.574   4.263
    2V3OU    H3  865   3.781   3.436   4.166
    2V3OU   C25  866   3.953   3.328   4.354
    2V3OU    O7  867   4.005   3.289   4.250
    2V3OU   C26  868   4.033   3.296   4.480
    2V3OU   H22  869   4.067   3.387   4.535
    2V3OU   H23  870   4.116   3.225   4.458
    2V3OU    O8  871   3.960   3.211   4.565
    2V3OU   H24  872   3.922   3.262   4.639
    2V3OU    C1  873   3.652   3.565   4.275
    2V3OU    H1  874   3.624   3.621   4.180
    2V3OU    O3  875   3.660   3.654   4.387
    2V3OU   C19  876   3.620   3.790   4.370
    2V3OU    H9  877   3.528   3.799   4.305
    2V3OU    O4  878   3.720   3.841   4.285
    2V3OU   C20  879   3.849   3.872   4.339
    2V3OU   H10  880   3.905   3.775   4.350
    2V3OU   C24  881   3.609   3.850   4.510
    2V3OU   H16  882   3.539   3.786   4.571
    2V3OU   H17  883   3.565   3.952   4.500
    2V3OU   C23  884   3.749   3.875   4.565
    2V3OU   H15  885   3.798   3.775   4.590
    2V3OU    N1  886   3.731   3.957   4.683
    2V3OU   H19  887   3.804   3.924   4.743
    2V3OU   H20  888   3.647   3.928   4.728
    2V3OU   C21  889   3.850   3.949   4.471
    2V3OU   H11  890   3.951   3.920   4.512
    2V3OU    O5  891   3.832   4.090   4.475
    2V3OU   H18  892   3.785   4.095   4.560
    2V3OU   C22  893   3.911   3.953   4.226
    2V3OU   H12  894   3.858   4.052   4.222
    2V3OU   H13  895   3.899   3.901   4.128
    2V3OU   H14  896   4.020   3.969   4.246
    2V3OU   C11  897   3.161   3.477   4.299
    2V3OU    O1  898   3.131   3.591   4.257
    2V3OU    C9  899   3.300   3.429   4.317
    2V3OU    C7  900   3.407   3.506   4.272
    2V3OU    O9  901   3.389   3.613   4.188
    2V3OU   H25  902   3.293   3.624   4.178
    2V3OU   C17  903   2.830   3.311   4.299
    2V3OU    H7  904   2.732   3.357   4.289
    2V3OU   C18  905   2.851   3.212   4.394
    2V3OU    H8  906   2.787   3.170   4.472
    3SOL     OW  907   2.988   4.293   5.322
    3SOL    HW1  908   2.948   4.364   5.264
    3SOL    HW2  909   3.062   4.248   5.272
    4SOL     OW  910   6.870   0.759   0.027
    4SOL    HW1  911   6.878   0.660   0.039
    4SOL    HW2  912   6.960   0.799   0.012
    5SOL     OW  913   4.438   0.940   2.144
    5SOL    HW1  914   4.350   0.972   2.181
    5SOL    HW2  915   4.481   1.014   2.093
    6SOL     OW  916   5.591   1.686   3.627
    6SOL    HW1  917   5.592   1.587   3.640
    6SOL    HW2  918   5.549   1.709   3.540
    7SOL     OW  919   1.205   4.307   5.181
    7SOL    HW1  920   1.279   4.243   5.162
    7SOL    HW2  921   1.223   4.393   5.134
    8SOL     OW  922   2.657   2.330   5.574
    8SOL    HW1  923   2.627   2.408   5.518
    8SOL    HW2  924   2.690   2.257   5.515
    9SOL     OW  925   0.095   1.743   5.979
    9SOL    HW1  926   0.115   1.727   6.075
    9SOL    HW2  927   0.001   1.715   5.959
   10SOL     OW  928   4.211   4.809   3.025
   10SOL    HW1  929   4.253   4.725   3.061
   10SOL    HW2  930   4.142   4.842   3.089
   11SOL     OW  931   1.906   0.794   0.159
   11SOL    HW1  932   1.949   0.706   0.182
   11SOL    HW2  933   1.973   0.853   0.115
   12SOL     OW  934   2.662   4.718   3.224
   12SOL    HW1  935   2.732   4.716   3.295
   12SOL    HW2  936   2.605   4.637   3.232
   13SOL     OW  937   4.276   5.732   2.655
   13SOL    HW1  938   4.260   5.824   2.619
   13SOL    HW2  939   4.257   5.731   2.753
   14SOL     OW  940   4.812   4.831   5.711
   14SOL    HW1  941   4.893   4.831   5.652
   14SOL    HW2  942   4.745   4.766   5.675
   15SOL     OW  943   0.369   5.739   6.295
   15SOL    HW1  944   0.385   5.797   6.375
   15SOL    HW2  945   0.369   5.643   6.324
   16SOL     OW  946   5.858   2.586   6.455
   16SOL    HW1  947   5.766   2.557   6.431
   16SOL    HW2  948   5.905   2.620   6.374
   17SOL     OW  949   6.258   0.571   5.855
   17SOL    HW1  950   6.186   0.581   5.787
   17SOL    HW2  951   6.315   0.653   5.857
   18SOL     OW  952   2.937   0.948   5.177
   18SOL    HW1  953   3.011   0.969   5.241
   18SOL    HW2  954   2.905   1.032   5.134
   19SOL     OW  955   1.145   1.968   2.874
   19SOL    HW1  956   1.145   2.056   2.828
   19SOL    HW2  957   1.168   1.896   2.808
   20SOL     OW  958   5.717   2.336   5.722
   20SOL    HW1  959   5.734   2.241   5.696
   20SOL    HW2  960   5.775   2.396   5.665
   21SOL     OW  961   3.781   5.765   2.856
   21SOL    HW1  962   3.809   5.717   2.773
   21SOL    HW2  963   3.852   5.831   2.882
   22SOL     OW  964   1.394   6.284   5.099
   22SOL    HW1  965   1.480   6.325   5.132
   22SOL    HW2  966   1.344   6.246   5.177
   23SOL     OW  967   4.985   5.083   2.334
   23SOL    HW1  968   5.003   4.988   2.359
   23SOL    HW2  969   4.886   5.100   2.333
   24SOL     OW  970   4.028   0.479   1.415
   24SOL    HW1  971   4.042   0.487   1.514
   24SOL    HW2  972   3.960   0.408   1.397
   25SOL     OW  973   2.868   0.040   3.438
   25SOL    HW1  974   2.845   0.045   3.535
   25SOL    HW2  975   2.792   7.021   3.388
   26SOL     OW  976   1.686   2.026   6.641
   26SOL    HW1  977   1.678   1.930   6.613
   26SOL    HW2  978   1.775   2.041   6.685
   27SOL     OW  979   0.285   1.185   2.485
   27SOL    HW1  980   0.262   1.170   2.581
   27SOL    HW2  981   0.380   1.217   2.479
   28SOL     OW  982   1.697   0.515   4.819
   28SOL    HW1  983   1.618   0.503   4.760
   28SOL    HW2  984   1.675   0.485   4.912
   29SOL     OW  985   6.597   0.867   0.487
   29SOL    HW1  986   6.609   0.927   0.408
   29SOL    HW2  987   6.620   0.916   0.570
   30SOL     OW  988   3.730   0.735   4.766
   30SOL    HW1  989   3.818   0.778   4.744
   30SOL    HW2  990   3.746   0.646   4.807
   31SOL     OW  991   0.206   2.400   4.909
   31SOL    HW1  992   0.179   2.489   4.873
   31SOL    HW2  993   0.302   2.383   4.886
   32SOL     OW  994   1.320   1.715   1.127
   32SOL    HW1  995   1.353   1.622   1.145
   32SOL    HW2  996   1.378   1.781   1.175
   33SOL     OW  997   0.560   3.662   5.481
   33SOL    HW1  998   0.507   3.746   5.493
   33SOL    HW2  999   0.572   3.618   5.569
   34SOL     OW 1000   1.532   5.553   5.007
   34SOL    HW1 1001   1.466   5.544   4.932
   34SOL    HW2 1002   1.578   5.466   5.021
   35SOL     OW 1003   3.695   2.440   6.284
   35SOL    HW1 1004   3.665   2.491   6.364
   35SOL    HW2 1005   3.789   2.409   6.298
   36SOL     OW 1006   5.291   1.352   4.198
   36SOL    HW1 1007   5.241   1.392   4.275
   36SOL    HW2 1008   5.298   1.253   4.211
   37SOL     OW 1009   2.260   1.290   3.289
   37SOL    HW1 1010   2.258   1.371   3.348
   37SOL    HW2 1011   2.166   1.261   3.269
   38SOL     OW 1012   2.114   5.261   2.269
   38SOL    HW1 1013   2.193   5.315   2.296
   38SOL    HW2 1014   2.038   5.321   2.248
   39SOL     OW 1015   6.269   4.481   6.821
   39SOL    HW1 1016   6.360   4.454   6.787
   39SOL    HW2 1017   6.258   4.580   6.811
   40SOL     OW 1018   3.510   0.474   6.118
   40SOL    HW1 1019   3.444   0.423   6.062
   40SOL    HW2 1020   3.598   0.428   6.115
   41SOL     OW 1021   5.488   4.057   2.423
   41SOL    HW1 1022   5.580   4.056   2.386
   41SOL    HW2 1023   5.479   4.132   2.489
   42SOL     OW 1024   3.058   5.481   4.937
   42SOL    HW1 1025   3.048   5.523   4.847
   42SOL    HW2 1026   2.982   5.417   4.953
   43SOL     OW 1027   3.967   6.470   4.774
   43SOL    HW1 1028   3.878   6.425   4.784
   43SOL    HW2 1029   4.026   6.413   4.716
   44SOL     OW 1030   6.387   3.170   5.185
   44SOL    HW1 1031   6.363   3.106   5.112
   44SOL    HW2 1032   6.435   3.248   5.145
   45SOL     OW 1033   4.677   5.545   0.950
   45SOL    HW1 1034   4.599   5.593   0.989
   45SOL    HW2 1035   4.762   5.583   0.987
   46SOL     OW 1036   0.610   3.059   4.132
   46SOL    HW1 1037   0.649   3.066   4.040
   46SOL    HW2 1038   0.521   3.105   4.135
   47SOL     OW 1039   5.106   3.636   2.014
   47SOL    HW1 1040   5.100   3.713   1.950
   47SOL    HW2 1041   5.181   3.576   1.987
   48SOL     OW 1042   0.322   3.472   6.697
   48SOL    HW1 1043   0.296   3.438   6.787
   48SOL    HW2 1044   0.349   3.395   6.639
   49SOL     OW 1045   5.023   2.906   0.449
   49SOL    HW1 1046   5.117   2.909   0.483
   49SOL    HW2 1047   4.983   2.997   0.452
   50SOL     OW 1048   6.181   1.883   5.945
   50SOL    HW1 1049   6.176   1.981   5.931
   50SOL    HW2 1050   6.214   1.863   6.037
   51SOL     OW 1051   2.178   4.828   2.715
   51SOL    HW1 1052   2.098   4.820   2.655
   51SOL    HW2 1053   2.256   4.859   2.661
   52SOL     OW 1054   5.603   2.800   1.890
   52SOL    HW1 1055   5.633   2.857   1.966
   52SOL    HW2 1056   5.541   2.729   1.924
   53SOL     OW 1057   5.091   0.036   3.385
   53SOL    HW1 1058   5.132   7.004   3.457
   53SOL    HW2 1059   5.010   7.015   3.349
   54SOL     OW 1060   5.648   6.215   0.532
   54SOL    HW1 1061   5.696   6.240   0.616
   54SOL    HW2 1062   5.572   6.154   0.554
   55SOL     OW 1063   2.232   2.524   6.528
   55SOL    HW1 1064   2.280   2.582   6.593
   55SOL    HW2 1065   2.133   2.537   6.538
   56SOL     OW 1066   1.262   1.936   0.549
   56SOL    HW1 1067   1.196   1.884   0.604
   56SOL    HW2 1068   1.213   2.003   0.493
   57SOL     OW 1069   3.253   0.317   6.662
   57SOL    HW1 1070   3.329   0.327   6.598
   57SOL    HW2 1071   3.284   0.269   6.744
   58SOL     OW 1072   0.649   0.637   6.523
   58SOL    HW1 1073   0.623   0.719   6.576
   58SOL    HW2 1074   0.595   0.559   6.556
   59SOL     OW 1075   6.353   3.884   6.423
   59SOL    HW1 1076   6.387   3.891   6.329
   59SOL    HW2 1077   6.417   3.830   6.477
   60SOL     OW 1078   5.912   0.702   3.537
   60SOL    HW1 1079   5.824   0.727   3.497
   60SOL    HW2 1080   5.982   0.698   3.465
   61SOL     OW 1081   0.705   1.207   4.196
   61SOL    HW1 1082   0.667   1.274   4.259
   61SOL    HW2 1083   0.770   1.149   4.245
   62SOL     OW 1084   1.079   1.220   1.661
   62SOL    HW1 1085   1.025   1.201   1.743
   62SOL    HW2 1086   1.077   1.140   1.601
   63SOL     OW 1087   3.978   6.524   4.068
   63SOL    HW1 1088   4.058   6.530   4.008
   63SOL    HW2 1089   3.904   6.580   4.030
   64SOL     OW 1090   1.283   3.623   6.943
   64SOL    HW1 1091   1.374   3.620   6.984
   64SOL    HW2 1092   1.225   3.685   6.995
   65SOL     OW 1093   0.715   0.522   5.465
   65SOL    HW1 1094   0.732   0.540   5.368
   65SOL    HW2 1095   0.704   0.608   5.514
   66SOL     OW 1096   3.712   6.899   2.417
   66SOL    HW1 1097   3.644   6.870   2.350
   66SOL    HW2 1098   3.704   6.998   2.431
   67SOL     OW 1099   0.341   2.437   0.766
   67SOL    HW1 1100   0.331   2.356   0.709
   67SOL    HW2 1101   0.271   2.505   0.740
   68SOL     OW 1102   0.347   1.513   5.617
   68SOL    HW1 1103   0.310   1.604   5.637
   68SOL    HW2 1104   0.376   1.509   5.522
   69SOL     OW 1105   1.041   5.350   6.041
   69SOL    HW1 1106   0.963   5.363   6.103
   69SOL    HW2 1107   1.016   5.287   5.968
   70SOL     OW 1108   5.372   3.914   4.767
   70SOL    HW1 1109   5.357   3.989   4.703
   70SOL    HW2 1110   5.467   3.915   4.798
   71SOL     OW 1111   4.591   1.699   4.855
   71SOL    HW1 1112   4.616   1.774   4.916
   71SOL    HW2 1113   4.672   1.667   4.806
   72SOL     OW 1114   0.377   0.788   3.080
   72SOL    HW1 1115   0.450   0.847   3.114
   72SOL    HW2 1116   0.293   0.808   3.129
   73SOL     OW 1117   2.875   0.949   0.272
   73SOL    HW1 1118   2.821   0.991   0.199
   73SOL    HW2 1119   2.972   0.961   0.253
   74SOL     OW 1120   2.271   1.676   6.316
   74SOL    HW1 1121   2.172   1.668   6.300
   74SOL    HW2 1122   2.301   1.768   6.291
   75SOL     OW 1123   4.563   1.406   0.970
   75SOL    HW1 1124   4.631   1.437   0.903
   75SOL    HW2 1125   4.475   1.449   0.951
   76SOL     OW 1126   2.785   4.507   5.822
   76SOL    HW1 1127   2.817   4.461   5.905
   76SOL    HW2 1128   2.861   4.516   5.757
   77SOL     OW 1129   1.789   5.307   4.037
   77SOL    HW1 1130   1.852   5.372   4.077
   77SOL    HW2 1131   1.804   5.303   3.938
   78SOL     OW 1132   4.132   1.704   1.443
   78SOL    HW1 1133   4.063   1.648   1.488
   78SOL    HW2 1134   4.109   1.714   1.346
   79SOL     OW 1135   2.207   5.323   1.726
   79SOL    HW1 1136   2.150   5.279   1.656
   79SOL    HW2 1137   2.259   5.253   1.775
   80SOL     OW 1138   4.465   2.407   5.220
   80SOL    HW1 1139   4.518   2.323   5.228
   80SOL    HW2 1140   4.473   2.442   5.126
   81SOL     OW 1141   1.950   0.168   1.013
   81SOL    HW1 1142   1.932   0.265   0.998
   81SOL    HW2 1143   2.025   0.139   0.954
   82SOL     OW 1144   0.614   6.315   2.264
   82SOL    HW1 1145   0.608   6.278   2.171
   82SOL    HW2 1146   0.552   6.393   2.273
   83SOL     OW 1147   6.665   2.233   5.485
   83SOL    HW1 1148   6.734   2.305   5.488
   83SOL    HW2 1149   6.709   2.144   5.485
   84SOL     OW 1150   5.980   2.701   3.766
   84SOL    HW1 1151   6.015   2.622   3.817
   84SOL    HW2 1152   6.049   2.773   3.767
   85SOL     OW 1153   1.632   6.747   3.881
   85SOL    HW1 1154   1.572   6.669   3.896
   85SOL    HW2 1155   1.615   6.786   3.791
   86SOL     OW 1156   5.600   1.375   6.529
   86SOL    HW1 1157   5.515   1.371   6.477
   86SOL    HW2 1158   5.587   1.331   6.617
   87SOL     OW 1159   4.363   4.275   6.771
   87SOL    HW1 1160   4.409   4.294   6.858
   87SOL    HW2 1161   4.270   4.310   6.773
   88SOL     OW 1162   2.968   2.247   5.627
   88SOL    HW1 1163   2.929   2.330   5.665
   88SOL    HW2 1164   2.976   2.256   5.527
   89SOL     OW 1165   2.820   3.408   1.910
   89SOL    HW1 1166   2.738   3.380   1.859
   89SOL    HW2 1167   2.837   3.505   1.894
   90SOL     OW 1168   4.875   3.965   3.283
   90SOL    HW1 1169   4.942   3.991   3.214
   90SOL    HW2 1170   4.918   3.963   3.373
   91SOL     OW 1171   6.422   5.956   6.207
   91SOL    HW1 1172   6.508   6.002   6.228
   91SOL    HW2 1173   6.408   5.954   6.108
   92SOL     OW 1174   5.092   4.098   0.177
   92SOL    HW1 1175   5.026   4.100   0.101
   92SOL    HW2 1176   5.058   4.155   0.252
   93SOL     OW 1177   3.266   2.975   0.941
   93SOL    HW1 1178   3.313   2.893   0.906
   93SOL    HW2 1179   3.174   2.979   0.903
   94SOL     OW 1180   2.601   0.239   6.236
   94SOL    HW1 1181   2.643   0.325   6.206
   94SOL    HW2 1182   2.509   0.258   6.270
   95SOL     OW 1183   0.637   0.491   4.669
   95SOL    HW1 1184   0.670   0.561   4.732
   95SOL    HW2 1185   0.645   0.401   4.712
   96SOL     OW 1186   5.298   5.051   0.304
   96SOL    HW1 1187   5.317   5.052   0.402
   96SOL    HW2 1188   5.258   5.139   0.277
   97SOL     OW 1189   1.866   4.899   5.499
   97SOL    HW1 1190   1.935   4.829   5.485
   97SOL    HW2 1191   1.901   4.968   5.563
   98SOL     OW 1192   0.799   2.509   1.939
   98SOL    HW1 1193   0.769   2.548   2.026
   98SOL    HW2 1194   0.813   2.410   1.950
   99SOL     OW 1195   4.087   3.819   3.389
   99SOL    HW1 1196   4.143   3.871   3.324
   99SOL    HW2 1197   4.085   3.723   3.363
  100SOL     OW 1198   0.037   6.657   4.132
  100SOL    HW1 1199   0.043   6.605   4.047
  100SOL    HW2 1200   0.002   6.749   4.112
  101SOL     OW 1201   0.324   4.751   2.566
  101SOL    HW1 1202   0.256   4.687   2.527
  101SOL    HW2 1203   0.285   4.797   2.645
  102SOL     OW 1204   2.655   6.175   2.187
  102SOL    HW1 1205   2.720   6.169   2.111
  102SOL    HW2 1206   2.648   6.086   2.232
  103SOL     OW 1207   2.260   1.060   2.529
  103SOL    HW1 1208   2.317   0.993   2.577
  103SOL    HW2 1209   2.314   1.143   2.512
  104SOL     OW 1210   0.982   4.622   2.111
  104SOL    HW1 1211   0.994   4.701   2.172
  104SOL    HW2 1212   0.969   4.654   2.017
  105SOL     OW 1213   5.895   1.592   6.964
  105SOL    HW1 1214   5.982   1.542   6.963
  105SOL    HW2 1215   5.895   1.656   0.016
  106SOL     OW 1216   4.951   5.106   1.467
  106SOL    HW1 1217   4.958   5.206   1.468
  106SOL    HW2 1218   5.042   5.066   1.477
  107SOL     OW 1219   6.752   1.242   0.002
  107SOL    HW1 1220   6.793   1.298   6.954
  107SOL    HW2 1221   6.763   1.145   7.004
  108SOL     OW 1222   2.588   0.330   5.017
  108SOL    HW1 1223   2.508   0.319   5.077
  108SOL    HW2 1224   2.573   0.406   4.955
  109SOL     OW 1225   3.842   0.882   2.553
  109SOL    HW1 1226   3.924   0.924   2.516
  109SOL    HW2 1227   3.762   0.912   2.500
  110SOL     OW 1228   2.096   4.403   5.493
  110SOL    HW1 1229   2.096   4.305   5.476
  110SOL    HW2 1230   2.137   4.422   5.583
  111SOL     OW 1231   6.599   1.675   2.577
  111SOL    HW1 1232   6.501   1.665   2.562
  111SOL    HW2 1233   6.645   1.692   2.490
  112SOL     OW 1234   4.201   6.428   6.616
  112SOL    HW1 1235   4.216   6.440   6.518
  112SOL    HW2 1236   4.130   6.358   6.629
  113SOL     OW 1237   6.400   5.441   2.873
  113SOL    HW1 1238   6.460   5.444   2.793
  113SOL    HW2 1239   6.305   5.452   2.845
  114SOL     OW 1240   1.297   4.422   3.561
  114SOL    HW1 1241   1.287   4.324   3.545
  114SOL    HW2 1242   1.385   4.439   3.606
  115SOL     OW 1243   5.970   1.268   3.201
  115SOL    HW1 1244   5.875   1.276   3.233
  115SOL    HW2 1245   6.013   1.358   3.205
  116SOL     OW 1246   0.774   6.327   1.355
  116SOL    HW1 1247   0.769   6.238   1.401
  116SOL    HW2 1248   0.788   6.399   1.423
  117SOL     OW 1249   3.320   1.463   0.010
  117SOL    HW1 1250   3.346   1.558   0.028
  117SOL    HW2 1251   3.221   1.454   0.015
  118SOL     OW 1252   1.138   1.471   3.521
  118SOL    HW1 1253   1.126   1.518   3.608
  118SOL    HW2 1254   1.052   1.472   3.471
  119SOL     OW 1255   6.674   0.098   0.230
  119SOL    HW1 1256   6.765   0.055   0.225
  119SOL    HW2 1257   6.641   0.116   0.138
  120SOL     OW 1258   4.517   0.729   5.479
  120SOL    HW1 1259   4.543   0.813   5.528
  120SOL    HW2 1260   4.540   0.739   5.382
  121SOL     OW 1261   1.289   3.667   6.651
  121SOL    HW1 1262   1.285   3.688   6.748
  121SOL    HW2 1263   1.384   3.659   6.622
  122SOL     OW 1264   0.956   4.490   0.292
  122SOL    HW1 1265   0.896   4.563   0.325
  122SOL    HW2 1266   1.051   4.516   0.305
  123SOL     OW 1267   1.286   0.874   1.920
  123SOL    HW1 1268   1.385   0.880   1.932
  123SOL    HW2 1269   1.241   0.870   2.009
  124SOL     OW 1270   2.968   2.707   0.936
  124SOL    HW1 1271   2.980   2.806   0.922
  124SOL    HW2 1272   3.057   2.666   0.954
  125SOL     OW 1273   3.543   2.736   6.905
  125SOL    HW1 1274   3.502   2.822   6.935
  125SOL    HW2 1275   3.614   2.708   6.970
  126SOL     OW 1276   3.212   2.970   2.902
  126SOL    HW1 1277   3.251   2.901   2.840
  126SOL    HW2 1278   3.161   3.037   2.849
  127SOL     OW 1279   6.584   6.206   6.073
  127SOL    HW1 1280   6.525   6.141   6.026
  127SOL    HW2 1281   6.535   6.246   6.151
  128SOL     OW 1282   4.997   3.392   1.781
  128SOL    HW1 1283   4.931   3.324   1.750
  128SOL    HW2 1284   5.086   3.375   1.738
  129SOL     OW 1285   2.044   5.545   0.966
  129SOL    HW1 1286   1.993   5.558   1.051
  129SOL    HW2 1287   2.139   5.574   0.979
  130SOL     OW 1288   5.862   1.996   4.742
  130SOL    HW1 1289   5.857   1.924   4.674
  130SOL    HW2 1290   5.790   1.983   4.810
  131SOL     OW 1291   6.814   1.305   3.958
  131SOL    HW1 1292   6.733   1.247   3.966
  131SOL    HW2 1293   6.788   1.393   3.917
  132SOL     OW 1294   3.277   3.820   1.309
  132SOL    HW1 1295   3.333   3.897   1.342
  132SOL    HW2 1296   3.197   3.856   1.260
  133SOL     OW 1297   5.255   0.658   4.571
  133SOL    HW1 1298   5.180   0.696   4.625
  133SOL    HW2 1299   5.217   0.612   4.490
  134SOL     OW 1300   6.162   0.714   2.252
  134SOL    HW1 1301   6.245   0.716   2.308
  134SOL    HW2 1302   6.108   0.796   2.269
  135SOL     OW 1303   4.907   3.342   4.344
  135SOL    HW1 1304   4.873   3.393   4.265
  135SOL    HW2 1305   4.968   3.400   4.398
  136SOL     OW 1306   2.426   5.919   5.054
  136SOL    HW1 1307   2.389   5.909   4.961
  136SOL    HW2 1308   2.483   6.002   5.057
  137SOL     OW 1309   3.981   1.858   4.590
  137SOL    HW1 1310   4.013   1.940   4.636
  137SOL    HW2 1311   3.891   1.874   4.551
  138SOL     OW 1312   0.746   5.225   4.024
  138SOL    HW1 1313   0.688   5.170   3.964
  138SOL    HW2 1314   0.825   5.259   3.973
  139SOL     OW 1315   2.229   5.565   6.520
  139SOL    HW1 1316   2.160   5.586   6.452
  139SOL    HW2 1317   2.190   5.503   6.589
  140SOL     OW 1318   2.171   0.532   3.039
  140SOL    HW1 1319   2.207   0.529   2.945
  140SOL    HW2 1320   2.217   0.462   3.094
  141SOL     OW 1321   6.444   3.780   6.882
  141SOL    HW1 1322   6.482   3.726   6.958
  141SOL    HW2 1323   6.403   3.864   6.918
  142SOL     OW 1324   0.988   4.348   1.768
  142SOL    HW1 1325   1.046   4.295   1.830
  142SOL    HW2 1326   0.896   4.356   1.808
  143SOL     OW 1327   5.799   6.344   1.427
  143SOL    HW1 1328   5.878   6.386   1.472
  143SOL    HW2 1329   5.828   6.261   1.380
  144SOL     OW 1330   2.693   4.830   4.211
  144SOL    HW1 1331   2.724   4.813   4.118
  144SOL    HW2 1332   2.606   4.880   4.208
  145SOL     OW 1333   6.801   4.763   2.716
  145SOL    HW1 1334   6.704   4.784   2.711
  145SOL    HW2 1335   6.854   4.848   2.716
  146SOL     OW 1336   6.050   1.519   5.886
  146SOL    HW1 1337   5.973   1.581   5.901
  146SOL    HW2 1338   6.112   1.559   5.818
  147SOL     OW 1339   5.221   1.548   5.222
  147SOL    HW1 1340   5.320   1.564   5.217
  147SOL    HW2 1341   5.204   1.471   5.284
  148SOL     OW 1342   1.120   4.594   1.293
  148SOL    HW1 1343   1.129   4.694   1.293
  148SOL    HW2 1344   1.126   4.560   1.386
  149SOL     OW 1345   2.573   2.167   5.303
  149SOL    HW1 1346   2.511   2.124   5.369
  149SOL    HW2 1347   2.530   2.167   5.212
  150SOL     OW 1348   4.095   1.923   5.488
  150SOL    HW1 1349   4.075   1.977   5.407
  150SOL    HW2 1350   4.035   1.952   5.563
  151SOL     OW 1351   3.738   1.385   1.008
  151SOL    HW1 1352   3.702   1.300   1.046
  151SOL    HW2 1353   3.691   1.462   1.049
  152SOL     OW 1354   0.941   1.451   6.893
  152SOL    HW1 1355   0.930   1.516   6.818
  152SOL    HW2 1356   1.031   1.465   6.936
  153SOL     OW 1357   2.800   1.136   3.511
  153SOL    HW1 1358   2.790   1.164   3.606
  153SOL    HW2 1359   2.788   1.216   3.451
  154SOL     OW 1360   6.446   1.920   1.032
  154SOL    HW1 1361   6.462   1.823   1.015
  154SOL    HW2 1362   6.381   1.930   1.108
  155SOL     OW 1363   0.143   0.224   2.202
  155SOL    HW1 1364   0.177   0.245   2.111
  155SOL    HW2 1365   0.092   0.303   2.237
  156SOL     OW 1366   4.624   0.804   0.420
  156SOL    HW1 1367   4.635   0.880   0.484
  156SOL    HW2 1368   4.539   0.816   0.369
  157SOL     OW 1369   5.341   3.628   0.527
  157SOL    HW1 1370   5.387   3.692   0.589
  157SOL    HW2 1371   5.284   3.679   0.463
  158SOL     OW 1372   1.569   3.014   2.717
  158SOL    HW1 1373   1.620   3.015   2.803
  158SOL    HW2 1374   1.616   3.069   2.649
  159SOL     OW 1375   4.713   4.758   0.651
  159SOL    HW1 1376   4.739   4.662   0.658
  159SOL    HW2 1377   4.771   4.803   0.583
  160SOL     OW 1378   5.584   0.779   0.556
  160SOL    HW1 1379   5.651   0.740   0.491
  160SOL    HW2 1380   5.632   0.810   0.638
  161SOL     OW 1381   0.973   6.583   0.497
  161SOL    HW1 1382   0.934   6.596   0.406
  161SOL    HW2 1383   1.013   6.669   0.529
  162SOL     OW 1384   2.354   5.882   0.213
  162SOL    HW1 1385   2.274   5.874   0.153
  162SOL    HW2 1386   2.365   5.797   0.264
  163SOL     OW 1387   6.779   4.946   3.317
  163SOL    HW1 1388   6.712   4.877   3.345
  163SOL    HW2 1389   6.789   5.015   3.389
  164SOL     OW 1390   1.572   1.727   3.019
  164SOL    HW1 1391   1.499   1.692   3.078
  164SOL    HW2 1392   1.572   1.827   3.024
  165SOL     OW 1393   0.391   5.517   2.556
  165SOL    HW1 1394   0.482   5.482   2.577
  165SOL    HW2 1395   0.360   5.479   2.468
  166SOL     OW 1396   6.115   3.936   1.544
  166SOL    HW1 1397   6.125   3.898   1.452
  166SOL    HW2 1398   6.021   3.966   1.558
  167SOL     OW 1399   5.371   1.844   6.879
  167SOL    HW1 1400   5.381   1.790   6.963
  167SOL    HW2 1401   5.395   1.787   6.801
  168SOL     OW 1402   4.270   3.465   1.656
  168SOL    HW1 1403   4.306   3.373   1.668
  168SOL    HW2 1404   4.341   3.532   1.678
  169SOL     OW 1405   6.161   3.288   0.496
  169SOL    HW1 1406   6.094   3.217   0.519
  169SOL    HW2 1407   6.168   3.352   0.573
  170SOL     OW 1408   1.392   5.278   2.733
  170SOL    HW1 1409   1.481   5.237   2.751
  170SOL    HW2 1410   1.362   5.255   2.641
  171SOL     OW 1411   2.023   3.179   0.245
  171SOL    HW1 1412   2.099   3.199   0.307
  171SOL    HW2 1413   1.967   3.262   0.233
  172SOL     OW 1414   5.792   2.029   1.700
  172SOL    HW1 1415   5.744   1.996   1.781
  172SOL    HW2 1416   5.774   2.126   1.687
  173SOL     OW 1417   6.214   0.948   5.556
  173SOL    HW1 1418   6.152   0.929   5.632
  173SOL    HW2 1419   6.163   0.950   5.470
  174SOL     OW 1420   5.470   5.624   5.309
  174SOL    HW1 1421   5.529   5.555   5.268
  174SOL    HW2 1422   5.506   5.649   5.400
  175SOL     OW 1423   1.814   0.847   0.807
  175SOL    HW1 1424   1.775   0.755   0.794
  175SOL    HW2 1425   1.742   0.910   0.836
  176SOL     OW 1426   4.641   4.652   2.856
  176SOL    HW1 1427   4.609   4.568   2.899
  176SOL    HW2 1428   4.595   4.663   2.768
  177SOL     OW 1429   5.285   1.936   4.518
  177SOL    HW1 1430   5.330   1.976   4.598
  177SOL    HW2 1431   5.276   2.006   4.447
  178SOL     OW 1432   2.375   5.563   5.024
  178SOL    HW1 1433   2.405   5.604   5.110
  178SOL    HW2 1434   2.433   5.594   4.950
  179SOL     OW 1435   4.444   5.295   0.209
  179SOL    HW1 1436   4.417   5.366   0.144
  179SOL    HW2 1437   4.544   5.289   0.212
  180SOL     OW 1438   4.022   6.939   0.888
  180SOL    HW1 1439   4.034   0.014   0.887
  180SOL    HW2 1440   4.009   6.908   0.983
  181SOL     OW 1441   3.167   2.626   5.325
  181SOL    HW1 1442   3.073   2.618   5.359
  181SOL    HW2 1443   3.183   2.554   5.257
  182SOL     OW 1444   5.114   3.086   6.933
  182SOL    HW1 1445   5.073   3.052   7.017
  182SOL    HW2 1446   5.042   3.103   6.865
  183SOL     OW 1447   3.757   1.973   4.529
  183SOL    HW1 1448   3.726   1.991   4.623
  183SOL    HW2 1449   3.678   1.976   4.467
  184SOL     OW 1450   1.062   6.129   3.634
  184SOL    HW1 1451   0.981   6.161   3.682
  184SOL    HW2 1452   1.071   6.177   3.547
  185SOL     OW 1453   0.333   1.855   4.017
  185SOL    HW1 1454   0.276   1.913   3.959
  185SOL    HW2 1455   0.372   1.910   4.091
  186SOL     OW 1456   5.504   5.902   4.492
  186SOL    HW1 1457   5.523   5.887   4.395
  186SOL    HW2 1458   5.576   5.859   4.547
  187SOL     OW 1459   4.047   5.407   2.542
  187SOL    HW1 1460   4.077   5.323   2.497
  187SOL    HW2 1461   4.097   5.419   2.628
  188SOL     OW 1462   2.338   2.285   3.291
  188SOL    HW1 1463   2.372   2.379   3.282
  188SOL    HW2 1464   2.263   2.271   3.227
  189SOL     OW 1465   6.111   5.783   6.893
  189SOL    HW1 1466   6.057   5.867   6.898
  189SOL    HW2 1467   6.082   5.729   6.814
  190SOL     OW 1468   6.280   5.477   7.024
  190SOL    HW1 1469   6.339   5.406   0.040
  190SOL    HW2 1470   6.331   5.563   7.017
  191SOL     OW 1471   0.005   1.057   6.102
  191SOL    HW1 1472   0.059   1.110   6.169
  191SOL    HW2 1473   7.015   1.112   6.020
  192SOL     OW 1474   0.143   4.639   1.443
  192SOL    HW1 1475   0.048   4.669   1.456
  192SOL    HW2 1476   0.148   4.576   1.366
  193SOL     OW 1477   3.593   4.863   5.876
  193SOL    HW1 1478   3.514   4.911   5.913
  193SOL    HW2 1479   3.565   4.808   5.797
  194SOL     OW 1480   3.970   6.761   1.954
  194SOL    HW1 1481   3.976   6.835   2.021
  194SOL    HW2 1482   3.887   6.771   1.899
  195SOL     OW 1483   3.171   0.618   2.558
  195SOL    HW1 1484   3.166   0.580   2.465
  195SOL    HW2 1485   3.261   0.659   2.571
  196SOL     OW 1486   2.702   1.148   6.518
  196SOL    HW1 1487   2.751   1.174   6.435
  196SOL    HW2 1488   2.623   1.092   6.495
  197SOL     OW 1489   2.477   6.034   6.762
  197SOL    HW1 1490   2.417   6.114   6.769
  197SOL    HW2 1491   2.441   5.961   6.820
  198SOL     OW 1492   4.353   5.850   0.867
  198SOL    HW1 1493   4.344   5.800   0.781
  198SOL    HW2 1494   4.350   5.786   0.943
  199SOL     OW 1495   5.918   1.027   1.974
  199SOL    HW1 1496   5.945   1.123   1.964
  199SOL    HW2 1497   5.932   0.979   1.888
  200SOL     OW 1498   1.334   3.039   2.215
  200SOL    HW1 1499   1.326   3.103   2.291
  200SOL    HW2 1500   1.326   2.946   2.249
  201SOL     OW 1501   2.627   0.904   6.753
  201SOL    HW1 1502   2.709   0.855   6.723
  201SOL    HW2 1503   2.615   0.986   6.697
  202SOL     OW 1504   5.035   6.597   4.315
  202SOL    HW1 1505   5.026   6.609   4.414
  202SOL    HW2 1506   5.130   6.577   4.293
  203SOL     OW 1507   5.190   3.356   5.979
  203SOL    HW1 1508   5.165   3.341   6.075
  203SOL    HW2 1509   5.110   3.338   5.921
  204SOL     OW 1510   0.707   6.879   0.264
  204SOL    HW1 1511   0.753   6.799   0.223
  204SOL    HW2 1512   0.702   6.952   0.196
  205SOL     OW 1513   0.535   1.739   1.105
  205SOL    HW1 1514   0.605   1.789   1.156
  205SOL    HW2 1515   0.537   1.643   1.131
  206SOL     OW 1516   0.991   4.117   1.152
  206SOL    HW1 1517   0.893   4.113   1.173
  206SOL    HW2 1518   1.038   4.171   1.221
  207SOL     OW 1519   4.037   0.407   5.330
  207SOL    HW1 1520   3.962   0.373   5.273
  207SOL    HW2 1521   4.010   0.402   5.426
  208SOL     OW 1522   5.157   4.595   6.054
  208SOL    HW1 1523   5.154   4.671   6.118
  208SOL    HW2 1524   5.168   4.509   6.104
  209SOL     OW 1525   0.326   5.944   5.681
  209SOL    HW1 1526   0.289   6.037   5.680
  209SOL    HW2 1527   0.414   5.943   5.634
  210SOL     OW 1528   4.351   2.238   1.987
  210SOL    HW1 1529   4.305   2.176   1.923
  210SOL    HW2 1530   4.449   2.216   1.990
  211SOL     OW 1531   0.937   1.096   2.463
  211SOL    HW1 1532   0.944   0.999   2.487
  211SOL    HW2 1533   1.014   1.122   2.405
  212SOL     OW 1534   1.229   4.857   3.213
  212SOL    HW1 1535   1.173   4.939   3.226
  212SOL    HW2 1536   1.241   4.840   3.115
  213SOL     OW 1537   4.904   1.425   6.971
  213SOL    HW1 1538   4.979   1.405   0.010
  213SOL    HW2 1539   4.817   1.423   7.019
  214SOL     OW 1540   0.970   6.753   3.461
  214SOL    HW1 1541   1.032   6.692   3.412
  214SOL    HW2 1542   1.013   6.783   3.546
  215SOL     OW 1543   3.834   2.839   1.889
  215SOL    HW1 1544   3.860   2.892   1.970
  215SOL    HW2 1545   3.737   2.851   1.871
  216SOL     OW 1546   1.387   6.968   4.907
  216SOL    HW1 1547   1.332   7.024   4.846
  216SOL    HW2 1548   1.334   6.888   4.936
  217SOL     OW 1549   2.084   2.539   4.403
  217SOL    HW1 1550   2.058   2.455   4.355
  217SOL    HW2 1551   2.170   2.525   4.451
  218SOL     OW 1552   1.240   2.103   4.409
  218SOL    HW1 1553   1.287   2.123   4.495
  218SOL    HW2 1554   1.299   2.047   4.351
  219SOL     OW 1555   3.652   3.824   7.007
  219SOL    HW1 1556   3.693   3.905   0.025
  219SOL    HW2 1557   3.611   3.850   6.919
  220SOL     OW 1558   2.535   6.106   0.097
  220SOL    HW1 1559   2.479   6.037   0.144
  220SOL    HW2 1560   2.610   6.061   0.049
  221SOL     OW 1561   5.704   3.547   3.959
  221SOL    HW1 1562   5.789   3.533   3.909
  221SOL    HW2 1563   5.724   3.575   4.053
  222SOL     OW 1564   1.401   5.543   5.266
  222SOL    HW1 1565   1.309   5.573   5.244
  222SOL    HW2 1566   1.462   5.563   5.189
  223SOL     OW 1567   0.083   3.822   1.391
  223SOL    HW1 1568   0.163   3.766   1.409
  223SOL    HW2 1569   0.010   3.798   1.456
  224SOL     OW 1570   2.449   2.601   2.995
  224SOL    HW1 1571   2.468   2.560   2.906
  224SOL    HW2 1572   2.514   2.566   3.063
  225SOL     OW 1573   6.068   1.385   0.233
  225SOL    HW1 1574   6.167   1.398   0.232
  225SOL    HW2 1575   6.038   1.367   0.327
  226SOL     OW 1576   1.058   0.436   0.845
  226SOL    HW1 1577   1.078   0.402   0.753
  226SOL    HW2 1578   1.124   0.507   0.869
  227SOL     OW 1579   1.476   3.704   3.215
  227SOL    HW1 1580   1.478   3.683   3.313
  227SOL    HW2 1581   1.457   3.802   3.203
  228SOL     OW 1582   3.835   6.959   4.570
  228SOL    HW1 1583   3.785   6.961   4.656
  228SOL    HW2 1584   3.859   6.864   4.547
  229SOL     OW 1585   5.725   5.895   1.122
  229SOL    HW1 1586   5.661   5.820   1.103
  229SOL    HW2 1587   5.798   5.894   1.054
  230SOL     OW 1588   1.959   3.941   4.106
  230SOL    HW1 1589   1.889   3.906   4.044
  230SOL    HW2 1590   2.049   3.937   4.061
  231SOL     OW 1591   6.238   2.938   6.303
  231SOL    HW1 1592   6.328   2.949   6.261
  231SOL    HW2 1593   6.167   2.951   6.234
  232SOL     OW 1594   1.371   3.361   6.292
  232SOL    HW1 1595   1.470   3.356   6.307
  232SOL    HW2 1596   1.345   3.456   6.273
  233SOL     OW 1597   2.418   0.690   5.209
  233SOL    HW1 1598   2.370   0.685   5.296
  233SOL    HW2 1599   2.427   0.785   5.181
  234SOL     OW 1600   2.316   4.909   6.480
  234SOL    HW1 1601   2.330   5.008   6.474
  234SOL    HW2 1602   2.218   4.889   6.476
  235SOL     OW 1603   3.638   3.436   3.512
  235SOL    HW1 1604   3.606   3.348   3.549
  235SOL    HW2 1605   3.708   3.474   3.573
  236SOL     OW 1606   6.466   3.210   6.651
  236SOL    HW1 1607   6.455   3.113   6.628
  236SOL    HW2 1608   6.537   3.220   6.721
  237SOL     OW 1609   0.039   6.543   1.104
  237SOL    HW1 1610   7.024   6.500   1.023
  237SOL    HW2 1611   0.128   6.501   1.124
  238SOL     OW 1612   5.521   3.608   1.540
  238SOL    HW1 1613   5.448   3.555   1.498
  238SOL    HW2 1614   5.503   3.619   1.638
  239SOL     OW 1615   7.019   5.437   6.851
  239SOL    HW1 1616   6.984   5.354   6.895
  239SOL    HW2 1617   7.014   5.513   6.915
  240SOL     OW 1618   0.833   3.529   5.963
  240SOL    HW1 1619   0.819   3.444   5.912
  240SOL    HW2 1620   0.771   3.531   6.041
  241SOL     OW 1621   0.339   1.282   3.460
  241SOL    HW1 1622   0.329   1.243   3.552
  241SOL    HW2 1623   0.398   1.224   3.405
  242SOL     OW 1624   1.438   2.957   5.308
  242SOL    HW1 1625   1.522   2.916   5.343
  242SOL    HW2 1626   1.400   2.899   5.236
  243SOL     OW 1627   4.681   0.370   6.064
  243SOL    HW1 1628   4.726   0.372   5.974
  243SOL    HW2 1629   4.600   0.428   6.062
  244SOL     OW 1630   4.713   1.873   5.067
  244SOL    HW1 1631   4.789   1.882   5.003
  244SOL    HW2 1632   4.702   1.959   5.118
  245SOL     OW 1633   6.442   2.374   4.745
  245SOL    HW1 1634   6.516   2.331   4.692
  245SOL    HW2 1635   6.378   2.303   4.776
  246SOL     OW 1636   4.971   3.628   4.362
  246SOL    HW1 1637   4.941   3.602   4.454
  246SOL    HW2 1638   4.908   3.589   4.294
  247SOL     OW 1639   2.628   1.478   3.144
  247SOL    HW1 1640   2.536   1.505   3.117
  247SOL    HW2 1641   2.688   1.558   3.146
  248SOL     OW 1642   4.925   2.218   4.860
  248SOL    HW1 1643   4.860   2.253   4.793
  248SOL    HW2 1644   5.017   2.222   4.823
  249SOL     OW 1645   3.459   6.581   4.838
  249SOL    HW1 1646   3.437   6.538   4.750
  249SOL    HW2 1647   3.467   6.680   4.825
  250SOL     OW 1648   5.735   2.072   5.645
  250SOL    HW1 1649   5.813   2.034   5.596
  250SOL    HW2 1650   5.651   2.054   5.594
  251SOL     OW 1651   4.348   3.075   6.132
  251SOL    HW1 1652   4.339   3.115   6.223
  251SOL    HW2 1653   4.328   2.977   6.137
  252SOL     OW 1654   6.871   1.414   5.503
  252SOL    HW1 1655   6.850   1.455   5.415
  252SOL    HW2 1656   6.825   1.326   5.511
  253SOL     OW 1657   1.540   3.301   1.212
  253SOL    HW1 1658   1.448   3.319   1.179
  253SOL    HW2 1659   1.567   3.207   1.190
  254SOL     OW 1660   0.080   3.222   4.625
  254SOL    HW1 1661   0.026   3.282   4.565
  254SOL    HW2 1662   0.158   3.186   4.575
  255SOL     OW 1663   3.158   2.111   3.351
  255SOL    HW1 1664   3.104   2.054   3.412
  255SOL    HW2 1665   3.241   2.063   3.325
  256SOL     OW 1666   6.507   5.397   6.651
  256SOL    HW1 1667   6.501   5.321   6.586
  256SOL    HW2 1668   6.560   5.471   6.611
  257SOL     OW 1669   2.750   5.758   6.194
  257SOL    HW1 1670   2.745   5.810   6.279
  257SOL    HW2 1671   2.721   5.663   6.212
  258SOL     OW 1672   4.809   4.665   4.723
  258SOL    HW1 1673   4.840   4.590   4.664
  258SOL    HW2 1674   4.814   4.751   4.673
  259SOL     OW 1675   1.908   3.049   2.772
  259SOL    HW1 1676   1.835   3.036   2.839
  259SOL    HW2 1677   1.909   2.973   2.707
  260SOL     OW 1678   5.111   0.551   6.257
  260SOL    HW1 1679   5.080   0.456   6.261
  260SOL    HW2 1680   5.046   0.606   6.205
  261SOL     OW 1681   0.203   4.008   1.613
  261SOL    HW1 1682   0.280   3.993   1.551
  261SOL    HW2 1683   0.126   4.046   1.561
  262SOL     OW 1684   1.280   3.182   2.455
  262SOL    HW1 1685   1.339   3.248   2.408
  262SOL    HW2 1686   1.184   3.201   2.433
  263SOL     OW 1687   0.800   2.301   4.909
  263SOL    HW1 1688   0.742   2.227   4.873
  263SOL    HW2 1689   0.772   2.388   4.868
  264SOL     OW 1690   0.900   3.599   5.669
  264SOL    HW1 1691   0.904   3.698   5.653
  264SOL    HW2 1692   0.837   3.580   5.744
  265SOL     OW 1693   4.944   4.254   4.237
  265SOL    HW1 1694   4.975   4.326   4.175
  265SOL    HW2 1695   4.849   4.229   4.215
  266SOL     OW 1696   3.974   1.966   0.543
  266SOL    HW1 1697   3.959   2.061   0.513
  266SOL    HW2 1698   4.013   1.913   0.468
  267SOL     OW 1699   1.406   2.769   6.874
  267SOL    HW1 1700   1.310   2.796   6.880
  267SOL    HW2 1701   1.413   2.669   6.867
  268SOL     OW 1702   4.496   4.567   4.417
  268SOL    HW1 1703   4.484   4.515   4.501
  268SOL    HW2 1704   4.421   4.632   4.407
  269SOL     OW 1705   1.631   1.761   6.546
  269SOL    HW1 1706   1.591   1.670   6.557
  269SOL    HW2 1707   1.658   1.775   6.450
  270SOL     OW 1708   5.572   0.951   2.385
  270SOL    HW1 1709   5.487   0.998   2.362
  270SOL    HW2 1710   5.585   0.951   2.484
  271SOL     OW 1711   1.949   1.138   1.207
  271SOL    HW1 1712   1.863   1.098   1.239
  271SOL    HW2 1713   2.020   1.122   1.276
  272SOL     OW 1714   4.210   5.082   4.604
  272SOL    HW1 1715   4.197   4.984   4.593
  272SOL    HW2 1716   4.153   5.115   4.680
  273SOL     OW 1717   1.374   5.875   4.588
  273SOL    HW1 1718   1.427   5.956   4.563
  273SOL    HW2 1719   1.433   5.809   4.635
  274SOL     OW 1720   5.794   2.894   3.403
  274SOL    HW1 1721   5.792   2.806   3.450
  274SOL    HW2 1722   5.880   2.941   3.422
  275SOL     OW 1723   6.964   6.555   6.034
  275SOL    HW1 1724   7.023   6.517   6.105
  275SOL    HW2 1725   6.906   6.483   5.996
  276SOL     OW 1726   6.798   5.612   3.446
  276SOL    HW1 1727   6.881   5.561   3.465
  276SOL    HW2 1728   6.810   5.707   3.473
  277SOL     OW 1729   3.515   1.253   5.558
  277SOL    HW1 1730   3.469   1.330   5.514
  277SOL    HW2 1731   3.593   1.286   5.611
  278SOL     OW 1732   5.161   4.558   2.043
  278SOL    HW1 1733   5.186   4.561   2.140
  278SOL    HW2 1734   5.068   4.523   2.034
  279SOL     OW 1735   0.067   2.949   3.353
  279SOL    HW1 1736   0.120   3.013   3.298
  279SOL    HW2 1737   0.055   2.864   3.302
  280SOL     OW 1738   4.558   6.647   3.923
  280SOL    HW1 1739   4.573   6.671   4.019
  280SOL    HW2 1740   4.464   6.672   3.897
  281SOL     OW 1741   4.081   5.476   3.920
  281SOL    HW1 1742   4.086   5.499   4.018
  281SOL    HW2 1743   4.156   5.521   3.872
  282SOL     OW 1744   4.430   1.884   6.186
  282SOL    HW1 1745   4.404   1.887   6.282
  282SOL    HW2 1746   4.424   1.790   6.153
  283SOL     OW 1747   6.328   0.596   4.658
  283SOL    HW1 1748   6.422   0.570   4.636
  283SOL    HW2 1749   6.317   0.600   4.758
  284SOL     OW 1750   0.413   4.859   4.886
  284SOL    HW1 1751   0.443   4.950   4.858
  284SOL    HW2 1752   0.353   4.821   4.816
  285SOL     OW 1753   4.871   0.124   0.115
  285SOL    HW1 1754   4.843   0.140   0.210
  285SOL    HW2 1755   4.950   0.181   0.092
  286SOL     OW 1756   3.719   5.438   4.796
  286SOL    HW1 1757   3.809   5.440   4.753
  286SOL    HW2 1758   3.648   5.444   4.725
  287SOL     OW 1759   1.259   5.850   6.388
  287SOL    HW1 1760   1.301   5.898   6.311
  287SOL    HW2 1761   1.172   5.810   6.360
  288SOL     OW 1762   3.769   0.387   1.212
  288SOL    HW1 1763   3.723   0.470   1.244
  288SOL    HW2 1764   3.716   0.307   1.240
  289SOL     OW 1765   0.745   5.947   5.727
  289SOL    HW1 1766   0.679   6.022   5.734
  289SOL    HW2 1767   0.827   5.969   5.779
  290SOL     OW 1768   4.423   0.607   3.100
  290SOL    HW1 1769   4.392   0.610   3.195
  290SOL    HW2 1770   4.404   0.694   3.056
  291SOL     OW 1771   4.423   0.575   4.330
  291SOL    HW1 1772   4.354   0.619   4.388
  291SOL    HW2 1773   4.479   0.514   4.386
  292SOL     OW 1774   3.803   0.001   3.811
  292SOL    HW1 1775   3.774   7.006   3.905
  292SOL    HW2 1776   3.739   0.066   3.769
  293SOL     OW 1777   4.799   6.563   2.280
  293SOL    HW1 1778   4.737   6.497   2.238
  293SOL    HW2 1779   4.776   6.655   2.247
  294SOL     OW 1780   5.658   0.149   5.864
  294SOL    HW1 1781   5.635   0.238   5.902
  294SOL    HW2 1782   5.751   0.125   5.892
  295SOL     OW 1783   1.337   2.434   5.025
  295SOL    HW1 1784   1.318   2.336   5.027
  295SOL    HW2 1785   1.349   2.463   4.930
  296SOL     OW 1786   6.431   1.284   1.258
  296SOL    HW1 1787   6.475   1.280   1.168
  296SOL    HW2 1788   6.495   1.251   1.328
  297SOL     OW 1789   4.872   4.967   3.794
  297SOL    HW1 1790   4.932   5.030   3.844
  297SOL    HW2 1791   4.868   4.994   3.698
  298SOL     OW 1792   4.214   0.539   0.610
  298SOL    HW1 1793   4.255   0.450   0.588
  298SOL    HW2 1794   4.238   0.605   0.539
  299SOL     OW 1795   3.451   1.673   0.303
  299SOL    HW1 1796   3.369   1.648   0.354
  299SOL    HW2 1797   3.426   1.697   0.210
  300SOL     OW 1798   3.530   1.021   2.257
  300SOL    HW1 1799   3.492   1.079   2.185
  300SOL    HW2 1800   3.468   0.944   2.276
  301SOL     OW 1801   4.922   6.046   1.870
  301SOL    HW1 1802   4.972   6.102   1.803
  301SOL    HW2 1803   4.984   5.978   1.908
  302SOL     OW 1804   0.216   6.359   1.824
  302SOL    HW1 1805   0.263   6.273   1.843
  302SOL    HW2 1806   0.243   6.392   1.734
  303SOL     OW 1807   5.902   5.639   2.166
  303SOL    HW1 1808   5.873   5.591   2.084
  303SOL    HW2 1809   5.864   5.732   2.165
  304SOL     OW 1810   1.224   6.770   5.437
  304SOL    HW1 1811   1.212   6.836   5.511
  304SOL    HW2 1812   1.254   6.683   5.475
  305SOL     OW 1813   0.809   3.226   1.728
  305SOL    HW1 1814   0.795   3.207   1.826
  305SOL    HW2 1815   0.853   3.149   1.685
  306SOL     OW 1816   6.800   1.035   2.632
  306SOL    HW1 1817   6.765   1.004   2.721
  306SOL    HW2 1818   6.724   1.059   2.572
  307SOL     OW 1819   3.509   3.132   0.865
  307SOL    HW1 1820   3.417   3.098   0.842
  307SOL    HW2 1821   3.540   3.195   0.794
  308SOL     OW 1822   5.668   1.688   4.707
  308SOL    HW1 1823   5.726   1.716   4.631
  308SOL    HW2 1824   5.698   1.734   4.791
  309SOL     OW 1825   6.994   7.015   6.944
  309SOL    HW1 1826   0.052   6.959   6.935
  309SOL    HW2 1827   6.952   0.004   6.854
  310SOL     OW 1828   5.426   6.304   4.509
  310SOL    HW1 1829   5.371   6.261   4.437
  310SOL    HW2 1830   5.503   6.352   4.469
  311SOL     OW 1831   2.745   4.965   2.820
  311SOL    HW1 1832   2.780   4.871   2.822
  311SOL    HW2 1833   2.700   4.985   2.907
  312SOL     OW 1834   4.331   2.360   3.353
  312SOL    HW1 1835   4.347   2.265   3.377
  312SOL    HW2 1836   4.394   2.419   3.404
  313SOL     OW 1837   3.665   3.440   2.417
  313SOL    HW1 1838   3.593   3.482   2.473
  313SOL    HW2 1839   3.625   3.372   2.356
  314SOL     OW 1840   1.835   5.625   4.825
  314SOL    HW1 1841   1.860   5.656   4.733
  314SOL    HW2 1842   1.906   5.564   4.860
  315SOL     OW 1843   6.372   1.470   3.447
  315SOL    HW1 1844   6.385   1.470   3.348
  315SOL    HW2 1845   6.351   1.377   3.478
  316SOL     OW 1846   4.234   1.736   5.628
  316SOL    HW1 1847   4.317   1.710   5.579
  316SOL    HW2 1848   4.202   1.825   5.596
  317SOL     OW 1849   1.705   1.708   1.787
  317SOL    HW1 1850   1.732   1.617   1.754
  317SOL    HW2 1851   1.653   1.755   1.715
  318SOL     OW 1852   6.741   0.619   5.963
  318SOL    HW1 1853   6.731   0.718   5.956
  318SOL    HW2 1854   6.804   0.597   6.039
  319SOL     OW 1855   0.611   2.179   2.637
  319SOL    HW1 1856   0.622   2.191   2.735
  319SOL    HW2 1857   0.549   2.249   2.601
  320SOL     OW 1858   5.731   2.217   6.900
  320SOL    HW1 1859   5.721   2.270   6.816
  320SOL    HW2 1860   5.642   2.181   6.928
  321SOL     OW 1861   3.537   3.444   0.399
  321SOL    HW1 1862   3.604   3.433   0.326
  321SOL    HW2 1863   3.531   3.541   0.424
  322SOL     OW 1864   3.872   3.260   6.238
  322SOL    HW1 1865   3.886   3.304   6.327
  322SOL    HW2 1866   3.920   3.172   6.236
  323SOL     OW 1867   0.581   2.880   3.528
  323SOL    HW1 1868   0.544   2.953   3.470
  323SOL    HW2 1869   0.513   2.807   3.538
  324SOL     OW 1870   2.509   6.635   3.440
  324SOL    HW1 1871   2.561   6.596   3.365
  324SOL    HW2 1872   2.421   6.587   3.448
  325SOL     OW 1873   1.293   3.700   2.403
  325SOL    HW1 1874   1.313   3.787   2.448
  325SOL    HW2 1875   1.218   3.713   2.338
  326SOL     OW 1876   1.507   4.769   6.568
  326SOL    HW1 1877   1.581   4.721   6.521
  326SOL    HW2 1878   1.538   4.798   6.659
  327SOL     OW 1879   2.743   4.723   2.578
  327SOL    HW1 1880   2.710   4.698   2.487
  327SOL    HW2 1881   2.700   4.663   2.646
  328SOL     OW 1882   1.161   4.190   1.912
  328SOL    HW1 1883   1.177   4.168   2.008
  328SOL    HW2 1884   1.240   4.160   1.857
  329SOL     OW 1885   2.976   3.925   0.869
  329SOL    HW1 1886   2.973   4.017   0.830
  329SOL    HW2 1887   2.926   3.862   0.809
  330SOL     OW 1888   3.920   5.771   7.016
  330SOL    HW1 1889   3.999   5.789   0.051
  330SOL    HW2 1890   3.944   5.701   6.949
  331SOL     OW 1891   5.714   5.010   0.988
  331SOL    HW1 1892   5.751   4.946   0.921
  331SOL    HW2 1893   5.678   5.091   0.941
  332SOL     OW 1894   5.372   1.684   3.879
  332SOL    HW1 1895   5.403   1.779   3.883
  332SOL    HW2 1896   5.444   1.624   3.913
  333SOL     OW 1897   4.175   1.095   5.230
  333SOL    HW1 1898   4.225   1.011   5.209
  333SOL    HW2 1899   4.099   1.074   5.292
  334SOL     OW 1900   3.507   2.798   2.347
  334SOL    HW1 1901   3.543   2.877   2.298
  334SOL    HW2 1902   3.462   2.736   2.282
  335SOL     OW 1903   4.288   0.129   6.815
  335SOL    HW1 1904   4.342   0.200   6.768
  335SOL    HW2 1905   4.222   0.172   6.876
  336SOL     OW 1906   3.108   1.148   3.212
  336SOL    HW1 1907   3.146   1.075   3.155
  336SOL    HW2 1908   3.147   1.236   3.185
  337SOL     OW 1909   1.784   2.350   6.008
  337SOL    HW1 1910   1.874   2.352   6.053
  337SOL    HW2 1911   1.730   2.274   6.045
  338SOL     OW 1912   3.968   3.058   1.137
  338SOL    HW1 1913   4.045   2.997   1.155
  338SOL    HW2 1914   3.884   3.017   1.172
  339SOL     OW 1915   4.275   4.738   4.421
  339SOL    HW1 1916   4.212   4.764   4.494
  339SOL    HW2 1917   4.228   4.743   4.332
  340SOL     OW 1918   5.352   3.124   4.870
  340SOL    HW1 1919   5.397   3.155   4.954
  340SOL    HW2 1920   5.412   3.060   4.823
  341SOL     OW 1921   5.686   5.801   4.681
  341SOL    HW1 1922   5.655   5.706   4.689
  341SOL    HW2 1923   5.776   5.802   4.637
  342SOL     OW 1924   4.465   3.831   1.031
  342SOL    HW1 1925   4.447   3.845   0.934
  342SOL    HW2 1926   4.555   3.868   1.054
  343SOL     OW 1927   0.359   6.438   2.696
  343SOL    HW1 1928   0.268   6.466   2.668
  343SOL    HW2 1929   0.427   6.481   2.636
  344SOL     OW 1930   0.980   1.747   2.137
  344SOL    HW1 1931   0.889   1.751   2.095
  344SOL    HW2 1932   1.003   1.837   2.174
  345SOL     OW 1933   6.532   2.401   4.226
  345SOL    HW1 1934   6.469   2.326   4.247
  345SOL    HW2 1935   6.623   2.364   4.206
  346SOL     OW 1936   1.912   6.852   2.524
  346SOL    HW1 1937   2.001   6.838   2.479
  346SOL    HW2 1938   1.921   6.830   2.621
  347SOL     OW 1939   2.371   5.787   6.908
  347SOL    HW1 1940   2.396   5.759   6.816
  347SOL    HW2 1941   2.408   5.721   6.974
  348SOL     OW 1942   4.423   5.043   2.401
  348SOL    HW1 1943   4.368   5.119   2.435
  348SOL    HW2 1944   4.371   4.958   2.410
  349SOL     OW 1945   6.537   4.160   2.371
  349SOL    HW1 1946   6.565   4.131   2.280
  349SOL    HW2 1947   6.547   4.259   2.379
  350SOL     OW 1948   3.057   2.842   0.185
  350SOL    HW1 1949   3.081   2.910   0.116
  350SOL    HW2 1950   2.967   2.804   0.163
  351SOL     OW 1951   2.989   3.651   0.598
  351SOL    HW1 1952   2.939   3.738   0.594
  351SOL    HW2 1953   2.968   3.604   0.683
  352SOL     OW 1954   4.193   6.385   3.303
  352SOL    HW1 1955   4.158   6.472   3.269
  352SOL    HW2 1956   4.262   6.403   3.373
  353SOL     OW 1957   3.253   6.945   5.999
  353SOL    HW1 1958   3.326   7.013   6.003
  353SOL    HW2 1959   3.176   6.981   5.946
  354SOL     OW 1960   5.404   3.076   0.371
  354SOL    HW1 1961   5.335   3.013   0.406
  354SOL    HW2 1962   5.453   3.118   0.448
  355SOL     OW 1963   1.919   2.830   2.620
  355SOL    HW1 1964   2.004   2.780   2.640
  355SOL    HW2 1965   1.849   2.766   2.588
  356SOL     OW 1966   2.184   0.759   4.703
  356SOL    HW1 1967   2.137   0.680   4.744
  356SOL    HW2 1968   2.116   0.818   4.659
  357SOL     OW 1969   6.997   5.895   4.262
  357SOL    HW1 1970   0.043   5.848   4.208
  357SOL    HW2 1971   7.022   5.891   4.359
  358SOL     OW 1972   4.579   6.491   1.083
  358SOL    HW1 1973   4.601   6.435   1.162
  358SOL    HW2 1974   4.657   6.492   1.020
  359SOL     OW 1975   3.379   0.751   1.478
  359SOL    HW1 1976   3.456   0.687   1.484
  359SOL    HW2 1977   3.380   0.795   1.388
  360SOL     OW 1978   1.703   4.295   4.843
  360SOL    HW1 1979   1.734   4.248   4.926
  360SOL    HW2 1980   1.758   4.264   4.765
  361SOL     OW 1981   5.906   6.157   2.487
  361SOL    HW1 1982   5.915   6.257   2.481
  361SOL    HW2 1983   5.837   6.127   2.421
  362SOL     OW 1984   3.986   4.102   0.498
  362SOL    HW1 1985   3.897   4.109   0.542
  362SOL    HW2 1986   4.053   4.158   0.548
  363SOL     OW 1987   5.865   4.639   2.917
  363SOL    HW1 1988   5.804   4.718   2.918
  363SOL    HW2 1989   5.811   4.555   2.925
  364SOL     OW 1990   0.570   4.795   6.495
  364SOL    HW1 1991   0.546   4.851   6.574
  364SOL    HW2 1992   0.645   4.734   6.519
  365SOL     OW 1993   3.454   0.910   1.278
  365SOL    HW1 1994   3.549   0.894   1.304
  365SOL    HW2 1995   3.449   0.984   1.211
  366SOL     OW 1996   5.987   2.844   6.660
  366SOL    HW1 1997   5.919   2.805   6.599
  366SOL    HW2 1998   5.982   2.799   6.749
  367SOL     OW 1999   5.996   2.509   6.032
  367SOL    HW1 2000   5.922   2.541   5.973
  367SOL    HW2 2001   6.004   2.569   6.111
  368SOL     OW 2002   6.813   2.167   5.947
  368SOL    HW1 2003   6.873   2.244   5.925
  368SOL    HW2 2004   6.846   2.123   6.031
  369SOL     OW 2005   5.964   4.239   2.731
  369SOL    HW1 2006   5.965   4.148   2.689
  369SOL    HW2 2007   6.055   4.279   2.724
  370SOL     OW 2008   1.112   1.684   4.238
  370SOL    HW1 2009   1.212   1.681   4.236
  370SOL    HW2 2010   1.081   1.772   4.202
  371SOL     OW 2011   1.794   4.512   6.694
  371SOL    HW1 2012   1.737   4.434   6.673
  371SOL    HW2 2013   1.838   4.498   6.783
  372SOL     OW 2014   1.969   6.854   5.168
  372SOL    HW1 2015   1.924   6.777   5.124
  372SOL    HW2 2016   1.919   6.880   5.250
  373SOL     OW 2017   5.675   6.868   5.742
  373SOL    HW1 2018   5.692   6.946   5.802
  373SOL    HW2 2019   5.763   6.832   5.708
  374SOL     OW 2020   2.659   1.906   3.011
  374SOL    HW1 2021   2.646   1.951   2.922
  374SOL    HW2 2022   2.603   1.952   3.079
  375SOL     OW 2023   0.947   5.068   4.644
  375SOL    HW1 2024   0.958   5.136   4.717
  375SOL    HW2 2025   1.016   4.996   4.656
  376SOL     OW 2026   1.973   1.502   5.491
  376SOL    HW1 2027   1.934   1.511   5.399
  376SOL    HW2 2028   1.964   1.589   5.539
  377SOL     OW 2029   1.974   2.424   0.088
  377SOL    HW1 2030   1.985   2.390   0.182
  377SOL    HW2 2031   1.989   2.523   0.086
  378SOL     OW 2032   3.963   1.438   6.539
  378SOL    HW1 2033   4.028   1.363   6.525
  378SOL    HW2 2034   3.896   1.412   6.609
  379SOL     OW 2035   4.998   2.776   6.845
  379SOL    HW1 2036   5.046   2.762   6.932
  379SOL    HW2 2037   4.922   2.839   6.858
  380SOL     OW 2038   2.639   1.463   1.257
  380SOL    HW1 2039   2.712   1.401   1.229
  380SOL    HW2 2040   2.675   1.530   1.322
  381SOL     OW 2041   1.593   3.728   3.985
  381SOL    HW1 2042   1.690   3.706   3.993
  381SOL    HW2 2043   1.582   3.813   3.933
  382SOL     OW 2044   5.873   0.455   6.997
  382SOL    HW1 2045   5.778   0.423   7.004
  382SOL    HW2 2046   5.906   0.438   6.904
  383SOL     OW 2047   4.375   2.844   0.818
  383SOL    HW1 2048   4.400   2.871   0.911
  383SOL    HW2 2049   4.299   2.779   0.821
  384SOL     OW 2050   0.337   4.714   4.236
  384SOL    HW1 2051   0.315   4.714   4.139
  384SOL    HW2 2052   0.274   4.653   4.284
  385SOL     OW 2053   3.531   5.783   5.881
  385SOL    HW1 2054   3.545   5.690   5.847
  385SOL    HW2 2055   3.514   5.844   5.804
  386SOL     OW 2056   4.161   0.422   4.223
  386SOL    HW1 2057   4.239   0.481   4.244
  386SOL    HW2 2058   4.139   0.366   4.303
  387SOL     OW 2059   1.579   5.627   2.484
  387SOL    HW1 2060   1.505   5.593   2.542
  387SOL    HW2 2061   1.572   5.727   2.477
  388SOL     OW 2062   2.036   1.640   6.507
  388SOL    HW1 2063   2.053   1.736   6.485
  388SOL    HW2 2064   2.082   1.617   6.593
  389SOL     OW 2065   3.835   3.116   2.323
  389SOL    HW1 2066   3.827   3.190   2.390
  389SOL    HW2 2067   3.792   3.034   2.358
  390SOL     OW 2068   3.247   1.051   3.847
  390SOL    HW1 2069   3.322   1.058   3.913
  390SOL    HW2 2070   3.277   1.088   3.759
  391SOL     OW 2071   1.971   2.636   6.506
  391SOL    HW1 2072   2.016   2.688   6.579
  391SOL    HW2 2073   1.873   2.633   6.522
  392SOL     OW 2074   1.989   4.478   0.028
  392SOL    HW1 2075   2.032   4.493   0.117
  392SOL    HW2 2076   2.014   4.387   7.018
  393SOL     OW 2077   6.540   4.779   5.462
  393SOL    HW1 2078   6.488   4.860   5.437
  393SOL    HW2 2079   6.553   4.777   5.562
  394SOL     OW 2080   0.430   0.591   0.251
  394SOL    HW1 2081   0.494   0.660   0.286
  394SOL    HW2 2082   0.341   0.633   0.235
  395SOL     OW 2083   5.182   4.271   2.466
  395SOL    HW1 2084   5.092   4.246   2.430
  395SOL    HW2 2085   5.247   4.198   2.448
  396SOL     OW 2086   4.065   3.847   2.026
  396SOL    HW1 2087   4.123   3.908   1.973
  396SOL    HW2 2088   4.056   3.759   1.979
  397SOL     OW 2089   3.694   2.563   5.850
  397SOL    HW1 2090   3.781   2.569   5.801
  397SOL    HW2 2091   3.620   2.546   5.785
  398SOL     OW 2092   0.477   6.550   2.265
  398SOL    HW1 2093   0.428   6.556   2.178
  398SOL    HW2 2094   0.571   6.581   2.253
  399SOL     OW 2095   4.747   6.186   2.483
  399SOL    HW1 2096   4.683   6.251   2.441
  399SOL    HW2 2097   4.706   6.150   2.567
  400SOL     OW 2098   6.378   0.147   5.274
  400SOL    HW1 2099   6.364   0.166   5.371
  400SOL    HW2 2100   6.469   0.106   5.261
  401SOL     OW 2101   4.485   0.973   5.997
  401SOL    HW1 2102   4.486   0.991   6.096
  401SOL    HW2 2103   4.466   1.058   5.948
  402SOL     OW 2104   5.972   6.391   2.907
  402SOL    HW1 2105   5.903   6.320   2.895
  402SOL    HW2 2106   5.941   6.475   2.863
  403SOL     OW 2107   3.820   2.247   5.502
  403SOL    HW1 2108   3.843   2.177   5.569
  403SOL    HW2 2109   3.745   2.214   5.444
  404SOL     OW 2110   1.623   6.401   3.891
  404SOL    HW1 2111   1.693   6.450   3.840
  404SOL    HW2 2112   1.666   6.339   3.957
  405SOL     OW 2113   1.490   3.496   1.707
  405SOL    HW1 2114   1.578   3.538   1.681
  405SOL    HW2 2115   1.506   3.428   1.779
  406SOL     OW 2116   0.850   3.728   3.368
  406SOL    HW1 2117   0.799   3.809   3.397
  406SOL    HW2 2118   0.905   3.751   3.288
  407SOL     OW 2119   1.907   0.614   4.101
  407SOL    HW1 2120   1.911   0.554   4.181
  407SOL    HW2 2121   1.977   0.587   4.035
  408SOL     OW 2122   1.369   0.905   2.988
  408SOL    HW1 2123   1.455   0.906   2.937
  408SOL    HW2 2124   1.328   0.996   2.986
  409SOL     OW 2125   5.989   2.966   1.800
  409SOL    HW1 2126   6.084   2.958   1.769
  409SOL    HW2 2127   5.986   2.962   1.900
  410SOL     OW 2128   2.414   0.233   6.821
  410SOL    HW1 2129   2.391   0.157   6.761
  410SOL    HW2 2130   2.486   0.289   6.780
  411SOL     OW 2131   5.629   0.102   6.945
  411SOL    HW1 2132   5.617   0.027   6.880
  411SOL    HW2 2133   5.720   0.142   6.933
  412SOL     OW 2134   4.788   6.655   3.640
  412SOL    HW1 2135   4.725   6.723   3.678
  412SOL    HW2 2136   4.794   6.577   3.703
  413SOL     OW 2137   5.515   4.564   1.553
  413SOL    HW1 2138   5.484   4.630   1.485
  413SOL    HW2 2139   5.486   4.472   1.526
  414SOL     OW 2140   3.643   5.319   3.913
  414SOL    HW1 2141   3.573   5.351   3.976
  414SOL    HW2 2142   3.701   5.252   3.960
  415SOL     OW 2143   0.790   6.008   6.898
  415SOL    HW1 2144   0.793   5.941   6.972
  415SOL    HW2 2145   0.863   5.988   6.832
  416SOL     OW 2146   5.054   5.214   4.881
  416SOL    HW1 2147   5.099   5.240   4.966
  416SOL    HW2 2148   4.986   5.143   4.899
  417SOL     OW 2149   2.620   5.930   0.891
  417SOL    HW1 2150   2.642   5.931   0.989
  417SOL    HW2 2151   2.536   5.879   0.876
  418SOL     OW 2152   4.156   5.851   1.526
  418SOL    HW1 2153   4.256   5.856   1.516
  418SOL    HW2 2154   4.124   5.763   1.493
  419SOL     OW 2155   1.625   0.292   1.751
  419SOL    HW1 2156   1.696   0.343   1.702
  419SOL    HW2 2157   1.537   0.339   1.741
  420SOL     OW 2158   6.432   3.023   1.473
  420SOL    HW1 2159   6.437   3.115   1.512
  420SOL    HW2 2160   6.372   3.023   1.394
  421SOL     OW 2161   6.771   4.608   5.655
  421SOL    HW1 2162   6.731   4.523   5.688
  421SOL    HW2 2163   6.727   4.685   5.701
  422SOL     OW 2164   5.949   4.149   0.256
  422SOL    HW1 2165   5.951   4.214   0.180
  422SOL    HW2 2166   6.013   4.074   0.237
  423SOL     OW 2167   0.397   2.687   6.962
  423SOL    HW1 2168   0.330   2.734   6.904
  423SOL    HW2 2169   0.456   2.631   6.904
  424SOL     OW 2170   2.697   3.531   1.367
  424SOL    HW1 2171   2.657   3.580   1.444
  424SOL    HW2 2172   2.753   3.595   1.313
  425SOL     OW 2173   6.216   1.075   2.398
  425SOL    HW1 2174   6.158   1.131   2.457
  425SOL    HW2 2175   6.312   1.088   2.423
  426SOL     OW 2176   5.193   2.379   4.288
  426SOL    HW1 2177   5.279   2.429   4.289
  426SOL    HW2 2178   5.175   2.344   4.195
  427SOL     OW 2179   5.596   4.853   2.320
  427SOL    HW1 2180   5.542   4.816   2.244
  427SOL    HW2 2181   5.635   4.778   2.373
  428SOL     OW 2182   4.447   6.940   4.819
  428SOL    HW1 2183   4.399   7.024   4.845
  428SOL    HW2 2184   4.397   6.861   4.854
  429SOL     OW 2185   2.604   3.880   1.339
  429SOL    HW1 2186   2.657   3.909   1.418
  429SOL    HW2 2187   2.592   3.956   1.276
  430SOL     OW 2188   0.373   0.239   4.440
  430SOL    HW1 2189   0.366   0.214   4.537
  430SOL    HW2 2190   0.404   0.160   4.387
  431SOL     OW 2191   3.517   0.075   0.587
  431SOL    HW1 2192   3.469   7.015   0.612
  431SOL    HW2 2193   3.533   0.129   0.670
  432SOL     OW 2194   6.230   2.157   2.304
  432SOL    HW1 2195   6.246   2.187   2.209
  432SOL    HW2 2196   6.193   2.233   2.357
  433SOL     OW 2197   3.145   6.170   4.786
  433SOL    HW1 2198   3.229   6.182   4.733
  433SOL    HW2 2199   3.163   6.189   4.882
  434SOL     OW 2200   3.981   5.149   1.967
  434SOL    HW1 2201   3.999   5.243   1.938
  434SOL    HW2 2202   3.896   5.117   1.924
  435SOL     OW 2203   3.745   2.051   5.107
  435SOL    HW1 2204   3.733   1.953   5.090
  435SOL    HW2 2205   3.794   2.092   5.031
  436SOL     OW 2206   3.301   5.868   0.720
  436SOL    HW1 2207   3.285   5.777   0.683
  436SOL    HW2 2208   3.399   5.886   0.725
  437SOL     OW 2209   0.876   6.468   6.638
  437SOL    HW1 2210   0.966   6.454   6.679
  437SOL    HW2 2211   0.855   6.566   6.635
  438SOL     OW 2212   1.925   2.936   2.307
  438SOL    HW1 2213   1.918   2.915   2.404
  438SOL    HW2 2214   1.961   2.857   2.258
  439SOL     OW 2215   6.279   4.725   3.154
  439SOL    HW1 2216   6.212   4.653   3.139
  439SOL    HW2 2217   6.298   4.732   3.252
  440SOL     OW 2218   1.420   1.381   4.987
  440SOL    HW1 2219   1.511   1.339   4.979
  440SOL    HW2 2220   1.409   1.450   4.917
  441SOL     OW 2221   0.592   2.370   3.851
  441SOL    HW1 2222   0.607   2.462   3.815
  441SOL    HW2 2223   0.626   2.303   3.785
  442SOL     OW 2224   2.318   5.069   6.850
  442SOL    HW1 2225   2.411   5.059   6.816
  442SOL    HW2 2226   2.318   5.057   6.950
  443SOL     OW 2227   0.907   4.084   4.562
  443SOL    HW1 2228   0.899   4.005   4.622
  443SOL    HW2 2229   0.943   4.162   4.613
  444SOL     OW 2230   4.798   2.088   6.025
  444SOL    HW1 2231   4.741   2.170   6.023
  444SOL    HW2 2232   4.859   2.091   6.105
  445SOL     OW 2233   1.223   5.716   3.311
  445SOL    HW1 2234   1.225   5.736   3.409
  445SOL    HW2 2235   1.292   5.646   3.290
  446SOL     OW 2236   3.906   4.850   4.112
  446SOL    HW1 2237   3.855   4.856   4.198
  446SOL    HW2 2238   4.003   4.867   4.130
  447SOL     OW 2239   0.788   2.823   6.833
  447SOL    HW1 2240   0.851   2.750   6.806
  447SOL    HW2 2241   0.830   2.911   6.814
  448SOL     OW 2242   2.867   0.926   4.430
  448SOL    HW1 2243   2.814   0.974   4.500
  448SOL    HW2 2244   2.855   0.827   4.441
  449SOL     OW 2245   4.331   0.367   4.805
  449SOL    HW1 2246   4.308   0.314   4.723
  449SOL    HW2 2247   4.284   0.328   4.884
  450SOL     OW 2248   1.801   5.783   3.811
  450SOL    HW1 2249   1.775   5.860   3.869
  450SOL    HW2 2250   1.848   5.714   3.866
  451SOL     OW 2251   1.930   2.209   3.628
  451SOL    HW1 2252   1.888   2.155   3.555
  451SOL    HW2 2253   2.017   2.246   3.596
  452SOL     OW 2254   6.480   6.037   1.321
  452SOL    HW1 2255   6.462   5.967   1.390
  452SOL    HW2 2256   6.579   6.053   1.314
  453SOL     OW 2257   3.480   0.621   4.666
  453SOL    HW1 2258   3.573   0.645   4.692
  453SOL    HW2 2259   3.428   0.705   4.647
  454SOL     OW 2260   0.118   4.826   6.056
  454SOL    HW1 2261   0.212   4.844   6.084
  454SOL    HW2 2262   0.110   4.732   6.022
  455SOL     OW 2263   6.669   2.225   3.267
  455SOL    HW1 2264   6.676   2.125   3.273
  455SOL    HW2 2265   6.692   2.266   3.355
  456SOL     OW 2266   5.285   5.843   4.663
  456SOL    HW1 2267   5.360   5.886   4.613
  456SOL    HW2 2268   5.322   5.782   4.733
  457SOL     OW 2269   2.148   3.480   3.819
  457SOL    HW1 2270   2.197   3.468   3.733
  457SOL    HW2 2271   2.152   3.576   3.846
  458SOL     OW 2272   4.317   5.652   3.819
  458SOL    HW1 2273   4.353   5.625   3.729
  458SOL    HW2 2274   4.332   5.750   3.832
  459SOL     OW 2275   1.957   6.581   4.599
  459SOL    HW1 2276   1.982   6.590   4.695
  459SOL    HW2 2277   1.881   6.515   4.590
  460SOL     OW 2278   1.605   0.060   3.710
  460SOL    HW1 2279   1.579   0.112   3.629
  460SOL    HW2 2280   1.557   6.996   3.710
  461SOL     OW 2281   6.134   7.017   5.362
  461SOL    HW1 2282   6.068   6.946   5.341
  461SOL    HW2 2283   6.122   0.070   5.299
  462SOL     OW 2284   3.648   2.650   6.112
  462SOL    HW1 2285   3.674   2.631   6.017
  462SOL    HW2 2286   3.657   2.567   6.167
  463SOL     OW 2287   6.736   5.219   3.514
  463SOL    HW1 2288   6.694   5.158   3.581
  463SOL    HW2 2289   6.673   5.233   3.437
  464SOL     OW 2290   2.672   2.598   6.094
  464SOL    HW1 2291   2.644   2.529   6.161
  464SOL    HW2 2292   2.734   2.663   6.137
  465SOL     OW 2293   1.314   2.516   4.210
  465SOL    HW1 2294   1.223   2.499   4.247
  465SOL    HW2 2295   1.377   2.537   4.284
  466SOL     OW 2296   1.540   4.943   2.975
  466SOL    HW1 2297   1.563   5.040   2.988
  466SOL    HW2 2298   1.455   4.936   2.922
  467SOL     OW 2299   1.110   1.249   0.250
  467SOL    HW1 2300   1.076   1.180   0.186
  467SOL    HW2 2301   1.209   1.259   0.238
  468SOL     OW 2302   3.352   6.197   6.726
  468SOL    HW1 2303   3.428   6.134   6.741
  468SOL    HW2 2304   3.314   6.225   6.814
  469SOL     OW 2305   3.069   4.848   0.190
  469SOL    HW1 2306   3.081   4.943   0.162
  469SOL    HW2 2307   2.989   4.809   0.144
  470SOL     OW 2308   4.385   0.204   2.356
  470SOL    HW1 2309   4.388   0.291   2.406
  470SOL    HW2 2310   4.290   0.173   2.351
  471SOL     OW 2311   1.859   2.384   4.297
  471SOL    HW1 2312   1.880   2.304   4.241
  471SOL    HW2 2313   1.813   2.453   4.241
  472SOL     OW 2314   5.078   3.910   6.555
  472SOL    HW1 2315   5.159   3.965   6.574
  472SOL    HW2 2316   5.066   3.841   6.627
  473SOL     OW 2317   0.807   3.227   2.008
  473SOL    HW1 2318   0.788   3.153   2.072
  473SOL    HW2 2319   0.887   3.278   2.038
  474SOL     OW 2320   5.022   5.366   4.104
  474SOL    HW1 2321   4.989   5.283   4.059
  474SOL    HW2 2322   5.058   5.429   4.035
  475SOL     OW 2323   5.693   0.652   6.561
  475SOL    HW1 2324   5.633   0.691   6.631
  475SOL    HW2 2325   5.667   0.687   6.471
  476SOL     OW 2326   6.634   3.999   3.038
  476SOL    HW1 2327   6.687   3.970   3.117
  476SOL    HW2 2328   6.545   4.033   3.069
  477SOL     OW 2329   1.062   4.477   4.401
  477SOL    HW1 2330   1.041   4.524   4.315
  477SOL    HW2 2331   1.148   4.513   4.439
  478SOL     OW 2332   3.239   6.720   2.046
  478SOL    HW1 2333   3.260   6.665   2.127
  478SOL    HW2 2334   3.233   6.660   1.966
  479SOL     OW 2335   4.245   2.478   6.898
  479SOL    HW1 2336   4.166   2.535   6.875
  479SOL    HW2 2337   4.275   2.498   6.991
  480SOL     OW 2338   2.179   1.238   0.280
  480SOL    HW1 2339   2.248   1.273   0.343
  480SOL    HW2 2340   2.219   1.227   0.189
  481SOL     OW 2341   1.335   0.545   0.537
  481SOL    HW1 2342   1.409   0.526   0.473
  481SOL    HW2 2343   1.275   0.465   0.542
  482SOL     OW 2344   5.014   4.899   3.175
  482SOL    HW1 2345   4.943   4.874   3.109
  482SOL    HW2 2346   5.002   4.847   3.259
  483SOL     OW 2347   6.948   1.565   1.849
  483SOL    HW1 2348   6.956   1.513   1.934
  483SOL    HW2 2349   0.010   1.613   1.832
  484SOL     OW 2350   1.309   2.875   4.830
  484SOL    HW1 2351   1.215   2.901   4.851
  484SOL    HW2 2352   1.352   2.948   4.777
  485SOL     OW 2353   3.785   5.386   2.520
  485SOL    HW1 2354   3.756   5.465   2.466
  485SOL    HW2 2355   3.880   5.397   2.547
  486SOL     OW 2356   6.854   2.006   0.679
  486SOL    HW1 2357   6.949   2.037   0.684
  486SOL    HW2 2358   6.793   2.081   0.703
  487SOL     OW 2359   1.312   2.168   1.383
  487SOL    HW1 2360   1.277   2.253   1.422
  487SOL    HW2 2361   1.258   2.146   1.301
  488SOL     OW 2362   0.756   1.987   1.809
  488SOL    HW1 2363   0.741   1.949   1.901
  488SOL    HW2 2364   0.820   1.929   1.759
  489SOL     OW 2365   3.049   6.169   6.453
  489SOL    HW1 2366   3.144   6.138   6.448
  489SOL    HW2 2367   3.045   6.268   6.443
  490SOL     OW 2368   6.639   5.892   3.070
  490SOL    HW1 2369   6.621   5.873   2.973
  490SOL    HW2 2370   6.615   5.812   3.125
  491SOL     OW 2371   0.289   3.140   2.550
  491SOL    HW1 2372   0.278   3.041   2.547
  491SOL    HW2 2373   0.384   3.163   2.573
  492SOL     OW 2374   2.410   0.189   5.358
  492SOL    HW1 2375   2.364   0.233   5.281
  492SOL    HW2 2376   2.484   0.247   5.391
  493SOL     OW 2377   4.994   6.531   5.800
  493SOL    HW1 2378   5.001   6.467   5.876
  493SOL    HW2 2379   4.914   6.509   5.744
  494SOL     OW 2380   6.785   0.914   6.627
  494SOL    HW1 2381   6.798   1.006   6.664
  494SOL    HW2 2382   6.689   0.887   6.636
  495SOL     OW 2383   4.730   5.970   3.702
  495SOL    HW1 2384   4.775   6.044   3.652
  495SOL    HW2 2385   4.780   5.885   3.688
  496SOL     OW 2386   5.286   3.381   2.081
  496SOL    HW1 2387   5.208   3.420   2.130
  496SOL    HW2 2388   5.314   3.443   2.008
  497SOL     OW 2389   3.421   1.242   4.278
  497SOL    HW1 2390   3.335   1.207   4.242
  497SOL    HW2 2391   3.415   1.340   4.293
  498SOL     OW 2392   1.901   4.239   1.372
  498SOL    HW1 2393   1.810   4.210   1.400
  498SOL    HW2 2394   1.936   4.177   1.302
  499SOL     OW 2395   2.658   0.382   4.075
  499SOL    HW1 2396   2.586   0.424   4.130
  499SOL    HW2 2397   2.746   0.421   4.102
  500SOL     OW 2398   0.806   3.506   3.647
  500SOL    HW1 2399   0.901   3.522   3.671
  500SOL    HW2 2400   0.800   3.431   3.580
  501SOL     OW 2401   2.535   6.375   0.052
  501SOL    HW1 2402   2.528   6.277   0.066
  501SOL    HW2 2403   2.548   6.394   6.978
  502SOL     OW 2404   6.605   3.969   0.120
  502SOL    HW1 2405   6.702   3.961   0.144
  502SOL    HW2 2406   6.596   4.018   0.033
  503SOL     OW 2407   6.139   6.003   6.186
  503SOL    HW1 2408   6.236   5.990   6.202
  503SOL    HW2 2409   6.111   6.092   6.221
  504SOL     OW 2410   1.819   5.241   3.128
  504SOL    HW1 2411   1.808   5.298   3.209
  504SOL    HW2 2412   1.916   5.240   3.101
  505SOL     OW 2413   3.539   6.223   4.893
  505SOL    HW1 2414   3.554   6.247   4.797
  505SOL    HW2 2415   3.466   6.279   4.931
  506SOL     OW 2416   1.743   5.338   5.054
  506SOL    HW1 2417   1.820   5.310   5.112
  506SOL    HW2 2418   1.710   5.259   5.002
  507SOL     OW 2419   3.945   0.301   3.532
  507SOL    HW1 2420   4.040   0.296   3.561
  507SOL    HW2 2421   3.925   0.393   3.497
  508SOL     OW 2422   6.623   3.806   2.223
  508SOL    HW1 2423   6.557   3.807   2.298
  508SOL    HW2 2424   6.595   3.871   2.152
  509SOL     OW 2425   3.578   1.075   1.911
  509SOL    HW1 2426   3.656   1.133   1.887
  509SOL    HW2 2427   3.512   1.127   1.964
  510SOL     OW 2428   6.494   5.053   6.926
  510SOL    HW1 2429   6.504   4.953   6.926
  510SOL    HW2 2430   6.397   5.076   6.922
  511SOL     OW 2431   0.415   1.470   6.238
  511SOL    HW1 2432   0.428   1.568   6.255
  511SOL    HW2 2433   0.322   1.444   6.264
  512SOL     OW 2434   6.898   2.922   6.730
  512SOL    HW1 2435   6.856   2.972   6.807
  512SOL    HW2 2436   6.832   2.857   6.693
  513SOL     OW 2437   6.061   5.932   2.865
  513SOL    HW1 2438   6.080   5.955   2.770
  513SOL    HW2 2439   6.086   5.836   2.882
  514SOL     OW 2440   6.752   2.901   4.236
  514SOL    HW1 2441   6.851   2.914   4.247
  514SOL    HW2 2442   6.730   2.804   4.249
  515SOL     OW 2443   1.855   0.624   6.574
  515SOL    HW1 2444   1.864   0.709   6.523
  515SOL    HW2 2445   1.780   0.632   6.640
  516SOL     OW 2446   2.591   4.557   1.803
  516SOL    HW1 2447   2.550   4.468   1.786
  516SOL    HW2 2448   2.685   4.546   1.836
  517SOL     OW 2449   4.776   5.400   2.368
  517SOL    HW1 2450   4.750   5.310   2.333
  517SOL    HW2 2451   4.749   5.471   2.303
  518SOL     OW 2452   2.044   2.023   2.650
  518SOL    HW1 2453   2.126   2.004   2.597
  518SOL    HW2 2454   1.992   2.097   2.608
  519SOL     OW 2455   0.737   0.609   4.086
  519SOL    HW1 2456   0.775   0.526   4.127
  519SOL    HW2 2457   0.745   0.685   4.151
  520SOL     OW 2458   6.158   4.316   0.110
  520SOL    HW1 2459   6.198   4.369   0.186
  520SOL    HW2 2460   6.217   4.237   0.091
  521SOL     OW 2461   0.148   3.794   5.987
  521SOL    HW1 2462   0.173   3.716   5.930
  521SOL    HW2 2463   0.224   3.815   6.050
  522SOL     OW 2464   3.896   3.591   5.183
  522SOL    HW1 2465   3.870   3.677   5.226
  522SOL    HW2 2466   3.819   3.555   5.130
  523SOL     OW 2467   0.877   4.972   1.339
  523SOL    HW1 2468   0.947   4.966   1.411
  523SOL    HW2 2469   0.790   4.999   1.379
  524SOL     OW 2470   0.910   1.654   0.720
  524SOL    HW1 2471   0.883   1.601   0.800
  524SOL    HW2 2472   0.926   1.592   0.643
  525SOL     OW 2473   2.022   3.743   6.531
  525SOL    HW1 2474   2.116   3.728   6.501
  525SOL    HW2 2475   1.959   3.700   6.466
  526SOL     OW 2476   4.025   6.712   4.288
  526SOL    HW1 2477   4.000   6.633   4.232
  526SOL    HW2 2478   4.048   6.681   4.380
  527SOL     OW 2479   6.706   3.198   6.772
  527SOL    HW1 2480   6.781   3.238   6.719
  527SOL    HW2 2481   6.740   3.118   6.821
  528SOL     OW 2482   0.895   1.411   3.856
  528SOL    HW1 2483   0.937   1.322   3.834
  528SOL    HW2 2484   0.796   1.404   3.847
  529SOL     OW 2485   1.003   6.610   4.253
  529SOL    HW1 2486   1.039   6.518   4.238
  529SOL    HW2 2487   1.078   6.672   4.275
  530SOL     OW 2488   3.033   3.227   4.816
  530SOL    HW1 2489   3.076   3.138   4.806
  530SOL    HW2 2490   2.934   3.217   4.818
  531SOL     OW 2491   0.271   0.413   2.637
  531SOL    HW1 2492   0.363   0.451   2.650
  531SOL    HW2 2493   0.235   0.382   2.725
  532SOL     OW 2494   1.534   2.260   0.304
  532SOL    HW1 2495   1.486   2.334   0.352
  532SOL    HW2 2496   1.609   2.299   0.251
  533SOL     OW 2497   4.398   6.470   3.445
  533SOL    HW1 2498   4.450   6.543   3.489
  533SOL    HW2 2499   4.409   6.385   3.497
  534SOL     OW 2500   5.244   5.467   3.507
  534SOL    HW1 2501   5.198   5.379   3.501
  534SOL    HW2 2502   5.316   5.472   3.438
  535SOL     OW 2503   0.529   3.682   4.449
  535SOL    HW1 2504   0.561   3.612   4.386
  535SOL    HW2 2505   0.516   3.768   4.399
  536SOL     OW 2506   0.183   5.183   1.943
  536SOL    HW1 2507   0.161   5.168   2.040
  536SOL    HW2 2508   0.241   5.265   1.934
  537SOL     OW 2509   2.049   6.237   3.613
  537SOL    HW1 2510   2.135   6.285   3.632
  537SOL    HW2 2511   2.027   6.246   3.515
  538SOL     OW 2512   1.093   4.096   2.637
  538SOL    HW1 2513   1.128   4.170   2.580
  538SOL    HW2 2514   1.012   4.057   2.595
  539SOL     OW 2515   0.755   6.336   0.152
  539SOL    HW1 2516   0.827   6.321   0.084
  539SOL    HW2 2517   0.776   6.283   0.234
  540SOL     OW 2518   0.508   1.292   2.206
  540SOL    HW1 2519   0.539   1.198   2.223
  540SOL    HW2 2520   0.587   1.349   2.184
  541SOL     OW 2521   3.360   6.262   4.085
  541SOL    HW1 2522   3.327   6.262   4.180
  541SOL    HW2 2523   3.338   6.174   4.043
  542SOL     OW 2524   6.428   0.291   0.052
  542SOL    HW1 2525   6.511   0.236   0.047
  542SOL    HW2 2526   6.434   0.367   7.011
  543SOL     OW 2527   1.587   4.882   5.625
  543SOL    HW1 2528   1.533   4.901   5.706
  543SOL    HW2 2529   1.670   4.833   5.651
  544SOL     OW 2530   1.949   4.060   1.150
  544SOL    HW1 2531   1.949   4.122   1.072
  544SOL    HW2 2532   1.882   3.988   1.136
  545SOL     OW 2533   3.161   0.354   3.145
  545SOL    HW1 2534   3.184   0.262   3.175
  545SOL    HW2 2535   3.209   0.421   3.202
  546SOL     OW 2536   1.632   2.958   0.260
  546SOL    HW1 2537   1.653   2.886   0.195
  546SOL    HW2 2538   1.717   2.993   0.300
  547SOL     OW 2539   3.042   1.471   0.128
  547SOL    HW1 2540   2.968   1.500   0.188
  547SOL    HW2 2541   3.028   1.376   0.100
  548SOL     OW 2542   3.899   3.007   2.075
  548SOL    HW1 2543   3.996   3.026   2.063
  548SOL    HW2 2544   3.869   3.042   2.164
  549SOL     OW 2545   4.624   3.065   1.045
  549SOL    HW1 2546   4.593   3.094   0.954
  549SOL    HW2 2547   4.563   2.994   1.080
  550SOL     OW 2548   6.312   4.797   3.411
  550SOL    HW1 2549   6.275   4.876   3.461
  550SOL    HW2 2550   6.309   4.716   3.469
  551SOL     OW 2551   1.099   0.711   1.252
  551SOL    HW1 2552   1.091   0.742   1.157
  551SOL    HW2 2553   1.008   0.699   1.291
  552SOL     OW 2554   4.554   4.986   0.355
  552SOL    HW1 2555   4.624   4.915   0.342
  552SOL    HW2 2556   4.590   5.073   0.323
  553SOL     OW 2557   2.596   6.600   2.014
  553SOL    HW1 2558   2.658   6.678   2.026
  553SOL    HW2 2559   2.613   6.556   1.926
  554SOL     OW 2560   5.688   6.588   5.490
  554SOL    HW1 2561   5.666   6.557   5.583
  554SOL    HW2 2562   5.603   6.602   5.439
  555SOL     OW 2563   2.074   5.115   3.132
  555SOL    HW1 2564   2.074   5.114   3.232
  555SOL    HW2 2565   2.084   5.021   3.099
  556SOL     OW 2566   5.759   2.214   3.824
  556SOL    HW1 2567   5.770   2.306   3.861
  556SOL    HW2 2568   5.666   2.203   3.788
  557SOL     OW 2569   0.263   4.791   0.370
  557SOL    HW1 2570   0.304   4.777   0.280
  557SOL    HW2 2571   0.324   4.846   0.427
  558SOL     OW 2572   3.087   4.095   4.779
  558SOL    HW1 2573   3.052   4.077   4.871
  558SOL    HW2 2574   3.018   4.146   4.727
  559SOL     OW 2575   6.576   6.183   6.364
  559SOL    HW1 2576   6.672   6.211   6.361
  559SOL    HW2 2577   6.566   6.104   6.424
  560SOL     OW 2578   4.200   5.795   0.106
  560SOL    HW1 2579   4.237   5.851   0.180
  560SOL    HW2 2580   4.238   5.825   0.019
  561SOL     OW 2581   6.356   1.114   6.908
  561SOL    HW1 2582   6.399   1.189   6.958
  561SOL    HW2 2583   6.311   1.149   6.826
  562SOL     OW 2584   4.366   0.644   6.220
  562SOL    HW1 2585   4.266   0.640   6.221
  562SOL    HW2 2586   4.401   0.624   6.311
  563SOL     OW 2587   2.257   6.446   3.442
  563SOL    HW1 2588   2.282   6.410   3.352
  563SOL    HW2 2589   2.175   6.503   3.434
  564SOL     OW 2590   2.676   1.815   6.617
  564SOL    HW1 2591   2.607   1.880   6.649
  564SOL    HW2 2592   2.633   1.747   6.558
  565SOL     OW 2593   4.012   3.370   5.617
  565SOL    HW1 2594   3.999   3.343   5.521
  565SOL    HW2 2595   4.034   3.289   5.671
  566SOL     OW 2596   6.601   3.886   4.023
  566SOL    HW1 2597   6.650   3.922   4.102
  566SOL    HW2 2598   6.511   3.852   4.053
  567SOL     OW 2599   3.901   3.999   3.323
  567SOL    HW1 2600   3.928   4.065   3.393
  567SOL    HW2 2601   3.955   3.916   3.332
  568SOL     OW 2602   3.628   2.476   0.268
  568SOL    HW1 2603   3.614   2.412   0.343
  568SOL    HW2 2604   3.568   2.556   0.280
  569SOL     OW 2605   1.576   3.458   0.273
  569SOL    HW1 2606   1.582   3.368   0.229
  569SOL    HW2 2607   1.484   3.471   0.309
  570SOL     OW 2608   2.049   6.450   6.157
  570SOL    HW1 2609   2.147   6.443   6.179
  570SOL    HW2 2610   2.015   6.540   6.186
  571SOL     OW 2611   3.428   0.139   3.117
  571SOL    HW1 2612   3.474   0.187   3.191
  571SOL    HW2 2613   3.343   0.098   3.151
  572SOL     OW 2614   2.349   5.023   5.567
  572SOL    HW1 2615   2.299   5.028   5.480
  572SOL    HW2 2616   2.289   4.988   5.638
  573SOL     OW 2617   4.267   1.266   5.411
  573SOL    HW1 2618   4.253   1.218   5.325
  573SOL    HW2 2619   4.180   1.301   5.445
  574SOL     OW 2620   2.443   2.220   3.758
  574SOL    HW1 2621   2.375   2.294   3.754
  574SOL    HW2 2622   2.427   2.157   3.682
  575SOL     OW 2623   6.728   3.302   6.352
  575SOL    HW1 2624   6.770   3.335   6.268
  575SOL    HW2 2625   6.630   3.290   6.338
  576SOL     OW 2626   1.281   2.482   1.945
  576SOL    HW1 2627   1.339   2.537   2.004
  576SOL    HW2 2628   1.186   2.489   1.975
  577SOL     OW 2629   1.643   0.837   3.131
  577SOL    HW1 2630   1.545   0.821   3.117
  577SOL    HW2 2631   1.656   0.908   3.199
  578SOL     OW 2632   6.615   4.200   3.545
  578SOL    HW1 2633   6.598   4.222   3.641
  578SOL    HW2 2634   6.713   4.209   3.526
  579SOL     OW 2635   3.201   2.577   1.032
  579SOL    HW1 2636   3.268   2.597   1.104
  579SOL    HW2 2637   3.155   2.491   1.053
  580SOL     OW 2638   0.547   4.476   0.224
  580SOL    HW1 2639   0.523   4.549   0.161
  580SOL    HW2 2640   0.597   4.405   0.175
  581SOL     OW 2641   3.398   3.305   2.620
  581SOL    HW1 2642   3.327   3.367   2.653
  581SOL    HW2 2643   3.372   3.211   2.641
  582SOL     OW 2644   5.398   5.064   2.603
  582SOL    HW1 2645   5.365   5.080   2.510
  582SOL    HW2 2646   5.328   5.016   2.656
  583SOL     OW 2647   2.245   5.211   6.394
  583SOL    HW1 2648   2.152   5.231   6.364
  583SOL    HW2 2649   2.249   5.211   6.494
  584SOL     OW 2650   1.171   4.899   5.427
  584SOL    HW1 2651   1.270   4.909   5.438
  584SOL    HW2 2652   1.130   4.989   5.410
  585SOL     OW 2653   6.012   2.888   6.091
  585SOL    HW1 2654   5.989   2.959   6.025
  585SOL    HW2 2655   6.093   2.838   6.060
  586SOL     OW 2656   3.189   0.754   6.442
  586SOL    HW1 2657   3.177   0.655   6.452
  586SOL    HW2 2658   3.138   0.785   6.362
  587SOL     OW 2659   2.761   2.369   5.192
  587SOL    HW1 2660   2.746   2.278   5.231
  587SOL    HW2 2661   2.694   2.386   5.120
  588SOL     OW 2662   2.748   5.452   0.638
  588SOL    HW1 2663   2.683   5.510   0.686
  588SOL    HW2 2664   2.704   5.413   0.557
  589SOL     OW 2665   3.806   5.090   1.726
  589SOL    HW1 2666   3.762   5.050   1.646
  589SOL    HW2 2667   3.812   5.189   1.716
  590SOL     OW 2668   5.825   3.045   1.461
  590SOL    HW1 2669   5.750   2.981   1.476
  590SOL    HW2 2670   5.845   3.093   1.547
  591SOL     OW 2671   4.239   6.247   3.794
  591SOL    HW1 2672   4.146   6.240   3.759
  591SOL    HW2 2673   4.252   6.180   3.868
  592SOL     OW 2674   4.257   0.045   1.214
  592SOL    HW1 2675   4.291   0.008   1.128
  592SOL    HW2 2676   4.331   0.091   1.263
  593SOL     OW 2677   4.395   2.021   3.417
  593SOL    HW1 2678   4.410   1.945   3.480
  593SOL    HW2 2679   4.327   1.994   3.349
  594SOL     OW 2680   4.426   2.449   6.138
  594SOL    HW1 2681   4.483   2.368   6.125
  594SOL    HW2 2682   4.483   2.523   6.173
  595SOL     OW 2683   4.984   6.576   3.482
  595SOL    HW1 2684   4.921   6.629   3.538
  595SOL    HW2 2685   5.020   6.500   3.536
  596SOL     OW 2686   0.804   3.749   1.844
  596SOL    HW1 2687   0.760   3.828   1.888
  596SOL    HW2 2688   0.755   3.666   1.869
  597SOL     OW 2689   5.009   0.164   5.406
  597SOL    HW1 2690   5.023   0.084   5.347
  597SOL    HW2 2691   4.912   0.170   5.431
  598SOL     OW 2692   3.322   4.384   6.932
  598SOL    HW1 2693   3.385   4.308   6.950
  598SOL    HW2 2694   3.369   4.471   6.949
  599SOL     OW 2695   1.388   6.981   3.016
  599SOL    HW1 2696   1.461   6.972   2.949
  599SOL    HW2 2697   1.299   6.980   2.969
  600SOL     OW 2698   1.477   0.904   1.143
  600SOL    HW1 2699   1.417   0.962   1.088
  600SOL    HW2 2700   1.435   0.886   1.232
  601SOL     OW 2701   2.955   5.876   4.276
  601SOL    HW1 2702   2.905   5.821   4.344
  601SOL    HW2 2703   2.901   5.957   4.253
  602SOL     OW 2704   1.355   2.249   0.098
  602SOL    HW1 2705   1.377   2.164   0.049
  602SOL    HW2 2706   1.409   2.254   0.182
  603SOL     OW 2707   4.072   2.113   3.790
  603SOL    HW1 2708   4.112   2.025   3.814
  603SOL    HW2 2709   4.063   2.169   3.873
  604SOL     OW 2710   0.304   4.010   1.113
  604SOL    HW1 2711   0.377   3.976   1.055
  604SOL    HW2 2712   0.221   3.955   1.100
  605SOL     OW 2713   6.609   4.983   2.848
  605SOL    HW1 2714   6.655   5.070   2.830
  605SOL    HW2 2715   6.624   4.956   2.943
  606SOL     OW 2716   5.098   0.409   5.378
  606SOL    HW1 2717   5.074   0.312   5.384
  606SOL    HW2 2718   5.027   0.463   5.423
  607SOL     OW 2719   5.345   0.421   5.233
  607SOL    HW1 2720   5.287   0.365   5.291
  607SOL    HW2 2721   5.291   0.457   5.156
  608SOL     OW 2722   3.881   6.448   0.446
  608SOL    HW1 2723   3.914   6.401   0.365
  608SOL    HW2 2724   3.786   6.476   0.433
  609SOL     OW 2725   3.220   3.644   3.977
  609SOL    HW1 2726   3.221   3.551   3.941
  609SOL    HW2 2727   3.126   3.675   3.987
  610SOL     OW 2728   5.472   2.195   3.042
  610SOL    HW1 2729   5.505   2.262   3.109
  610SOL    HW2 2730   5.405   2.135   3.085
  611SOL     OW 2731   1.122   0.254   6.630
  611SOL    HW1 2732   1.071   0.319   6.575
  611SOL    HW2 2733   1.218   0.282   6.635
  612SOL     OW 2734   3.572   5.553   5.738
  612SOL    HW1 2735   3.589   5.493   5.659
  612SOL    HW2 2736   3.528   5.501   5.810
  613SOL     OW 2737   4.957   6.821   5.431
  613SOL    HW1 2738   4.959   6.849   5.528
  613SOL    HW2 2739   4.865   6.791   5.408
  614SOL     OW 2740   6.295   4.359   0.922
  614SOL    HW1 2741   6.325   4.298   0.849
  614SOL    HW2 2742   6.196   4.360   0.927
  615SOL     OW 2743   0.871   1.796   1.024
  615SOL    HW1 2744   0.951   1.768   1.077
  615SOL    HW2 2745   0.859   1.895   1.033
  616SOL     OW 2746   5.864   1.785   2.749
  616SOL    HW1 2747   5.876   1.786   2.848
  616SOL    HW2 2748   5.831   1.874   2.718
  617SOL     OW 2749   0.265   3.754   6.851
  617SOL    HW1 2750   0.171   3.721   6.839
  617SOL    HW2 2751   0.315   3.743   6.766
  618SOL     OW 2752   6.561   3.129   0.544
  618SOL    HW1 2753   6.605   3.068   0.609
  618SOL    HW2 2754   6.467   3.098   0.527
  619SOL     OW 2755   4.037   0.007   6.475
  619SOL    HW1 2756   4.056   6.939   6.507
  619SOL    HW2 2757   4.051   0.072   6.550
  620SOL     OW 2758   5.946   2.726   0.974
  620SOL    HW1 2759   6.020   2.780   0.935
  620SOL    HW2 2760   5.869   2.724   0.909
  621SOL     OW 2761   1.770   6.927   5.323
  621SOL    HW1 2762   1.691   6.867   5.308
  621SOL    HW2 2763   1.772   6.956   5.419
  622SOL     OW 2764   0.533   1.881   5.356
  622SOL    HW1 2765   0.433   1.891   5.351
  622SOL    HW2 2766   0.565   1.828   5.279
  623SOL     OW 2767   0.661   0.283   4.857
  623SOL    HW1 2768   0.639   0.341   4.935
  623SOL    HW2 2769   0.619   0.193   4.870
  624SOL     OW 2770   6.526   1.391   0.031
  624SOL    HW1 2771   6.524   1.474   6.999
  624SOL    HW2 2772   6.615   1.347   0.022
  625SOL     OW 2773   1.415   1.743   0.861
  625SOL    HW1 2774   1.399   1.743   0.960
  625SOL    HW2 2775   1.441   1.835   0.832
  626SOL     OW 2776   1.006   5.360   2.641
  626SOL    HW1 2777   0.988   5.263   2.622
  626SOL    HW2 2778   1.051   5.402   2.562
  627SOL     OW 2779   6.445   6.712   0.095
  627SOL    HW1 2780   6.453   6.621   0.136
  627SOL    HW2 2781   6.491   6.779   0.153
  628SOL     OW 2782   5.622   3.710   5.216
  628SOL    HW1 2783   5.643   3.679   5.309
  628SOL    HW2 2784   5.523   3.717   5.204
  629SOL     OW 2785   0.553   1.114   6.985
  629SOL    HW1 2786   0.456   1.119   6.960
  629SOL    HW2 2787   0.609   1.154   6.912
  630SOL     OW 2788   0.014   2.297   0.708
  630SOL    HW1 2789   0.052   2.211   0.743
  630SOL    HW2 2790   6.946   2.310   0.744
  631SOL     OW 2791   3.986   1.434   4.459
  631SOL    HW1 2792   3.941   1.396   4.379
  631SOL    HW2 2793   4.000   1.532   4.447
  632SOL     OW 2794   4.029   3.016   0.663
  632SOL    HW1 2795   4.113   2.992   0.614
  632SOL    HW2 2796   3.970   2.936   0.669
  633SOL     OW 2797   3.198   4.555   6.699
  633SOL    HW1 2798   3.204   4.505   6.613
  633SOL    HW2 2799   3.210   4.492   6.776
  634SOL     OW 2800   3.953   3.194   3.157
  634SOL    HW1 2801   3.918   3.277   3.114
  634SOL    HW2 2802   3.944   3.117   3.093
  635SOL     OW 2803   4.456   6.838   0.358
  635SOL    HW1 2804   4.501   6.779   0.291
  635SOL    HW2 2805   4.411   6.782   0.427
  636SOL     OW 2806   2.988   0.008   5.885
  636SOL    HW1 2807   2.986   0.057   5.972
  636SOL    HW2 2808   2.943   6.943   5.895
  637SOL     OW 2809   6.148   2.478   2.194
  637SOL    HW1 2810   6.140   2.423   2.111
  637SOL    HW2 2811   6.092   2.560   2.185
  638SOL     OW 2812   5.602   3.792   3.888
  638SOL    HW1 2813   5.655   3.709   3.902
  638SOL    HW2 2814   5.647   3.869   3.932
  639SOL     OW 2815   5.499   4.224   3.915
  639SOL    HW1 2816   5.406   4.212   3.881
  639SOL    HW2 2817   5.564   4.196   3.844
  640SOL     OW 2818   6.837   4.648   3.608
  640SOL    HW1 2819   6.934   4.623   3.612
  640SOL    HW2 2820   6.828   4.738   3.565
  641SOL     OW 2821   0.600   4.674   4.784
  641SOL    HW1 2822   0.527   4.735   4.816
  641SOL    HW2 2823   0.689   4.710   4.811
  642SOL     OW 2824   1.271   2.613   4.707
  642SOL    HW1 2825   1.333   2.536   4.691
  642SOL    HW2 2826   1.322   2.688   4.751
  643SOL     OW 2827   6.195   0.444   6.410
  643SOL    HW1 2828   6.194   0.345   6.395
  643SOL    HW2 2829   6.161   0.490   6.327
  644SOL     OW 2830   1.886   0.554   4.607
  644SOL    HW1 2831   1.843   0.574   4.695
  644SOL    HW2 2832   1.816   0.535   4.539
  645SOL     OW 2833   3.231   5.171   4.174
  645SOL    HW1 2834   3.195   5.218   4.255
  645SOL    HW2 2835   3.159   5.165   4.104
  646SOL     OW 2836   3.821   0.726   4.464
  646SOL    HW1 2837   3.881   0.706   4.386
  646SOL    HW2 2838   3.873   0.716   4.549
  647SOL     OW 2839   5.620   1.935   4.882
  647SOL    HW1 2840   5.542   1.926   4.944
  647SOL    HW2 2841   5.691   1.869   4.908
  648SOL     OW 2842   6.818   3.605   3.517
  648SOL    HW1 2843   6.718   3.617   3.517
  648SOL    HW2 2844   6.861   3.683   3.562
  649SOL     OW 2845   2.436   4.119   0.574
  649SOL    HW1 2846   2.512   4.130   0.510
  649SOL    HW2 2847   2.421   4.022   0.592
  650SOL     OW 2848   6.817   5.438   0.670
  650SOL    HW1 2849   6.788   5.474   0.582
  650SOL    HW2 2850   6.737   5.416   0.726
  651SOL     OW 2851   1.725   0.412   5.501
  651SOL    HW1 2852   1.710   0.469   5.419
  651SOL    HW2 2853   1.720   0.470   5.582
  652SOL     OW 2854   4.373   6.606   2.293
  652SOL    HW1 2855   4.351   6.703   2.309
  652SOL    HW2 2856   4.420   6.596   2.206
  653SOL     OW 2857   0.458   6.184   0.462
  653SOL    HW1 2858   0.415   6.130   0.390
  653SOL    HW2 2859   0.445   6.139   0.550
  654SOL     OW 2860   6.647   6.511   6.218
  654SOL    HW1 2861   6.561   6.496   6.267
  654SOL    HW2 2862   6.724   6.500   6.281
  655SOL     OW 2863   6.832   5.523   1.612
  655SOL    HW1 2864   6.909   5.459   1.605
  655SOL    HW2 2865   6.773   5.496   1.689
  656SOL     OW 2866   2.015   6.023   0.132
  656SOL    HW1 2867   1.971   5.972   0.057
  656SOL    HW2 2868   2.063   6.102   0.094
  657SOL     OW 2869   3.313   3.729   0.782
  657SOL    HW1 2870   3.342   3.699   0.873
  657SOL    HW2 2871   3.301   3.649   0.723
  658SOL     OW 2872   1.481   4.167   5.722
  658SOL    HW1 2873   1.518   4.084   5.764
  658SOL    HW2 2874   1.399   4.196   5.771
  659SOL     OW 2875   2.460   5.790   4.695
  659SOL    HW1 2876   2.362   5.803   4.704
  659SOL    HW2 2877   2.505   5.879   4.689
  660SOL     OW 2878   4.347   4.776   2.343
  660SOL    HW1 2879   4.337   4.783   2.244
  660SOL    HW2 2880   4.435   4.733   2.364
  661SOL     OW 2881   4.817   4.143   4.508
  661SOL    HW1 2882   4.896   4.123   4.451
  661SOL    HW2 2883   4.770   4.224   4.473
  662SOL     OW 2884   4.447   1.362   6.170
  662SOL    HW1 2885   4.429   1.306   6.088
  662SOL    HW2 2886   4.383   1.336   6.242
  663SOL     OW 2887   0.446   4.767   0.132
  663SOL    HW1 2888   0.445   4.792   0.035
  663SOL    HW2 2889   0.511   4.825   0.180
  664SOL     OW 2890   1.270   5.665   6.595
  664SOL    HW1 2891   1.180   5.621   6.600
  664SOL    HW2 2892   1.277   5.719   6.511
  665SOL     OW 2893   4.074   5.089   0.792
  665SOL    HW1 2894   4.101   5.078   0.887
  665SOL    HW2 2895   4.130   5.160   0.749
  666SOL     OW 2896   4.101   2.492   1.088
  666SOL    HW1 2897   4.063   2.563   1.029
  666SOL    HW2 2898   4.069   2.403   1.057
  667SOL     OW 2899   0.616   3.994   3.863
  667SOL    HW1 2900   0.601   3.904   3.821
  667SOL    HW2 2901   0.690   3.987   3.930
  668SOL     OW 2902   4.827   5.432   0.370
  668SOL    HW1 2903   4.823   5.488   0.287
  668SOL    HW2 2904   4.905   5.460   0.426
  669SOL     OW 2905   2.395   6.016   3.056
  669SOL    HW1 2906   2.415   6.075   2.978
  669SOL    HW2 2907   2.465   6.029   3.126
  670SOL     OW 2908   3.343   3.621   1.957
  670SOL    HW1 2909   3.386   3.541   2.000
  670SOL    HW2 2910   3.268   3.653   2.014
  671SOL     OW 2911   2.454   5.997   6.242
  671SOL    HW1 2912   2.446   6.086   6.287
  671SOL    HW2 2913   2.499   5.933   6.304
  672SOL     OW 2914   0.759   4.117   2.259
  672SOL    HW1 2915   0.726   4.025   2.241
  672SOL    HW2 2916   0.722   4.180   2.190
  673SOL     OW 2917   4.706   0.434   0.873
  673SOL    HW1 2918   4.670   0.362   0.815
  673SOL    HW2 2919   4.637   0.506   0.884
  674SOL     OW 2920   0.032   3.201   4.233
  674SOL    HW1 2921   0.030   3.255   4.149
  674SOL    HW2 2922   6.964   3.169   4.255
  675SOL     OW 2923   0.833   1.685   5.137
  675SOL    HW1 2924   0.736   1.685   5.162
  675SOL    HW2 2925   0.859   1.776   5.103
  676SOL     OW 2926   3.103   5.126   3.467
  676SOL    HW1 2927   3.158   5.049   3.497
  676SOL    HW2 2928   3.022   5.092   3.418
  677SOL     OW 2929   5.793   1.393   6.295
  677SOL    HW1 2930   5.694   1.401   6.302
  677SOL    HW2 2931   5.829   1.470   6.241
  678SOL     OW 2932   2.264   1.239   5.080
  678SOL    HW1 2933   2.331   1.311   5.096
  678SOL    HW2 2934   2.246   1.190   5.165
  679SOL     OW 2935   4.369   0.874   4.707
  679SOL    HW1 2936   4.400   0.948   4.768
  679SOL    HW2 2937   4.410   0.886   4.617
  680SOL     OW 2938   6.054   5.045   5.825
  680SOL    HW1 2939   6.048   5.003   5.915
  680SOL    HW2 2940   6.149   5.049   5.796
  681SOL     OW 2941   5.982   0.405   0.935
  681SOL    HW1 2942   6.064   0.350   0.921
  681SOL    HW2 2943   5.905   0.346   0.958
  682SOL     OW 2944   1.537   6.493   6.604
  682SOL    HW1 2945   1.571   6.477   6.697
  682SOL    HW2 2946   1.611   6.476   6.539
  683SOL     OW 2947   3.102   0.659   5.830
  683SOL    HW1 2948   3.147   0.749   5.828
  683SOL    HW2 2949   3.010   0.669   5.870
  684SOL     OW 2950   6.334   1.719   6.421
  684SOL    HW1 2951   6.252   1.716   6.478
  684SOL    HW2 2952   6.377   1.629   6.418
  685SOL     OW 2953   5.145   7.010   5.777
  685SOL    HW1 2954   5.057   0.033   5.782
  685SOL    HW2 2955   5.206   0.034   5.714
  686SOL     OW 2956   5.666   2.888   3.137
  686SOL    HW1 2957   5.695   2.970   3.088
  686SOL    HW2 2958   5.709   2.887   3.227
  687SOL     OW 2959   6.762   2.806   5.543
  687SOL    HW1 2960   6.712   2.733   5.589
  687SOL    HW2 2961   6.699   2.859   5.486
  688SOL     OW 2962   1.619   4.281   0.170
  688SOL    HW1 2963   1.714   4.262   0.145
  688SOL    HW2 2964   1.597   4.376   0.147
  689SOL     OW 2965   0.864   4.281   5.298
  689SOL    HW1 2966   0.810   4.201   5.326
  689SOL    HW2 2967   0.868   4.285   5.198
  690SOL     OW 2968   0.188   3.671   3.291
  690SOL    HW1 2969   0.203   3.682   3.389
  690SOL    HW2 2970   0.175   3.574   3.270
  691SOL     OW 2971   2.370   1.350   6.659
  691SOL    HW1 2972   2.464   1.337   6.626
  691SOL    HW2 2973   2.372   1.388   6.752
  692SOL     OW 2974   3.174   6.821   3.866
  692SOL    HW1 2975   3.208   6.872   3.787
  692SOL    HW2 2976   3.150   6.885   3.939
  693SOL     OW 2977   6.747   1.385   3.250
  693SOL    HW1 2978   6.846   1.371   3.251
  693SOL    HW2 2979   6.708   1.354   3.337
  694SOL     OW 2980   3.071   5.863   2.185
  694SOL    HW1 2981   3.144   5.853   2.253
  694SOL    HW2 2982   3.060   5.777   2.136
  695SOL     OW 2983   5.131   4.845   5.730
  695SOL    HW1 2984   5.158   4.939   5.752
  695SOL    HW2 2985   5.089   4.803   5.811
  696SOL     OW 2986   3.150   5.159   1.616
  696SOL    HW1 2987   3.240   5.116   1.603
  696SOL    HW2 2988   3.112   5.131   1.704
  697SOL     OW 2989   1.245   2.736   5.644
  697SOL    HW1 2990   1.232   2.694   5.555
  697SOL    HW2 2991   1.156   2.756   5.685
  698SOL     OW 2992   6.129   0.493   5.550
  698SOL    HW1 2993   6.156   0.483   5.454
  698SOL    HW2 2994   6.076   0.577   5.560
  699SOL     OW 2995   0.410   4.242   0.332
  699SOL    HW1 2996   0.462   4.264   0.414
  699SOL    HW2 2997   0.409   4.321   0.271
  700SOL     OW 2998   3.164   1.805   3.691
  700SOL    HW1 2999   3.107   1.746   3.748
  700SOL    HW2 3000   3.224   1.749   3.634
  701SOL     OW 3001   0.765   4.310   6.226
  701SOL    HW1 3002   0.844   4.276   6.175
  701SOL    HW2 3003   0.704   4.359   6.163
  702SOL     OW 3004   5.715   6.145   6.467
  702SOL    HW1 3005   5.672   6.202   6.537
  702SOL    HW2 3006   5.708   6.191   6.378
  703SOL     OW 3007   4.430   3.749   6.348
  703SOL    HW1 3008   4.490   3.795   6.282
  703SOL    HW2 3009   4.443   3.789   6.439
  704SOL     OW 3010   1.870   1.525   5.992
  704SOL    HW1 3011   1.891   1.435   5.953
  704SOL    HW2 3012   1.771   1.538   5.994
  705SOL     OW 3013   5.256   6.993   3.613
  705SOL    HW1 3014   5.321   0.045   3.623
  705SOL    HW2 3015   5.306   6.907   3.608
  706SOL     OW 3016   4.102   2.213   3.305
  706SOL    HW1 3017   4.170   2.278   3.340
  706SOL    HW2 3018   4.030   2.201   3.373
  707SOL     OW 3019   4.625   0.107   2.686
  707SOL    HW1 3020   4.687   0.183   2.708
  707SOL    HW2 3021   4.530   0.139   2.691
  708SOL     OW 3022   4.278   0.362   1.050
  708SOL    HW1 3023   4.291   0.337   1.146
  708SOL    HW2 3024   4.319   0.292   0.992
  709SOL     OW 3025   1.437   5.646   0.436
  709SOL    HW1 3026   1.421   5.591   0.355
  709SOL    HW2 3027   1.461   5.587   0.513
  710SOL     OW 3028   4.132   3.438   2.561
  710SOL    HW1 3029   4.231   3.426   2.576
  710SOL    HW2 3030   4.102   3.522   2.607
  711SOL     OW 3031   1.215   2.136   6.063
  711SOL    HW1 3032   1.241   2.232   6.067
  711SOL    HW2 3033   1.214   2.098   6.156
  712SOL     OW 3034   2.109   4.450   0.837
  712SOL    HW1 3035   2.188   4.391   0.820
  712SOL    HW2 3036   2.141   4.542   0.860
  713SOL     OW 3037   2.932   3.683   0.299
  713SOL    HW1 3038   2.878   3.767   0.295
  713SOL    HW2 3039   2.944   3.656   0.394
  714SOL     OW 3040   6.649   4.736   4.820
  714SOL    HW1 3041   6.621   4.642   4.799
  714SOL    HW2 3042   6.745   4.737   4.847
  715SOL     OW 3043   5.025   6.261   0.526
  715SOL    HW1 3044   5.024   6.357   0.499
  715SOL    HW2 3045   4.940   6.238   0.574
  716SOL     OW 3046   0.788   6.530   0.698
  716SOL    HW1 3047   0.741   6.442   0.709
  716SOL    HW2 3048   0.834   6.532   0.610
  717SOL     OW 3049   5.831   5.294   6.524
  717SOL    HW1 3050   5.872   5.377   6.560
  717SOL    HW2 3051   5.734   5.311   6.503
  718SOL     OW 3052   4.190   1.963   5.957
  718SOL    HW1 3053   4.123   1.895   5.988
  718SOL    HW2 3054   4.261   1.974   6.026
  719SOL     OW 3055   5.758   2.677   1.400
  719SOL    HW1 3056   5.852   2.665   1.370
  719SOL    HW2 3057   5.757   2.718   1.491
  720SOL     OW 3058   3.028   0.835   6.240
  720SOL    HW1 3059   3.064   0.920   6.278
  720SOL    HW2 3060   3.000   0.849   6.145
  721SOL     OW 3061   1.817   7.002   4.552
  721SOL    HW1 3062   1.792   0.005   4.645
  721SOL    HW2 3063   1.917   6.991   4.546
  722SOL     OW 3064   3.286   6.942   5.212
  722SOL    HW1 3065   3.360   6.942   5.145
  722SOL    HW2 3066   3.215   7.006   5.183
  723SOL     OW 3067   2.184   3.144   2.577
  723SOL    HW1 3068   2.270   3.166   2.625
  723SOL    HW2 3069   2.196   3.060   2.525
  724SOL     OW 3070   1.273   1.102   4.344
  724SOL    HW1 3071   1.292   1.200   4.359
  724SOL    HW2 3072   1.294   1.051   4.428
  725SOL     OW 3073   3.016   5.082   1.391
  725SOL    HW1 3074   2.918   5.101   1.390
  725SOL    HW2 3075   3.055   5.116   1.477
  726SOL     OW 3076   4.354   4.443   0.807
  726SOL    HW1 3077   4.427   4.384   0.840
  726SOL    HW2 3078   4.387   4.537   0.801
  727SOL     OW 3079   4.658   5.656   5.174
  727SOL    HW1 3080   4.672   5.718   5.097
  727SOL    HW2 3081   4.579   5.598   5.155
  728SOL     OW 3082   0.670   4.104   5.384
  728SOL    HW1 3083   0.711   4.013   5.380
  728SOL    HW2 3084   0.630   4.118   5.474
  729SOL     OW 3085   2.224   0.784   0.193
  729SOL    HW1 3086   2.245   0.837   0.276
  729SOL    HW2 3087   2.307   0.738   0.161
  730SOL     OW 3088   5.468   0.150   3.705
  730SOL    HW1 3089   5.504   0.187   3.619
  730SOL    HW2 3090   5.431   0.225   3.760
  731SOL     OW 3091   5.932   3.343   6.114
  731SOL    HW1 3092   5.923   3.340   6.015
  731SOL    HW2 3093   5.974   3.429   6.141
  732SOL     OW 3094   0.174   3.610   0.865
  732SOL    HW1 3095   0.154   3.707   0.850
  732SOL    HW2 3096   0.186   3.594   0.963
  733SOL     OW 3097   5.952   4.831   4.890
  733SOL    HW1 3098   5.938   4.735   4.865
  733SOL    HW2 3099   5.870   4.865   4.935
  734SOL     OW 3100   6.534   4.715   2.478
  734SOL    HW1 3101   6.471   4.776   2.430
  734SOL    HW2 3102   6.509   4.710   2.574
  735SOL     OW 3103   3.372   2.738   0.890
  735SOL    HW1 3104   3.306   2.666   0.911
  735SOL    HW2 3105   3.462   2.711   0.924
  736SOL     OW 3106   6.441   5.824   2.556
  736SOL    HW1 3107   6.446   5.798   2.653
  736SOL    HW2 3108   6.519   5.881   2.532
  737SOL     OW 3109   4.661   3.048   0.534
  737SOL    HW1 3110   4.753   3.080   0.559
  737SOL    HW2 3111   4.598   3.126   0.532
  738SOL     OW 3112   2.092   4.598   2.940
  738SOL    HW1 3113   2.056   4.662   3.008
  738SOL    HW2 3114   2.173   4.553   2.977
  739SOL     OW 3115   4.815   6.441   5.582
  739SOL    HW1 3116   4.752   6.364   5.577
  739SOL    HW2 3117   4.870   6.446   5.499
  740SOL     OW 3118   4.974   0.437   0.747
  740SOL    HW1 3119   4.966   0.338   0.754
  740SOL    HW2 3120   4.888   0.479   0.775
  741SOL     OW 3121   1.973   6.415   2.877
  741SOL    HW1 3122   1.921   6.350   2.823
  741SOL    HW2 3123   2.005   6.371   2.961
  742SOL     OW 3124   2.417   6.623   1.603
  742SOL    HW1 3125   2.353   6.696   1.627
  742SOL    HW2 3126   2.385   6.575   1.521
  743SOL     OW 3127   1.642   3.760   4.540
  743SOL    HW1 3128   1.680   3.669   4.525
  743SOL    HW2 3129   1.716   3.825   4.556
  744SOL     OW 3130   6.137   0.166   6.526
  744SOL    HW1 3131   6.177   0.221   6.600
  744SOL    HW2 3132   6.203   0.099   6.494
  745SOL     OW 3133   0.808   5.129   4.417
  745SOL    HW1 3134   0.864   5.094   4.343
  745SOL    HW2 3135   0.857   5.121   4.504
  746SOL     OW 3136   0.772   5.863   5.273
  746SOL    HW1 3137   0.746   5.844   5.179
  746SOL    HW2 3138   0.699   5.834   5.335
  747SOL     OW 3139   4.769   4.473   4.903
  747SOL    HW1 3140   4.785   4.552   4.844
  747SOL    HW2 3141   4.828   4.477   4.983
  748SOL     OW 3142   3.741   5.382   2.855
  748SOL    HW1 3143   3.790   5.309   2.806
  748SOL    HW2 3144   3.806   5.448   2.892
  749SOL     OW 3145   6.612   3.488   4.931
  749SOL    HW1 3146   6.644   3.503   4.837
  749SOL    HW2 3147   6.665   3.415   4.973
  750SOL     OW 3148   1.731   3.578   0.598
  750SOL    HW1 3149   1.758   3.485   0.572
  750SOL    HW2 3150   1.639   3.597   0.563
  751SOL     OW 3151   3.943   1.959   6.542
  751SOL    HW1 3152   3.937   2.058   6.557
  751SOL    HW2 3153   3.855   1.925   6.508
  752SOL     OW 3154   4.365   2.477   1.844
  752SOL    HW1 3155   4.316   2.392   1.864
  752SOL    HW2 3156   4.303   2.542   1.801
  753SOL     OW 3157   2.119   2.748   4.217
  753SOL    HW1 3158   2.126   2.814   4.292
  753SOL    HW2 3159   2.096   2.658   4.253
  754SOL     OW 3160   5.806   3.098   6.540
  754SOL    HW1 3161   5.779   3.035   6.467
  754SOL    HW2 3162   5.905   3.092   6.555
  755SOL     OW 3163   1.517   5.710   6.371
  755SOL    HW1 3164   1.418   5.719   6.358
  755SOL    HW2 3165   1.563   5.725   6.284
  756SOL     OW 3166   4.511   6.804   1.315
  756SOL    HW1 3167   4.589   6.767   1.265
  756SOL    HW2 3168   4.532   6.805   1.413
  757SOL     OW 3169   0.773   6.390   2.790
  757SOL    HW1 3170   0.727   6.417   2.874
  757SOL    HW2 3171   0.771   6.290   2.780
  758SOL     OW 3172   4.051   0.942   1.532
  758SOL    HW1 3173   4.034   0.971   1.438
  758SOL    HW2 3174   3.965   0.923   1.578
  759SOL     OW 3175   0.353   0.776   0.482
  759SOL    HW1 3176   0.314   0.837   0.413
  759SOL    HW2 3177   0.290   0.771   0.560
  760SOL     OW 3178   4.499   0.965   6.292
  760SOL    HW1 3179   4.539   1.003   6.376
  760SOL    HW2 3180   4.402   0.946   6.307
  761SOL     OW 3181   5.776   3.912   5.676
  761SOL    HW1 3182   5.775   3.892   5.578
  761SOL    HW2 3183   5.682   3.926   5.707
  762SOL     OW 3184   2.309   6.539   4.120
  762SOL    HW1 3185   2.316   6.440   4.107
  762SOL    HW2 3186   2.396   6.575   4.154
  763SOL     OW 3187   4.187   5.070   6.350
  763SOL    HW1 3188   4.203   5.021   6.436
  763SOL    HW2 3189   4.169   5.004   6.277
  764SOL     OW 3190   4.506   0.583   3.783
  764SOL    HW1 3191   4.519   0.531   3.699
  764SOL    HW2 3192   4.470   0.674   3.762
  765SOL     OW 3193   1.414   6.728   0.961
  765SOL    HW1 3194   1.498   6.711   1.012
  765SOL    HW2 3195   1.417   6.677   0.875
  766SOL     OW 3196   0.861   2.408   0.891
  766SOL    HW1 3197   0.790   2.468   0.854
  766SOL    HW2 3198   0.820   2.322   0.921
  767SOL     OW 3199   6.702   5.940   2.465
  767SOL    HW1 3200   6.660   5.998   2.395
  767SOL    HW2 3201   6.801   5.939   2.453
  768SOL     OW 3202   2.857   6.873   2.235
  768SOL    HW1 3203   2.762   6.884   2.208
  768SOL    HW2 3204   2.867   6.793   2.294
  769SOL     OW 3205   3.201   0.635   4.023
  769SOL    HW1 3206   3.112   0.599   4.051
  769SOL    HW2 3207   3.268   0.620   4.097
  770SOL     OW 3208   1.391   4.542   2.985
  770SOL    HW1 3209   1.375   4.545   2.886
  770SOL    HW2 3210   1.483   4.577   3.004
  771SOL     OW 3211   2.029   5.678   2.401
  771SOL    HW1 3212   1.935   5.649   2.387
  771SOL    HW2 3213   2.089   5.627   2.340
  772SOL     OW 3214   0.031   5.261   0.918
  772SOL    HW1 3215   0.069   5.212   0.840
  772SOL    HW2 3216   6.975   5.313   0.889
  773SOL     OW 3217   0.134   4.037   3.486
  773SOL    HW1 3218   0.225   4.062   3.455
  773SOL    HW2 3219   0.067   4.057   3.414
  774SOL     OW 3220   1.152   1.260   2.398
  774SOL    HW1 3221   1.138   1.340   2.339
  774SOL    HW2 3222   1.159   1.290   2.493
  775SOL     OW 3223   0.595   1.988   3.171
  775SOL    HW1 3224   0.578   1.987   3.073
  775SOL    HW2 3225   0.668   2.053   3.192
  776SOL     OW 3226   6.753   1.155   5.518
  776SOL    HW1 3227   6.675   1.146   5.456
  776SOL    HW2 3228   6.720   1.160   5.612
  777SOL     OW 3229   3.391   6.319   1.008
  777SOL    HW1 3230   3.397   6.394   0.942
  777SOL    HW2 3231   3.444   6.241   0.974
  778SOL     OW 3232   3.594   1.070   3.259
  778SOL    HW1 3233   3.575   1.162   3.224
  778SOL    HW2 3234   3.523   1.007   3.228
  779SOL     OW 3235   0.832   1.937   2.885
  779SOL    HW1 3236   0.893   1.992   2.828
  779SOL    HW2 3237   0.855   1.950   2.982
  780SOL     OW 3238   6.618   4.021   4.302
  780SOL    HW1 3239   6.678   4.078   4.358
  780SOL    HW2 3240   6.592   3.940   4.353
  781SOL     OW 3241   5.191   1.697   6.362
  781SOL    HW1 3242   5.104   1.744   6.377
  781SOL    HW2 3243   5.220   1.653   6.447
  782SOL     OW 3244   0.655   3.719   0.123
  782SOL    HW1 3245   0.660   3.817   0.100
  782SOL    HW2 3246   0.568   3.682   0.090
  783SOL     OW 3247   3.989   4.631   0.600
  783SOL    HW1 3248   4.020   4.692   0.673
  783SOL    HW2 3249   3.921   4.567   0.637
  784SOL     OW 3250   5.049   6.885   6.395
  784SOL    HW1 3251   4.977   6.943   6.356
  784SOL    HW2 3252   5.064   6.909   6.490
  785SOL     OW 3253   6.929   2.222   3.720
  785SOL    HW1 3254   6.876   2.283   3.662
  785SOL    HW2 3255   6.957   2.142   3.667
  786SOL     OW 3256   1.676   1.650   1.113
  786SOL    HW1 3257   1.750   1.630   1.050
  786SOL    HW2 3258   1.676   1.748   1.135
  787SOL     OW 3259   3.291   1.696   6.359
  787SOL    HW1 3260   3.318   1.614   6.309
  787SOL    HW2 3261   3.347   1.705   6.442
  788SOL     OW 3262   2.455   2.216   5.013
  788SOL    HW1 3263   2.355   2.210   5.019
  788SOL    HW2 3264   2.483   2.312   5.026
  789SOL     OW 3265   5.274   3.996   0.830
  789SOL    HW1 3266   5.194   3.967   0.883
  789SOL    HW2 3267   5.261   3.970   0.734
  790SOL     OW 3268   2.637   1.150   3.977
  790SOL    HW1 3269   2.712   1.135   4.041
  790SOL    HW2 3270   2.619   1.248   3.968
  791SOL     OW 3271   3.625   6.844   3.203
  791SOL    HW1 3272   3.705   6.885   3.247
  791SOL    HW2 3273   3.654   6.764   3.150
  792SOL     OW 3274   0.302   0.287   1.962
  792SOL    HW1 3275   0.283   0.384   1.976
  792SOL    HW2 3276   0.312   0.269   1.864
  793SOL     OW 3277   4.192   6.209   2.380
  793SOL    HW1 3278   4.200   6.126   2.326
  793SOL    HW2 3279   4.275   6.221   2.435
  794SOL     OW 3280   3.165   3.357   5.069
  794SOL    HW1 3281   3.126   3.312   5.150
  794SOL    HW2 3282   3.122   3.320   4.987
  795SOL     OW 3283   3.527   5.561   5.156
  795SOL    HW1 3284   3.510   5.631   5.087
  795SOL    HW2 3285   3.499   5.594   5.245
  796SOL     OW 3286   1.198   2.267   6.366
  796SOL    HW1 3287   1.177   2.329   6.290
  796SOL    HW2 3288   1.279   2.300   6.414
  797SOL     OW 3289   4.905   2.216   2.450
  797SOL    HW1 3290   4.960   2.191   2.529
  797SOL    HW2 3291   4.951   2.289   2.399
  798SOL     OW 3292   5.288   7.014   1.196
  798SOL    HW1 3293   5.349   0.007   1.118
  798SOL    HW2 3294   5.204   0.042   1.185
  799SOL     OW 3295   6.021   1.538   4.485
  799SOL    HW1 3296   6.075   1.570   4.407
  799SOL    HW2 3297   6.065   1.458   4.526
  800SOL     OW 3298   5.473   1.434   2.539
  800SOL    HW1 3299   5.451   1.439   2.636
  800SOL    HW2 3300   5.433   1.512   2.491
  801SOL     OW 3301   1.848   3.132   3.498
  801SOL    HW1 3302   1.765   3.101   3.543
  801SOL    HW2 3303   1.845   3.108   3.401
  802SOL     OW 3304   4.182   0.041   0.382
  802SOL    HW1 3305   4.106   0.084   0.430
  802SOL    HW2 3306   4.209   0.098   0.304
  803SOL     OW 3307   0.691   5.252   5.002
  803SOL    HW1 3308   0.614   5.265   5.064
  803SOL    HW2 3309   0.658   5.211   4.916
  804SOL     OW 3310   6.149   6.108   6.937
  804SOL    HW1 3311   6.222   6.146   6.879
  804SOL    HW2 3312   6.072   6.083   6.879
  805SOL     OW 3313   3.266   1.932   5.571
  805SOL    HW1 3314   3.193   1.952   5.637
  805SOL    HW2 3315   3.229   1.881   5.494
  806SOL     OW 3316   4.461   0.921   4.473
  806SOL    HW1 3317   4.418   1.004   4.438
  806SOL    HW2 3318   4.558   0.920   4.447
  807SOL     OW 3319   0.706   1.979   4.005
  807SOL    HW1 3320   0.771   2.014   3.937
  807SOL    HW2 3321   0.688   2.050   4.073
  808SOL     OW 3322   4.605   3.957   6.306
  808SOL    HW1 3323   4.666   4.032   6.279
  808SOL    HW2 3324   4.649   3.902   6.376
  809SOL     OW 3325   0.537   4.852   1.664
  809SOL    HW1 3326   0.607   4.873   1.732
  809SOL    HW2 3327   0.490   4.768   1.690
  810SOL     OW 3328   3.818   2.558   1.197
  810SOL    HW1 3329   3.864   2.613   1.127
  810SOL    HW2 3330   3.875   2.479   1.221
  811SOL     OW 3331   4.132   5.573   4.174
  811SOL    HW1 3332   4.224   5.611   4.186
  811SOL    HW2 3333   4.092   5.555   4.263
  812SOL     OW 3334   0.757   1.560   2.313
  812SOL    HW1 3335   0.721   1.635   2.368
  812SOL    HW2 3336   0.795   1.490   2.373
  813SOL     OW 3337   3.827   4.914   4.674
  813SOL    HW1 3338   3.853   4.954   4.762
  813SOL    HW2 3339   3.796   4.820   4.687
  814SOL     OW 3340   5.179   6.231   3.511
  814SOL    HW1 3341   5.135   6.309   3.557
  814SOL    HW2 3342   5.217   6.169   3.580
  815SOL     OW 3343   7.002   3.043   3.033
  815SOL    HW1 3344   0.058   3.100   3.054
  815SOL    HW2 3345   0.006   2.959   2.988
  816SOL     OW 3346   6.495   6.824   0.581
  816SOL    HW1 3347   6.409   6.872   0.566
  816SOL    HW2 3348   6.485   6.728   0.556
  817SOL     OW 3349   2.249   4.032   2.008
  817SOL    HW1 3350   2.189   4.057   1.931
  817SOL    HW2 3351   2.295   3.946   1.987
  818SOL     OW 3352   6.197   3.291   1.665
  818SOL    HW1 3353   6.123   3.292   1.598
  818SOL    HW2 3354   6.283   3.268   1.618
  819SOL     OW 3355   5.630   3.449   3.677
  819SOL    HW1 3356   5.724   3.482   3.693
  819SOL    HW2 3357   5.585   3.510   3.612
  820SOL     OW 3358   1.724   2.665   6.591
  820SOL    HW1 3359   1.740   2.664   6.689
  820SOL    HW2 3360   1.626   2.663   6.573
  821SOL     OW 3361   2.145   4.761   0.797
  821SOL    HW1 3362   2.122   4.829   0.727
  821SOL    HW2 3363   2.062   4.726   0.838
  822SOL     OW 3364   0.760   4.697   4.451
  822SOL    HW1 3365   0.702   4.692   4.370
  822SOL    HW2 3366   0.754   4.610   4.501
  823SOL     OW 3367   5.042   4.075   6.864
  823SOL    HW1 3368   5.040   3.978   6.839
  823SOL    HW2 3369   4.990   4.127   6.796
  824SOL     OW 3370   5.079   0.766   5.146
  824SOL    HW1 3371   5.085   0.675   5.104
  824SOL    HW2 3372   5.172   0.801   5.162
  825SOL     OW 3373   1.401   4.156   1.746
  825SOL    HW1 3374   1.357   4.145   1.657
  825SOL    HW2 3375   1.472   4.086   1.758
  826SOL     OW 3376   5.789   3.292   0.242
  826SOL    HW1 3377   5.865   3.230   0.257
  826SOL    HW2 3378   5.715   3.244   0.195
  827SOL     OW 3379   3.421   5.667   6.140
  827SOL    HW1 3380   3.353   5.740   6.149
  827SOL    HW2 3381   3.493   5.697   6.077
  828SOL     OW 3382   6.100   7.020   5.652
  828SOL    HW1 3383   6.047   0.081   5.660
  828SOL    HW2 3384   6.110   6.995   5.556
  829SOL     OW 3385   2.940   3.771   3.763
  829SOL    HW1 3386   2.931   3.780   3.863
  829SOL    HW2 3387   2.907   3.681   3.735
  830SOL     OW 3388   5.156   4.877   6.597
  830SOL    HW1 3389   5.212   4.940   6.651
  830SOL    HW2 3390   5.089   4.832   6.656
  831SOL     OW 3391   6.572   0.515   5.339
  831SOL    HW1 3392   6.485   0.543   5.380
  831SOL    HW2 3393   6.601   0.428   5.379
  832SOL     OW 3394   2.031   0.970   0.628
  832SOL    HW1 3395   2.035   1.068   0.610
  832SOL    HW2 3396   1.938   0.945   0.654
  833SOL     OW 3397   0.374   4.966   6.062
  833SOL    HW1 3398   0.463   4.940   6.025
  833SOL    HW2 3399   0.323   5.017   5.993
  834SOL     OW 3400   3.161   3.413   1.357
  834SOL    HW1 3401   3.234   3.471   1.394
  834SOL    HW2 3402   3.188   3.317   1.365
  835SOL     OW 3403   3.465   6.762   4.272
  835SOL    HW1 3404   3.370   6.777   4.244
  835SOL    HW2 3405   3.513   6.849   4.272
  836SOL     OW 3406   3.545   6.638   6.681
  836SOL    HW1 3407   3.632   6.610   6.721
  836SOL    HW2 3408   3.504   6.561   6.632
  837SOL     OW 3409   5.114   6.714   6.990
  837SOL    HW1 3410   5.076   6.701   6.898
  837SOL    HW2 3411   5.188   6.781   6.986
  838SOL     OW 3412   0.906   0.602   5.241
  838SOL    HW1 3413   0.962   0.623   5.321
  838SOL    HW2 3414   0.917   0.673   5.172
  839SOL     OW 3415   2.606   2.465   2.138
  839SOL    HW1 3416   2.623   2.556   2.099
  839SOL    HW2 3417   2.666   2.398   2.094
  840SOL     OW 3418   5.976   0.327   6.144
  840SOL    HW1 3419   5.927   0.283   6.219
  840SOL    HW2 3420   6.056   0.272   6.120
  841SOL     OW 3421   5.975   4.594   0.239
  841SOL    HW1 3422   5.977   4.683   0.194
  841SOL    HW2 3423   5.885   4.552   0.227
  842SOL     OW 3424   4.476   4.891   4.280
  842SOL    HW1 3425   4.426   4.844   4.352
  842SOL    HW2 3426   4.575   4.881   4.296
  843SOL     OW 3427   4.136   2.311   6.694
  843SOL    HW1 3428   4.174   2.377   6.758
  843SOL    HW2 3429   4.209   2.274   6.636
  844SOL     OW 3430   4.380   6.944   1.000
  844SOL    HW1 3431   4.361   6.857   1.046
  844SOL    HW2 3432   4.478   6.949   0.979
  845SOL     OW 3433   6.191   3.808   4.581
  845SOL    HW1 3434   6.206   3.768   4.672
  845SOL    HW2 3435   6.122   3.880   4.588
  846SOL     OW 3436   4.712   1.955   6.860
  846SOL    HW1 3437   4.628   1.907   6.835
  846SOL    HW2 3438   4.783   1.934   6.793
  847SOL     OW 3439   6.833   3.309   0.021
  847SOL    HW1 3440   6.763   3.256   6.998
  847SOL    HW2 3441   6.803   3.329   0.114
  848SOL     OW 3442   6.597   1.882   6.406
  848SOL    HW1 3443   6.531   1.957   6.421
  848SOL    HW2 3444   6.687   1.921   6.387
  849SOL     OW 3445   1.024   4.922   5.905
  849SOL    HW1 3446   1.014   4.844   5.845
  849SOL    HW2 3447   1.039   5.005   5.851
  850SOL     OW 3448   5.131   0.767   3.568
  850SOL    HW1 3449   5.094   0.814   3.488
  850SOL    HW2 3450   5.191   0.829   3.618
  851SOL     OW 3451   0.396   1.853   1.846
  851SOL    HW1 3452   0.409   1.927   1.912
  851SOL    HW2 3453   0.412   1.765   1.891
  852SOL     OW 3454   2.830   2.683   0.125
  852SOL    HW1 3455   2.832   2.587   0.099
  852SOL    HW2 3456   2.738   2.720   0.113
  853SOL     OW 3457   1.289   4.127   2.242
  853SOL    HW1 3458   1.347   4.070   2.183
  853SOL    HW2 3459   1.233   4.068   2.301
  854SOL     OW 3460   4.805   5.855   2.110
  854SOL    HW1 3461   4.886   5.908   2.135
  854SOL    HW2 3462   4.796   5.853   2.010
  855SOL     OW 3463   6.563   0.299   1.302
  855SOL    HW1 3464   6.477   0.279   1.255
  855SOL    HW2 3465   6.574   0.236   1.379
  856SOL     OW 3466   2.018   1.578   4.816
  856SOL    HW1 3467   1.968   1.586   4.730
  856SOL    HW2 3468   1.994   1.655   4.876
  857SOL     OW 3469   6.198   5.356   1.227
  857SOL    HW1 3470   6.253   5.405   1.159
  857SOL    HW2 3471   6.124   5.415   1.257
  858SOL     OW 3472   2.047   4.489   1.560
  858SOL    HW1 3473   2.046   4.441   1.648
  858SOL    HW2 3474   1.963   4.469   1.510
  859SOL     OW 3475   5.228   5.327   6.937
  859SOL    HW1 3476   5.257   5.271   6.860
  859SOL    HW2 3477   5.283   5.303   7.018
  860SOL     OW 3478   4.572   4.281   0.932
  860SOL    HW1 3479   4.638   4.339   0.981
  860SOL    HW2 3480   4.621   4.223   0.867
  861SOL     OW 3481   2.234   0.542   4.907
  861SOL    HW1 3482   2.329   0.572   4.920
  861SOL    HW2 3483   2.233   0.453   4.861
  862SOL     OW 3484   6.448   4.477   5.393
  862SOL    HW1 3485   6.436   4.487   5.294
  862SOL    HW2 3486   6.510   4.548   5.426
  863SOL     OW 3487   1.129   0.321   0.501
  863SOL    HW1 3488   1.064   0.385   0.461
  863SOL    HW2 3489   1.172   0.268   0.428
  864SOL     OW 3490   4.912   4.744   3.384
  864SOL    HW1 3491   4.827   4.703   3.351
  864SOL    HW2 3492   4.969   4.673   3.427
  865SOL     OW 3493   1.532   6.307   5.811
  865SOL    HW1 3494   1.484   6.294   5.724
  865SOL    HW2 3495   1.493   6.386   5.858
  866SOL     OW 3496   1.969   2.813   1.265
  866SOL    HW1 3497   1.957   2.911   1.253
  866SOL    HW2 3498   2.028   2.777   1.193
  867SOL     OW 3499   3.885   2.761   0.982
  867SOL    HW1 3500   3.825   2.837   0.956
  867SOL    HW2 3501   3.871   2.685   0.919
  868SOL     OW 3502   6.135   6.433   1.258
  868SOL    HW1 3503   6.130   6.481   1.170
  868SOL    HW2 3504   6.151   6.336   1.242
  869SOL     OW 3505   6.687   5.112   2.573
  869SOL    HW1 3506   6.620   5.156   2.513
  869SOL    HW2 3507   6.717   5.178   2.642
  870SOL     OW 3508   5.984   3.539   0.366
  870SOL    HW1 3509   6.084   3.543   0.377
  870SOL    HW2 3510   5.956   3.444   0.354
  871SOL     OW 3511   6.749   3.346   2.179
  871SOL    HW1 3512   6.788   3.402   2.106
  871SOL    HW2 3513   6.758   3.249   2.154
  872SOL     OW 3514   6.498   4.337   3.865
  872SOL    HW1 3515   6.553   4.318   3.946
  872SOL    HW2 3516   6.537   4.415   3.816
  873SOL     OW 3517   4.445   6.964   3.418
  873SOL    HW1 3518   4.345   6.966   3.410
  873SOL    HW2 3519   4.472   6.990   3.510
  874SOL     OW 3520   1.710   4.243   5.486
  874SOL    HW1 3521   1.624   4.295   5.481
  874SOL    HW2 3522   1.750   4.254   5.577
  875SOL     OW 3523   4.815   3.575   1.058
  875SOL    HW1 3524   4.879   3.599   1.131
  875SOL    HW2 3525   4.721   3.588   1.089
  876SOL     OW 3526   0.303   5.321   3.471
  876SOL    HW1 3527   0.325   5.261   3.395
  876SOL    HW2 3528   0.287   5.414   3.436
  877SOL     OW 3529   4.123   4.478   6.840
  877SOL    HW1 3530   4.111   4.574   6.814
  877SOL    HW2 3531   4.097   4.419   6.764
  878SOL     OW 3532   4.018   5.596   6.557
  878SOL    HW1 3533   4.080   5.525   6.588
  878SOL    HW2 3534   3.992   5.577   6.462
  879SOL     OW 3535   3.616   2.116   2.335
  879SOL    HW1 3536   3.656   2.139   2.247
  879SOL    HW2 3537   3.518   2.135   2.333
  880SOL     OW 3538   3.055   5.025   6.884
  880SOL    HW1 3539   3.096   4.935   6.866
  880SOL    HW2 3540   3.087   5.059   6.973
  881SOL     OW 3541   4.209   4.721   5.262
  881SOL    HW1 3542   4.250   4.638   5.224
  881SOL    HW2 3543   4.157   4.769   5.191
  882SOL     OW 3544   2.031   1.112   3.900
  882SOL    HW1 3545   2.080   1.116   3.813
  882SOL    HW2 3546   2.021   1.017   3.928
  883SOL     OW 3547   4.708   5.437   5.390
  883SOL    HW1 3548   4.696   5.443   5.291
  883SOL    HW2 3549   4.747   5.522   5.424
  884SOL     OW 3550   6.769   3.669   2.035
  884SOL    HW1 3551   6.701   3.678   2.107
  884SOL    HW2 3552   6.784   3.758   1.991
  885SOL     OW 3553   5.428   5.894   6.778
  885SOL    HW1 3554   5.336   5.853   6.775
  885SOL    HW2 3555   5.428   5.978   6.724
  886SOL     OW 3556   4.109   0.488   0.228
  886SOL    HW1 3557   4.061   0.502   0.315
  886SOL    HW2 3558   4.172   0.410   0.237
  887SOL     OW 3559   4.516   6.477   5.499
  887SOL    HW1 3560   4.533   6.422   5.417
  887SOL    HW2 3561   4.593   6.540   5.512
  888SOL     OW 3562   6.571   6.496   3.019
  888SOL    HW1 3563   6.565   6.425   2.949
  888SOL    HW2 3564   6.499   6.483   3.087
  889SOL     OW 3565   0.001   6.714   5.791
  889SOL    HW1 3566   7.022   6.646   5.864
  889SOL    HW2 3567   7.014   6.806   5.830
  890SOL     OW 3568   2.641   4.743   2.024
  890SOL    HW1 3569   2.544   4.746   1.997
  890SOL    HW2 3570   2.692   4.688   1.959
  891SOL     OW 3571   5.767   3.757   1.166
  891SOL    HW1 3572   5.865   3.744   1.186
  891SOL    HW2 3573   5.739   3.690   1.097
  892SOL     OW 3574   4.040   3.719   0.310
  892SOL    HW1 3575   3.941   3.729   0.309
  892SOL    HW2 3576   4.071   3.699   0.403
  893SOL     OW 3577   2.125   0.741   1.433
  893SOL    HW1 3578   2.130   0.641   1.443
  893SOL    HW2 3579   2.120   0.784   1.523
  894SOL     OW 3580   2.217   3.985   4.043
  894SOL    HW1 3581   2.235   3.901   4.093
  894SOL    HW2 3582   2.211   4.061   4.107
  895SOL     OW 3583   2.033   6.280   4.872
  895SOL    HW1 3584   1.950   6.270   4.927
  895SOL    HW2 3585   2.032   6.370   4.829
  896SOL     OW 3586   5.074   5.787   3.405
  896SOL    HW1 3587   5.006   5.824   3.343
  896SOL    HW2 3588   5.165   5.815   3.376
  897SOL     OW 3589   4.814   1.300   0.306
  897SOL    HW1 3590   4.810   1.375   0.372
  897SOL    HW2 3591   4.749   1.228   0.332
  898SOL     OW 3592   4.092   5.916   3.779
  898SOL    HW1 3593   4.182   5.940   3.744
  898SOL    HW2 3594   4.026   5.986   3.752
  899SOL     OW 3595   0.409   5.194   0.021
  899SOL    HW1 3596   0.346   5.195   0.099
  899SOL    HW2 3597   0.357   5.206   6.960
  900SOL     OW 3598   5.178   5.905   1.479
  900SOL    HW1 3599   5.155   5.947   1.391
  900SOL    HW2 3600   5.266   5.941   1.511
  901SOL     OW 3601   7.014   1.385   4.900
  901SOL    HW1 3602   6.951   1.341   4.836
  901SOL    HW2 3603   7.020   1.331   4.984
  902SOL     OW 3604   0.227   1.375   6.427
  902SOL    HW1 3605   0.145   1.408   6.475
  902SOL    HW2 3606   0.205   1.291   6.378
  903SOL     OW 3607   6.722   4.589   6.943
  903SOL    HW1 3608   6.691   4.501   6.979
  903SOL    HW2 3609   6.758   4.576   6.851
  904SOL     OW 3610   1.453   1.996   4.218
  904SOL    HW1 3611   1.445   2.035   4.127
  904SOL    HW2 3612   1.544   2.015   4.255
  905SOL     OW 3613   5.396   2.655   6.690
  905SOL    HW1 3614   5.473   2.678   6.631
  905SOL    HW2 3615   5.322   2.721   6.677
  906SOL     OW 3616   0.351   3.806   6.207
  906SOL    HW1 3617   0.397   3.717   6.211
  906SOL    HW2 3618   0.418   3.879   6.222
  907SOL     OW 3619   5.875   2.550   3.163
  907SOL    HW1 3620   5.819   2.552   3.246
  907SOL    HW2 3621   5.834   2.488   3.096
  908SOL     OW 3622   1.205   0.063   4.147
  908SOL    HW1 3623   1.269   0.085   4.220
  908SOL    HW2 3624   1.251   0.071   4.059
  909SOL     OW 3625   2.581   0.955   0.755
  909SOL    HW1 3626   2.671   0.911   0.760
  909SOL    HW2 3627   2.538   0.952   0.844
  910SOL     OW 3628   2.289   0.839   0.736
  910SOL    HW1 3629   2.209   0.896   0.720
  910SOL    HW2 3630   2.357   0.891   0.789
  911SOL     OW 3631   0.278   5.002   1.305
  911SOL    HW1 3632   0.343   5.076   1.286
  911SOL    HW2 3633   0.275   4.985   1.403
  912SOL     OW 3634   0.238   1.119   5.438
  912SOL    HW1 3635   0.320   1.107   5.495
  912SOL    HW2 3636   0.197   1.208   5.456
  913SOL     OW 3637   2.252   0.409   3.488
  913SOL    HW1 3638   2.187   0.436   3.417
  913SOL    HW2 3639   2.287   0.317   3.468
  914SOL     OW 3640   2.333   5.379   5.381
  914SOL    HW1 3641   2.429   5.367   5.355
  914SOL    HW2 3642   2.329   5.418   5.473
  915SOL     OW 3643   0.504   3.346   1.048
  915SOL    HW1 3644   0.601   3.348   1.026
  915SOL    HW2 3645   0.457   3.282   0.986
  916SOL     OW 3646   1.712   2.196   2.337
  916SOL    HW1 3647   1.700   2.115   2.279
  916SOL    HW2 3648   1.734   2.275   2.280
  917SOL     OW 3649   3.671   1.248   1.458
  917SOL    HW1 3650   3.630   1.181   1.520
  917SOL    HW2 3651   3.765   1.266   1.487
  918SOL     OW 3652   3.004   6.200   0.259
  918SOL    HW1 3653   2.980   6.255   0.179
  918SOL    HW2 3654   2.923   6.153   0.293
  919SOL     OW 3655   1.871   6.595   1.895
  919SOL    HW1 3656   1.929   6.519   1.864
  919SOL    HW2 3657   1.826   6.570   1.981
  920SOL     OW 3658   2.305   0.099   3.383
  920SOL    HW1 3659   2.367   0.143   3.317
  920SOL    HW2 3660   2.220   0.073   3.336
  921SOL     OW 3661   4.874   5.004   3.535
  921SOL    HW1 3662   4.911   5.062   3.462
  921SOL    HW2 3663   4.912   4.912   3.527
  922SOL     OW 3664   3.453   3.021   6.410
  922SOL    HW1 3665   3.503   2.950   6.361
  922SOL    HW2 3666   3.466   3.010   6.508
  923SOL     OW 3667   3.076   5.971   0.611
  923SOL    HW1 3668   3.075   5.929   0.521
  923SOL    HW2 3669   3.154   5.937   0.663
  924SOL     OW 3670   5.139   3.496   2.660
  924SOL    HW1 3671   5.183   3.468   2.574
  924SOL    HW2 3672   5.045   3.461   2.662
  925SOL     OW 3673   6.788   1.984   5.510
  925SOL    HW1 3674   6.735   1.917   5.458
  925SOL    HW2 3675   6.885   1.971   5.492
  926SOL     OW 3676   6.020   1.225   6.852
  926SOL    HW1 3677   5.945   1.192   6.909
  926SOL    HW2 3678   6.059   1.148   6.802
  927SOL     OW 3679   5.039   3.797   4.158
  927SOL    HW1 3680   5.036   3.745   4.072
  927SOL    HW2 3681   5.005   3.740   4.232
  928SOL     OW 3682   1.647   0.358   0.744
  928SOL    HW1 3683   1.562   0.312   0.769
  928SOL    HW2 3684   1.632   0.457   0.745
  929SOL     OW 3685   6.689   2.584   1.662
  929SOL    HW1 3686   6.752   2.519   1.619
  929SOL    HW2 3687   6.724   2.610   1.751
  930SOL     OW 3688   6.653   5.648   4.728
  930SOL    HW1 3689   6.577   5.683   4.783
  930SOL    HW2 3690   6.723   5.719   4.720
  931SOL     OW 3691   0.206   3.988   3.138
  931SOL    HW1 3692   0.189   3.951   3.047
  931SOL    HW2 3693   0.247   3.917   3.196
  932SOL     OW 3694   3.422   6.476   1.532
  932SOL    HW1 3695   3.425   6.563   1.484
  932SOL    HW2 3696   3.421   6.401   1.465
  933SOL     OW 3697   0.703   4.741   2.404
  933SOL    HW1 3698   0.705   4.652   2.451
  933SOL    HW2 3699   0.633   4.739   2.333
  934SOL     OW 3700   2.542   1.215   4.251
  934SOL    HW1 3701   2.634   1.224   4.288
  934SOL    HW2 3702   2.547   1.193   4.153
  935SOL     OW 3703   4.863   3.670   5.728
  935SOL    HW1 3704   4.914   3.635   5.806
  935SOL    HW2 3705   4.927   3.693   5.654
  936SOL     OW 3706   0.404   6.692   0.015
  936SOL    HW1 3707   0.426   6.781   7.000
  936SOL    HW2 3708   0.489   6.647   0.044
  937SOL     OW 3709   4.446   2.100   5.001
  937SOL    HW1 3710   4.533   2.095   5.049
  937SOL    HW2 3711   4.458   2.149   4.915
  938SOL     OW 3712   6.956   4.554   6.199
  938SOL    HW1 3713   6.903   4.639   6.209
  938SOL    HW2 3714   7.004   4.556   6.111
  939SOL     OW 3715   5.014   1.404   5.806
  939SOL    HW1 3716   4.952   1.466   5.758
  939SOL    HW2 3717   5.083   1.457   5.855
  940SOL     OW 3718   6.532   2.131   2.818
  940SOL    HW1 3719   6.614   2.161   2.867
  940SOL    HW2 3720   6.466   2.092   2.883
  941SOL     OW 3721   6.092   0.930   4.171
  941SOL    HW1 3722   6.022   0.940   4.243
  941SOL    HW2 3723   6.169   0.991   4.191
  942SOL     OW 3724   5.099   0.697   4.779
  942SOL    HW1 3725   5.061   0.607   4.801
  942SOL    HW2 3726   5.040   0.768   4.817
  943SOL     OW 3727   0.581   3.199   2.642
  943SOL    HW1 3728   0.663   3.151   2.672
  943SOL    HW2 3729   0.587   3.295   2.669
  944SOL     OW 3730   6.002   3.295   5.810
  944SOL    HW1 3731   6.095   3.306   5.775
  944SOL    HW2 3732   5.949   3.378   5.790
  945SOL     OW 3733   5.693   5.062   4.936
  945SOL    HW1 3734   5.628   5.133   4.909
  945SOL    HW2 3735   5.654   4.972   4.917
  946SOL     OW 3736   5.705   2.711   6.634
  946SOL    HW1 3737   5.758   2.650   6.576
  946SOL    HW2 3738   5.674   2.662   6.715
  947SOL     OW 3739   3.068   3.266   5.322
  947SOL    HW1 3740   3.042   3.201   5.394
  947SOL    HW2 3741   3.054   3.359   5.354
  948SOL     OW 3742   4.198   0.682   1.295
  948SOL    HW1 3743   4.130   0.623   1.339
  948SOL    HW2 3744   4.277   0.693   1.356
  949SOL     OW 3745   6.315   6.323   6.077
  949SOL    HW1 3746   6.313   6.412   6.030
  949SOL    HW2 3747   6.221   6.293   6.095
  950SOL     OW 3748   4.177   5.091   2.523
  950SOL    HW1 3749   4.157   4.995   2.543
  950SOL    HW2 3750   4.204   5.137   2.607
  951SOL     OW 3751   1.896   0.460   2.061
  951SOL    HW1 3752   1.879   0.420   1.971
  951SOL    HW2 3753   1.827   0.428   2.126
  952SOL     OW 3754   5.869   1.873   2.395
  952SOL    HW1 3755   5.965   1.901   2.401
  952SOL    HW2 3756   5.857   1.784   2.441
  953SOL     OW 3757   4.719   5.654   5.560
  953SOL    HW1 3758   4.734   5.650   5.659
  953SOL    HW2 3759   4.788   5.713   5.518
  954SOL     OW 3760   5.772   0.538   0.803
  954SOL    HW1 3761   5.708   0.561   0.877
  954SOL    HW2 3762   5.856   0.501   0.842
  955SOL     OW 3763   1.083   4.840   3.800
  955SOL    HW1 3764   1.076   4.751   3.755
  955SOL    HW2 3765   1.173   4.880   3.782
  956SOL     OW 3766   1.231   1.836   1.961
  956SOL    HW1 3767   1.251   1.781   1.880
  956SOL    HW2 3768   1.161   1.790   2.016
  957SOL     OW 3769   1.293   4.544   5.082
  957SOL    HW1 3770   1.236   4.596   5.145
  957SOL    HW2 3771   1.388   4.577   5.087
  958SOL     OW 3772   4.838   1.967   0.842
  958SOL    HW1 3773   4.890   1.924   0.915
  958SOL    HW2 3774   4.742   1.976   0.869
  959SOL     OW 3775   3.258   5.114   3.160
  959SOL    HW1 3776   3.346   5.139   3.200
  959SOL    HW2 3777   3.208   5.055   3.224
  960SOL     OW 3778   0.636   5.956   4.064
  960SOL    HW1 3779   0.544   5.968   4.101
  960SOL    HW2 3780   0.671   5.866   4.090
  961SOL     OW 3781   4.700   6.283   2.886
  961SOL    HW1 3782   4.715   6.244   2.977
  961SOL    HW2 3783   4.614   6.335   2.886
  962SOL     OW 3784   1.650   1.269   3.822
  962SOL    HW1 3785   1.697   1.288   3.908
  962SOL    HW2 3786   1.673   1.177   3.791
  963SOL     OW 3787   6.030   0.750   0.291
  963SOL    HW1 3788   5.991   0.841   0.279
  963SOL    HW2 3789   6.107   0.738   0.228
  964SOL     OW 3790   6.057   3.446   0.861
  964SOL    HW1 3791   6.117   3.500   0.803
  964SOL    HW2 3792   5.962   3.471   0.843
  965SOL     OW 3793   6.032   1.720   0.985
  965SOL    HW1 3794   5.954   1.707   0.923
  965SOL    HW2 3795   6.048   1.818   0.997
  966SOL     OW 3796   6.109   1.678   2.378
  966SOL    HW1 3797   6.071   1.646   2.465
  966SOL    HW2 3798   6.115   1.778   2.378
  967SOL     OW 3799   1.497   5.175   0.248
  967SOL    HW1 3800   1.520   5.226   0.331
  967SOL    HW2 3801   1.484   5.079   0.270
  968SOL     OW 3802   4.744   2.581   2.210
  968SOL    HW1 3803   4.806   2.510   2.176
  968SOL    HW2 3804   4.663   2.585   2.152
  969SOL     OW 3805   3.337   5.913   5.724
  969SOL    HW1 3806   3.287   5.885   5.805
  969SOL    HW2 3807   3.394   5.993   5.745
  970SOL     OW 3808   4.878   1.287   5.067
  970SOL    HW1 3809   4.822   1.343   5.128
  970SOL    HW2 3810   4.843   1.193   5.066
  971SOL     OW 3811   0.464   1.517   2.728
  971SOL    HW1 3812   0.540   1.490   2.787
  971SOL    HW2 3813   0.394   1.563   2.782
  972SOL     OW 3814   5.731   3.949   0.843
  972SOL    HW1 3815   5.719   3.958   0.942
  972SOL    HW2 3816   5.662   4.003   0.795
  973SOL     OW 3817   0.297   4.835   6.355
  973SOL    HW1 3818   0.390   4.824   6.393
  973SOL    HW2 3819   0.300   4.900   6.279
  974SOL     OW 3820   4.258   0.479   2.172
  974SOL    HW1 3821   4.158   0.483   2.182
  974SOL    HW2 3822   4.298   0.565   2.203
  975SOL     OW 3823   1.836   6.112   6.726
  975SOL    HW1 3824   1.852   6.210   6.727
  975SOL    HW2 3825   1.739   6.094   6.705
  976SOL     OW 3826   6.560   3.026   2.912
  976SOL    HW1 3827   6.553   3.102   2.847
  976SOL    HW2 3828   6.476   2.970   2.907
  977SOL     OW 3829   2.380   1.609   4.002
  977SOL    HW1 3830   2.314   1.617   3.928
  977SOL    HW2 3831   2.332   1.600   4.089
  978SOL     OW 3832   5.245   4.016   5.075
  978SOL    HW1 3833   5.164   4.075   5.083
  978SOL    HW2 3834   5.320   4.068   5.036
  979SOL     OW 3835   6.504   1.309   2.826
  979SOL    HW1 3836   6.462   1.282   2.740
  979SOL    HW2 3837   6.519   1.229   2.883
  980SOL     OW 3838   4.825   1.766   3.758
  980SOL    HW1 3839   4.857   1.805   3.845
  980SOL    HW2 3840   4.725   1.765   3.757
  981SOL     OW 3841   1.357   1.721   4.918
  981SOL    HW1 3842   1.361   1.788   4.993
  981SOL    HW2 3843   1.266   1.723   4.877
  982SOL     OW 3844   2.065   2.755   3.281
  982SOL    HW1 3845   2.058   2.662   3.318
  982SOL    HW2 3846   2.119   2.812   3.343
  983SOL     OW 3847   5.797   2.651   3.525
  983SOL    HW1 3848   5.864   2.670   3.598
  983SOL    HW2 3849   5.737   2.577   3.555
  984SOL     OW 3850   3.512   0.785   4.974
  984SOL    HW1 3851   3.571   0.789   4.894
  984SOL    HW2 3852   3.567   0.799   5.056
  985SOL     OW 3853   5.683   4.952   6.698
  985SOL    HW1 3854   5.651   5.041   6.666
  985SOL    HW2 3855   5.684   4.950   6.797
  986SOL     OW 3856   5.541   5.503   0.350
  986SOL    HW1 3857   5.511   5.468   0.439
  986SOL    HW2 3858   5.536   5.603   0.350
  987SOL     OW 3859   3.833   6.196   1.126
  987SOL    HW1 3860   3.746   6.232   1.161
  987SOL    HW2 3861   3.843   6.101   1.156
  988SOL     OW 3862   4.068   2.930   1.794
  988SOL    HW1 3863   4.023   2.946   1.706
  988SOL    HW2 3864   4.009   2.871   1.850
  989SOL     OW 3865   0.364   0.706   5.654
  989SOL    HW1 3866   0.282   0.762   5.647
  989SOL    HW2 3867   0.427   0.730   5.580
  990SOL     OW 3868   4.679   0.303   3.677
  990SOL    HW1 3869   4.582   0.312   3.655
  990SOL    HW2 3870   4.723   0.244   3.610
  991SOL     OW 3871   1.779   1.419   5.298
  991SOL    HW1 3872   1.691   1.464   5.286
  991SOL    HW2 3873   1.828   1.417   5.210
  992SOL     OW 3874   0.886   3.399   0.697
  992SOL    HW1 3875   0.843   3.312   0.674
  992SOL    HW2 3876   0.918   3.444   0.613
  993SOL     OW 3877   1.915   5.439   2.250
  993SOL    HW1 3878   1.884   5.455   2.344
  993SOL    HW2 3879   1.897   5.520   2.195
  994SOL     OW 3880   3.959   3.894   2.473
  994SOL    HW1 3881   4.022   3.834   2.523
  994SOL    HW2 3882   3.878   3.910   2.528
  995SOL     OW 3883   2.721   2.182   6.220
  995SOL    HW1 3884   2.657   2.114   6.185
  995SOL    HW2 3885   2.791   2.201   6.151
  996SOL     OW 3886   1.737   4.056   3.933
  996SOL    HW1 3887   1.654   4.016   3.894
  996SOL    HW2 3888   1.713   4.110   4.014
  997SOL     OW 3889   6.900   0.112   1.405
  997SOL    HW1 3890   6.810   0.150   1.427
  997SOL    HW2 3891   6.897   0.013   1.410
  998SOL     OW 3892   4.497   0.039   3.665
  998SOL    HW1 3893   4.406   0.053   3.704
  998SOL    HW2 3894   4.553   0.120   3.682
  999SOL     OW 3895   5.444   5.512   1.140
  999SOL    HW1 3896   5.509   5.436   1.145
  999SOL    HW2 3897   5.440   5.558   1.228
 1000SOL     OW 3898   1.249   0.895   2.537
 1000SOL    HW1 3899   1.234   0.841   2.621
 1000SOL    HW2 3900   1.259   0.992   2.561
 1001SOL     OW 3901   4.755   6.659   6.916
 1001SOL    HW1 3902   4.836   6.601   6.926
 1001SOL    HW2 3903   4.779   6.753   6.937
 1002SOL     OW 3904   5.597   1.987   6.437
 1002SOL    HW1 3905   5.549   1.952   6.518
 1002SOL    HW2 3906   5.606   1.914   6.370
 1003SOL     OW 3907   2.608   6.861   1.487
 1003SOL    HW1 3908   2.561   6.780   1.523
 1003SOL    HW2 3909   2.591   6.868   1.389
 1004SOL     OW 3910   6.914   0.461   0.616
 1004SOL    HW1 3911   6.857   0.532   0.576
 1004SOL    HW2 3912   6.877   0.371   0.593
 1005SOL     OW 3913   0.212   1.123   3.130
 1005SOL    HW1 3914   0.300   1.149   3.089
 1005SOL    HW2 3915   0.142   1.121   3.059
 1006SOL     OW 3916   2.215   6.199   1.724
 1006SOL    HW1 3917   2.171   6.279   1.765
 1006SOL    HW2 3918   2.273   6.229   1.648
 1007SOL     OW 3919   6.232   6.882   3.612
 1007SOL    HW1 3920   6.326   6.878   3.646
 1007SOL    HW2 3921   6.211   6.799   3.560
 1008SOL     OW 3922   1.851   2.801   4.720
 1008SOL    HW1 3923   1.890   2.729   4.662
 1008SOL    HW2 3924   1.774   2.843   4.672
 1009SOL     OW 3925   0.324   6.021   3.923
 1009SOL    HW1 3926   0.342   6.003   3.826
 1009SOL    HW2 3927   0.228   6.000   3.943
 1010SOL     OW 3928   3.524   2.465   6.891
 1010SOL    HW1 3929   3.478   2.455   6.803
 1010SOL    HW2 3930   3.506   2.555   6.929
 1011SOL     OW 3931   2.768   5.314   2.568
 1011SOL    HW1 3932   2.808   5.332   2.478
 1011SOL    HW2 3933   2.832   5.343   2.639
 1012SOL     OW 3934   6.936   5.709   0.697
 1012SOL    HW1 3935   6.853   5.664   0.663
 1012SOL    HW2 3936   7.007   5.703   0.627
 1013SOL     OW 3937   0.293   0.944   6.481
 1013SOL    HW1 3938   0.291   0.948   6.581
 1013SOL    HW2 3939   0.301   0.848   6.452
 1014SOL     OW 3940   5.129   5.719   0.131
 1014SOL    HW1 3941   5.206   5.782   0.116
 1014SOL    HW2 3942   5.090   5.694   0.042
 1015SOL     OW 3943   2.531   6.459   5.490
 1015SOL    HW1 3944   2.554   6.542   5.540
 1015SOL    HW2 3945   2.482   6.396   5.551
 1016SOL     OW 3946   2.246   3.199   0.858
 1016SOL    HW1 3947   2.185   3.262   0.906
 1016SOL    HW2 3948   2.275   3.241   0.772
 1017SOL     OW 3949   4.441   2.581   0.984
 1017SOL    HW1 3950   4.438   2.661   1.044
 1017SOL    HW2 3951   4.379   2.595   0.907
 1018SOL     OW 3952   1.795   3.543   4.048
 1018SOL    HW1 3953   1.837   3.601   3.979
 1018SOL    HW2 3954   1.794   3.448   4.017
 1019SOL     OW 3955   1.146   0.699   0.406
 1019SOL    HW1 3956   1.220   0.693   0.473
 1019SOL    HW2 3957   1.134   0.611   0.361
 1020SOL     OW 3958   1.677   6.815   1.095
 1020SOL    HW1 3959   1.653   6.885   1.162
 1020SOL    HW2 3960   1.746   6.851   1.031
 1021SOL     OW 3961   6.426   0.699   0.281
 1021SOL    HW1 3962   6.446   0.784   0.330
 1021SOL    HW2 3963   6.443   0.621   0.341
 1022SOL     OW 3964   4.001   4.290   6.031
 1022SOL    HW1 3965   3.948   4.374   6.038
 1022SOL    HW2 3966   4.016   4.252   6.122
 1023SOL     OW 3967   6.031   7.011   2.637
 1023SOL    HW1 3968   6.075   0.011   2.724
 1023SOL    HW2 3969   5.946   0.039   2.627
 1024SOL     OW 3970   6.512   3.017   4.247
 1024SOL    HW1 3971   6.609   2.993   4.237
 1024SOL    HW2 3972   6.456   2.945   4.205
 1025SOL     OW 3973   3.411   4.125   0.040
 1025SOL    HW1 3974   3.485   4.146   0.103
 1025SOL    HW2 3975   3.347   4.062   0.083
 1026SOL     OW 3976   1.568   2.158   0.973
 1026SOL    HW1 3977   1.571   2.091   0.899
 1026SOL    HW2 3978   1.648   2.145   1.033
 1027SOL     OW 3979   2.634   6.261   1.096
 1027SOL    HW1 3980   2.639   6.280   0.998
 1027SOL    HW2 3981   2.718   6.215   1.126
 1028SOL     OW 3982   3.404   5.957   0.040
 1028SOL    HW1 3983   3.337   5.946   0.113
 1028SOL    HW2 3984   3.445   6.048   0.045
 1029SOL     OW 3985   1.636   0.482   0.488
 1029SOL    HW1 3986   1.708   0.546   0.461
 1029SOL    HW2 3987   1.664   0.433   0.571
 1030SOL     OW 3988   3.065   3.027   2.275
 1030SOL    HW1 3989   2.974   2.988   2.261
 1030SOL    HW2 3990   3.133   2.969   2.232
 1031SOL     OW 3991   5.189   5.266   0.566
 1031SOL    HW1 3992   5.101   5.221   0.547
 1031SOL    HW2 3993   5.264   5.203   0.548
 1032SOL     OW 3994   1.444   1.722   4.591
 1032SOL    HW1 3995   1.455   1.633   4.547
 1032SOL    HW2 3996   1.392   1.710   4.676
 1033SOL     OW 3997   1.157   6.604   1.412
 1033SOL    HW1 3998   1.199   6.644   1.331
 1033SOL    HW2 3999   1.060   6.630   1.416
 1034SOL     OW 4000   1.308   6.182   4.854
 1034SOL    HW1 4001   1.321   6.247   4.779
 1034SOL    HW2 4002   1.347   6.220   4.938
 1035SOL     OW 4003   2.888   1.503   3.556
 1035SOL    HW1 4004   2.982   1.497   3.524
 1035SOL    HW2 4005   2.829   1.451   3.495
 1036SOL     OW 4006   2.916   0.358   0.997
 1036SOL    HW1 4007   2.990   0.392   1.056
 1036SOL    HW2 4008   2.849   0.431   0.982
 1037SOL     OW 4009   1.330   1.109   1.459
 1037SOL    HW1 4010   1.258   1.041   1.471
 1037SOL    HW2 4011   1.306   1.171   1.384
 1038SOL     OW 4012   1.264   0.929   5.677
 1038SOL    HW1 4013   1.314   0.853   5.635
 1038SOL    HW2 4014   1.185   0.953   5.620
 1039SOL     OW 4015   4.295   2.511   5.567
 1039SOL    HW1 4016   4.278   2.455   5.648
 1039SOL    HW2 4017   4.377   2.568   5.582
 1040SOL     OW 4018   5.161   3.056   2.891
 1040SOL    HW1 4019   5.160   3.095   2.798
 1040SOL    HW2 4020   5.252   3.066   2.930
 1041SOL     OW 4021   6.731   6.773   4.168
 1041SOL    HW1 4022   6.778   6.706   4.226
 1041SOL    HW2 4023   6.641   6.737   4.142
 1042SOL     OW 4024   3.049   4.800   2.280
 1042SOL    HW1 4025   2.994   4.861   2.337
 1042SOL    HW2 4026   3.145   4.821   2.292
 1043SOL     OW 4027   4.656   1.218   5.740
 1043SOL    HW1 4028   4.588   1.276   5.694
 1043SOL    HW2 4029   4.673   1.254   5.832
 1044SOL     OW 4030   4.188   2.678   1.720
 1044SOL    HW1 4031   4.139   2.760   1.748
 1044SOL    HW2 4032   4.126   2.617   1.670
 1045SOL     OW 4033   2.739   0.310   1.555
 1045SOL    HW1 4034   2.647   0.272   1.564
 1045SOL    HW2 4035   2.776   0.286   1.465
 1046SOL     OW 4036   2.091   6.876   6.929
 1046SOL    HW1 4037   2.040   6.849   6.847
 1046SOL    HW2 4038   2.116   6.972   6.922
 1047SOL     OW 4039   1.411   5.446   3.015
 1047SOL    HW1 4040   1.465   5.362   3.012
 1047SOL    HW2 4041   1.431   5.501   2.934
 1048SOL     OW 4042   4.456   5.603   5.513
 1048SOL    HW1 4043   4.420   5.552   5.590
 1048SOL    HW2 4044   4.549   5.633   5.532
 1049SOL     OW 4045   6.832   4.467   4.934
 1049SOL    HW1 4046   6.816   4.549   4.989
 1049SOL    HW2 4047   6.755   4.454   4.871
 1050SOL     OW 4048   2.993   5.255   0.989
 1050SOL    HW1 4049   2.998   5.336   0.930
 1050SOL    HW2 4050   3.028   5.176   0.938
 1051SOL     OW 4051   3.640   4.907   6.994
 1051SOL    HW1 4052   3.633   4.905   0.070
 1051SOL    HW2 4053   3.701   4.833   6.964
 1052SOL     OW 4054   4.366   0.381   3.963
 1052SOL    HW1 4055   4.419   0.443   3.905
 1052SOL    HW2 4056   4.293   0.431   4.007
 1053SOL     OW 4057   5.366   5.825   3.340
 1053SOL    HW1 4058   5.430   5.750   3.354
 1053SOL    HW2 4059   5.355   5.876   3.425
 1054SOL     OW 4060   2.713   4.590   5.511
 1054SOL    HW1 4061   2.655   4.581   5.591
 1054SOL    HW2 4062   2.722   4.502   5.466
 1055SOL     OW 4063   5.616   6.671   4.183
 1055SOL    HW1 4064   5.666   6.715   4.258
 1055SOL    HW2 4065   5.638   6.717   4.097
 1056SOL     OW 4066   1.755   6.119   5.287
 1056SOL    HW1 4067   1.755   6.084   5.194
 1056SOL    HW2 4068   1.843   6.098   5.330
 1057SOL     OW 4069   3.449   3.690   2.821
 1057SOL    HW1 4070   3.367   3.746   2.814
 1057SOL    HW2 4071   3.523   3.743   2.861
 1058SOL     OW 4072   5.024   1.635   2.419
 1058SOL    HW1 4073   4.986   1.545   2.396
 1058SOL    HW2 4074   5.066   1.631   2.510
 1059SOL     OW 4075   3.123   0.507   2.314
 1059SOL    HW1 4076   3.188   0.491   2.240
 1059SOL    HW2 4077   3.047   0.442   2.307
 1060SOL     OW 4078   0.317   3.419   5.097
 1060SOL    HW1 4079   0.236   3.425   5.156
 1060SOL    HW2 4080   0.291   3.381   5.008
 1061SOL     OW 4081   4.554   4.044   1.361
 1061SOL    HW1 4082   4.517   4.084   1.445
 1061SOL    HW2 4083   4.480   4.028   1.296
 1062SOL     OW 4084   6.629   5.667   6.109
 1062SOL    HW1 4085   6.559   5.688   6.177
 1062SOL    HW2 4086   6.662   5.574   6.122
 1063SOL     OW 4087   1.126   4.477   1.021
 1063SOL    HW1 4088   1.123   4.512   1.114
 1063SOL    HW2 4089   1.043   4.424   1.002
 1064SOL     OW 4090   0.716   4.233   2.686
 1064SOL    HW1 4091   0.799   4.230   2.742
 1064SOL    HW2 4092   0.641   4.272   2.740
 1065SOL     OW 4093   4.976   0.432   4.646
 1065SOL    HW1 4094   4.902   0.411   4.710
 1065SOL    HW2 4095   5.022   0.347   4.619
 1066SOL     OW 4096   5.360   0.789   4.234
 1066SOL    HW1 4097   5.380   0.884   4.209
 1066SOL    HW2 4098   5.272   0.785   4.281
 1067SOL     OW 4099   1.487   2.580   0.197
 1067SOL    HW1 4100   1.541   2.586   0.280
 1067SOL    HW2 4101   1.391   2.603   0.217
 1068SOL     OW 4102   5.623   4.461   1.926
 1068SOL    HW1 4103   5.542   4.407   1.904
 1068SOL    HW2 4104   5.687   4.405   1.979
 1069SOL     OW 4105   4.774   4.933   1.333
 1069SOL    HW1 4106   4.840   4.858   1.328
 1069SOL    HW2 4107   4.816   5.012   1.378
 1070SOL     OW 4108   1.202   1.455   6.968
 1070SOL    HW1 4109   1.232   1.400   0.022
 1070SOL    HW2 4110   1.281   1.477   6.910
 1071SOL     OW 4111   3.932   0.560   3.458
 1071SOL    HW1 4112   4.004   0.600   3.516
 1071SOL    HW2 4113   3.954   0.577   3.362
 1072SOL     OW 4114   1.855   6.182   1.756
 1072SOL    HW1 4115   1.831   6.249   1.686
 1072SOL    HW2 4116   1.915   6.224   1.823
 1073SOL     OW 4117   3.853   5.661   2.619
 1073SOL    HW1 4118   3.940   5.622   2.590
 1073SOL    HW2 4119   3.786   5.654   2.545
 1074SOL     OW 4120   1.764   5.273   1.629
 1074SOL    HW1 4121   1.670   5.241   1.634
 1074SOL    HW2 4122   1.772   5.362   1.674
 1075SOL     OW 4123   4.951   5.340   3.702
 1075SOL    HW1 4124   4.999   5.368   3.785
 1075SOL    HW2 4125   4.943   5.419   3.640
 1076SOL     OW 4126   0.582   4.442   4.956
 1076SOL    HW1 4127   0.568   4.344   4.943
 1076SOL    HW2 4128   0.586   4.488   4.867
 1077SOL     OW 4129   5.859   0.352   0.235
 1077SOL    HW1 4130   5.871   0.414   0.158
 1077SOL    HW2 4131   5.949   0.326   0.272
 1078SOL     OW 4132   1.532   1.193   2.412
 1078SOL    HW1 4133   1.497   1.254   2.341
 1078SOL    HW2 4134   1.612   1.144   2.378
 1079SOL     OW 4135   1.597   5.205   2.966
 1079SOL    HW1 4136   1.682   5.205   3.018
 1079SOL    HW2 4137   1.618   5.209   2.868
 1080SOL     OW 4138   1.463   4.087   3.497
 1080SOL    HW1 4139   1.383   4.110   3.551
 1080SOL    HW2 4140   1.546   4.102   3.551
 1081SOL     OW 4141   0.260   0.905   5.258
 1081SOL    HW1 4142   0.336   0.930   5.197
 1081SOL    HW2 4143   0.238   0.982   5.317
 1082SOL     OW 4144   1.570   0.275   6.066
 1082SOL    HW1 4145   1.488   0.328   6.045
 1082SOL    HW2 4146   1.543   0.191   6.114
 1083SOL     OW 4147   3.325   4.124   2.170
 1083SOL    HW1 4148   3.297   4.060   2.099
 1083SOL    HW2 4149   3.266   4.205   2.167
 1084SOL     OW 4150   6.914   5.957   1.273
 1084SOL    HW1 4151   6.983   5.884   1.266
 1084SOL    HW2 4152   6.864   5.947   1.359
 1085SOL     OW 4153   1.711   3.912   3.373
 1085SOL    HW1 4154   1.627   3.921   3.320
 1085SOL    HW2 4155   1.784   3.964   3.328
 1086SOL     OW 4156   6.339   5.814   3.110
 1086SOL    HW1 4157   6.333   5.719   3.140
 1086SOL    HW2 4158   6.433   5.835   3.084
 1087SOL     OW 4159   5.482   2.621   5.492
 1087SOL    HW1 4160   5.473   2.655   5.586
 1087SOL    HW2 4161   5.521   2.693   5.435
 1088SOL     OW 4162   6.236   5.048   3.499
 1088SOL    HW1 4163   6.258   5.124   3.560
 1088SOL    HW2 4164   6.195   5.084   3.415
 1089SOL     OW 4165   1.256   0.146   4.712
 1089SOL    HW1 4166   1.196   0.196   4.775
 1089SOL    HW2 4167   1.243   0.181   4.619
 1090SOL     OW 4168   2.777   1.248   3.749
 1090SOL    HW1 4169   2.864   1.253   3.797
 1090SOL    HW2 4170   2.718   1.181   3.794
 1091SOL     OW 4171   1.781   1.915   4.279
 1091SOL    HW1 4172   1.745   1.849   4.345
 1091SOL    HW2 4173   1.784   1.873   4.188
 1092SOL     OW 4174   2.245   3.561   1.266
 1092SOL    HW1 4175   2.312   3.613   1.319
 1092SOL    HW2 4176   2.153   3.596   1.284
 1093SOL     OW 4177   2.442   1.826   3.290
 1093SOL    HW1 4178   2.496   1.910   3.287
 1093SOL    HW2 4179   2.477   1.766   3.363
 1094SOL     OW 4180   6.876   6.745   2.484
 1094SOL    HW1 4181   6.880   6.836   2.524
 1094SOL    HW2 4182   6.950   6.734   2.417
 1095SOL     OW 4183   6.618   2.289   5.780
 1095SOL    HW1 4184   6.694   2.259   5.838
 1095SOL    HW2 4185   6.644   2.280   5.684
 1096SOL     OW 4186   3.609   4.443   1.380
 1096SOL    HW1 4187   3.517   4.403   1.378
 1096SOL    HW2 4188   3.674   4.380   1.339
 1097SOL     OW 4189   0.782   4.421   4.497
 1097SOL    HW1 4190   0.738   4.340   4.457
 1097SOL    HW2 4191   0.866   4.441   4.446
 1098SOL     OW 4192   5.658   2.640   0.991
 1098SOL    HW1 4193   5.628   2.693   1.070
 1098SOL    HW2 4194   5.692   2.551   1.021
 1099SOL     OW 4195   4.204   1.381   4.659
 1099SOL    HW1 4196   4.128   1.378   4.593
 1099SOL    HW2 4197   4.202   1.298   4.715
 1100SOL     OW 4198   1.864   1.426   6.492
 1100SOL    HW1 4199   1.813   1.475   6.421
 1100SOL    HW2 4200   1.927   1.490   6.537
 1101SOL     OW 4201   5.310   2.602   1.396
 1101SOL    HW1 4202   5.265   2.628   1.481
 1101SOL    HW2 4203   5.396   2.556   1.417
 1102SOL     OW 4204   1.648   4.666   3.037
 1102SOL    HW1 4205   1.634   4.764   3.052
 1102SOL    HW2 4206   1.691   4.651   2.949
 1103SOL     OW 4207   2.253   0.674   0.949
 1103SOL    HW1 4208   2.238   0.713   0.858
 1103SOL    HW2 4209   2.206   0.730   1.018
 1104SOL     OW 4210   1.631   3.855   6.361
 1104SOL    HW1 4211   1.712   3.909   6.381
 1104SOL    HW2 4212   1.649   3.796   6.283
 1105SOL     OW 4213   5.111   3.811   5.595
 1105SOL    HW1 4214   5.135   3.868   5.515
 1105SOL    HW2 4215   5.164   3.842   5.674
 1106SOL     OW 4216   1.222   1.677   0.382
 1106SOL    HW1 4217   1.160   1.654   0.307
 1106SOL    HW2 4218   1.191   1.763   0.424
 1107SOL     OW 4219   0.329   0.404   6.822
 1107SOL    HW1 4220   0.379   0.325   6.857
 1107SOL    HW2 4221   0.335   0.479   6.888
 1108SOL     OW 4222   2.800   0.634   5.796
 1108SOL    HW1 4223   2.825   0.671   5.706
 1108SOL    HW2 4224   2.834   0.540   5.804
 1109SOL     OW 4225   4.552   5.653   4.833
 1109SOL    HW1 4226   4.497   5.736   4.823
 1109SOL    HW2 4227   4.568   5.612   4.743
 1110SOL     OW 4228   3.226   1.810   2.459
 1110SOL    HW1 4229   3.272   1.895   2.431
 1110SOL    HW2 4230   3.274   1.772   2.539
 1111SOL     OW 4231   5.517   6.241   0.227
 1111SOL    HW1 4232   5.608   6.264   0.260
 1111SOL    HW2 4233   5.490   6.151   0.259
 1112SOL     OW 4234   6.522   1.377   2.405
 1112SOL    HW1 4235   6.503   1.456   2.346
 1112SOL    HW2 4236   6.608   1.334   2.376
 1113SOL     OW 4237   5.937   3.321   2.512
 1113SOL    HW1 4238   6.018   3.319   2.570
 1113SOL    HW2 4239   5.957   3.373   2.429
 1114SOL     OW 4240   4.727   0.666   6.401
 1114SOL    HW1 4241   4.721   0.716   6.315
 1114SOL    HW2 4242   4.636   0.634   6.428
 1115SOL     OW 4243   4.178   3.549   6.944
 1115SOL    HW1 4244   4.263   3.524   6.990
 1115SOL    HW2 4245   4.193   3.551   6.845
 1116SOL     OW 4246   5.331   5.482   4.463
 1116SOL    HW1 4247   5.299   5.428   4.384
 1116SOL    HW2 4248   5.292   5.444   4.547
 1117SOL     OW 4249   2.746   2.546   1.430
 1117SOL    HW1 4250   2.799   2.521   1.510
 1117SOL    HW2 4251   2.660   2.495   1.429
 1118SOL     OW 4252   1.564   5.039   2.236
 1118SOL    HW1 4253   1.624   4.966   2.204
 1118SOL    HW2 4254   1.470   5.020   2.208
 1119SOL     OW 4255   3.724   3.944   0.897
 1119SOL    HW1 4256   3.691   3.890   0.974
 1119SOL    HW2 4257   3.661   3.934   0.820
 1120SOL     OW 4258   5.689   6.425   5.945
 1120SOL    HW1 4259   5.631   6.344   5.933
 1120SOL    HW2 4260   5.650   6.502   5.896
 1121SOL     OW 4261   4.876   3.435   2.637
 1121SOL    HW1 4262   4.850   3.368   2.568
 1121SOL    HW2 4263   4.870   3.393   2.728
 1122SOL     OW 4264   5.250   2.890   6.185
 1122SOL    HW1 4265   5.268   2.843   6.098
 1122SOL    HW2 4266   5.291   2.982   6.183
 1123SOL     OW 4267   4.878   1.446   2.317
 1123SOL    HW1 4268   4.801   1.414   2.372
 1123SOL    HW2 4269   4.872   1.406   2.225
 1124SOL     OW 4270   6.793   4.030   4.961
 1124SOL    HW1 4271   6.754   3.977   5.035
 1124SOL    HW2 4272   6.890   4.007   4.950
 1125SOL     OW 4273   2.625   1.776   5.103
 1125SOL    HW1 4274   2.587   1.833   5.175
 1125SOL    HW2 4275   2.586   1.803   5.015
 1126SOL     OW 4276   5.011   0.420   7.009
 1126SOL    HW1 4277   4.943   0.433   6.936
 1126SOL    HW2 4278   5.091   0.476   6.989
 1127SOL     OW 4279   3.759   5.133   5.240
 1127SOL    HW1 4280   3.692   5.135   5.166
 1127SOL    HW2 4281   3.848   5.164   5.206
 1128SOL     OW 4282   4.902   2.682   4.828
 1128SOL    HW1 4283   4.880   2.764   4.880
 1128SOL    HW2 4284   4.837   2.610   4.852
 1129SOL     OW 4285   4.036   6.869   6.931
 1129SOL    HW1 4286   4.130   6.878   6.900
 1129SOL    HW2 4287   4.034   6.825   7.021
 1130SOL     OW 4288   1.778   4.145   0.570
 1130SOL    HW1 4289   1.711   4.191   0.511
 1130SOL    HW2 4290   1.870   4.177   0.547
 1131SOL     OW 4291   0.208   6.188   5.694
 1131SOL    HW1 4292   0.139   6.181   5.766
 1131SOL    HW2 4293   0.220   6.284   5.669
 1132SOL     OW 4294   4.334   0.363   7.016
 1132SOL    HW1 4295   4.263   0.404   6.959
 1132SOL    HW2 4296   4.408   0.329   6.958
 1133SOL     OW 4297   6.725   2.229   0.820
 1133SOL    HW1 4298   6.769   2.292   0.885
 1133SOL    HW2 4299   6.669   2.282   0.756
 1134SOL     OW 4300   5.671   1.855   0.411
 1134SOL    HW1 4301   5.752   1.857   0.471
 1134SOL    HW2 4302   5.663   1.944   0.365
 1135SOL     OW 4303   2.965   1.744   2.440
 1135SOL    HW1 4304   2.904   1.818   2.411
 1135SOL    HW2 4305   3.059   1.767   2.415
 1136SOL     OW 4306   3.122   4.972   4.796
 1136SOL    HW1 4307   3.150   4.932   4.708
 1136SOL    HW2 4308   3.045   4.920   4.832
 1137SOL     OW 4309   1.026   3.092   0.354
 1137SOL    HW1 4310   1.052   3.142   0.438
 1137SOL    HW2 4311   1.065   3.000   0.357
 1138SOL     OW 4312   1.569   1.830   6.040
 1138SOL    HW1 4313   1.581   1.930   6.041
 1138SOL    HW2 4314   1.529   1.802   5.953
 1139SOL     OW 4315   2.344   6.931   2.182
 1139SOL    HW1 4316   2.338   6.832   2.166
 1139SOL    HW2 4317   2.415   6.970   2.125
 1140SOL     OW 4318   3.846   1.993   2.391
 1140SOL    HW1 4319   3.872   2.037   2.478
 1140SOL    HW2 4320   3.766   2.040   2.353
 1141SOL     OW 4321   6.469   5.861   5.587
 1141SOL    HW1 4322   6.554   5.857   5.638
 1141SOL    HW2 4323   6.429   5.769   5.581
 1142SOL     OW 4324   4.757   0.595   4.834
 1142SOL    HW1 4325   4.714   0.580   4.923
 1142SOL    HW2 4326   4.686   0.614   4.766
 1143SOL     OW 4327   3.416   1.841   2.674
 1143SOL    HW1 4328   3.461   1.931   2.671
 1143SOL    HW2 4329   3.326   1.851   2.717
 1144SOL     OW 4330   6.773   4.763   4.557
 1144SOL    HW1 4331   6.689   4.772   4.504
 1144SOL    HW2 4332   6.751   4.737   4.651
 1145SOL     OW 4333   0.556   5.271   3.226
 1145SOL    HW1 4334   0.603   5.347   3.183
 1145SOL    HW2 4335   0.490   5.231   3.162
 1146SOL     OW 4336   5.321   1.172   1.241
 1146SOL    HW1 4337   5.230   1.212   1.249
 1146SOL    HW2 4338   5.327   1.119   1.156
 1147SOL     OW 4339   1.170   4.174   0.739
 1147SOL    HW1 4340   1.194   4.203   0.832
 1147SOL    HW2 4341   1.084   4.217   0.713
 1148SOL     OW 4342   2.752   6.722   0.074
 1148SOL    HW1 4343   2.836   6.775   0.082
 1148SOL    HW2 4344   2.763   6.634   0.120
 1149SOL     OW 4345   5.292   3.191   3.243
 1149SOL    HW1 4346   5.241   3.106   3.254
 1149SOL    HW2 4347   5.348   3.185   3.160
 1150SOL     OW 4348   2.238   4.038   1.155
 1150SOL    HW1 4349   2.252   4.137   1.149
 1150SOL    HW2 4350   2.150   4.020   1.199
 1151SOL     OW 4351   5.286   5.675   6.589
 1151SOL    HW1 4352   5.278   5.647   6.493
 1151SOL    HW2 4353   5.213   5.633   6.642
 1152SOL     OW 4354   0.944   6.858   5.324
 1152SOL    HW1 4355   1.023   6.807   5.358
 1152SOL    HW2 4356   0.976   6.941   5.278
 1153SOL     OW 4357   2.921   6.446   1.915
 1153SOL    HW1 4358   2.918   6.473   2.011
 1153SOL    HW2 4359   2.882   6.520   1.859
 1154SOL     OW 4360   0.287   3.669   1.493
 1154SOL    HW1 4361   0.218   3.597   1.500
 1154SOL    HW2 4362   0.349   3.663   1.571
 1155SOL     OW 4363   3.912   5.167   6.425
 1155SOL    HW1 4364   3.906   5.107   6.505
 1155SOL    HW2 4365   4.007   5.195   6.411
 1156SOL     OW 4366   2.053   0.546   4.358
 1156SOL    HW1 4367   2.132   0.578   4.306
 1156SOL    HW2 4368   2.005   0.624   4.398
 1157SOL     OW 4369   6.541   2.132   4.469
 1157SOL    HW1 4370   6.465   2.151   4.407
 1157SOL    HW2 4371   6.588   2.217   4.491
 1158SOL     OW 4372   6.028   5.387   5.492
 1158SOL    HW1 4373   5.964   5.451   5.450
 1158SOL    HW2 4374   6.120   5.406   5.460
 1159SOL     OW 4375   4.531   0.543   2.770
 1159SOL    HW1 4376   4.506   0.455   2.811
 1159SOL    HW2 4377   4.593   0.592   2.832
 1160SOL     OW 4378   3.576   3.502   1.191
 1160SOL    HW1 4379   3.646   3.525   1.259
 1160SOL    HW2 4380   3.485   3.512   1.231
 1161SOL     OW 4381   5.091   0.497   5.110
 1161SOL    HW1 4382   5.097   0.409   5.064
 1161SOL    HW2 4383   5.079   0.483   5.208
 1162SOL     OW 4384   3.803   3.193   0.625
 1162SOL    HW1 4385   3.868   3.130   0.667
 1162SOL    HW2 4386   3.852   3.257   0.566
 1163SOL     OW 4387   5.473   2.258   2.050
 1163SOL    HW1 4388   5.459   2.208   2.135
 1163SOL    HW2 4389   5.430   2.209   1.974
 1164SOL     OW 4390   5.701   2.753   3.834
 1164SOL    HW1 4391   5.675   2.848   3.815
 1164SOL    HW2 4392   5.799   2.742   3.822
 1165SOL     OW 4393   1.953   4.074   3.730
 1165SOL    HW1 4394   1.877   4.047   3.790
 1165SOL    HW2 4395   1.983   3.994   3.678
 1166SOL     OW 4396   4.069   0.989   6.908
 1166SOL    HW1 4397   4.055   0.972   7.006
 1166SOL    HW2 4398   4.165   1.012   6.892
 1167SOL     OW 4399   2.936   0.318   6.024
 1167SOL    HW1 4400   2.948   0.225   6.060
 1167SOL    HW2 4401   2.916   0.313   5.926
 1168SOL     OW 4402   5.799   0.350   2.415
 1168SOL    HW1 4403   5.880   0.383   2.366
 1168SOL    HW2 4404   5.717   0.390   2.376
 1169SOL     OW 4405   0.411   3.051   0.291
 1169SOL    HW1 4406   0.408   3.148   0.313
 1169SOL    HW2 4407   0.412   3.039   0.192
 1170SOL     OW 4408   4.214   0.859   1.964
 1170SOL    HW1 4409   4.207   0.792   1.891
 1170SOL    HW2 4410   4.308   0.861   1.998
 1171SOL     OW 4411   2.620   5.704   0.523
 1171SOL    HW1 4412   2.655   5.778   0.581
 1171SOL    HW2 4413   2.569   5.639   0.580
 1172SOL     OW 4414   3.409   4.147   3.424
 1172SOL    HW1 4415   3.434   4.241   3.450
 1172SOL    HW2 4416   3.478   4.109   3.363
 1173SOL     OW 4417   3.525   6.507   5.991
 1173SOL    HW1 4418   3.522   6.543   6.085
 1173SOL    HW2 4419   3.493   6.412   5.991
 1174SOL     OW 4420   3.044   5.500   0.867
 1174SOL    HW1 4421   3.138   5.516   0.838
 1174SOL    HW2 4422   3.014   5.574   0.928
 1175SOL     OW 4423   5.068   3.770   6.778
 1175SOL    HW1 4424   5.041   3.707   6.851
 1175SOL    HW2 4425   5.166   3.759   6.760
 1176SOL     OW 4426   6.210   4.661   0.395
 1176SOL    HW1 4427   6.127   4.607   0.401
 1176SOL    HW2 4428   6.202   4.742   0.453
 1177SOL     OW 4429   0.217   1.932   5.359
 1177SOL    HW1 4430   0.169   1.925   5.446
 1177SOL    HW2 4431   0.153   1.915   5.284
 1178SOL     OW 4432   4.550   3.633   1.458
 1178SOL    HW1 4433   4.548   3.657   1.362
 1178SOL    HW2 4434   4.521   3.711   1.513
 1179SOL     OW 4435   3.167   5.200   0.635
 1179SOL    HW1 4436   3.176   5.177   0.732
 1179SOL    HW2 4437   3.137   5.119   0.584
 1180SOL     OW 4438   2.634   0.330   3.796
 1180SOL    HW1 4439   2.601   0.350   3.888
 1180SOL    HW2 4440   2.683   0.243   3.797
 1181SOL     OW 4441   0.725   3.378   4.424
 1181SOL    HW1 4442   0.771   3.447   4.480
 1181SOL    HW2 4443   0.780   3.295   4.420
 1182SOL     OW 4444   2.117   4.889   2.999
 1182SOL    HW1 4445   2.145   4.855   2.910
 1182SOL    HW2 4446   2.190   4.873   3.065
 1183SOL     OW 4447   4.164   5.181   2.286
 1183SOL    HW1 4448   4.174   5.139   2.376
 1183SOL    HW2 4449   4.099   5.128   2.231
 1184SOL     OW 4450   3.389   2.302   5.326
 1184SOL    HW1 4451   3.374   2.353   5.411
 1184SOL    HW2 4452   3.319   2.328   5.259
 1185SOL     OW 4453   2.371   0.539   0.455
 1185SOL    HW1 4454   2.450   0.519   0.396
 1185SOL    HW2 4455   2.382   0.630   0.495
 1186SOL     OW 4456   5.875   0.165   6.350
 1186SOL    HW1 4457   5.826   0.078   6.342
 1186SOL    HW2 4458   5.960   0.150   6.401
 1187SOL     OW 4459   5.442   5.996   5.222
 1187SOL    HW1 4460   5.486   6.020   5.309
 1187SOL    HW2 4461   5.503   6.020   5.146
 1188SOL     OW 4462   3.171   6.428   6.407
 1188SOL    HW1 4463   3.136   6.501   6.466
 1188SOL    HW2 4464   3.150   6.449   6.312
 1189SOL     OW 4465   5.450   1.416   1.972
 1189SOL    HW1 4466   5.505   1.406   1.889
 1189SOL    HW2 4467   5.440   1.327   2.016
 1190SOL     OW 4468   4.095   4.813   4.601
 1190SOL    HW1 4469   4.118   4.763   4.685
 1190SOL    HW2 4470   4.002   4.851   4.609
 1191SOL     OW 4471   3.756   5.561   5.435
 1191SOL    HW1 4472   3.716   5.475   5.469
 1191SOL    HW2 4473   3.684   5.617   5.395
 1192SOL     OW 4474   5.577   4.621   3.191
 1192SOL    HW1 4475   5.561   4.525   3.170
 1192SOL    HW2 4476   5.669   4.632   3.230
 1193SOL     OW 4477   6.366   0.785   3.970
 1193SOL    HW1 4478   6.460   0.764   3.995
 1193SOL    HW2 4479   6.305   0.756   4.043
 1194SOL     OW 4480   0.494   1.205   1.006
 1194SOL    HW1 4481   0.452   1.127   1.052
 1194SOL    HW2 4482   0.545   1.173   0.926
 1195SOL     OW 4483   6.545   1.744   0.750
 1195SOL    HW1 4484   6.457   1.698   0.764
 1195SOL    HW2 4485   6.530   1.830   0.701
 1196SOL     OW 4486   0.045   4.863   2.057
 1196SOL    HW1 4487   6.995   4.921   2.024
 1196SOL    HW2 4488   0.086   4.904   2.138
 1197SOL     OW 4489   3.778   5.972   5.612
 1197SOL    HW1 4490   3.781   5.936   5.518
 1197SOL    HW2 4491   3.782   6.072   5.609
 1198SOL     OW 4492   2.327   2.645   2.296
 1198SOL    HW1 4493   2.383   2.592   2.359
 1198SOL    HW2 4494   2.350   2.621   2.201
 1199SOL     OW 4495   3.910   3.054   2.682
 1199SOL    HW1 4496   3.922   3.140   2.633
 1199SOL    HW2 4497   3.926   2.978   2.620
 1200SOL     OW 4498   4.209   3.631   4.969
 1200SOL    HW1 4499   4.296   3.622   4.921
 1200SOL    HW2 4500   4.163   3.542   4.973
 1201SOL     OW 4501   0.421   1.128   4.144
 1201SOL    HW1 4502   0.321   1.122   4.149
 1201SOL    HW2 4503   0.447   1.216   4.104
 1202SOL     OW 4504   6.352   0.846   5.850
 1202SOL    HW1 4505   6.410   0.851   5.931
 1202SOL    HW2 4506   6.348   0.936   5.806
 1203SOL     OW 4507   5.587   6.766   0.703
 1203SOL    HW1 4508   5.582   6.806   0.795
 1203SOL    HW2 4509   5.657   6.695   0.702
 1204SOL     OW 4510   4.023   1.329   0.475
 1204SOL    HW1 4511   4.040   1.423   0.443
 1204SOL    HW2 4512   3.960   1.331   0.552
 1205SOL     OW 4513   4.593   3.048   6.681
 1205SOL    HW1 4514   4.586   3.133   6.630
 1205SOL    HW2 4515   4.646   2.982   6.628
 1206SOL     OW 4516   1.741   1.417   4.820
 1206SOL    HW1 4517   1.739   1.514   4.847
 1206SOL    HW2 4518   1.835   1.390   4.799
 1207SOL     OW 4519   6.889   6.875   1.427
 1207SOL    HW1 4520   6.965   6.828   1.383
 1207SOL    HW2 4521   6.804   6.854   1.378
 1208SOL     OW 4522   3.737   4.007   2.634
 1208SOL    HW1 4523   3.650   3.975   2.597
 1208SOL    HW2 4524   3.765   4.090   2.585
 1209SOL     OW 4525   5.839   6.505   4.728
 1209SOL    HW1 4526   5.802   6.597   4.741
 1209SOL    HW2 4527   5.840   6.483   4.630
 1210SOL     OW 4528   4.807   6.510   3.086
 1210SOL    HW1 4529   4.820   6.608   3.079
 1210SOL    HW2 4530   4.739   6.490   3.157
 1211SOL     OW 4531   1.868   3.360   3.659
 1211SOL    HW1 4532   1.803   3.434   3.671
 1211SOL    HW2 4533   1.837   3.300   3.584
 1212SOL     OW 4534   0.172   2.250   5.438
 1212SOL    HW1 4535   0.196   2.178   5.373
 1212SOL    HW2 4536   0.110   2.316   5.394
 1213SOL     OW 4537   5.788   2.777   4.832
 1213SOL    HW1 4538   5.788   2.680   4.806
 1213SOL    HW2 4539   5.880   2.806   4.857
 1214SOL     OW 4540   1.486   3.226   4.515
 1214SOL    HW1 4541   1.578   3.263   4.507
 1214SOL    HW2 4542   1.433   3.249   4.433
 1215SOL     OW 4543   2.060   4.771   2.276
 1215SOL    HW1 4544   2.150   4.788   2.315
 1215SOL    HW2 4545   2.069   4.756   2.177
 1216SOL     OW 4546   0.363   0.233   1.684
 1216SOL    HW1 4547   0.354   0.300   1.611
 1216SOL    HW2 4548   0.442   0.175   1.667
 1217SOL     OW 4549   1.694   6.555   0.773
 1217SOL    HW1 4550   1.676   6.466   0.814
 1217SOL    HW2 4551   1.749   6.611   0.836
 1218SOL     OW 4552   1.081   2.978   4.917
 1218SOL    HW1 4553   1.048   3.012   5.005
 1218SOL    HW2 4554   1.009   2.926   4.872
 1219SOL     OW 4555   4.506   4.728   1.060
 1219SOL    HW1 4556   4.417   4.705   1.099
 1219SOL    HW2 4557   4.496   4.749   0.962
 1220SOL     OW 4558   5.134   4.122   2.128
 1220SOL    HW1 4559   5.054   4.136   2.187
 1220SOL    HW2 4560   5.214   4.165   2.170
 1221SOL     OW 4561   5.635   3.483   6.855
 1221SOL    HW1 4562   5.688   3.548   6.802
 1221SOL    HW2 4563   5.648   3.391   6.818
 1222SOL     OW 4564   0.130   0.452   0.971
 1222SOL    HW1 4565   0.102   0.362   1.003
 1222SOL    HW2 4566   0.193   0.442   0.894
 1223SOL     OW 4567   5.334   1.294   0.659
 1223SOL    HW1 4568   5.326   1.298   0.559
 1223SOL    HW2 4569   5.250   1.257   0.698
 1224SOL     OW 4570   3.517   5.989   6.807
 1224SOL    HW1 4571   3.616   5.991   6.819
 1224SOL    HW2 4572   3.473   5.981   6.896
 1225SOL     OW 4573   3.964   2.042   1.360
 1225SOL    HW1 4574   3.902   1.984   1.308
 1225SOL    HW2 4575   4.041   1.987   1.394
 1226SOL     OW 4576   5.534   6.517   1.225
 1226SOL    HW1 4577   5.627   6.498   1.255
 1226SOL    HW2 4578   5.471   6.506   1.303
 1227SOL     OW 4579   5.952   5.121   5.538
 1227SOL    HW1 4580   5.921   5.100   5.631
 1227SOL    HW2 4581   5.976   5.218   5.531
 1228SOL     OW 4582   3.535   3.043   0.358
 1228SOL    HW1 4583   3.445   3.084   0.374
 1228SOL    HW2 4584   3.592   3.056   0.439
 1229SOL     OW 4585   1.864   0.220   1.864
 1229SOL    HW1 4586   1.898   0.132   1.830
 1229SOL    HW2 4587   1.771   0.235   1.829
 1230SOL     OW 4588   5.187   5.940   2.924
 1230SOL    HW1 4589   5.216   5.970   3.015
 1230SOL    HW2 4590   5.088   5.952   2.915
 1231SOL     OW 4591   1.605   2.518   6.296
 1231SOL    HW1 4592   1.637   2.529   6.390
 1231SOL    HW2 4593   1.661   2.450   6.249
 1232SOL     OW 4594   4.560   1.208   5.328
 1232SOL    HW1 4595   4.639   1.266   5.309
 1232SOL    HW2 4596   4.486   1.263   5.366
 1233SOL     OW 4597   1.151   5.221   3.728
 1233SOL    HW1 4598   1.185   5.289   3.662
 1233SOL    HW2 4599   1.229   5.180   3.776
 1234SOL     OW 4600   0.134   2.715   6.491
 1234SOL    HW1 4601   0.127   2.648   6.565
 1234SOL    HW2 4602   0.085   2.681   6.411
 1235SOL     OW 4603   6.464   5.273   0.056
 1235SOL    HW1 4604   6.554   5.313   0.039
 1235SOL    HW2 4605   6.456   5.186   0.006
 1236SOL     OW 4606   3.481   1.959   0.500
 1236SOL    HW1 4607   3.556   1.897   0.524
 1236SOL    HW2 4608   3.439   1.930   0.415
 1237SOL     OW 4609   1.766   6.399   4.682
 1237SOL    HW1 4610   1.713   6.478   4.710
 1237SOL    HW2 4611   1.709   6.339   4.626
 1238SOL     OW 4612   0.248   0.133   3.533
 1238SOL    HW1 4613   0.240   0.143   3.434
 1238SOL    HW2 4614   0.342   0.107   3.557
 1239SOL     OW 4615   6.498   5.475   4.603
 1239SOL    HW1 4616   6.570   5.530   4.645
 1239SOL    HW2 4617   6.450   5.423   4.674
 1240SOL     OW 4618   5.955   5.160   2.108
 1240SOL    HW1 4619   5.918   5.075   2.145
 1240SOL    HW2 4620   5.922   5.238   2.162
 1241SOL     OW 4621   6.933   4.773   4.849
 1241SOL    HW1 4622   7.006   4.782   4.916
 1241SOL    HW2 4623   6.957   4.823   4.765
 1242SOL     OW 4624   2.146   3.815   0.396
 1242SOL    HW1 4625   2.127   3.827   0.494
 1242SOL    HW2 4626   2.073   3.858   0.343
 1243SOL     OW 4627   0.189   1.947   4.695
 1243SOL    HW1 4628   0.175   1.849   4.691
 1243SOL    HW2 4629   0.273   1.971   4.645
 1244SOL     OW 4630   5.364   7.003   5.165
 1244SOL    HW1 4631   5.425   0.052   5.194
 1244SOL    HW2 4632   5.417   6.919   5.148
 1245SOL     OW 4633   5.171   6.025   1.186
 1245SOL    HW1 4634   5.083   6.074   1.181
 1245SOL    HW2 4635   5.244   6.083   1.150
 1246SOL     OW 4636   3.931   1.331   2.339
 1246SOL    HW1 4637   4.017   1.381   2.330
 1246SOL    HW2 4638   3.943   1.255   2.403
 1247SOL     OW 4639   6.214   6.819   4.666
 1247SOL    HW1 4640   6.221   6.917   4.645
 1247SOL    HW2 4641   6.119   6.797   4.688
 1248SOL     OW 4642   0.852   6.204   3.792
 1248SOL    HW1 4643   0.787   6.280   3.782
 1248SOL    HW2 4644   0.802   6.118   3.800
 1249SOL     OW 4645   6.705   4.348   1.606
 1249SOL    HW1 4646   6.632   4.321   1.669
 1249SOL    HW2 4647   6.787   4.370   1.658
 1250SOL     OW 4648   6.621   2.935   5.298
 1250SOL    HW1 4649   6.560   3.010   5.323
 1250SOL    HW2 4650   6.626   2.929   5.198
 1251SOL     OW 4651   2.280   0.729   2.631
 1251SOL    HW1 4652   2.195   0.772   2.664
 1251SOL    HW2 4653   2.270   0.705   2.535
 1252SOL     OW 4654   3.643   5.128   6.383
 1252SOL    HW1 4655   3.742   5.137   6.384
 1252SOL    HW2 4656   3.615   5.052   6.441
 1253SOL     OW 4657   2.712   0.847   1.622
 1253SOL    HW1 4658   2.623   0.840   1.577
 1253SOL    HW2 4659   2.785   0.827   1.556
 1254SOL     OW 4660   6.498   1.506   3.177
 1254SOL    HW1 4661   6.505   1.604   3.156
 1254SOL    HW2 4662   6.589   1.466   3.184
 1255SOL     OW 4663   5.749   2.772   5.132
 1255SOL    HW1 4664   5.781   2.678   5.119
 1255SOL    HW2 4665   5.735   2.816   5.044
 1256SOL     OW 4666   0.022   6.008   3.033
 1256SOL    HW1 4667   6.982   6.013   3.110
 1256SOL    HW2 4668   7.000   5.967   2.954
 1257SOL     OW 4669   6.660   4.619   4.241
 1257SOL    HW1 4670   6.760   4.614   4.238
 1257SOL    HW2 4671   6.627   4.666   4.159
 1258SOL     OW 4672   2.298   5.997   2.668
 1258SOL    HW1 4673   2.319   5.923   2.732
 1258SOL    HW2 4674   2.227   5.967   2.605
 1259SOL     OW 4675   3.738   6.637   4.864
 1259SOL    HW1 4676   3.661   6.580   4.836
 1259SOL    HW2 4677   3.707   6.706   4.929
 1260SOL     OW 4678   3.048   1.100   1.937
 1260SOL    HW1 4679   3.091   1.189   1.925
 1260SOL    HW2 4680   3.033   1.058   1.848
 1261SOL     OW 4681   6.704   3.425   0.242
 1261SOL    HW1 4682   6.770   3.459   0.310
 1261SOL    HW2 4683   6.617   3.407   0.287
 1262SOL     OW 4684   4.657   4.518   1.094
 1262SOL    HW1 4685   4.593   4.590   1.066
 1262SOL    HW2 4686   4.618   4.467   1.170
 1263SOL     OW 4687   6.058   2.010   0.910
 1263SOL    HW1 4688   6.095   2.008   0.817
 1263SOL    HW2 4689   6.106   2.080   0.963
 1264SOL     OW 4690   0.436   4.187   2.891
 1264SOL    HW1 4691   0.454   4.204   2.988
 1264SOL    HW2 4692   0.434   4.089   2.874
 1265SOL     OW 4693   6.599   4.522   3.708
 1265SOL    HW1 4694   6.534   4.520   3.631
 1265SOL    HW2 4695   6.687   4.556   3.675
 1266SOL     OW 4696   2.299   0.924   4.053
 1266SOL    HW1 4697   2.392   0.898   4.027
 1266SOL    HW2 4698   2.300   0.960   4.147
 1267SOL     OW 4699   5.616   5.731   1.635
 1267SOL    HW1 4700   5.560   5.761   1.713
 1267SOL    HW2 4701   5.631   5.809   1.574
 1268SOL     OW 4702   5.137   2.259   0.119
 1268SOL    HW1 4703   5.082   2.315   0.056
 1268SOL    HW2 4704   5.089   2.173   0.137
 1269SOL     OW 4705   5.963   6.455   5.151
 1269SOL    HW1 4706   5.872   6.480   5.119
 1269SOL    HW2 4707   5.972   6.355   5.151
 1270SOL     OW 4708   2.174   4.171   4.226
 1270SOL    HW1 4709   2.149   4.124   4.310
 1270SOL    HW2 4710   2.249   4.235   4.244
 1271SOL     OW 4711   3.556   1.717   3.141
 1271SOL    HW1 4712   3.595   1.785   3.079
 1271SOL    HW2 4713   3.457   1.714   3.131
 1272SOL     OW 4714   0.083   6.158   1.020
 1272SOL    HW1 4715   0.046   6.083   0.965
 1272SOL    HW2 4716   0.087   6.131   1.116
 1273SOL     OW 4717   2.199   3.861   0.038
 1273SOL    HW1 4718   2.141   3.833   6.986
 1273SOL    HW2 4719   2.289   3.818   0.029
 1274SOL     OW 4720   6.697   3.276   1.374
 1274SOL    HW1 4721   6.696   3.213   1.297
 1274SOL    HW2 4722   6.748   3.236   1.450
 1275SOL     OW 4723   4.337   0.319   3.344
 1275SOL    HW1 4724   4.430   0.292   3.320
 1275SOL    HW2 4725   4.272   0.255   3.303
 1276SOL     OW 4726   6.933   0.524   3.399
 1276SOL    HW1 4727   6.836   0.524   3.375
 1276SOL    HW2 4728   6.985   0.575   3.331
 1277SOL     OW 4729   0.806   0.584   4.466
 1277SOL    HW1 4730   0.733   0.570   4.533
 1277SOL    HW2 4731   0.831   0.497   4.425
 1278SOL     OW 4732   1.553   1.542   5.480
 1278SOL    HW1 4733   1.464   1.531   5.524
 1278SOL    HW2 4734   1.625   1.518   5.545
 1279SOL     OW 4735   2.099   6.967   0.834
 1279SOL    HW1 4736   2.155   0.003   0.779
 1279SOL    HW2 4737   2.143   6.878   0.843
 1280SOL     OW 4738   2.468   6.150   3.401
 1280SOL    HW1 4739   2.390   6.187   3.351
 1280SOL    HW2 4740   2.527   6.099   3.338
 1281SOL     OW 4741   1.215   5.714   2.980
 1281SOL    HW1 4742   1.212   5.812   2.961
 1281SOL    HW2 4743   1.155   5.693   3.058
 1282SOL     OW 4744   1.001   1.128   0.628
 1282SOL    HW1 4745   0.961   1.150   0.717
 1282SOL    HW2 4746   1.061   1.203   0.599
 1283SOL     OW 4747   5.594   2.831   5.344
 1283SOL    HW1 4748   5.671   2.796   5.290
 1283SOL    HW2 4749   5.534   2.886   5.286
 1284SOL     OW 4750   3.573   2.877   1.848
 1284SOL    HW1 4751   3.541   2.797   1.797
 1284SOL    HW2 4752   3.553   2.960   1.796
 1285SOL     OW 4753   5.715   3.566   6.479
 1285SOL    HW1 4754   5.814   3.578   6.464
 1285SOL    HW2 4755   5.697   3.558   6.577
 1286SOL     OW 4756   4.838   4.409   2.477
 1286SOL    HW1 4757   4.770   4.416   2.405
 1286SOL    HW2 4758   4.821   4.478   2.548
 1287SOL     OW 4759   5.251   4.541   6.371
 1287SOL    HW1 4760   5.327   4.602   6.394
 1287SOL    HW2 4761   5.286   4.448   6.359
 1288SOL     OW 4762   6.646   3.604   1.525
 1288SOL    HW1 4763   6.657   3.641   1.433
 1288SOL    HW2 4764   6.551   3.613   1.554
 1289SOL     OW 4765   0.655   6.177   2.010
 1289SOL    HW1 4766   0.661   6.077   2.012
 1289SOL    HW2 4767   0.717   6.214   1.940
 1290SOL     OW 4768   0.515   1.082   0.440
 1290SOL    HW1 4769   0.513   0.988   0.405
 1290SOL    HW2 4770   0.492   1.146   0.367
 1291SOL     OW 4771   1.404   4.283   6.148
 1291SOL    HW1 4772   1.385   4.322   6.059
 1291SOL    HW2 4773   1.474   4.212   6.139
 1292SOL     OW 4774   6.459   5.203   2.050
 1292SOL    HW1 4775   6.378   5.193   2.109
 1292SOL    HW2 4776   6.482   5.300   2.042
 1293SOL     OW 4777   2.757   1.548   6.316
 1293SOL    HW1 4778   2.841   1.532   6.368
 1293SOL    HW2 4779   2.681   1.564   6.380
 1294SOL     OW 4780   0.714   3.088   1.185
 1294SOL    HW1 4781   0.725   3.170   1.128
 1294SOL    HW2 4782   0.804   3.047   1.201
 1295SOL     OW 4783   6.210   3.334   2.612
 1295SOL    HW1 4784   6.281   3.403   2.599
 1295SOL    HW2 4785   6.247   3.244   2.587
 1296SOL     OW 4786   4.293   1.015   5.546
 1296SOL    HW1 4787   4.385   1.027   5.584
 1296SOL    HW2 4788   4.257   1.103   5.516
 1297SOL     OW 4789   5.984   0.712   6.431
 1297SOL    HW1 4790   6.003   0.807   6.455
 1297SOL    HW2 4791   5.977   0.657   6.515
 1298SOL     OW 4792   6.273   3.502   3.416
 1298SOL    HW1 4793   6.335   3.467   3.345
 1298SOL    HW2 4794   6.180   3.471   3.398
 1299SOL     OW 4795   1.062   3.604   2.560
 1299SOL    HW1 4796   1.007   3.683   2.531
 1299SOL    HW2 4797   1.159   3.628   2.557
 1300SOL     OW 4798   3.410   3.726   2.375
 1300SOL    HW1 4799   3.491   3.775   2.341
 1300SOL    HW2 4800   3.350   3.704   2.298
 1301SOL     OW 4801   0.895   6.055   2.594
 1301SOL    HW1 4802   0.970   6.018   2.538
 1301SOL    HW2 4803   0.812   6.060   2.539
 1302SOL     OW 4804   3.207   0.281   4.941
 1302SOL    HW1 4805   3.211   0.282   4.841
 1302SOL    HW2 4806   3.294   0.313   4.978
 1303SOL     OW 4807   4.116   1.818   0.354
 1303SOL    HW1 4808   4.131   1.720   0.361
 1303SOL    HW2 4809   4.204   1.864   0.341
 1304SOL     OW 4810   1.768   1.277   6.693
 1304SOL    HW1 4811   1.842   1.209   6.689
 1304SOL    HW2 4812   1.784   1.347   6.623
 1305SOL     OW 4813   5.898   5.737   6.444
 1305SOL    HW1 4814   5.826   5.786   6.493
 1305SOL    HW2 4815   5.915   5.784   6.357
 1306SOL     OW 4816   0.403   4.825   5.160
 1306SOL    HW1 4817   0.400   4.810   5.061
 1306SOL    HW2 4818   0.361   4.747   5.206
 1307SOL     OW 4819   1.812   2.745   4.343
 1307SOL    HW1 4820   1.745   2.791   4.401
 1307SOL    HW2 4821   1.892   2.720   4.397
 1308SOL     OW 4822   3.822   5.717   4.582
 1308SOL    HW1 4823   3.830   5.707   4.681
 1308SOL    HW2 4824   3.738   5.673   4.551
 1309SOL     OW 4825   5.408   2.964   5.193
 1309SOL    HW1 4826   5.442   3.053   5.164
 1309SOL    HW2 4827   5.339   2.976   5.264
 1310SOL     OW 4828   6.389   3.833   5.086
 1310SOL    HW1 4829   6.292   3.810   5.094
 1310SOL    HW2 4830   6.399   3.928   5.055
 1311SOL     OW 4831   6.645   6.495   4.010
 1311SOL    HW1 4832   6.711   6.484   4.083
 1311SOL    HW2 4833   6.552   6.497   4.048
 1312SOL     OW 4834   0.836   0.527   6.728
 1312SOL    HW1 4835   0.777   0.449   6.751
 1312SOL    HW2 4836   0.891   0.503   6.647
 1313SOL     OW 4837   1.859   5.375   5.488
 1313SOL    HW1 4838   1.866   5.412   5.395
 1313SOL    HW2 4839   1.763   5.364   5.513
 1314SOL     OW 4840   2.164   1.782   5.296
 1314SOL    HW1 4841   2.099   1.852   5.327
 1314SOL    HW2 4842   2.229   1.762   5.369
 1315SOL     OW 4843   0.852   1.294   0.353
 1315SOL    HW1 4844   0.934   1.278   0.299
 1315SOL    HW2 4845   0.824   1.209   0.398
 1316SOL     OW 4846   2.113   6.714   3.664
 1316SOL    HW1 4847   2.080   6.787   3.723
 1316SOL    HW2 4848   2.172   6.653   3.717
 1317SOL     OW 4849   1.252   3.815   4.613
 1317SOL    HW1 4850   1.293   3.799   4.523
 1317SOL    HW2 4851   1.307   3.769   4.683
 1318SOL     OW 4852   6.925   0.777   0.487
 1318SOL    HW1 4853   6.922   0.876   0.472
 1318SOL    HW2 4854   6.834   0.738   0.473
 1319SOL     OW 4855   6.595   1.744   0.153
 1319SOL    HW1 4856   6.508   1.719   0.110
 1319SOL    HW2 4857   6.651   1.794   0.087
 1320SOL     OW 4858   5.882   3.766   0.128
 1320SOL    HW1 4859   5.869   3.771   0.227
 1320SOL    HW2 4860   5.871   3.672   0.097
 1321SOL     OW 4861   4.086   2.758   6.329
 1321SOL    HW1 4862   4.117   2.684   6.271
 1321SOL    HW2 4863   4.163   2.796   6.380
 1322SOL     OW 4864   5.380   0.719   3.412
 1322SOL    HW1 4865   5.460   0.664   3.437
 1322SOL    HW2 4866   5.308   0.706   3.480
 1323SOL     OW 4867   5.013   2.082   5.516
 1323SOL    HW1 4868   5.080   2.142   5.560
 1323SOL    HW2 4869   5.053   1.991   5.504
 1324SOL     OW 4870   0.812   2.736   1.793
 1324SOL    HW1 4871   0.770   2.664   1.848
 1324SOL    HW2 4872   0.748   2.766   1.723
 1325SOL     OW 4873   2.833   6.769   1.981
 1325SOL    HW1 4874   2.849   6.850   1.925
 1325SOL    HW2 4875   2.899   6.767   2.056
 1326SOL     OW 4876   4.812   2.929   4.932
 1326SOL    HW1 4877   4.830   3.004   4.995
 1326SOL    HW2 4878   4.789   2.966   4.842
 1327SOL     OW 4879   2.935   5.497   2.717
 1327SOL    HW1 4880   2.959   5.551   2.636
 1327SOL    HW2 4881   2.930   5.556   2.797
 1328SOL     OW 4882   0.991   2.835   0.782
 1328SOL    HW1 4883   1.074   2.850   0.730
 1328SOL    HW2 4884   0.986   2.739   0.811
 1329SOL     OW 4885   0.143   1.769   0.379
 1329SOL    HW1 4886   0.208   1.694   0.394
 1329SOL    HW2 4887   0.053   1.743   0.415
 1330SOL     OW 4888   6.730   0.341   1.083
 1330SOL    HW1 4889   6.665   0.346   1.159
 1330SOL    HW2 4890   6.789   0.422   1.084
 1331SOL     OW 4891   4.591   2.212   2.876
 1331SOL    HW1 4892   4.576   2.117   2.850
 1331SOL    HW2 4893   4.629   2.262   2.799
 1332SOL     OW 4894   3.306   6.955   0.110
 1332SOL    HW1 4895   3.324   6.979   0.015
 1332SOL    HW2 4896   3.372   7.003   0.169
 1333SOL     OW 4897   3.765   4.159   6.338
 1333SOL    HW1 4898   3.789   4.242   6.287
 1333SOL    HW2 4899   3.674   4.129   6.310
 1334SOL     OW 4900   0.326   2.837   4.492
 1334SOL    HW1 4901   0.353   2.775   4.565
 1334SOL    HW2 4902   0.384   2.822   4.412
 1335SOL     OW 4903   3.007   6.330   3.128
 1335SOL    HW1 4904   2.959   6.276   3.059
 1335SOL    HW2 4905   2.985   6.296   3.219
 1336SOL     OW 4906   1.678   1.246   6.380
 1336SOL    HW1 4907   1.747   1.296   6.432
 1336SOL    HW2 4908   1.587   1.285   6.400
 1337SOL     OW 4909   1.104   1.621   5.063
 1337SOL    HW1 4910   1.169   1.621   5.139
 1337SOL    HW2 4911   1.016   1.656   5.095
 1338SOL     OW 4912   4.397   3.675   5.817
 1338SOL    HW1 4913   4.309   3.632   5.798
 1338SOL    HW2 4914   4.441   3.701   5.731
 1339SOL     OW 4915   6.902   6.746   0.101
 1339SOL    HW1 4916   6.881   6.842   0.117
 1339SOL    HW2 4917   6.976   6.717   0.162
 1340SOL     OW 4918   1.116   1.517   2.137
 1340SOL    HW1 4919   1.073   1.445   2.083
 1340SOL    HW2 4920   1.083   1.606   2.105
 1341SOL     OW 4921   3.824   0.293   5.211
 1341SOL    HW1 4922   3.761   0.226   5.251
 1341SOL    HW2 4923   3.776   0.380   5.196
 1342SOL     OW 4924   1.166   4.888   6.136
 1342SOL    HW1 4925   1.131   4.960   6.195
 1342SOL    HW2 4926   1.133   4.902   6.042
 1343SOL     OW 4927   4.064   6.643   2.713
 1343SOL    HW1 4928   4.063   6.561   2.656
 1343SOL    HW2 4929   4.157   6.680   2.718
 1344SOL     OW 4930   6.597   3.891   3.559
 1344SOL    HW1 4931   6.689   3.863   3.586
 1344SOL    HW2 4932   6.572   3.975   3.608
 1345SOL     OW 4933   0.876   1.829   3.540
 1345SOL    HW1 4934   0.947   1.862   3.603
 1345SOL    HW2 4935   0.792   1.812   3.590
 1346SOL     OW 4936   1.931   6.922   3.034
 1346SOL    HW1 4937   1.928   6.970   2.946
 1346SOL    HW2 4938   1.863   6.849   3.034
 1347SOL     OW 4939   6.200   6.241   3.644
 1347SOL    HW1 4940   6.277   6.204   3.592
 1347SOL    HW2 4941   6.234   6.281   3.729
 1348SOL     OW 4942   5.678   5.320   2.694
 1348SOL    HW1 4943   5.706   5.385   2.765
 1348SOL    HW2 4944   5.582   5.295   2.708
 1349SOL     OW 4945   4.754   2.572   6.299
 1349SOL    HW1 4946   4.739   2.562   6.397
 1349SOL    HW2 4947   4.847   2.606   6.283
 1350SOL     OW 4948   3.803   4.691   6.864
 1350SOL    HW1 4949   3.813   4.608   6.809
 1350SOL    HW2 4950   3.888   4.710   6.912
 1351SOL     OW 4951   0.272   1.594   2.942
 1351SOL    HW1 4952   0.231   1.679   2.973
 1351SOL    HW2 4953   0.211   1.517   2.961
 1352SOL     OW 4954   0.614   0.890   3.181
 1352SOL    HW1 4955   0.685   0.932   3.124
 1352SOL    HW2 4956   0.642   0.798   3.206
 1353SOL     OW 4957   7.018   4.300   5.821
 1353SOL    HW1 4958   0.035   4.225   5.769
 1353SOL    HW2 4959   6.927   4.273   5.853
 1354SOL     OW 4960   0.039   2.065   0.424
 1354SOL    HW1 4961   0.055   1.969   0.399
 1354SOL    HW2 4962   0.125   2.107   0.451
 1355SOL     OW 4963   5.441   3.403   6.127
 1355SOL    HW1 4964   5.356   3.399   6.075
 1355SOL    HW2 4965   5.505   3.467   6.083
 1356SOL     OW 4966   3.359   3.919   4.150
 1356SOL    HW1 4967   3.365   3.942   4.247
 1356SOL    HW2 4968   3.279   3.963   4.110
 1357SOL     OW 4969   2.806   3.320   5.888
 1357SOL    HW1 4970   2.816   3.412   5.851
 1357SOL    HW2 4971   2.738   3.270   5.834
 1358SOL     OW 4972   3.079   1.847   6.421
 1358SOL    HW1 4973   3.080   1.906   6.502
 1358SOL    HW2 4974   3.165   1.798   6.414
 1359SOL     OW 4975   6.811   4.766   0.879
 1359SOL    HW1 4976   6.873   4.843   0.872
 1359SOL    HW2 4977   6.852   4.686   0.836
 1360SOL     OW 4978   4.026   3.676   2.673
 1360SOL    HW1 4979   3.927   3.670   2.683
 1360SOL    HW2 4980   4.067   3.700   2.761
 1361SOL     OW 4981   6.748   6.981   6.688
 1361SOL    HW1 4982   6.821   0.026   6.686
 1361SOL    HW2 4983   6.786   6.893   6.658
 1362SOL     OW 4984   2.942   3.586   4.531
 1362SOL    HW1 4985   2.854   3.561   4.571
 1362SOL    HW2 4986   3.015   3.545   4.586
 1363SOL     OW 4987   6.699   6.071   3.708
 1363SOL    HW1 4988   6.660   6.025   3.787
 1363SOL    HW2 4989   6.723   6.165   3.733
 1364SOL     OW 4990   0.138   2.359   6.956
 1364SOL    HW1 4991   0.118   2.307   0.016
 1364SOL    HW2 4992   0.053   2.396   6.919
 1365SOL     OW 4993   1.693   3.536   5.622
 1365SOL    HW1 4994   1.721   3.630   5.601
 1365SOL    HW2 4995   1.665   3.491   5.537
 1366SOL     OW 4996   0.293   4.040   0.761
 1366SOL    HW1 4997   0.350   4.122   0.751
 1366SOL    HW2 4998   0.351   3.959   0.758
 1367SOL     OW 4999   1.172   5.362   3.122
 1367SOL    HW1 5000   1.253   5.409   3.087
 1367SOL    HW2 5001   1.108   5.347   3.046
 1368SOL     OW 5002   6.584   0.569   4.289
 1368SOL    HW1 5003   6.669   0.602   4.248
 1368SOL    HW2 5004   6.517   0.552   4.217
 1369SOL     OW 5005   2.346   6.632   2.128
 1369SOL    HW1 5006   2.332   6.558   2.193
 1369SOL    HW2 5007   2.439   6.627   2.090
 1370SOL     OW 5008   6.526   2.151   4.061
 1370SOL    HW1 5009   6.571   2.164   3.972
 1370SOL    HW2 5010   6.443   2.096   4.048
 1371SOL     OW 5011   4.751   1.086   4.865
 1371SOL    HW1 5012   4.656   1.061   4.888
 1371SOL    HW2 5013   4.751   1.172   4.815
 1372SOL     OW 5014   6.974   1.816   1.336
 1372SOL    HW1 5015   0.014   1.809   1.259
 1372SOL    HW2 5016   6.978   1.732   1.390
 1373SOL     OW 5017   4.727   2.083   0.344
 1373SOL    HW1 5018   4.782   2.029   0.408
 1373SOL    HW2 5019   4.713   2.031   0.260
 1374SOL     OW 5020   5.239   4.246   6.770
 1374SOL    HW1 5021   5.225   4.344   6.787
 1374SOL    HW2 5022   5.172   4.194   6.823
 1375SOL     OW 5023   7.002   6.768   6.623
 1375SOL    HW1 5024   6.988   6.738   6.528
 1375SOL    HW2 5025   0.065   6.733   6.656
 1376SOL     OW 5026   3.593   4.687   5.539
 1376SOL    HW1 5027   3.578   4.776   5.495
 1376SOL    HW2 5028   3.516   4.667   5.599
 1377SOL     OW 5029   1.130   3.107   3.492
 1377SOL    HW1 5030   1.211   3.064   3.453
 1377SOL    HW2 5031   1.085   3.043   3.555
 1378SOL     OW 5032   5.233   2.430   5.162
 1378SOL    HW1 5033   5.176   2.349   5.145
 1378SOL    HW2 5034   5.209   2.502   5.097
 1379SOL     OW 5035   4.304   5.463   3.032
 1379SOL    HW1 5036   4.344   5.549   3.063
 1379SOL    HW2 5037   4.372   5.410   2.981
 1380SOL     OW 5038   0.147   6.288   3.047
 1380SOL    HW1 5039   0.073   6.325   2.991
 1380SOL    HW2 5040   0.152   6.189   3.034
 1381SOL     OW 5041   5.796   1.778   0.143
 1381SOL    HW1 5042   5.757   1.813   0.228
 1381SOL    HW2 5043   5.796   1.850   0.073
 1382SOL     OW 5044   5.138   2.976   1.174
 1382SOL    HW1 5045   5.095   2.964   1.085
 1382SOL    HW2 5046   5.070   3.009   1.239
 1383SOL     OW 5047   1.093   0.504   1.568
 1383SOL    HW1 5048   1.034   0.517   1.489
 1383SOL    HW2 5049   1.066   0.421   1.617
 1384SOL     OW 5050   4.796   6.828   1.666
 1384SOL    HW1 5051   4.705   6.807   1.631
 1384SOL    HW2 5052   4.854   6.861   1.592
 1385SOL     OW 5053   2.906   4.792   3.419
 1385SOL    HW1 5054   2.878   4.861   3.353
 1385SOL    HW2 5055   2.864   4.811   3.508
 1386SOL     OW 5056   3.501   0.337   4.007
 1386SOL    HW1 5057   3.486   0.246   4.046
 1386SOL    HW2 5058   3.511   0.329   3.907
 1387SOL     OW 5059   3.493   5.804   2.772
 1387SOL    HW1 5060   3.579   5.805   2.823
 1387SOL    HW2 5061   3.479   5.894   2.730
 1388SOL     OW 5062   6.615   6.876   1.880
 1388SOL    HW1 5063   6.648   6.860   1.973
 1388SOL    HW2 5064   6.519   6.903   1.883
 1389SOL     OW 5065   6.246   1.798   4.390
 1389SOL    HW1 5066   6.212   1.800   4.295
 1389SOL    HW2 5067   6.340   1.831   4.392
 1390SOL     OW 5068   0.633   3.884   6.623
 1390SOL    HW1 5069   0.711   3.845   6.574
 1390SOL    HW2 5070   0.558   3.818   6.626
 1391SOL     OW 5071   6.093   6.409   4.422
 1391SOL    HW1 5072   6.048   6.368   4.343
 1391SOL    HW2 5073   6.190   6.384   4.422
 1392SOL     OW 5074   6.106   6.259   6.368
 1392SOL    HW1 5075   6.192   6.277   6.416
 1392SOL    HW2 5076   6.079   6.341   6.318
 1393SOL     OW 5077   6.138   4.698   5.275
 1393SOL    HW1 5078   6.168   4.612   5.317
 1393SOL    HW2 5079   6.147   4.773   5.342
 1394SOL     OW 5080   3.591   5.357   5.560
 1394SOL    HW1 5081   3.491   5.360   5.559
 1394SOL    HW2 5082   3.622   5.272   5.518
 1395SOL     OW 5083   2.558   4.433   5.692
 1395SOL    HW1 5084   2.600   4.363   5.635
 1395SOL    HW2 5085   2.626   4.474   5.752
 1396SOL     OW 5086   1.014   1.341   5.169
 1396SOL    HW1 5087   1.036   1.432   5.133
 1396SOL    HW2 5088   1.076   1.274   5.128
 1397SOL     OW 5089   0.246   0.231   3.816
 1397SOL    HW1 5090   0.311   0.167   3.774
 1397SOL    HW2 5091   0.291   0.283   3.888
 1398SOL     OW 5092   3.142   0.379   6.249
 1398SOL    HW1 5093   3.092   0.344   6.169
 1398SOL    HW2 5094   3.195   0.304   6.290
 1399SOL     OW 5095   3.913   5.439   0.374
 1399SOL    HW1 5096   3.866   5.405   0.293
 1399SOL    HW2 5097   4.011   5.421   0.366
 1400SOL     OW 5098   0.041   1.420   2.964
 1400SOL    HW1 5099   0.060   1.325   2.937
 1400SOL    HW2 5100   7.018   1.467   2.890
 1401SOL     OW 5101   6.239   1.380   4.509
 1401SOL    HW1 5102   6.243   1.408   4.414
 1401SOL    HW2 5103   6.274   1.287   4.519
 1402SOL     OW 5104   6.795   3.718   6.956
 1402SOL    HW1 5105   6.867   3.650   6.944
 1402SOL    HW2 5106   6.820   3.803   6.909
 1403SOL     OW 5107   2.334   2.640   1.376
 1403SOL    HW1 5108   2.410   2.574   1.383
 1403SOL    HW2 5109   2.350   2.715   1.440
 1404SOL     OW 5110   5.817   6.890   0.243
 1404SOL    HW1 5111   5.766   6.876   0.159
 1404SOL    HW2 5112   5.902   6.837   0.240
 1405SOL     OW 5113   2.193   3.792   0.994
 1405SOL    HW1 5114   2.098   3.816   1.011
 1405SOL    HW2 5115   2.253   3.855   1.044
 1406SOL     OW 5116   1.036   5.375   0.968
 1406SOL    HW1 5117   1.065   5.444   1.035
 1406SOL    HW2 5118   1.027   5.286   1.013
 1407SOL     OW 5119   0.403   2.287   2.446
 1407SOL    HW1 5120   0.462   2.264   2.369
 1407SOL    HW2 5121   0.309   2.259   2.426
 1408SOL     OW 5122   5.385   1.194   6.102
 1408SOL    HW1 5123   5.471   1.199   6.051
 1408SOL    HW2 5124   5.308   1.195   6.039
 1409SOL     OW 5125   0.422   0.401   5.346
 1409SOL    HW1 5126   0.336   0.444   5.320
 1409SOL    HW2 5127   0.496   0.439   5.291
 1410SOL     OW 5128   1.513   3.112   6.521
 1410SOL    HW1 5129   1.568   3.097   6.604
 1410SOL    HW2 5130   1.550   3.189   6.470
 1411SOL     OW 5131   3.025   6.608   1.180
 1411SOL    HW1 5132   3.062   6.619   1.272
 1411SOL    HW2 5133   2.953   6.539   1.181
 1412SOL     OW 5134   0.306   1.882   1.131
 1412SOL    HW1 5135   0.233   1.814   1.127
 1412SOL    HW2 5136   0.395   1.837   1.132
 1413SOL     OW 5137   1.608   1.944   5.364
 1413SOL    HW1 5138   1.619   1.959   5.463
 1413SOL    HW2 5139   1.619   2.031   5.316
 1414SOL     OW 5140   2.448   1.225   2.305
 1414SOL    HW1 5141   2.447   1.290   2.229
 1414SOL    HW2 5142   2.501   1.145   2.280
 1415SOL     OW 5143   2.737   1.025   4.668
 1415SOL    HW1 5144   2.772   1.064   4.754
 1415SOL    HW2 5145   2.705   0.932   4.684
 1416SOL     OW 5146   5.155   5.154   4.507
 1416SOL    HW1 5147   5.245   5.113   4.493
 1416SOL    HW2 5148   5.132   5.153   4.604
 1417SOL     OW 5149   2.875   2.073   0.273
 1417SOL    HW1 5150   2.808   2.044   0.341
 1417SOL    HW2 5151   2.857   2.027   0.186
 1418SOL     OW 5152   3.015   3.938   3.203
 1418SOL    HW1 5153   3.099   3.884   3.211
 1418SOL    HW2 5154   2.936   3.877   3.209
 1419SOL     OW 5155   2.784   5.456   4.722
 1419SOL    HW1 5156   2.818   5.369   4.759
 1419SOL    HW2 5157   2.862   5.516   4.703
 1420SOL     OW 5158   2.847   0.051   1.120
 1420SOL    HW1 5159   2.884   0.144   1.112
 1420SOL    HW2 5160   2.769   0.051   1.184
 1421SOL     OW 5161   1.867   4.059   3.216
 1421SOL    HW1 5162   1.928   4.131   3.248
 1421SOL    HW2 5163   1.840   4.078   3.121
 1422SOL     OW 5164   1.415   3.873   1.299
 1422SOL    HW1 5165   1.394   3.859   1.396
 1422SOL    HW2 5166   1.332   3.898   1.250
 1423SOL     OW 5167   5.176   6.197   3.229
 1423SOL    HW1 5168   5.159   6.218   3.325
 1423SOL    HW2 5169   5.178   6.283   3.176
 1424SOL     OW 5170   6.250   5.246   6.496
 1424SOL    HW1 5171   6.233   5.316   6.565
 1424SOL    HW2 5172   6.337   5.265   6.450
 1425SOL     OW 5173   1.052   5.972   5.004
 1425SOL    HW1 5174   1.017   6.017   5.086
 1425SOL    HW2 5175   1.056   6.037   4.929
 1426SOL     OW 5176   1.914   3.196   6.029
 1426SOL    HW1 5177   1.952   3.111   5.991
 1426SOL    HW2 5178   1.976   3.232   6.098
 1427SOL     OW 5179   0.334   0.490   3.461
 1427SOL    HW1 5180   0.370   0.397   3.467
 1427SOL    HW2 5181   0.262   0.502   3.529
 1428SOL     OW 5182   6.768   3.092   0.358
 1428SOL    HW1 5183   6.696   3.131   0.416
 1428SOL    HW2 5184   6.816   3.021   0.408
 1429SOL     OW 5185   4.525   2.166   0.012
 1429SOL    HW1 5186   4.572   2.244   0.055
 1429SOL    HW2 5187   4.429   2.190   7.020
 1430SOL     OW 5188   2.012   4.586   3.856
 1430SOL    HW1 5189   2.077   4.554   3.926
 1430SOL    HW2 5190   2.061   4.606   3.771
 1431SOL     OW 5191   2.617   2.109   0.652
 1431SOL    HW1 5192   2.603   2.140   0.746
 1431SOL    HW2 5193   2.715   2.103   0.633
 1432SOL     OW 5194   2.780   1.563   2.375
 1432SOL    HW1 5195   2.862   1.608   2.413
 1432SOL    HW2 5196   2.806   1.510   2.294
 1433SOL     OW 5197   3.892   0.677   5.158
 1433SOL    HW1 5198   3.901   0.776   5.153
 1433SOL    HW2 5199   3.978   0.637   5.189
 1434SOL     OW 5200   0.179   0.132   5.387
 1434SOL    HW1 5201   0.205   0.039   5.363
 1434SOL    HW2 5202   0.243   0.169   5.454
 1435SOL     OW 5203   6.203   0.349   3.113
 1435SOL    HW1 5204   6.233   0.264   3.157
 1435SOL    HW2 5205   6.111   0.372   3.145
 1436SOL     OW 5206   5.403   3.846   6.934
 1436SOL    HW1 5207   5.490   3.805   6.961
 1436SOL    HW2 5208   5.374   3.911   7.004
 1437SOL     OW 5209   2.652   2.332   3.434
 1437SOL    HW1 5210   2.582   2.266   3.460
 1437SOL    HW2 5211   2.742   2.289   3.441
 1438SOL     OW 5212   3.220   6.091   1.431
 1438SOL    HW1 5213   3.215   6.012   1.369
 1438SOL    HW2 5214   3.129   6.111   1.467
 1439SOL     OW 5215   6.874   5.731   1.447
 1439SOL    HW1 5216   6.861   5.655   1.510
 1439SOL    HW2 5217   6.944   5.707   1.379
 1440SOL     OW 5218   3.154   2.824   6.666
 1440SOL    HW1 5219   3.222   2.896   6.677
 1440SOL    HW2 5220   3.081   2.855   6.605
 1441SOL     OW 5221   6.463   0.417   3.932
 1441SOL    HW1 5222   6.470   0.496   3.870
 1441SOL    HW2 5223   6.368   0.384   3.931
 1442SOL     OW 5224   0.372   5.908   0.371
 1442SOL    HW1 5225   0.440   5.856   0.423
 1442SOL    HW2 5226   0.411   5.937   0.284
 1443SOL     OW 5227   0.613   3.377   3.782
 1443SOL    HW1 5228   0.539   3.443   3.778
 1443SOL    HW2 5229   0.691   3.410   3.730
 1444SOL     OW 5230   4.967   6.078   0.848
 1444SOL    HW1 5231   5.004   6.165   0.881
 1444SOL    HW2 5232   4.905   6.095   0.772
 1445SOL     OW 5233   1.294   2.728   3.354
 1445SOL    HW1 5234   1.317   2.813   3.306
 1445SOL    HW2 5235   1.366   2.707   3.420
 1446SOL     OW 5236   6.263   1.596   6.797
 1446SOL    HW1 5237   6.210   1.680   6.793
 1446SOL    HW2 5238   6.230   1.539   6.873
 1447SOL     OW 5239   5.811   6.279   4.303
 1447SOL    HW1 5240   5.869   6.250   4.227
 1447SOL    HW2 5241   5.796   6.201   4.365
 1448SOL     OW 5242   6.917   2.851   5.308
 1448SOL    HW1 5243   6.903   2.894   5.218
 1448SOL    HW2 5244   6.829   2.822   5.344
 1449SOL     OW 5245   1.556   2.888   6.176
 1449SOL    HW1 5246   1.509   2.960   6.126
 1449SOL    HW2 5247   1.635   2.857   6.124
 1450SOL     OW 5248   0.712   1.948   0.437
 1450SOL    HW1 5249   0.685   1.880   0.506
 1450SOL    HW2 5250   0.739   1.900   0.353
 1451SOL     OW 5251   0.661   6.075   2.424
 1451SOL    HW1 5252   0.665   6.123   2.336
 1451SOL    HW2 5253   0.611   6.131   2.490
 1452SOL     OW 5254   4.520   1.719   5.437
 1452SOL    HW1 5255   4.459   1.666   5.378
 1452SOL    HW2 5256   4.489   1.814   5.440
 1453SOL     OW 5257   0.559   4.132   5.669
 1453SOL    HW1 5258   0.562   4.057   5.736
 1453SOL    HW2 5259   0.624   4.203   5.696
 1454SOL     OW 5260   0.515   2.659   2.255
 1454SOL    HW1 5261   0.532   2.752   2.289
 1454SOL    HW2 5262   0.439   2.618   2.305
 1455SOL     OW 5263   1.570   0.046   1.584
 1455SOL    HW1 5264   1.601   0.057   1.679
 1455SOL    HW2 5265   1.584   0.132   1.535
 1456SOL     OW 5266   6.420   0.450   6.205
 1456SOL    HW1 5267   6.414   0.529   6.266
 1456SOL    HW2 5268   6.328   0.416   6.186
 1457SOL     OW 5269   0.845   6.373   1.091
 1457SOL    HW1 5270   0.797   6.293   1.055
 1457SOL    HW2 5271   0.832   6.377   1.190
 1458SOL     OW 5272   5.770   5.258   4.386
 1458SOL    HW1 5273   5.739   5.186   4.324
 1458SOL    HW2 5274   5.690   5.305   4.425
 1459SOL     OW 5275   3.708   6.246   5.898
 1459SOL    HW1 5276   3.769   6.325   5.902
 1459SOL    HW2 5277   3.706   6.201   5.987
 1460SOL     OW 5278   0.967   0.129   5.229
 1460SOL    HW1 5279   1.023   0.134   5.312
 1460SOL    HW2 5280   0.922   0.217   5.213
 1461SOL     OW 5281   6.257   4.251   2.719
 1461SOL    HW1 5282   6.339   4.279   2.769
 1461SOL    HW2 5283   6.258   4.152   2.706
 1462SOL     OW 5284   1.355   1.303   0.132
 1462SOL    HW1 5285   1.426   1.312   0.062
 1462SOL    HW2 5286   1.398   1.279   0.220
 1463SOL     OW 5287   0.125   5.535   6.020
 1463SOL    HW1 5288   0.098   5.485   6.102
 1463SOL    HW2 5289   0.101   5.632   6.030
 1464SOL     OW 5290   0.241   5.785   2.202
 1464SOL    HW1 5291   0.270   5.867   2.154
 1464SOL    HW2 5292   0.204   5.809   2.292
 1465SOL     OW 5293   1.649   1.065   4.404
 1465SOL    HW1 5294   1.677   0.977   4.443
 1465SOL    HW2 5295   1.627   1.053   4.307
 1466SOL     OW 5296   2.712   1.988   2.416
 1466SOL    HW1 5297   2.709   2.064   2.351
 1466SOL    HW2 5298   2.646   1.918   2.389
 1467SOL     OW 5299   2.182   1.503   3.483
 1467SOL    HW1 5300   2.084   1.521   3.482
 1467SOL    HW2 5301   2.203   1.432   3.551
 1468SOL     OW 5302   2.476   5.681   2.317
 1468SOL    HW1 5303   2.431   5.770   2.328
 1468SOL    HW2 5304   2.523   5.657   2.402
 1469SOL     OW 5305   6.878   0.614   2.724
 1469SOL    HW1 5306   6.908   0.522   2.751
 1469SOL    HW2 5307   6.938   0.647   2.650
 1470SOL     OW 5308   1.461   1.777   2.423
 1470SOL    HW1 5309   1.419   1.698   2.377
 1470SOL    HW2 5310   1.557   1.782   2.397
 1471SOL     OW 5311   0.696   0.353   0.595
 1471SOL    HW1 5312   0.726   0.323   0.504
 1471SOL    HW2 5313   0.699   0.452   0.600
 1472SOL     OW 5314   2.066   5.348   5.655
 1472SOL    HW1 5315   2.004   5.369   5.580
 1472SOL    HW2 5316   2.155   5.392   5.639
 1473SOL     OW 5317   3.519   5.696   5.407
 1473SOL    HW1 5318   3.466   5.701   5.491
 1473SOL    HW2 5319   3.514   5.784   5.359
 1474SOL     OW 5320   5.176   5.042   1.840
 1474SOL    HW1 5321   5.175   5.138   1.871
 1474SOL    HW2 5322   5.085   5.003   1.850
 1475SOL     OW 5323   5.480   0.712   1.508
 1475SOL    HW1 5324   5.444   0.775   1.577
 1475SOL    HW2 5325   5.521   0.763   1.433
 1476SOL     OW 5326   2.699   1.088   1.754
 1476SOL    HW1 5327   2.668   0.996   1.730
 1476SOL    HW2 5328   2.666   1.154   1.686
 1477SOL     OW 5329   3.144   6.538   6.081
 1477SOL    HW1 5330   3.148   6.451   6.031
 1477SOL    HW2 5331   3.205   6.604   6.038
 1478SOL     OW 5332   6.280   5.855   5.359
 1478SOL    HW1 5333   6.217   5.890   5.289
 1478SOL    HW2 5334   6.367   5.904   5.353
 1479SOL     OW 5335   2.277   2.535   0.868
 1479SOL    HW1 5336   2.277   2.634   0.851
 1479SOL    HW2 5337   2.345   2.513   0.938
 1480SOL     OW 5338   3.167   0.613   4.702
 1480SOL    HW1 5339   3.182   0.548   4.628
 1480SOL    HW2 5340   3.241   0.606   4.768
 1481SOL     OW 5341   6.110   3.290   6.510
 1481SOL    HW1 5342   6.065   3.240   6.436
 1481SOL    HW2 5343   6.124   3.227   6.587
 1482SOL     OW 5344   4.723   1.274   1.530
 1482SOL    HW1 5345   4.808   1.236   1.566
 1482SOL    HW2 5346   4.671   1.202   1.485
 1483SOL     OW 5347   5.088   2.268   5.757
 1483SOL    HW1 5348   5.041   2.180   5.762
 1483SOL    HW2 5349   5.023   2.342   5.774
 1484SOL     OW 5350   4.629   4.866   4.028
 1484SOL    HW1 5351   4.576   4.826   4.102
 1484SOL    HW2 5352   4.664   4.956   4.056
 1485SOL     OW 5353   4.230   0.742   4.432
 1485SOL    HW1 5354   4.296   0.817   4.437
 1485SOL    HW2 5355   4.145   0.774   4.391
 1486SOL     OW 5356   5.915   0.795   2.704
 1486SOL    HW1 5357   5.992   0.740   2.673
 1486SOL    HW2 5358   5.833   0.738   2.709
 1487SOL     OW 5359   0.029   2.656   0.226
 1487SOL    HW1 5360   6.995   2.644   0.145
 1487SOL    HW2 5361   0.115   2.606   0.213
 1488SOL     OW 5362   5.616   6.974   3.801
 1488SOL    HW1 5363   5.710   6.994   3.827
 1488SOL    HW2 5364   5.570   0.034   3.772
 1489SOL     OW 5365   4.423   5.208   6.039
 1489SOL    HW1 5366   4.420   5.138   5.968
 1489SOL    HW2 5367   4.441   5.165   6.127
 1490SOL     OW 5368   0.226   3.543   1.125
 1490SOL    HW1 5369   0.173   3.493   1.193
 1490SOL    HW2 5370   0.299   3.594   1.170
 1491SOL     OW 5371   6.188   4.866   1.957
 1491SOL    HW1 5372   6.221   4.801   2.025
 1491SOL    HW2 5373   6.234   4.850   1.870
 1492SOL     OW 5374   6.167   0.175   2.377
 1492SOL    HW1 5375   6.231   0.207   2.447
 1492SOL    HW2 5376   6.165   0.075   2.378
 1493SOL     OW 5377   3.877   6.770   6.293
 1493SOL    HW1 5378   3.830   6.729   6.215
 1493SOL    HW2 5379   3.881   6.705   6.369
 1494SOL     OW 5380   5.207   2.316   6.496
 1494SOL    HW1 5381   5.166   2.276   6.578
 1494SOL    HW2 5382   5.171   2.408   6.482
 1495SOL     OW 5383   0.747   3.852   5.392
 1495SOL    HW1 5384   0.679   3.792   5.436
 1495SOL    HW2 5385   0.728   3.856   5.294
 1496SOL     OW 5386   0.753   1.556   0.955
 1496SOL    HW1 5387   0.797   1.643   0.978
 1496SOL    HW2 5388   0.677   1.540   1.018
 1497SOL     OW 5389   5.129   3.041   2.502
 1497SOL    HW1 5390   5.160   3.118   2.556
 1497SOL    HW2 5391   5.044   3.004   2.540
 1498SOL     OW 5392   2.304   4.519   6.317
 1498SOL    HW1 5393   2.400   4.546   6.309
 1498SOL    HW2 5394   2.300   4.423   6.348
 1499SOL     OW 5395   1.037   2.202   5.148
 1499SOL    HW1 5396   1.106   2.215   5.077
 1499SOL    HW2 5397   0.982   2.121   5.128
 1500SOL     OW 5398   0.469   0.203   7.024
 1500SOL    HW1 5399   0.371   0.205   0.021
 1500SOL    HW2 5400   0.506   0.296   0.005
 1501SOL     OW 5401   5.412   2.234   6.323
 1501SOL    HW1 5402   5.339   2.279   6.373
 1501SOL    HW2 5403   5.430   2.144   6.363
 1502SOL     OW 5404   4.172   0.593   6.885
 1502SOL    HW1 5405   4.145   0.630   6.974
 1502SOL    HW2 5406   4.130   0.503   6.873
 1503SOL     OW 5407   1.462   2.609   2.452
 1503SOL    HW1 5408   1.560   2.626   2.439
 1503SOL    HW2 5409   1.433   2.647   2.539
 1504SOL     OW 5410   0.495   0.402   4.265
 1504SOL    HW1 5411   0.475   0.325   4.325
 1504SOL    HW2 5412   0.434   0.478   4.286
 1505SOL     OW 5413   4.563   0.364   4.986
 1505SOL    HW1 5414   4.503   0.375   4.906
 1505SOL    HW2 5415   4.507   0.358   5.069
 1506SOL     OW 5416   0.634   6.438   0.447
 1506SOL    HW1 5417   0.626   6.518   0.505
 1506SOL    HW2 5418   0.561   6.373   0.468
 1507SOL     OW 5419   6.852   1.762   5.898
 1507SOL    HW1 5420   6.800   1.683   5.866
 1507SOL    HW2 5421   6.894   1.808   5.820
 1508SOL     OW 5422   6.304   1.169   0.782
 1508SOL    HW1 5423   6.255   1.256   0.786
 1508SOL    HW2 5424   6.398   1.185   0.750
 1509SOL     OW 5425   4.366   1.873   5.130
 1509SOL    HW1 5426   4.367   1.880   5.229
 1509SOL    HW2 5427   4.396   1.959   5.089
 1510SOL     OW 5428   5.042   1.099   4.513
 1510SOL    HW1 5429   5.023   1.146   4.599
 1510SOL    HW2 5430   4.988   1.014   4.509
 1511SOL     OW 5431   4.028   3.172   3.692
 1511SOL    HW1 5432   3.931   3.154   3.703
 1511SOL    HW2 5433   4.080   3.117   3.758
 1512SOL     OW 5434   6.716   6.369   0.843
 1512SOL    HW1 5435   6.781   6.373   0.919
 1512SOL    HW2 5436   6.763   6.341   0.760
 1513SOL     OW 5437   4.018   0.760   4.684
 1513SOL    HW1 5438   4.046   0.676   4.730
 1513SOL    HW2 5439   4.095   0.823   4.680
 1514SOL     OW 5440   3.840   2.807   5.297
 1514SOL    HW1 5441   3.861   2.711   5.317
 1514SOL    HW2 5442   3.763   2.837   5.353
 1515SOL     OW 5443   5.433   2.125   2.282
 1515SOL    HW1 5444   5.522   2.084   2.303
 1515SOL    HW2 5445   5.382   2.141   2.366
 1516SOL     OW 5446   6.377   5.590   5.723
 1516SOL    HW1 5447   6.386   5.511   5.784
 1516SOL    HW2 5448   6.424   5.572   5.638
 1517SOL     OW 5449   4.146   5.446   2.796
 1517SOL    HW1 5450   4.154   5.545   2.790
 1517SOL    HW2 5451   4.208   5.412   2.866
 1518SOL     OW 5452   0.231   2.462   0.368
 1518SOL    HW1 5453   0.134   2.440   0.375
 1518SOL    HW2 5454   0.256   2.469   0.271
 1519SOL     OW 5455   6.711   4.602   1.500
 1519SOL    HW1 5456   6.643   4.636   1.565
 1519SOL    HW2 5457   6.727   4.505   1.516
 1520SOL     OW 5458   0.346   4.392   1.789
 1520SOL    HW1 5459   0.370   4.423   1.697
 1520SOL    HW2 5460   0.402   4.441   1.856
 1521SOL     OW 5461   2.151   4.298   6.422
 1521SOL    HW1 5462   2.170   4.371   6.487
 1521SOL    HW2 5463   2.223   4.229   6.426
 1522SOL     OW 5464   5.630   6.182   5.119
 1522SOL    HW1 5465   5.595   6.226   5.201
 1522SOL    HW2 5466   5.624   6.246   5.042
 1523SOL     OW 5467   4.049   6.524   6.911
 1523SOL    HW1 5468   3.954   6.545   6.932
 1523SOL    HW2 5469   4.058   6.501   6.814
 1524SOL     OW 5470   2.257   1.649   2.831
 1524SOL    HW1 5471   2.170   1.689   2.861
 1524SOL    HW2 5472   2.311   1.718   2.784
 1525SOL     OW 5473   6.247   3.565   0.382
 1525SOL    HW1 5474   6.271   3.598   0.291
 1525SOL    HW2 5475   6.309   3.491   0.409
 1526SOL     OW 5476   6.729   0.973   6.991
 1526SOL    HW1 5477   6.680   0.961   6.905
 1526SOL    HW2 5478   6.789   0.894   7.006
 1527SOL     OW 5479   4.178   1.716   5.058
 1527SOL    HW1 5480   4.081   1.739   5.056
 1527SOL    HW2 5481   4.232   1.801   5.065
 1528SOL     OW 5482   3.736   4.902   2.715
 1528SOL    HW1 5483   3.688   4.845   2.648
 1528SOL    HW2 5484   3.833   4.876   2.717
 1529SOL     OW 5485   4.016   0.121   7.014
 1529SOL    HW1 5486   4.066   0.129   0.076
 1529SOL    HW2 5487   4.015   0.026   6.984
 1530SOL     OW 5488   4.254   1.972   2.322
 1530SOL    HW1 5489   4.173   1.999   2.269
 1530SOL    HW2 5490   4.258   1.873   2.329
 1531SOL     OW 5491   4.543   6.802   5.317
 1531SOL    HW1 5492   4.572   6.775   5.409
 1531SOL    HW2 5493   4.621   6.841   5.268
 1532SOL     OW 5494   3.424   3.624   6.441
 1532SOL    HW1 5495   3.357   3.606   6.369
 1532SOL    HW2 5496   3.507   3.572   6.422
 1533SOL     OW 5497   5.919   5.163   6.747
 1533SOL    HW1 5498   5.892   5.186   6.653
 1533SOL    HW2 5499   5.968   5.240   6.787
 1534SOL     OW 5500   2.842   5.867   6.905
 1534SOL    HW1 5501   2.784   5.801   6.858
 1534SOL    HW2 5502   2.792   5.906   6.983
 1535SOL     OW 5503   4.952   5.986   4.282
 1535SOL    HW1 5504   5.009   6.006   4.362
 1535SOL    HW2 5505   4.883   5.919   4.306
 1536SOL     OW 5506   3.730   4.066   5.704
 1536SOL    HW1 5507   3.761   4.096   5.614
 1536SOL    HW2 5508   3.751   3.969   5.715
 1537SOL     OW 5509   3.955   5.683   3.614
 1537SOL    HW1 5510   3.985   5.588   3.626
 1537SOL    HW2 5511   4.019   5.744   3.662
 1538SOL     OW 5512   3.112   6.894   6.497
 1538SOL    HW1 5513   3.063   6.978   6.475
 1538SOL    HW2 5514   3.140   6.896   6.593
 1539SOL     OW 5515   4.761   3.789   1.698
 1539SOL    HW1 5516   4.673   3.750   1.722
 1539SOL    HW2 5517   4.822   3.717   1.665
 1540SOL     OW 5518   0.662   6.106   4.958
 1540SOL    HW1 5519   0.609   6.038   4.908
 1540SOL    HW2 5520   0.759   6.081   4.955
 1541SOL     OW 5521   3.050   3.333   3.778
 1541SOL    HW1 5522   3.024   3.278   3.857
 1541SOL    HW2 5523   3.140   3.374   3.795
 1542SOL     OW 5524   6.519   6.983   2.570
 1542SOL    HW1 5525   6.612   7.017   2.582
 1542SOL    HW2 5526   6.457   0.007   2.632
 1543SOL     OW 5527   3.212   4.938   5.413
 1543SOL    HW1 5528   3.148   5.004   5.374
 1543SOL    HW2 5529   3.220   4.860   5.352
 1544SOL     OW 5530   3.190   3.475   2.698
 1544SOL    HW1 5531   3.091   3.458   2.704
 1544SOL    HW2 5532   3.206   3.574   2.694
 1545SOL     OW 5533   5.011   0.468   2.851
 1545SOL    HW1 5534   5.051   0.514   2.772
 1545SOL    HW2 5535   5.043   0.513   2.935
 1546SOL     OW 5536   3.946   6.663   5.655
 1546SOL    HW1 5537   4.040   6.638   5.631
 1546SOL    HW2 5538   3.929   6.758   5.629
 1547SOL     OW 5539   2.018   4.061   1.850
 1547SOL    HW1 5540   1.982   3.993   1.914
 1547SOL    HW2 5541   1.958   4.141   1.850
 1548SOL     OW 5542   5.556   3.616   6.004
 1548SOL    HW1 5543   5.650   3.643   6.026
 1548SOL    HW2 5544   5.539   3.632   5.907
 1549SOL     OW 5545   4.276   2.013   1.719
 1549SOL    HW1 5546   4.203   2.075   1.747
 1549SOL    HW2 5547   4.262   1.924   1.762
 1550SOL     OW 5548   2.563   3.527   0.048
 1550SOL    HW1 5549   2.568   3.462   0.123
 1550SOL    HW2 5550   2.483   3.507   7.016
 1551SOL     OW 5551   1.965   4.309   6.203
 1551SOL    HW1 5552   2.025   4.326   6.282
 1551SOL    HW2 5553   1.956   4.210   6.190
 1552SOL     OW 5554   1.167   6.026   0.020
 1552SOL    HW1 5555   1.253   5.980   0.042
 1552SOL    HW2 5556   1.096   5.995   0.083
 1553SOL     OW 5557   6.896   1.953   6.526
 1553SOL    HW1 5558   6.960   2.024   6.495
 1553SOL    HW2 5559   6.819   1.997   6.573
 1554SOL     OW 5560   3.910   2.102   2.644
 1554SOL    HW1 5561   3.920   2.011   2.684
 1554SOL    HW2 5562   3.980   2.163   2.680
 1555SOL     OW 5563   5.220   2.662   0.417
 1555SOL    HW1 5564   5.181   2.592   0.477
 1555SOL    HW2 5565   5.253   2.619   0.333
 1556SOL     OW 5566   3.103   1.794   0.313
 1556SOL    HW1 5567   3.159   1.876   0.314
 1556SOL    HW2 5568   3.055   1.789   0.225
 1557SOL     OW 5569   1.737   2.087   5.115
 1557SOL    HW1 5570   1.706   2.155   5.182
 1557SOL    HW2 5571   1.796   2.020   5.161
 1558SOL     OW 5572   5.852   0.539   4.925
 1558SOL    HW1 5573   5.949   0.537   4.901
 1558SOL    HW2 5574   5.841   0.586   5.013
 1559SOL     OW 5575   1.617   2.788   0.052
 1559SOL    HW1 5576   1.610   2.704   0.105
 1559SOL    HW2 5577   1.544   2.791   7.008
 1560SOL     OW 5578   0.002   1.162   5.818
 1560SOL    HW1 5579   0.047   1.169   5.730
 1560SOL    HW2 5580   6.967   1.242   5.832
 1561SOL     OW 5581   6.313   6.344   3.894
 1561SOL    HW1 5582   6.307   6.337   3.993
 1561SOL    HW2 5583   6.338   6.438   3.868
 1562SOL     OW 5584   4.511   5.358   2.878
 1562SOL    HW1 5585   4.576   5.285   2.896
 1562SOL    HW2 5586   4.511   5.380   2.780
 1563SOL     OW 5587   2.422   6.944   5.472
 1563SOL    HW1 5588   2.427   0.005   5.421
 1563SOL    HW2 5589   2.346   6.889   5.439
 1564SOL     OW 5590   1.310   2.514   3.911
 1564SOL    HW1 5591   1.218   2.483   3.887
 1564SOL    HW2 5592   1.323   2.506   4.010
 1565SOL     OW 5593   4.322   4.636   3.455
 1565SOL    HW1 5594   4.338   4.549   3.502
 1565SOL    HW2 5595   4.260   4.693   3.509
 1566SOL     OW 5596   5.718   4.878   2.964
 1566SOL    HW1 5597   5.647   4.861   2.895
 1566SOL    HW2 5598   5.789   4.937   2.926
 1567SOL     OW 5599   6.184   6.097   0.685
 1567SOL    HW1 5600   6.170   6.153   0.767
 1567SOL    HW2 5601   6.254   6.139   0.627
 1568SOL     OW 5602   1.616   6.722   6.961
 1568SOL    HW1 5603   1.648   6.632   6.933
 1568SOL    HW2 5604   1.694   6.779   6.988
 1569SOL     OW 5605   4.670   6.235   3.236
 1569SOL    HW1 5606   4.720   6.305   3.286
 1569SOL    HW2 5607   4.598   6.197   3.294
 1570SOL     OW 5608   1.794   0.524   1.326
 1570SOL    HW1 5609   1.794   0.536   1.425
 1570SOL    HW2 5610   1.855   0.449   1.301
 1571SOL     OW 5611   5.197   2.252   1.136
 1571SOL    HW1 5612   5.141   2.236   1.217
 1571SOL    HW2 5613   5.154   2.207   1.057
 1572SOL     OW 5614   0.510   6.579   0.919
 1572SOL    HW1 5615   0.596   6.530   0.933
 1572SOL    HW2 5616   0.434   6.514   0.917
 1573SOL     OW 5617   5.460   2.830   2.706
 1573SOL    HW1 5618   5.457   2.894   2.630
 1573SOL    HW2 5619   5.367   2.796   2.725
 1574SOL     OW 5620   6.318   0.695   1.339
 1574SOL    HW1 5621   6.394   0.643   1.377
 1574SOL    HW2 5622   6.240   0.692   1.402
 1575SOL     OW 5623   3.568   1.095   0.856
 1575SOL    HW1 5624   3.667   1.091   0.864
 1575SOL    HW2 5625   3.542   1.171   0.797
 1576SOL     OW 5626   0.672   6.920   3.551
 1576SOL    HW1 5627   0.601   6.936   3.482
 1576SOL    HW2 5628   0.751   6.977   3.532
 1577SOL     OW 5629   3.198   2.152   4.451
 1577SOL    HW1 5630   3.280   2.145   4.507
 1577SOL    HW2 5631   3.188   2.069   4.395
 1578SOL     OW 5632   6.228   3.065   5.951
 1578SOL    HW1 5633   6.216   3.142   6.014
 1578SOL    HW2 5634   6.298   3.004   5.986
 1579SOL     OW 5635   6.954   1.704   2.983
 1579SOL    HW1 5636   6.955   1.656   2.895
 1579SOL    HW2 5637   7.018   1.781   2.980
 1580SOL     OW 5638   2.942   3.986   5.328
 1580SOL    HW1 5639   2.943   4.084   5.348
 1580SOL    HW2 5640   2.848   3.952   5.337
 1581SOL     OW 5641   0.378   4.033   4.889
 1581SOL    HW1 5642   0.354   3.993   4.800
 1581SOL    HW2 5643   0.351   3.971   4.962
 1582SOL     OW 5644   1.442   6.771   4.413
 1582SOL    HW1 5645   1.437   6.688   4.467
 1582SOL    HW2 5646   1.538   6.797   4.400
 1583SOL     OW 5647   1.113   4.401   3.350
 1583SOL    HW1 5648   1.202   4.408   3.395
 1583SOL    HW2 5649   1.098   4.307   3.320
 1584SOL     OW 5650   1.592   6.574   4.787
 1584SOL    HW1 5651   1.604   6.671   4.807
 1584SOL    HW2 5652   1.544   6.530   4.863
 1585SOL     OW 5653   5.894   1.440   3.521
 1585SOL    HW1 5654   5.798   1.445   3.550
 1585SOL    HW2 5655   5.921   1.527   3.479
 1586SOL     OW 5656   3.364   4.018   0.897
 1586SOL    HW1 5657   3.444   4.033   0.839
 1586SOL    HW2 5658   3.322   3.931   0.873
 1587SOL     OW 5659   2.595   5.874   6.467
 1587SOL    HW1 5660   2.634   5.952   6.517
 1587SOL    HW2 5661   2.538   5.820   6.529
 1588SOL     OW 5662   5.202   1.665   3.318
 1588SOL    HW1 5663   5.128   1.597   3.310
 1588SOL    HW2 5664   5.164   1.752   3.350
 1589SOL     OW 5665   6.030   4.226   2.376
 1589SOL    HW1 5666   5.973   4.171   2.438
 1589SOL    HW2 5667   5.977   4.306   2.347
 1590SOL     OW 5668   2.516   6.219   6.417
 1590SOL    HW1 5669   2.586   6.193   6.483
 1590SOL    HW2 5670   2.543   6.305   6.373
 1591SOL     OW 5671   0.229   5.288   2.390
 1591SOL    HW1 5672   0.199   5.258   2.481
 1591SOL    HW2 5673   0.220   5.388   2.383
 1592SOL     OW 5674   1.917   4.266   0.942
 1592SOL    HW1 5675   1.821   4.283   0.918
 1592SOL    HW2 5676   1.970   4.350   0.933
 1593SOL     OW 5677   0.673   6.773   3.786
 1593SOL    HW1 5678   0.762   6.766   3.832
 1593SOL    HW2 5679   0.687   6.806   3.693
 1594SOL     OW 5680   6.755   5.809   2.715
 1594SOL    HW1 5681   6.681   5.757   2.758
 1594SOL    HW2 5682   6.721   5.852   2.631
 1595SOL     OW 5683   1.405   5.236   7.011
 1595SOL    HW1 5684   1.454   5.191   0.062
 1595SOL    HW2 5685   1.453   5.218   6.925
 1596SOL     OW 5686   0.650   3.203   4.654
 1596SOL    HW1 5687   0.670   3.154   4.570
 1596SOL    HW2 5688   0.727   3.264   4.676
 1597SOL     OW 5689   2.320   6.289   6.799
 1597SOL    HW1 5690   2.269   6.359   6.849
 1597SOL    HW2 5691   2.304   6.300   6.700
 1598SOL     OW 5692   0.929   3.575   0.131
 1598SOL    HW1 5693   0.925   3.492   0.187
 1598SOL    HW2 5694   0.837   3.616   0.127
 1599SOL     OW 5695   4.764   4.337   5.803
 1599SOL    HW1 5696   4.665   4.346   5.817
 1599SOL    HW2 5697   4.786   4.356   5.708
 1600SOL     OW 5698   5.141   1.956   5.155
 1600SOL    HW1 5699   5.105   1.898   5.081
 1600SOL    HW2 5700   5.126   1.911   5.243
 1601SOL     OW 5701   6.936   4.651   4.205
 1601SOL    HW1 5702   6.945   4.617   4.299
 1601SOL    HW2 5703   7.022   4.637   4.156
 1602SOL     OW 5704   2.161   5.282   4.050
 1602SOL    HW1 5705   2.182   5.184   4.041
 1602SOL    HW2 5706   2.237   5.328   4.096
 1603SOL     OW 5707   0.261   6.006   2.777
 1603SOL    HW1 5708   0.172   5.979   2.815
 1603SOL    HW2 5709   0.302   5.929   2.729
 1604SOL     OW 5710   6.530   4.370   6.757
 1604SOL    HW1 5711   6.484   4.290   6.717
 1604SOL    HW2 5712   6.626   4.370   6.730
 1605SOL     OW 5713   6.485   6.627   2.185
 1605SOL    HW1 5714   6.387   6.605   2.187
 1605SOL    HW2 5715   6.532   6.566   2.122
 1606SOL     OW 5716   3.124   0.522   5.141
 1606SOL    HW1 5717   3.030   0.504   5.112
 1606SOL    HW2 5718   3.171   0.576   5.071
 1607SOL     OW 5719   4.205   2.284   0.627
 1607SOL    HW1 5720   4.233   2.348   0.555
 1607SOL    HW2 5721   4.280   2.222   0.648
 1608SOL     OW 5722   1.851   0.437   5.084
 1608SOL    HW1 5723   1.802   0.472   5.163
 1608SOL    HW2 5724   1.840   0.338   5.079
 1609SOL     OW 5725   4.473   0.489   0.216
 1609SOL    HW1 5726   4.415   0.430   0.160
 1609SOL    HW2 5727   4.492   0.444   0.304
 1610SOL     OW 5728   5.870   4.451   5.638
 1610SOL    HW1 5729   5.788   4.394   5.645
 1610SOL    HW2 5730   5.848   4.535   5.588
 1611SOL     OW 5731   3.072   2.988   1.696
 1611SOL    HW1 5732   3.107   2.938   1.775
 1611SOL    HW2 5733   2.981   2.954   1.673
 1612SOL     OW 5734   2.737   1.234   5.078
 1612SOL    HW1 5735   2.738   1.301   5.003
 1612SOL    HW2 5736   2.791   1.268   5.154
 1613SOL     OW 5737   1.563   5.842   1.370
 1613SOL    HW1 5738   1.470   5.810   1.392
 1613SOL    HW2 5739   1.629   5.797   1.430
 1614SOL     OW 5740   6.113   3.935   0.186
 1614SOL    HW1 5741   6.161   3.912   0.271
 1614SOL    HW2 5742   6.032   3.876   0.176
 1615SOL     OW 5743   6.593   4.982   0.617
 1615SOL    HW1 5744   6.531   4.907   0.593
 1615SOL    HW2 5745   6.555   5.032   0.695
 1616SOL     OW 5746   3.994   2.073   5.272
 1616SOL    HW1 5747   3.934   2.041   5.199
 1616SOL    HW2 5748   4.072   2.122   5.233
 1617SOL     OW 5749   6.335   0.000   1.714
 1617SOL    HW1 5750   6.312   6.969   1.795
 1617SOL    HW2 5751   6.266   7.009   1.643
 1618SOL     OW 5752   1.111   3.647   1.261
 1618SOL    HW1 5753   1.157   3.728   1.226
 1618SOL    HW2 5754   1.173   3.568   1.255
 1619SOL     OW 5755   0.972   1.726   3.296
 1619SOL    HW1 5756   0.918   1.740   3.378
 1619SOL    HW2 5757   0.986   1.815   3.250
 1620SOL     OW 5758   2.494   5.479   1.144
 1620SOL    HW1 5759   2.543   5.392   1.130
 1620SOL    HW2 5760   2.450   5.479   1.233
 1621SOL     OW 5761   1.050   1.530   0.245
 1621SOL    HW1 5762   1.018   1.567   0.158
 1621SOL    HW2 5763   1.084   1.437   0.231
 1622SOL     OW 5764   0.579   2.566   4.457
 1622SOL    HW1 5765   0.518   2.593   4.532
 1622SOL    HW2 5766   0.619   2.648   4.415
 1623SOL     OW 5767   2.726   3.252   5.534
 1623SOL    HW1 5768   2.734   3.192   5.454
 1623SOL    HW2 5769   2.817   3.286   5.560
 1624SOL     OW 5770   3.185   0.910   5.787
 1624SOL    HW1 5771   3.254   0.943   5.722
 1624SOL    HW2 5772   3.181   0.972   5.866
 1625SOL     OW 5773   1.473   5.817   1.690
 1625SOL    HW1 5774   1.440   5.755   1.760
 1625SOL    HW2 5775   1.555   5.865   1.724
 1626SOL     OW 5776   3.093   2.234   6.315
 1626SOL    HW1 5777   3.049   2.145   6.301
 1626SOL    HW2 5778   3.053   2.279   6.395
 1627SOL     OW 5779   6.279   2.320   3.847
 1627SOL    HW1 5780   6.332   2.377   3.909
 1627SOL    HW2 5781   6.311   2.334   3.753
 1628SOL     OW 5782   4.465   4.598   6.746
 1628SOL    HW1 5783   4.507   4.625   6.659
 1628SOL    HW2 5784   4.437   4.502   6.742
 1629SOL     OW 5785   2.875   1.610   4.044
 1629SOL    HW1 5786   2.917   1.676   3.981
 1629SOL    HW2 5787   2.861   1.652   4.133
 1630SOL     OW 5788   1.000   6.371   5.656
 1630SOL    HW1 5789   0.950   6.294   5.615
 1630SOL    HW2 5790   1.098   6.355   5.647
 1631SOL     OW 5791   0.450   1.452   6.565
 1631SOL    HW1 5792   0.367   1.451   6.510
 1631SOL    HW2 5793   0.512   1.381   6.532
 1632SOL     OW 5794   0.131   1.804   0.084
 1632SOL    HW1 5795   0.178   1.723   0.049
 1632SOL    HW2 5796   0.146   1.812   0.183
 1633SOL     OW 5797   4.975   2.240   3.983
 1633SOL    HW1 5798   5.069   2.208   3.988
 1633SOL    HW2 5799   4.926   2.211   4.065
 1634SOL     OW 5800   3.829   4.501   5.949
 1634SOL    HW1 5801   3.742   4.519   5.994
 1634SOL    HW2 5802   3.820   4.520   5.851
 1635SOL     OW 5803   6.473   5.514   5.473
 1635SOL    HW1 5804   6.378   5.528   5.443
 1635SOL    HW2 5805   6.514   5.440   5.421
 1636SOL     OW 5806   2.387   3.720   1.419
 1636SOL    HW1 5807   2.438   3.789   1.368
 1636SOL    HW2 5808   2.441   3.690   1.498
 1637SOL     OW 5809   0.243   0.348   2.931
 1637SOL    HW1 5810   0.320   0.362   2.992
 1637SOL    HW2 5811   0.225   0.250   2.922
 1638SOL     OW 5812   0.800   4.020   4.057
 1638SOL    HW1 5813   0.821   4.115   4.081
 1638SOL    HW2 5814   0.792   3.966   4.141
 1639SOL     OW 5815   4.000   6.855   3.075
 1639SOL    HW1 5816   3.929   6.807   3.022
 1639SOL    HW2 5817   3.992   6.953   3.061
 1640SOL     OW 5818   5.947   1.879   1.373
 1640SOL    HW1 5819   5.869   1.942   1.375
 1640SOL    HW2 5820   6.016   1.910   1.438
 1641SOL     OW 5821   5.293   2.881   4.151
 1641SOL    HW1 5822   5.375   2.850   4.103
 1641SOL    HW2 5823   5.277   2.824   4.231
 1642SOL     OW 5824   6.063   3.246   6.939
 1642SOL    HW1 5825   6.109   3.324   6.981
 1642SOL    HW2 5826   5.966   3.246   6.966
 1643SOL     OW 5827   2.924   5.073   4.210
 1643SOL    HW1 5828   2.834   5.083   4.253
 1643SOL    HW2 5829   2.943   5.152   4.153
 1644SOL     OW 5830   1.023   3.198   1.381
 1644SOL    HW1 5831   1.031   3.254   1.464
 1644SOL    HW2 5832   1.040   3.102   1.404
 1645SOL     OW 5833   2.568   6.131   5.705
 1645SOL    HW1 5834   2.604   6.135   5.612
 1645SOL    HW2 5835   2.587   6.217   5.752
 1646SOL     OW 5836   2.167   6.652   1.241
 1646SOL    HW1 5837   2.169   6.748   1.212
 1646SOL    HW2 5838   2.089   6.607   1.198
 1647SOL     OW 5839   5.944   2.968   4.534
 1647SOL    HW1 5840   6.031   2.927   4.506
 1647SOL    HW2 5841   5.886   2.980   4.453
 1648SOL     OW 5842   5.968   5.887   0.991
 1648SOL    HW1 5843   6.000   5.895   0.897
 1648SOL    HW2 5844   6.040   5.918   1.053
 1649SOL     OW 5845   4.058   6.872   3.887
 1649SOL    HW1 5846   4.058   6.843   3.791
 1649SOL    HW2 5847   3.986   6.940   3.901
 1650SOL     OW 5848   2.011   6.896   4.882
 1650SOL    HW1 5849   2.028   6.812   4.831
 1650SOL    HW2 5850   2.029   6.880   4.980
 1651SOL     OW 5851   0.985   0.881   1.909
 1651SOL    HW1 5852   1.075   0.867   1.868
 1651SOL    HW2 5853   0.936   0.794   1.913
 1652SOL     OW 5854   1.785   3.172   1.763
 1652SOL    HW1 5855   1.832   3.238   1.706
 1652SOL    HW2 5856   1.695   3.208   1.789
 1653SOL     OW 5857   0.076   6.709   1.333
 1653SOL    HW1 5858   0.053   6.657   1.251
 1653SOL    HW2 5859   0.175   6.711   1.345
 1654SOL     OW 5860   6.319   3.103   2.016
 1654SOL    HW1 5861   6.353   3.136   2.104
 1654SOL    HW2 5862   6.397   3.083   1.956
 1655SOL     OW 5863   5.884   3.085   5.269
 1655SOL    HW1 5864   5.827   3.163   5.245
 1655SOL    HW2 5865   5.956   3.073   5.200
 1656SOL     OW 5866   1.790   4.572   2.818
 1656SOL    HW1 5867   1.890   4.583   2.817
 1656SOL    HW2 5868   1.752   4.607   2.733
 1657SOL     OW 5869   6.852   0.643   4.193
 1657SOL    HW1 5870   6.911   0.562   4.180
 1657SOL    HW2 5871   6.884   0.694   4.273
 1658SOL     OW 5872   0.958   0.785   2.473
 1658SOL    HW1 5873   1.053   0.766   2.447
 1658SOL    HW2 5874   0.931   0.723   2.546
 1659SOL     OW 5875   3.629   1.182   6.217
 1659SOL    HW1 5876   3.619   1.231   6.303
 1659SOL    HW2 5877   3.639   1.084   6.235
 1660SOL     OW 5878   1.876   4.658   4.076
 1660SOL    HW1 5879   1.910   4.605   3.998
 1660SOL    HW2 5880   1.777   4.663   4.071
 1661SOL     OW 5881   3.044   1.735   1.611
 1661SOL    HW1 5882   3.070   1.771   1.700
 1661SOL    HW2 5883   3.048   1.635   1.612
 1662SOL     OW 5884   6.534   1.143   4.170
 1662SOL    HW1 5885   6.434   1.148   4.174
 1662SOL    HW2 5886   6.561   1.055   4.129
 1663SOL     OW 5887   3.245   0.717   3.139
 1663SOL    HW1 5888   3.331   0.767   3.139
 1663SOL    HW2 5889   3.245   0.649   3.212
 1664SOL     OW 5890   1.687   0.181   4.093
 1664SOL    HW1 5891   1.755   0.186   4.020
 1664SOL    HW2 5892   1.654   0.087   4.101
 1665SOL     OW 5893   6.953   1.499   2.719
 1665SOL    HW1 5894   6.859   1.528   2.703
 1665SOL    HW2 5895   6.960   1.400   2.712
 1666SOL     OW 5896   5.565   3.454   0.552
 1666SOL    HW1 5897   5.475   3.489   0.525
 1666SOL    HW2 5898   5.635   3.494   0.494
 1667SOL     OW 5899   5.714   6.964   1.263
 1667SOL    HW1 5900   5.732   6.870   1.235
 1667SOL    HW2 5901   5.651   7.007   1.198
 1668SOL     OW 5902   5.116   5.655   5.611
 1668SOL    HW1 5903   5.183   5.584   5.630
 1668SOL    HW2 5904   5.158   5.727   5.555
 1669SOL     OW 5905   6.106   0.038   6.967
 1669SOL    HW1 5906   6.163   6.984   6.989
 1669SOL    HW2 5907   6.118   0.109   0.012
 1670SOL     OW 5908   6.990   5.172   6.640
 1670SOL    HW1 5909   6.894   5.172   6.613
 1670SOL    HW2 5910   0.022   5.141   6.563
 1671SOL     OW 5911   4.290   2.402   1.295
 1671SOL    HW1 5912   4.307   2.310   1.260
 1671SOL    HW2 5913   4.214   2.444   1.245
 1672SOL     OW 5914   2.155   3.864   2.336
 1672SOL    HW1 5915   2.103   3.949   2.332
 1672SOL    HW2 5916   2.247   3.879   2.301
 1673SOL     OW 5917   0.292   2.478   4.590
 1673SOL    HW1 5918   0.256   2.495   4.499
 1673SOL    HW2 5919   0.339   2.390   4.592
 1674SOL     OW 5920   0.197   4.230   1.926
 1674SOL    HW1 5921   0.250   4.276   1.855
 1674SOL    HW2 5922   0.189   4.133   1.905
 1675SOL     OW 5923   4.275   0.430   6.025
 1675SOL    HW1 5924   4.213   0.438   6.104
 1675SOL    HW2 5925   4.271   0.514   5.971
 1676SOL     OW 5926   3.018   1.213   2.183
 1676SOL    HW1 5927   3.015   1.136   2.246
 1676SOL    HW2 5928   3.029   1.179   2.089
 1677SOL     OW 5929   4.232   2.803   5.354
 1677SOL    HW1 5930   4.163   2.748   5.307
 1677SOL    HW2 5931   4.271   2.749   5.429
 1678SOL     OW 5932   5.116   4.552   4.800
 1678SOL    HW1 5933   5.054   4.530   4.724
 1678SOL    HW2 5934   5.100   4.647   4.829
 1679SOL     OW 5935   2.225   3.289   5.134
 1679SOL    HW1 5936   2.270   3.211   5.177
 1679SOL    HW2 5937   2.225   3.367   5.197
 1680SOL     OW 5938   0.531   1.998   4.288
 1680SOL    HW1 5939   0.569   2.045   4.368
 1680SOL    HW2 5940   0.539   2.058   4.208
 1681SOL     OW 5941   6.747   5.961   1.498
 1681SOL    HW1 5942   6.797   5.879   1.527
 1681SOL    HW2 5943   6.654   5.959   1.536
 1682SOL     OW 5944   6.732   2.403   4.939
 1682SOL    HW1 5945   6.780   2.448   5.015
 1682SOL    HW2 5946   6.795   2.340   4.893
 1683SOL     OW 5947   4.124   5.540   0.698
 1683SOL    HW1 5948   4.077   5.612   0.646
 1683SOL    HW2 5949   4.094   5.543   0.793
 1684SOL     OW 5950   1.632   6.112   2.689
 1684SOL    HW1 5951   1.715   6.167   2.698
 1684SOL    HW2 5952   1.558   6.168   2.653
 1685SOL     OW 5953   2.851   1.234   6.292
 1685SOL    HW1 5954   2.853   1.312   6.355
 1685SOL    HW2 5955   2.823   1.265   6.202
 1686SOL     OW 5956   1.807   5.064   5.255
 1686SOL    HW1 5957   1.721   5.113   5.238
 1686SOL    HW2 5958   1.798   5.008   5.337
 1687SOL     OW 5959   2.342   2.819   0.861
 1687SOL    HW1 5960   2.441   2.829   0.855
 1687SOL    HW2 5961   2.299   2.855   0.778
 1688SOL     OW 5962   1.545   2.395   4.095
 1688SOL    HW1 5963   1.623   2.455   4.082
 1688SOL    HW2 5964   1.467   2.448   4.128
 1689SOL     OW 5965   4.114   1.085   1.843
 1689SOL    HW1 5966   4.160   1.012   1.895
 1689SOL    HW2 5967   4.101   1.055   1.749
 1690SOL     OW 5968   1.408   2.950   3.795
 1690SOL    HW1 5969   1.475   2.891   3.840
 1690SOL    HW2 5970   1.388   3.029   3.853
 1691SOL     OW 5971   5.072   3.850   3.521
 1691SOL    HW1 5972   5.113   3.773   3.571
 1691SOL    HW2 5973   5.145   3.903   3.477
 1692SOL     OW 5974   6.573   0.598   1.642
 1692SOL    HW1 5975   6.595   0.581   1.546
 1692SOL    HW2 5976   6.521   0.520   1.679
 1693SOL     OW 5977   0.139   2.254   2.403
 1693SOL    HW1 5978   0.072   2.182   2.385
 1693SOL    HW2 5979   0.090   2.339   2.426
 1694SOL     OW 5980   5.027   0.144   3.687
 1694SOL    HW1 5981   4.964   0.099   3.751
 1694SOL    HW2 5982   5.104   0.084   3.667
 1695SOL     OW 5983   2.213   1.091   5.850
 1695SOL    HW1 5984   2.303   1.122   5.882
 1695SOL    HW2 5985   2.187   1.008   5.900
 1696SOL     OW 5986   5.366   5.051   0.603
 1696SOL    HW1 5987   5.350   5.006   0.691
 1696SOL    HW2 5988   5.459   5.087   0.600
 1697SOL     OW 5989   5.806   6.246   2.136
 1697SOL    HW1 5990   5.755   6.279   2.215
 1697SOL    HW2 5991   5.901   6.229   2.163
 1698SOL     OW 5992   4.645   0.978   0.647
 1698SOL    HW1 5993   4.550   0.987   0.615
 1698SOL    HW2 5994   4.647   0.982   0.747
 1699SOL     OW 5995   2.720   1.189   2.004
 1699SOL    HW1 5996   2.742   1.130   2.082
 1699SOL    HW2 5997   2.712   1.133   1.922
 1700SOL     OW 5998   6.020   1.658   3.429
 1700SOL    HW1 5999   6.036   1.697   3.520
 1700SOL    HW2 6000   6.046   1.725   3.360
 1701SOL     OW 6001   5.154   2.956   5.338
 1701SOL    HW1 6002   5.094   2.904   5.277
 1701SOL    HW2 6003   5.107   2.970   5.425
 1702SOL     OW 6004   6.907   2.602   0.844
 1702SOL    HW1 6005   6.818   2.617   0.802
 1702SOL    HW2 6006   6.899   2.532   0.915
 1703SOL     OW 6007   3.795   3.985   2.889
 1703SOL    HW1 6008   3.710   4.032   2.911
 1703SOL    HW2 6009   3.793   3.956   2.793
 1704SOL     OW 6010   0.679   1.529   2.063
 1704SOL    HW1 6011   0.692   1.544   2.161
 1704SOL    HW2 6012   0.767   1.507   2.020
 1705SOL     OW 6013   3.456   2.013   2.065
 1705SOL    HW1 6014   3.423   2.028   2.159
 1705SOL    HW2 6015   3.527   2.080   2.044
 1706SOL     OW 6016   4.447   0.063   1.755
 1706SOL    HW1 6017   4.499   0.144   1.727
 1706SOL    HW2 6018   4.491   0.020   1.833
 1707SOL     OW 6019   4.580   1.829   2.959
 1707SOL    HW1 6020   4.602   1.742   3.004
 1707SOL    HW2 6021   4.634   1.838   2.875
 1708SOL     OW 6022   4.712   5.140   2.296
 1708SOL    HW1 6023   4.632   5.121   2.240
 1708SOL    HW2 6024   4.694   5.112   2.391
 1709SOL     OW 6025   2.725   5.981   1.610
 1709SOL    HW1 6026   2.665   6.048   1.566
 1709SOL    HW2 6027   2.676   5.895   1.622
 1710SOL     OW 6028   5.856   4.384   3.916
 1710SOL    HW1 6029   5.781   4.368   3.852
 1710SOL    HW2 6030   5.930   4.432   3.869
 1711SOL     OW 6031   1.195   4.120   4.847
 1711SOL    HW1 6032   1.275   4.151   4.796
 1711SOL    HW2 6033   1.112   4.150   4.801
 1712SOL     OW 6034   1.066   3.201   6.619
 1712SOL    HW1 6035   1.142   3.175   6.679
 1712SOL    HW2 6036   1.072   3.298   6.598
 1713SOL     OW 6037   3.794   1.905   1.182
 1713SOL    HW1 6038   3.696   1.884   1.181
 1713SOL    HW2 6039   3.820   1.942   1.094
 1714SOL     OW 6040   4.849   1.685   5.974
 1714SOL    HW1 6041   4.784   1.757   6.000
 1714SOL    HW2 6042   4.941   1.712   6.003
 1715SOL     OW 6043   6.783   3.590   2.535
 1715SOL    HW1 6044   6.765   3.617   2.630
 1715SOL    HW2 6045   6.805   3.670   2.480
 1716SOL     OW 6046   5.136   6.713   1.584
 1716SOL    HW1 6047   5.217   6.749   1.630
 1716SOL    HW2 6048   5.086   6.788   1.540
 1717SOL     OW 6049   1.704   6.674   6.286
 1717SOL    HW1 6050   1.683   6.579   6.310
 1717SOL    HW2 6051   1.673   6.692   6.192
 1718SOL     OW 6052   1.991   2.006   1.335
 1718SOL    HW1 6053   2.064   2.011   1.403
 1718SOL    HW2 6054   2.027   1.968   1.250
 1719SOL     OW 6055   2.518   4.091   1.153
 1719SOL    HW1 6056   2.507   4.181   1.111
 1719SOL    HW2 6057   2.434   4.038   1.141
 1720SOL     OW 6058   6.630   1.222   1.035
 1720SOL    HW1 6059   6.635   1.315   0.998
 1720SOL    HW2 6060   6.716   1.200   1.082
 1721SOL     OW 6061   1.113   6.494   3.096
 1721SOL    HW1 6062   1.063   6.507   3.010
 1721SOL    HW2 6063   1.203   6.454   3.076
 1722SOL     OW 6064   4.579   1.601   3.670
 1722SOL    HW1 6065   4.515   1.548   3.616
 1722SOL    HW2 6066   4.640   1.540   3.720
 1723SOL     OW 6067   6.601   2.859   3.241
 1723SOL    HW1 6068   6.545   2.867   3.158
 1723SOL    HW2 6069   6.660   2.939   3.250
 1724SOL     OW 6070   5.935   2.098   1.131
 1724SOL    HW1 6071   5.989   2.044   1.067
 1724SOL    HW2 6072   5.907   2.040   1.208
 1725SOL     OW 6073   2.890   5.126   0.390
 1725SOL    HW1 6074   2.945   5.185   0.331
 1725SOL    HW2 6075   2.905   5.151   0.486
 1726SOL     OW 6076   5.815   4.188   5.025
 1726SOL    HW1 6077   5.911   4.163   5.028
 1726SOL    HW2 6078   5.759   4.109   5.050
 1727SOL     OW 6079   3.881   3.009   4.221
 1727SOL    HW1 6080   3.875   3.039   4.316
 1727SOL    HW2 6081   3.880   2.909   4.217
 1728SOL     OW 6082   5.621   5.525   4.734
 1728SOL    HW1 6083   5.658   5.456   4.796
 1728SOL    HW2 6084   5.601   5.483   4.646
 1729SOL     OW 6085   2.116   3.884   3.570
 1729SOL    HW1 6086   2.119   3.806   3.508
 1729SOL    HW2 6087   2.184   3.952   3.543
 1730SOL     OW 6088   6.678   0.134   5.091
 1730SOL    HW1 6089   6.751   0.184   5.137
 1730SOL    HW2 6090   6.653   0.053   5.144
 1731SOL     OW 6091   1.076   5.244   2.269
 1731SOL    HW1 6092   1.057   5.280   2.177
 1731SOL    HW2 6093   0.991   5.207   2.308
 1732SOL     OW 6094   2.019   4.311   5.868
 1732SOL    HW1 6095   1.991   4.401   5.901
 1732SOL    HW2 6096   2.118   4.311   5.852
 1733SOL     OW 6097   1.113   3.958   2.346
 1733SOL    HW1 6098   1.082   3.926   2.257
 1733SOL    HW2 6099   1.033   3.978   2.404
 1734SOL     OW 6100   4.928   3.087   1.868
 1734SOL    HW1 6101   5.012   3.076   1.921
 1734SOL    HW2 6102   4.851   3.048   1.918
 1735SOL     OW 6103   5.983   5.606   0.999
 1735SOL    HW1 6104   6.073   5.603   1.043
 1735SOL    HW2 6105   5.947   5.699   1.005
 1736SOL     OW 6106   4.349   2.193   1.132
 1736SOL    HW1 6107   4.408   2.141   1.193
 1736SOL    HW2 6108   4.405   2.251   1.072
 1737SOL     OW 6109   2.914   1.381   4.364
 1737SOL    HW1 6110   2.842   1.321   4.399
 1737SOL    HW2 6111   2.984   1.393   4.434
 1738SOL     OW 6112   2.071   1.996   3.680
 1738SOL    HW1 6113   2.033   2.088   3.688
 1738SOL    HW2 6114   2.067   1.967   3.584
 1739SOL     OW 6115   5.220   2.535   5.406
 1739SOL    HW1 6116   5.311   2.567   5.433
 1739SOL    HW2 6117   5.224   2.498   5.313
 1740SOL     OW 6118   0.351   2.003   6.393
 1740SOL    HW1 6119   0.402   1.918   6.382
 1740SOL    HW2 6120   0.393   2.075   6.338
 1741SOL     OW 6121   2.465   0.672   4.081
 1741SOL    HW1 6122   2.514   0.746   4.035
 1741SOL    HW2 6123   2.489   0.670   4.178
 1742SOL     OW 6124   4.660   6.013   6.417
 1742SOL    HW1 6125   4.598   6.091   6.409
 1742SOL    HW2 6126   4.620   5.945   6.478
 1743SOL     OW 6127   1.856   1.846   1.998
 1743SOL    HW1 6128   1.793   1.792   1.942
 1743SOL    HW2 6129   1.871   1.935   1.955
 1744SOL     OW 6130   0.668   0.293   1.627
 1744SOL    HW1 6131   0.628   0.204   1.603
 1744SOL    HW2 6132   0.668   0.352   1.546
 1745SOL     OW 6133   6.694   0.711   3.953
 1745SOL    HW1 6134   6.702   0.657   3.870
 1745SOL    HW2 6135   6.771   0.691   4.014
 1746SOL     OW 6136   2.042   5.213   4.798
 1746SOL    HW1 6137   2.057   5.284   4.867
 1746SOL    HW2 6138   1.944   5.199   4.785
 1747SOL     OW 6139   5.352   0.440   2.906
 1747SOL    HW1 6140   5.328   0.507   2.976
 1747SOL    HW2 6141   5.338   0.480   2.815
 1748SOL     OW 6142   0.389   1.109   3.701
 1748SOL    HW1 6143   0.472   1.165   3.696
 1748SOL    HW2 6144   0.409   1.025   3.752
 1749SOL     OW 6145   2.859   6.709   5.493
 1749SOL    HW1 6146   2.941   6.662   5.459
 1749SOL    HW2 6147   2.878   6.746   5.584
 1750SOL     OW 6148   6.304   0.041   3.392
 1750SOL    HW1 6149   6.298   0.123   3.449
 1750SOL    HW2 6150   6.286   6.984   3.448
 1751SOL     OW 6151   3.848   5.975   5.115
 1751SOL    HW1 6152   3.755   5.990   5.080
 1751SOL    HW2 6153   3.893   5.906   5.058
 1752SOL     OW 6154   6.871   2.254   2.577
 1752SOL    HW1 6155   6.902   2.183   2.640
 1752SOL    HW2 6156   6.829   2.212   2.496
 1753SOL     OW 6157   0.504   2.063   0.881
 1753SOL    HW1 6158   0.474   1.971   0.857
 1753SOL    HW2 6159   0.429   2.112   0.925
 1754SOL     OW 6160   3.570   3.224   1.127
 1754SOL    HW1 6161   3.583   3.323   1.126
 1754SOL    HW2 6162   3.543   3.193   1.036
 1755SOL     OW 6163   5.934   5.390   2.266
 1755SOL    HW1 6164   6.020   5.395   2.317
 1755SOL    HW2 6165   5.903   5.482   2.244
 1756SOL     OW 6166   4.280   4.344   6.027
 1756SOL    HW1 6167   4.306   4.426   6.079
 1756SOL    HW2 6168   4.181   4.340   6.019
 1757SOL     OW 6169   2.268   5.174   4.669
 1757SOL    HW1 6170   2.178   5.191   4.710
 1757SOL    HW2 6171   2.323   5.258   4.674
 1758SOL     OW 6172   2.365   0.257   4.059
 1758SOL    HW1 6173   2.373   0.318   3.980
 1758SOL    HW2 6174   2.403   0.167   4.036
 1759SOL     OW 6175   0.817   4.624   5.574
 1759SOL    HW1 6176   0.771   4.700   5.529
 1759SOL    HW2 6177   0.874   4.575   5.509
 1760SOL     OW 6178   6.565   1.706   1.588
 1760SOL    HW1 6179   6.605   1.771   1.524
 1760SOL    HW2 6180   6.472   1.682   1.558
 1761SOL     OW 6181   0.190   0.470   0.679
 1761SOL    HW1 6182   0.112   0.421   0.716
 1761SOL    HW2 6183   0.196   0.456   0.580
 1762SOL     OW 6184   6.132   1.770   5.076
 1762SOL    HW1 6185   6.088   1.860   5.083
 1762SOL    HW2 6186   6.123   1.736   4.982
 1763SOL     OW 6187   2.186   3.746   4.136
 1763SOL    HW1 6188   2.159   3.686   4.212
 1763SOL    HW2 6189   2.216   3.691   4.058
 1764SOL     OW 6190   1.352   3.985   2.606
 1764SOL    HW1 6191   1.267   4.036   2.617
 1764SOL    HW2 6192   1.342   3.895   2.649
 1765SOL     OW 6193   3.564   1.856   6.771
 1765SOL    HW1 6194   3.538   1.942   6.816
 1765SOL    HW2 6195   3.664   1.851   6.765
 1766SOL     OW 6196   4.887   3.126   3.866
 1766SOL    HW1 6197   4.918   3.212   3.908
 1766SOL    HW2 6198   4.933   3.049   3.910
 1767SOL     OW 6199   6.205   3.636   2.846
 1767SOL    HW1 6200   6.257   3.633   2.931
 1767SOL    HW2 6201   6.257   3.590   2.774
 1768SOL     OW 6202   3.770   1.363   4.875
 1768SOL    HW1 6203   3.790   1.288   4.939
 1768SOL    HW2 6204   3.855   1.408   4.848
 1769SOL     OW 6205   4.191   2.278   4.836
 1769SOL    HW1 6206   4.170   2.339   4.912
 1769SOL    HW2 6207   4.243   2.328   4.767
 1770SOL     OW 6208   0.587   5.185   4.761
 1770SOL    HW1 6209   0.641   5.133   4.696
 1770SOL    HW2 6210   0.556   5.270   4.718
 1771SOL     OW 6211   2.508   5.241   0.192
 1771SOL    HW1 6212   2.489   5.304   0.117
 1771SOL    HW2 6213   2.432   5.177   0.202
 1772SOL     OW 6214   2.760   6.622   3.595
 1772SOL    HW1 6215   2.822   6.684   3.548
 1772SOL    HW2 6216   2.666   6.641   3.566
 1773SOL     OW 6217   2.568   4.637   6.364
 1773SOL    HW1 6218   2.664   4.661   6.350
 1773SOL    HW2 6219   2.557   4.593   6.453
 1774SOL     OW 6220   4.182   6.985   1.721
 1774SOL    HW1 6221   4.275   7.022   1.716
 1774SOL    HW2 6222   4.152   6.956   1.629
 1775SOL     OW 6223   1.068   3.997   4.214
 1775SOL    HW1 6224   1.048   4.089   4.248
 1775SOL    HW2 6225   0.999   3.934   4.248
 1776SOL     OW 6226   3.560   0.686   4.322
 1776SOL    HW1 6227   3.500   0.717   4.396
 1776SOL    HW2 6228   3.655   0.685   4.355
 1777SOL     OW 6229   3.277   4.861   6.109
 1777SOL    HW1 6230   3.210   4.929   6.138
 1777SOL    HW2 6231   3.237   4.803   6.038
 1778SOL     OW 6232   4.695   2.795   5.910
 1778SOL    HW1 6233   4.775   2.834   5.955
 1778SOL    HW2 6234   4.707   2.696   5.901
 1779SOL     OW 6235   4.482   1.080   4.899
 1779SOL    HW1 6236   4.505   1.035   4.986
 1779SOL    HW2 6237   4.415   1.152   4.915
 1780SOL     OW 6238   3.195   2.917   5.809
 1780SOL    HW1 6239   3.250   2.908   5.892
 1780SOL    HW2 6240   3.133   2.995   5.818
 1781SOL     OW 6241   4.409   5.910   3.817
 1781SOL    HW1 6242   4.361   5.962   3.888
 1781SOL    HW2 6243   4.502   5.944   3.808
 1782SOL     OW 6244   2.913   2.042   2.821
 1782SOL    HW1 6245   2.912   1.956   2.770
 1782SOL    HW2 6246   2.902   2.023   2.918
 1783SOL     OW 6247   1.220   4.262   6.675
 1783SOL    HW1 6248   1.263   4.197   6.611
 1783SOL    HW2 6249   1.291   4.304   6.732
 1784SOL     OW 6250   3.838   1.492   5.173
 1784SOL    HW1 6251   3.873   1.460   5.085
 1784SOL    HW2 6252   3.854   1.422   5.243
 1785SOL     OW 6253   6.275   5.328   3.613
 1785SOL    HW1 6254   6.203   5.338   3.544
 1785SOL    HW2 6255   6.350   5.390   3.592
 1786SOL     OW 6256   1.138   2.926   1.505
 1786SOL    HW1 6257   1.145   2.856   1.434
 1786SOL    HW2 6258   1.230   2.952   1.535
 1787SOL     OW 6259   2.492   0.603   4.975
 1787SOL    HW1 6260   2.454   0.634   5.062
 1787SOL    HW2 6261   2.574   0.656   4.953
 1788SOL     OW 6262   3.295   2.679   0.044
 1788SOL    HW1 6263   3.388   2.712   0.058
 1788SOL    HW2 6264   3.240   2.696   0.126
 1789SOL     OW 6265   5.872   2.287   2.932
 1789SOL    HW1 6266   5.808   2.358   2.901
 1789SOL    HW2 6267   5.821   2.204   2.956
 1790SOL     OW 6268   3.467   6.520   4.027
 1790SOL    HW1 6269   3.424   6.579   3.958
 1790SOL    HW2 6270   3.414   6.436   4.038
 1791SOL     OW 6271   6.844   0.963   3.456
 1791SOL    HW1 6272   6.905   1.036   3.489
 1791SOL    HW2 6273   6.862   0.879   3.507
 1792SOL     OW 6274   0.003   2.925   3.945
 1792SOL    HW1 6275   7.021   3.016   3.904
 1792SOL    HW2 6276   0.084   2.921   4.003
 1793SOL     OW 6277   6.801   6.908   3.343
 1793SOL    HW1 6278   6.895   6.880   3.324
 1793SOL    HW2 6279   6.739   6.830   3.327
 1794SOL     OW 6280   6.024   6.525   6.232
 1794SOL    HW1 6281   6.107   6.576   6.208
 1794SOL    HW2 6282   5.990   6.478   6.151
 1795SOL     OW 6283   0.084   3.538   1.605
 1795SOL    HW1 6284   0.057   3.454   1.557
 1795SOL    HW2 6285   0.095   3.518   1.702
 1796SOL     OW 6286   2.461   0.395   4.276
 1796SOL    HW1 6287   2.434   0.325   4.209
 1796SOL    HW2 6288   2.390   0.403   4.346
 1797SOL     OW 6289   1.416   0.468   0.095
 1797SOL    HW1 6290   1.455   0.383   0.130
 1797SOL    HW2 6291   1.438   0.543   0.157
 1798SOL     OW 6292   5.170   2.185   4.768
 1798SOL    HW1 6293   5.187   2.232   4.681
 1798SOL    HW2 6294   5.247   2.124   4.789
 1799SOL     OW 6295   6.448   2.112   5.925
 1799SOL    HW1 6296   6.497   2.037   5.967
 1799SOL    HW2 6297   6.512   2.169   5.872
 1800SOL     OW 6298   3.852   4.869   2.421
 1800SOL    HW1 6299   3.942   4.857   2.462
 1800SOL    HW2 6300   3.853   4.832   2.328
 1801SOL     OW 6301   0.599   0.783   2.256
 1801SOL    HW1 6302   0.579   0.704   2.314
 1801SOL    HW2 6303   0.615   0.863   2.313
 1802SOL     OW 6304   5.034   5.555   2.332
 1802SOL    HW1 6305   5.017   5.583   2.238
 1802SOL    HW2 6306   4.950   5.516   2.371
 1803SOL     OW 6307   0.076   6.182   6.936
 1803SOL    HW1 6308   0.090   6.251   7.007
 1803SOL    HW2 6309   0.081   6.225   6.846
 1804SOL     OW 6310   2.351   3.660   5.665
 1804SOL    HW1 6311   2.295   3.689   5.588
 1804SOL    HW2 6312   2.447   3.681   5.647
 1805SOL     OW 6313   6.263   3.771   5.382
 1805SOL    HW1 6314   6.314   3.733   5.304
 1805SOL    HW2 6315   6.170   3.735   5.382
 1806SOL     OW 6316   1.326   1.459   0.548
 1806SOL    HW1 6317   1.311   1.542   0.495
 1806SOL    HW2 6318   1.239   1.412   0.562
 1807SOL     OW 6319   4.711   2.352   5.994
 1807SOL    HW1 6320   4.782   2.415   5.964
 1807SOL    HW2 6321   4.664   2.314   5.914
 1808SOL     OW 6322   0.303   3.412   5.513
 1808SOL    HW1 6323   0.221   3.373   5.553
 1808SOL    HW2 6324   0.278   3.493   5.459
 1809SOL     OW 6325   2.314   2.435   4.501
 1809SOL    HW1 6326   2.284   2.370   4.571
 1809SOL    HW2 6327   2.339   2.386   4.418
 1810SOL     OW 6328   2.953   0.546   4.058
 1810SOL    HW1 6329   2.896   0.549   3.975
 1810SOL    HW2 6330   2.893   0.543   4.138
 1811SOL     OW 6331   4.517   4.452   3.613
 1811SOL    HW1 6332   4.568   4.537   3.625
 1811SOL    HW2 6333   4.546   4.386   3.682
 1812SOL     OW 6334   4.193   6.511   5.604
 1812SOL    HW1 6335   4.180   6.437   5.671
 1812SOL    HW2 6336   4.259   6.482   5.535
 1813SOL     OW 6337   6.132   5.144   0.664
 1813SOL    HW1 6338   6.123   5.213   0.736
 1813SOL    HW2 6339   6.189   5.180   0.590
 1814SOL     OW 6340   6.749   1.621   0.359
 1814SOL    HW1 6341   6.678   1.581   0.418
 1814SOL    HW2 6342   6.705   1.675   0.287
 1815SOL     OW 6343   6.178   2.702   1.790
 1815SOL    HW1 6344   6.196   2.798   1.768
 1815SOL    HW2 6345   6.087   2.693   1.828
 1816SOL     OW 6346   2.660   3.884   0.741
 1816SOL    HW1 6347   2.632   3.840   0.656
 1816SOL    HW2 6348   2.592   3.952   0.768
 1817SOL     OW 6349   3.444   6.829   3.411
 1817SOL    HW1 6350   3.395   6.753   3.369
 1817SOL    HW2 6351   3.487   6.884   3.340
 1818SOL     OW 6352   1.781   6.495   2.152
 1818SOL    HW1 6353   1.708   6.547   2.197
 1818SOL    HW2 6354   1.839   6.453   2.221
 1819SOL     OW 6355   0.544   5.208   1.662
 1819SOL    HW1 6356   0.644   5.204   1.654
 1819SOL    HW2 6357   0.519   5.272   1.735
 1820SOL     OW 6358   5.114   0.958   1.939
 1820SOL    HW1 6359   5.084   0.882   1.881
 1820SOL    HW2 6360   5.188   1.007   1.893
 1821SOL     OW 6361   2.578   0.767   1.926
 1821SOL    HW1 6362   2.644   0.724   1.986
 1821SOL    HW2 6363   2.575   0.719   1.838
 1822SOL     OW 6364   1.545   2.627   1.822
 1822SOL    HW1 6365   1.514   2.542   1.779
 1822SOL    HW2 6366   1.622   2.664   1.772
 1823SOL     OW 6367   2.893   5.661   3.355
 1823SOL    HW1 6368   2.990   5.641   3.366
 1823SOL    HW2 6369   2.865   5.730   3.422
 1824SOL     OW 6370   3.477   2.864   1.454
 1824SOL    HW1 6371   3.379   2.868   1.476
 1824SOL    HW2 6372   3.495   2.917   1.371
 1825SOL     OW 6373   1.121   1.605   3.750
 1825SOL    HW1 6374   1.092   1.562   3.836
 1825SOL    HW2 6375   1.217   1.632   3.756
 1826SOL     OW 6376   3.071   6.876   1.068
 1826SOL    HW1 6377   3.014   6.938   1.122
 1826SOL    HW2 6378   3.088   6.793   1.121
 1827SOL     OW 6379   6.950   6.089   1.947
 1827SOL    HW1 6380   6.946   6.173   1.893
 1827SOL    HW2 6381   6.999   6.018   1.896
 1828SOL     OW 6382   1.289   2.807   0.701
 1828SOL    HW1 6383   1.235   2.836   0.622
 1828SOL    HW2 6384   1.364   2.872   0.715
 1829SOL     OW 6385   3.368   0.353   3.545
 1829SOL    HW1 6386   3.305   0.294   3.596
 1829SOL    HW2 6387   3.407   0.421   3.607
 1830SOL     OW 6388   5.391   6.201   3.905
 1830SOL    HW1 6389   5.345   6.113   3.912
 1830SOL    HW2 6390   5.347   6.267   3.965
 1831SOL     OW 6391   6.351   0.384   2.240
 1831SOL    HW1 6392   6.435   0.340   2.209
 1831SOL    HW2 6393   6.302   0.322   2.301
 1832SOL     OW 6394   5.325   1.054   0.985
 1832SOL    HW1 6395   5.342   0.959   0.958
 1832SOL    HW2 6396   5.278   1.102   0.911
 1833SOL     OW 6397   5.116   0.165   6.135
 1833SOL    HW1 6398   5.150   0.205   6.050
 1833SOL    HW2 6399   5.147   0.070   6.141
 1834SOL     OW 6400   2.698   4.365   0.177
 1834SOL    HW1 6401   2.742   4.433   0.235
 1834SOL    HW2 6402   2.733   4.274   0.200
 1835SOL     OW 6403   0.656   3.946   1.931
 1835SOL    HW1 6404   0.622   3.925   2.022
 1835SOL    HW2 6405   0.579   3.946   1.866
 1836SOL     OW 6406   4.895   1.983   0.571
 1836SOL    HW1 6407   4.852   1.986   0.662
 1836SOL    HW2 6408   4.942   1.896   0.560
 1837SOL     OW 6409   0.985   2.055   4.508
 1837SOL    HW1 6410   0.969   1.961   4.478
 1837SOL    HW2 6411   1.076   2.084   4.476
 1838SOL     OW 6412   0.148   1.113   4.067
 1838SOL    HW1 6413   0.096   1.199   4.071
 1838SOL    HW2 6414   0.100   1.048   4.009
 1839SOL     OW 6415   5.350   2.776   4.992
 1839SOL    HW1 6416   5.257   2.740   4.988
 1839SOL    HW2 6417   5.354   2.848   5.061
 1840SOL     OW 6418   3.419   5.693   1.483
 1840SOL    HW1 6419   3.432   5.783   1.524
 1840SOL    HW2 6420   3.481   5.682   1.405
 1841SOL     OW 6421   2.186   1.604   3.800
 1841SOL    HW1 6422   2.098   1.571   3.833
 1841SOL    HW2 6423   2.236   1.530   3.757
 1842SOL     OW 6424   1.350   5.478   0.220
 1842SOL    HW1 6425   1.296   5.454   0.139
 1842SOL    HW2 6426   1.446   5.485   0.194
 1843SOL     OW 6427   6.713   2.116   3.849
 1843SOL    HW1 6428   6.663   2.045   3.798
 1843SOL    HW2 6429   6.788   2.150   3.792
 1844SOL     OW 6430   3.613   0.111   5.197
 1844SOL    HW1 6431   3.575   0.152   5.280
 1844SOL    HW2 6432   3.606   0.011   5.204
 1845SOL     OW 6433   2.042   6.616   4.855
 1845SOL    HW1 6434   2.011   6.618   4.950
 1845SOL    HW2 6435   2.141   6.634   4.852
 1846SOL     OW 6436   4.341   2.009   0.331
 1846SOL    HW1 6437   4.379   2.014   0.424
 1846SOL    HW2 6438   4.411   1.974   0.269
 1847SOL     OW 6439   1.291   0.523   6.367
 1847SOL    HW1 6440   1.366   0.474   6.410
 1847SOL    HW2 6441   1.254   0.591   6.431
 1848SOL     OW 6442   1.304   6.871   2.555
 1848SOL    HW1 6443   1.225   6.825   2.515
 1848SOL    HW2 6444   1.279   6.964   2.583
 1849SOL     OW 6445   3.637   2.149   0.831
 1849SOL    HW1 6446   3.559   2.090   0.809
 1849SOL    HW2 6447   3.602   2.239   0.859
 1850SOL     OW 6448   1.014   2.984   2.582
 1850SOL    HW1 6449   1.086   2.918   2.559
 1850SOL    HW2 6450   1.033   3.024   2.671
 1851SOL     OW 6451   0.012   2.718   1.462
 1851SOL    HW1 6452   0.032   2.636   1.516
 1851SOL    HW2 6453   7.024   2.692   1.366
 1852SOL     OW 6454   5.726   3.875   2.555
 1852SOL    HW1 6455   5.635   3.850   2.588
 1852SOL    HW2 6456   5.756   3.809   2.486
 1853SOL     OW 6457   0.308   3.185   3.148
 1853SOL    HW1 6458   0.406   3.199   3.161
 1853SOL    HW2 6459   0.294   3.099   3.099
 1854SOL     OW 6460   2.686   6.178   3.584
 1854SOL    HW1 6461   2.666   6.120   3.663
 1854SOL    HW2 6462   2.604   6.188   3.528
 1855SOL     OW 6463   5.249   3.659   6.000
 1855SOL    HW1 6464   5.179   3.612   6.053
 1855SOL    HW2 6465   5.340   3.631   6.031
 1856SOL     OW 6466   6.114   3.563   5.813
 1856SOL    HW1 6467   6.136   3.532   5.721
 1856SOL    HW2 6468   6.090   3.660   5.810
 1857SOL     OW 6469   3.857   1.330   5.396
 1857SOL    HW1 6470   3.919   1.394   5.442
 1857SOL    HW2 6471   3.765   1.338   5.435
 1858SOL     OW 6472   6.232   3.551   3.673
 1858SOL    HW1 6473   6.312   3.564   3.731
 1858SOL    HW2 6474   6.259   3.507   3.588
 1859SOL     OW 6475   4.816   1.972   3.184
 1859SOL    HW1 6476   4.735   1.989   3.241
 1859SOL    HW2 6477   4.815   2.032   3.104
 1860SOL     OW 6478   6.576   0.559   4.578
 1860SOL    HW1 6479   6.615   0.471   4.603
 1860SOL    HW2 6480   6.558   0.561   4.479
 1861SOL     OW 6481   5.773   0.543   1.843
 1861SOL    HW1 6482   5.747   0.560   1.938
 1861SOL    HW2 6483   5.850   0.479   1.841
 1862SOL     OW 6484   2.279   0.521   5.895
 1862SOL    HW1 6485   2.220   0.463   5.951
 1862SOL    HW2 6486   2.224   0.596   5.856
 1863SOL     OW 6487   1.294   2.010   1.606
 1863SOL    HW1 6488   1.245   1.928   1.574
 1863SOL    HW2 6489   1.303   2.074   1.530
 1864SOL     OW 6490   0.824   0.138   5.774
 1864SOL    HW1 6491   0.828   0.232   5.741
 1864SOL    HW2 6492   0.859   0.077   5.704
 1865SOL     OW 6493   3.611   6.417   6.364
 1865SOL    HW1 6494   3.535   6.396   6.426
 1865SOL    HW2 6495   3.612   6.515   6.345
 1866SOL     OW 6496   4.021   4.934   3.497
 1866SOL    HW1 6497   4.102   4.915   3.552
 1866SOL    HW2 6498   3.948   4.870   3.523
 1867SOL     OW 6499   0.346   3.996   6.986
 1867SOL    HW1 6500   0.439   3.993   6.951
 1867SOL    HW2 6501   0.301   3.908   6.968
 1868SOL     OW 6502   4.511   4.330   7.000
 1868SOL    HW1 6503   4.562   4.392   0.036
 1868SOL    HW2 6504   4.570   4.297   6.927
 1869SOL     OW 6505   6.077   2.626   5.821
 1869SOL    HW1 6506   6.098   2.611   5.917
 1869SOL    HW2 6507   6.144   2.688   5.782
 1870SOL     OW 6508   2.199   2.638   5.587
 1870SOL    HW1 6509   2.235   2.731   5.585
 1870SOL    HW2 6510   2.102   2.640   5.613
 1871SOL     OW 6511   0.855   0.654   0.588
 1871SOL    HW1 6512   0.895   0.607   0.509
 1871SOL    HW2 6513   0.923   0.715   0.628
 1872SOL     OW 6514   3.468   2.204   6.467
 1872SOL    HW1 6515   3.527   2.154   6.404
 1872SOL    HW2 6516   3.424   2.280   6.418
 1873SOL     OW 6517   5.026   1.769   5.673
 1873SOL    HW1 6518   4.946   1.710   5.672
 1873SOL    HW2 6519   4.998   1.864   5.688
 1874SOL     OW 6520   3.431   1.116   1.098
 1874SOL    HW1 6521   3.463   1.193   1.154
 1874SOL    HW2 6522   3.477   1.118   1.010
 1875SOL     OW 6523   0.207   1.201   0.284
 1875SOL    HW1 6524   0.296   1.220   0.242
 1875SOL    HW2 6525   0.207   1.109   0.323
 1876SOL     OW 6526   3.965   6.370   5.984
 1876SOL    HW1 6527   3.998   6.464   5.981
 1876SOL    HW2 6528   4.018   6.315   5.919
 1877SOL     OW 6529   0.439   0.173   2.555
 1877SOL    HW1 6530   0.420   0.203   2.461
 1877SOL    HW2 6531   0.385   0.227   2.619
 1878SOL     OW 6532   6.782   2.378   3.552
 1878SOL    HW1 6533   6.857   2.430   3.510
 1878SOL    HW2 6534   6.704   2.439   3.568
 1879SOL     OW 6535   1.319   4.523   4.158
 1879SOL    HW1 6536   1.386   4.543   4.230
 1879SOL    HW2 6537   1.264   4.604   4.139
 1880SOL     OW 6538   6.704   1.278   4.326
 1880SOL    HW1 6539   6.664   1.356   4.279
 1880SOL    HW2 6540   6.656   1.194   4.299
 1881SOL     OW 6541   5.930   2.020   3.117
 1881SOL    HW1 6542   5.845   2.033   3.065
 1881SOL    HW2 6543   5.990   2.098   3.102
 1882SOL     OW 6544   1.323   3.909   6.157
 1882SOL    HW1 6545   1.327   3.921   6.256
 1882SOL    HW2 6546   1.400   3.956   6.114
 1883SOL     OW 6547   0.321   2.308   3.505
 1883SOL    HW1 6548   0.361   2.343   3.590
 1883SOL    HW2 6549   0.266   2.380   3.462
 1884SOL     OW 6550   6.725   2.493   0.597
 1884SOL    HW1 6551   6.662   2.558   0.640
 1884SOL    HW2 6552   6.673   2.415   0.562
 1885SOL     OW 6553   1.935   2.023   6.723
 1885SOL    HW1 6554   1.989   2.102   6.754
 1885SOL    HW2 6555   1.919   1.962   6.801
 1886SOL     OW 6556   2.111   1.102   1.822
 1886SOL    HW1 6557   2.064   1.043   1.887
 1886SOL    HW2 6558   2.153   1.178   1.871
 1887SOL     OW 6559   1.037   6.204   4.816
 1887SOL    HW1 6560   1.012   6.295   4.850
 1887SOL    HW2 6561   1.137   6.193   4.821
 1888SOL     OW 6562   2.644   1.958   0.400
 1888SOL    HW1 6563   2.654   1.947   0.499
 1888SOL    HW2 6564   2.622   1.870   0.359
 1889SOL     OW 6565   0.734   3.247   5.625
 1889SOL    HW1 6566   0.723   3.148   5.621
 1889SOL    HW2 6567   0.772   3.280   5.539
 1890SOL     OW 6568   1.953   6.181   4.569
 1890SOL    HW1 6569   1.883   6.115   4.597
 1890SOL    HW2 6570   1.952   6.259   4.631
 1891SOL     OW 6571   5.893   2.591   2.094
 1891SOL    HW1 6572   5.798   2.575   2.122
 1891SOL    HW2 6573   5.905   2.562   1.999
 1892SOL     OW 6574   2.540   0.214   2.936
 1892SOL    HW1 6575   2.582   0.305   2.934
 1892SOL    HW2 6576   2.486   0.201   2.853
 1893SOL     OW 6577   2.980   2.922   6.931
 1893SOL    HW1 6578   2.987   2.911   6.832
 1893SOL    HW2 6579   2.904   2.866   6.966
 1894SOL     OW 6580   3.663   4.183   4.062
 1894SOL    HW1 6581   3.593   4.217   3.998
 1894SOL    HW2 6582   3.625   4.183   4.154
 1895SOL     OW 6583   4.641   0.764   1.559
 1895SOL    HW1 6584   4.679   0.671   1.567
 1895SOL    HW2 6585   4.696   0.827   1.614
 1896SOL     OW 6586   5.275   0.460   1.311
 1896SOL    HW1 6587   5.257   0.407   1.229
 1896SOL    HW2 6588   5.276   0.557   1.288
 1897SOL     OW 6589   2.305   5.478   1.416
 1897SOL    HW1 6590   2.225   5.490   1.475
 1897SOL    HW2 6591   2.318   5.381   1.396
 1898SOL     OW 6592   2.369   5.581   3.315
 1898SOL    HW1 6593   2.282   5.562   3.270
 1898SOL    HW2 6594   2.377   5.524   3.397
 1899SOL     OW 6595   0.921   1.148   1.860
 1899SOL    HW1 6596   0.833   1.145   1.814
 1899SOL    HW2 6597   0.936   1.062   1.909
 1900SOL     OW 6598   1.832   0.329   6.401
 1900SOL    HW1 6599   1.870   0.410   6.445
 1900SOL    HW2 6600   1.881   0.310   6.316
 1901SOL     OW 6601   1.504   2.382   1.147
 1901SOL    HW1 6602   1.506   2.295   1.098
 1901SOL    HW2 6603   1.550   2.371   1.235
 1902SOL     OW 6604   2.263   1.052   5.304
 1902SOL    HW1 6605   2.172   1.041   5.345
 1902SOL    HW2 6606   2.332   1.060   5.376
 1903SOL     OW 6607   0.167   3.294   2.739
 1903SOL    HW1 6608   0.073   3.276   2.769
 1903SOL    HW2 6609   0.196   3.223   2.675
 1904SOL     OW 6610   5.393   5.645   3.662
 1904SOL    HW1 6611   5.483   5.642   3.620
 1904SOL    HW2 6612   5.337   5.569   3.629
 1905SOL     OW 6613   1.136   0.184   3.476
 1905SOL    HW1 6614   1.141   0.168   3.574
 1905SOL    HW2 6615   1.205   0.128   3.430
 1906SOL     OW 6616   2.398   7.021   4.801
 1906SOL    HW1 6617   2.486   6.973   4.800
 1906SOL    HW2 6618   2.371   0.015   4.896
 1907SOL     OW 6619   3.562   1.523   1.925
 1907SOL    HW1 6620   3.540   1.530   2.022
 1907SOL    HW2 6621   3.500   1.459   1.881
 1908SOL     OW 6622   3.500   6.910   5.748
 1908SOL    HW1 6623   3.583   6.945   5.791
 1908SOL    HW2 6624   3.450   6.985   5.705
 1909SOL     OW 6625   0.441   3.909   2.863
 1909SOL    HW1 6626   0.412   3.857   2.944
 1909SOL    HW2 6627   0.529   3.874   2.830
 1910SOL     OW 6628   0.256   4.593   6.883
 1910SOL    HW1 6629   0.348   4.555   6.895
 1910SOL    HW2 6630   0.255   4.649   6.800
 1911SOL     OW 6631   0.208   3.747   5.131
 1911SOL    HW1 6632   0.302   3.770   5.108
 1911SOL    HW2 6633   0.207   3.686   5.210
 1912SOL     OW 6634   3.306   5.584   0.362
 1912SOL    HW1 6635   3.282   5.571   0.266
 1912SOL    HW2 6636   3.244   5.529   0.419
 1913SOL     OW 6637   2.641   6.909   4.880
 1913SOL    HW1 6638   2.708   6.938   4.812
 1913SOL    HW2 6639   2.680   6.919   4.972
 1914SOL     OW 6640   3.620   2.809   6.333
 1914SOL    HW1 6641   3.638   2.763   6.246
 1914SOL    HW2 6642   3.610   2.740   6.405
 1915SOL     OW 6643   3.611   2.147   5.349
 1915SOL    HW1 6644   3.655   2.116   5.265
 1915SOL    HW2 6645   3.537   2.209   5.327
 1916SOL     OW 6646   3.816   5.486   1.453
 1916SOL    HW1 6647   3.755   5.534   1.390
 1916SOL    HW2 6648   3.906   5.529   1.451
 1917SOL     OW 6649   2.313   3.080   6.626
 1917SOL    HW1 6650   2.346   3.089   6.531
 1917SOL    HW2 6651   2.345   2.992   6.663
 1918SOL     OW 6652   1.187   1.259   4.908
 1918SOL    HW1 6653   1.120   1.326   4.878
 1918SOL    HW2 6654   1.274   1.305   4.928
 1919SOL     OW 6655   1.739   1.098   1.764
 1919SOL    HW1 6656   1.791   1.061   1.687
 1919SOL    HW2 6657   1.709   1.023   1.823
 1920SOL     OW 6658   0.540   4.208   3.144
 1920SOL    HW1 6659   0.541   4.293   3.197
 1920SOL    HW2 6660   0.584   4.135   3.197
 1921SOL     OW 6661   1.526   3.658   6.530
 1921SOL    HW1 6662   1.578   3.696   6.454
 1921SOL    HW2 6663   1.587   3.608   6.591
 1922SOL     OW 6664   2.655   3.166   1.711
 1922SOL    HW1 6665   2.686   3.195   1.621
 1922SOL    HW2 6666   2.693   3.076   1.731
 1923SOL     OW 6667   4.408   1.244   5.930
 1923SOL    HW1 6668   4.331   1.183   5.910
 1923SOL    HW2 6669   4.427   1.301   5.850
 1924SOL     OW 6670   4.727   6.545   0.382
 1924SOL    HW1 6671   4.699   6.454   0.352
 1924SOL    HW2 6672   4.702   6.612   0.313
 1925SOL     OW 6673   1.973   5.013   0.641
 1925SOL    HW1 6674   1.907   4.938   0.639
 1925SOL    HW2 6675   1.948   5.079   0.711
 1926SOL     OW 6676   2.863   6.855   3.091
 1926SOL    HW1 6677   2.869   6.786   3.019
 1926SOL    HW2 6678   2.777   6.842   3.141
 1927SOL     OW 6679   2.517   4.807   0.355
 1927SOL    HW1 6680   2.580   4.825   0.429
 1927SOL    HW2 6681   2.568   4.792   0.270
 1928SOL     OW 6682   6.001   3.996   4.643
 1928SOL    HW1 6683   5.923   4.030   4.591
 1928SOL    HW2 6684   6.036   4.068   4.702
 1929SOL     OW 6685   2.420   0.456   1.470
 1929SOL    HW1 6686   2.453   0.455   1.375
 1929SOL    HW2 6687   2.320   0.466   1.471
 1930SOL     OW 6688   4.762   3.768   6.460
 1930SOL    HW1 6689   4.671   3.781   6.501
 1930SOL    HW2 6690   4.821   3.845   6.487
 1931SOL     OW 6691   0.987   2.520   1.282
 1931SOL    HW1 6692   0.928   2.454   1.329
 1931SOL    HW2 6693   1.057   2.471   1.230
 1932SOL     OW 6694   4.866   2.412   2.897
 1932SOL    HW1 6695   4.826   2.381   2.811
 1932SOL    HW2 6696   4.930   2.487   2.878
 1933SOL     OW 6697   1.419   3.315   0.552
 1933SOL    HW1 6698   1.374   3.234   0.515
 1933SOL    HW2 6699   1.374   3.397   0.516
 1934SOL     OW 6700   6.949   0.508   4.996
 1934SOL    HW1 6701   6.993   0.584   5.044
 1934SOL    HW2 6702   6.850   0.515   5.006
 1935SOL     OW 6703   4.605   5.037   3.444
 1935SOL    HW1 6704   4.544   5.027   3.524
 1935SOL    HW2 6705   4.700   5.027   3.474
 1936SOL     OW 6706   5.048   4.437   4.029
 1936SOL    HW1 6707   5.140   4.475   4.022
 1936SOL    HW2 6708   4.981   4.508   4.012
 1937SOL     OW 6709   3.896   6.121   0.085
 1937SOL    HW1 6710   3.919   6.058   0.159
 1937SOL    HW2 6711   3.971   6.123   0.019
 1938SOL     OW 6712   1.255   1.645   1.769
 1938SOL    HW1 6713   1.261   1.547   1.790
 1938SOL    HW2 6714   1.298   1.662   1.680
 1939SOL     OW 6715   6.700   6.461   4.298
 1939SOL    HW1 6716   6.778   6.512   4.334
 1939SOL    HW2 6717   6.705   6.366   4.329
 1940SOL     OW 6718   6.347   5.486   0.570
 1940SOL    HW1 6719   6.261   5.520   0.531
 1940SOL    HW2 6720   6.414   5.475   0.496
 1941SOL     OW 6721   1.452   2.644   4.414
 1941SOL    HW1 6722   1.382   2.642   4.485
 1941SOL    HW2 6723   1.530   2.589   4.442
 1942SOL     OW 6724   5.501   2.501   2.423
 1942SOL    HW1 6725   5.577   2.448   2.386
 1942SOL    HW2 6726   5.419   2.486   2.368
 1943SOL     OW 6727   1.868   6.518   3.326
 1943SOL    HW1 6728   1.914   6.566   3.251
 1943SOL    HW2 6729   1.826   6.584   3.387
 1944SOL     OW 6730   5.843   3.976   6.964
 1944SOL    HW1 6731   5.888   4.060   6.994
 1944SOL    HW2 6732   5.847   3.908   0.013
 1945SOL     OW 6733   3.873   5.125   0.104
 1945SOL    HW1 6734   3.849   5.028   0.101
 1945SOL    HW2 6735   3.810   5.172   0.167
 1946SOL     OW 6736   5.503   6.881   0.939
 1946SOL    HW1 6737   5.533   6.899   1.032
 1946SOL    HW2 6738   5.438   6.953   0.911
 1947SOL     OW 6739   5.099   6.440   4.776
 1947SOL    HW1 6740   5.183   6.494   4.773
 1947SOL    HW2 6741   5.030   6.482   4.717
 1948SOL     OW 6742   6.067   5.227   3.056
 1948SOL    HW1 6743   5.980   5.270   3.079
 1948SOL    HW2 6744   6.077   5.225   2.956
 1949SOL     OW 6745   3.701   3.351   6.921
 1949SOL    HW1 6746   3.626   3.394   6.871
 1949SOL    HW2 6747   3.748   3.419   6.977
 1950SOL     OW 6748   3.528   2.956   2.125
 1950SOL    HW1 6749   3.565   3.049   2.135
 1950SOL    HW2 6750   3.535   2.928   2.030
 1951SOL     OW 6751   6.837   4.549   6.702
 1951SOL    HW1 6752   6.780   4.488   6.647
 1951SOL    HW2 6753   6.919   4.501   6.731
 1952SOL     OW 6754   5.606   4.206   1.150
 1952SOL    HW1 6755   5.572   4.113   1.134
 1952SOL    HW2 6756   5.695   4.201   1.196
 1953SOL     OW 6757   6.599   1.899   6.026
 1953SOL    HW1 6758   6.673   1.879   5.962
 1953SOL    HW2 6759   6.566   1.814   6.066
 1954SOL     OW 6760   6.319   0.339   1.167
 1954SOL    HW1 6761   6.338   0.387   1.081
 1954SOL    HW2 6762   6.258   0.395   1.223
 1955SOL     OW 6763   0.534   0.533   2.660
 1955SOL    HW1 6764   0.513   0.614   2.606
 1955SOL    HW2 6765   0.518   0.552   2.757
 1956SOL     OW 6766   4.949   0.498   1.681
 1956SOL    HW1 6767   5.035   0.446   1.683
 1956SOL    HW2 6768   4.908   0.491   1.590
 1957SOL     OW 6769   5.001   4.736   3.896
 1957SOL    HW1 6770   5.082   4.773   3.943
 1957SOL    HW2 6771   4.948   4.811   3.857
 1958SOL     OW 6772   4.727   1.749   1.516
 1958SOL    HW1 6773   4.779   1.784   1.439
 1958SOL    HW2 6774   4.697   1.825   1.574
 1959SOL     OW 6775   0.703   0.027   3.958
 1959SOL    HW1 6776   0.666   6.969   3.915
 1959SOL    HW2 6777   0.725   0.009   4.053
 1960SOL     OW 6778   0.238   3.979   2.645
 1960SOL    HW1 6779   0.294   3.977   2.728
 1960SOL    HW2 6780   0.249   4.068   2.600
 1961SOL     OW 6781   6.264   4.610   4.332
 1961SOL    HW1 6782   6.333   4.658   4.386
 1961SOL    HW2 6783   6.275   4.634   4.236
 1962SOL     OW 6784   1.423   6.808   2.031
 1962SOL    HW1 6785   1.359   6.870   2.077
 1962SOL    HW2 6786   1.410   6.715   2.067
 1963SOL     OW 6787   1.323   1.356   1.775
 1963SOL    HW1 6788   1.232   1.328   1.743
 1963SOL    HW2 6789   1.333   1.329   1.871
 1964SOL     OW 6790   3.986   4.852   1.079
 1964SOL    HW1 6791   4.002   4.855   0.980
 1964SOL    HW2 6792   3.923   4.776   1.100
 1965SOL     OW 6793   2.147   2.257   4.354
 1965SOL    HW1 6794   2.067   2.196   4.349
 1965SOL    HW2 6795   2.173   2.286   4.262
 1966SOL     OW 6796   0.845   6.103   1.495
 1966SOL    HW1 6797   0.824   6.043   1.573
 1966SOL    HW2 6798   0.924   6.067   1.446
 1967SOL     OW 6799   6.157   2.788   4.180
 1967SOL    HW1 6800   6.078   2.820   4.126
 1967SOL    HW2 6801   6.238   2.785   4.121
 1968SOL     OW 6802   1.946   0.229   5.560
 1968SOL    HW1 6803   2.041   0.258   5.547
 1968SOL    HW2 6804   1.885   0.299   5.526
 1969SOL     OW 6805   2.857   1.277   1.468
 1969SOL    HW1 6806   2.916   1.254   1.546
 1969SOL    HW2 6807   2.898   1.353   1.417
 1970SOL     OW 6808   0.951   6.997   5.018
 1970SOL    HW1 6809   0.937   0.042   5.089
 1970SOL    HW2 6810   0.939   0.014   4.928
 1971SOL     OW 6811   0.557   1.064   5.632
 1971SOL    HW1 6812   0.564   0.979   5.578
 1971SOL    HW2 6813   0.494   1.050   5.708
 1972SOL     OW 6814   5.652   2.265   1.291
 1972SOL    HW1 6815   5.687   2.316   1.213
 1972SOL    HW2 6816   5.581   2.201   1.261
 1973SOL     OW 6817   2.583   4.165   1.522
 1973SOL    HW1 6818   2.675   4.195   1.551
 1973SOL    HW2 6819   2.550   4.226   1.450
 1974SOL     OW 6820   5.014   0.239   4.977
 1974SOL    HW1 6821   5.088   0.296   4.941
 1974SOL    HW2 6822   5.027   0.145   4.945
 1975SOL     OW 6823   2.171   2.067   4.031
 1975SOL    HW1 6824   2.267   2.095   4.026
 1975SOL    HW2 6825   2.143   2.025   3.945
 1976SOL     OW 6826   5.796   6.230   0.772
 1976SOL    HW1 6827   5.805   6.244   0.870
 1976SOL    HW2 6828   5.838   6.143   0.746
 1977SOL     OW 6829   1.830   3.205   5.040
 1977SOL    HW1 6830   1.875   3.292   5.019
 1977SOL    HW2 6831   1.881   3.130   4.998
 1978SOL     OW 6832   1.914   6.014   2.899
 1978SOL    HW1 6833   1.917   5.936   2.837
 1978SOL    HW2 6834   1.998   6.017   2.954
 1979SOL     OW 6835   5.585   5.091   0.175
 1979SOL    HW1 6836   5.486   5.106   0.183
 1979SOL    HW2 6837   5.614   5.020   0.239
 1980SOL     OW 6838   4.138   0.085   3.614
 1980SOL    HW1 6839   4.101   7.021   3.645
 1980SOL    HW2 6840   4.189   0.128   3.689
 1981SOL     OW 6841   5.656   2.960   2.841
 1981SOL    HW1 6842   5.575   2.920   2.799
 1981SOL    HW2 6843   5.727   2.889   2.851
 1982SOL     OW 6844   6.842   3.858   3.646
 1982SOL    HW1 6845   6.902   3.935   3.667
 1982SOL    HW2 6846   6.845   3.793   3.722
 1983SOL     OW 6847   2.110   0.824   1.683
 1983SOL    HW1 6848   2.095   0.923   1.688
 1983SOL    HW2 6849   2.175   0.797   1.754
 1984SOL     OW 6850   4.443   2.510   4.944
 1984SOL    HW1 6851   4.368   2.507   5.010
 1984SOL    HW2 6852   4.411   2.555   4.860
 1985SOL     OW 6853   0.264   6.169   2.216
 1985SOL    HW1 6854   0.165   6.173   2.208
 1985SOL    HW2 6855   0.290   6.163   2.312
 1986SOL     OW 6856   2.956   1.034   6.597
 1986SOL    HW1 6857   3.016   1.044   6.518
 1986SOL    HW2 6858   2.879   1.097   6.589
 1987SOL     OW 6859   2.506   1.665   3.510
 1987SOL    HW1 6860   2.504   1.567   3.528
 1987SOL    HW2 6861   2.462   1.714   3.585
 1988SOL     OW 6862   0.070   2.573   0.660
 1988SOL    HW1 6863   0.067   2.479   0.626
 1988SOL    HW2 6864   0.003   2.583   0.734
 1989SOL     OW 6865   2.034   5.515   5.000
 1989SOL    HW1 6866   2.101   5.560   5.059
 1989SOL    HW2 6867   2.011   5.425   5.038
 1990SOL     OW 6868   3.467   5.661   6.972
 1990SOL    HW1 6869   3.460   5.756   7.002
 1990SOL    HW2 6870   3.404   5.604   0.000
 1991SOL     OW 6871   1.601   6.101   0.383
 1991SOL    HW1 6872   1.563   6.064   0.468
 1991SOL    HW2 6873   1.674   6.042   0.350
 1992SOL     OW 6874   0.099   0.747   0.662
 1992SOL    HW1 6875   0.031   0.750   0.588
 1992SOL    HW2 6876   0.130   0.653   0.675
 1993SOL     OW 6877   3.193   1.618   5.661
 1993SOL    HW1 6878   3.096   1.595   5.668
 1993SOL    HW2 6879   3.206   1.688   5.590
 1994SOL     OW 6880   6.038   2.515   1.584
 1994SOL    HW1 6881   6.128   2.545   1.613
 1994SOL    HW2 6882   5.980   2.594   1.567
 1995SOL     OW 6883   5.559   3.319   3.974
 1995SOL    HW1 6884   5.595   3.273   4.055
 1995SOL    HW2 6885   5.612   3.402   3.957
 1996SOL     OW 6886   2.877   1.946   1.022
 1996SOL    HW1 6887   2.805   1.997   1.069
 1996SOL    HW2 6888   2.838   1.864   0.980
 1997SOL     OW 6889   4.027   1.641   3.837
 1997SOL    HW1 6890   4.088   1.720   3.831
 1997SOL    HW2 6891   3.957   1.659   3.907
 1998SOL     OW 6892   1.752   3.896   0.737
 1998SOL    HW1 6893   1.767   3.945   0.651
 1998SOL    HW2 6894   1.769   3.798   0.723
 1999SOL     OW 6895   1.083   0.336   5.738
 1999SOL    HW1 6896   0.988   0.356   5.713
 1999SOL    HW2 6897   1.144   0.386   5.676
 2000SOL     OW 6898   3.699   2.917   5.817
 2000SOL    HW1 6899   3.718   3.015   5.821
 2000SOL    HW2 6900   3.783   2.866   5.834
 2001SOL     OW 6901   2.282   1.442   0.971
 2001SOL    HW1 6902   2.191   1.429   1.011
 2001SOL    HW2 6903   2.285   1.397   0.881
 2002SOL     OW 6904   0.535   4.921   0.871
 2002SOL    HW1 6905   0.483   4.903   0.955
 2002SOL    HW2 6906   0.573   4.835   0.836
 2003SOL     OW 6907   6.610   5.020   2.185
 2003SOL    HW1 6908   6.568   5.101   2.144
 2003SOL    HW2 6909   6.670   4.976   2.118
 2004SOL     OW 6910   4.843   0.858   4.765
 2004SOL    HW1 6911   4.783   0.925   4.808
 2004SOL    HW2 6912   4.828   0.768   4.806
 2005SOL     OW 6913   0.005   4.698   0.375
 2005SOL    HW1 6914   0.104   4.712   0.366
 2005SOL    HW2 6915   7.012   4.602   0.401
 2006SOL     OW 6916   5.690   6.757   3.949
 2006SOL    HW1 6917   5.657   6.676   3.900
 2006SOL    HW2 6918   5.658   6.840   3.902
 2007SOL     OW 6919   5.261   4.512   0.927
 2007SOL    HW1 6920   5.294   4.604   0.948
 2007SOL    HW2 6921   5.332   4.446   0.948
 2008SOL     OW 6922   2.090   3.647   3.398
 2008SOL    HW1 6923   2.105   3.569   3.460
 2008SOL    HW2 6924   1.994   3.652   3.373
 2009SOL     OW 6925   4.984   6.605   2.494
 2009SOL    HW1 6926   4.952   6.559   2.577
 2009SOL    HW2 6927   4.933   6.570   2.415
 2010SOL     OW 6928   2.405   1.722   2.058
 2010SOL    HW1 6929   2.421   1.728   1.960
 2010SOL    HW2 6930   2.309   1.743   2.077
 2011SOL     OW 6931   0.607   1.168   4.950
 2011SOL    HW1 6932   0.695   1.212   4.937
 2011SOL    HW2 6933   0.536   1.238   4.960
 2012SOL     OW 6934   1.613   3.796   2.216
 2012SOL    HW1 6935   1.663   3.714   2.244
 2012SOL    HW2 6936   1.535   3.770   2.158
 2013SOL     OW 6937   6.139   3.280   3.926
 2013SOL    HW1 6938   6.066   3.213   3.914
 2013SOL    HW2 6939   6.205   3.246   3.993
 2014SOL     OW 6940   3.198   0.066   3.237
 2014SOL    HW1 6941   3.158   0.110   3.317
 2014SOL    HW2 6942   3.182   6.992   3.240
 2015SOL     OW 6943   2.565   6.585   0.933
 2015SOL    HW1 6944   2.634   6.512   0.925
 2015SOL    HW2 6945   2.568   6.642   0.852
 2016SOL     OW 6946   1.685   5.824   5.247
 2016SOL    HW1 6947   1.601   5.878   5.237
 2016SOL    HW2 6948   1.678   5.768   5.329
 2017SOL     OW 6949   4.293   0.121   3.089
 2017SOL    HW1 6950   4.234   0.091   3.164
 2017SOL    HW2 6951   4.266   0.073   3.005
 2018SOL     OW 6952   6.312   2.969   3.736
 2018SOL    HW1 6953   6.339   2.883   3.778
 2018SOL    HW2 6954   6.380   3.039   3.756
 2019SOL     OW 6955   5.842   4.372   6.306
 2019SOL    HW1 6956   5.906   4.449   6.293
 2019SOL    HW2 6957   5.764   4.403   6.361
 2020SOL     OW 6958   1.904   6.616   5.910
 2020SOL    HW1 6959   1.993   6.660   5.900
 2020SOL    HW2 6960   1.914   6.529   5.958
 2021SOL     OW 6961   6.441   6.499   4.242
 2021SOL    HW1 6962   6.541   6.491   4.247
 2021SOL    HW2 6963   6.407   6.551   4.320
 2022SOL     OW 6964   1.583   4.597   4.066
 2022SOL    HW1 6965   1.570   4.536   3.988
 2022SOL    HW2 6966   1.614   4.544   4.145
 2023SOL     OW 6967   0.763   0.605   0.047
 2023SOL    HW1 6968   0.862   0.598   0.035
 2023SOL    HW2 6969   0.736   0.701   0.050
 2024SOL     OW 6970   0.091   5.930   3.951
 2024SOL    HW1 6971   0.096   5.832   3.969
 2024SOL    HW2 6972   7.019   5.957   3.943
 2025SOL     OW 6973   3.624   1.130   4.373
 2025SOL    HW1 6974   3.599   1.041   4.410
 2025SOL    HW2 6975   3.548   1.167   4.319
 2026SOL     OW 6976   6.705   2.136   6.590
 2026SOL    HW1 6977   6.643   2.181   6.526
 2026SOL    HW2 6978   6.687   2.171   6.683
 2027SOL     OW 6979   1.251   0.144   1.449
 2027SOL    HW1 6980   1.333   0.119   1.500
 2027SOL    HW2 6981   1.217   0.232   1.482
 2028SOL     OW 6982   3.338   5.436   3.811
 2028SOL    HW1 6983   3.244   5.430   3.844
 2028SOL    HW2 6984   3.382   5.518   3.849
 2029SOL     OW 6985   6.581   2.427   6.824
 2029SOL    HW1 6986   6.562   2.346   6.878
 2029SOL    HW2 6987   6.499   2.484   6.818
 2030SOL     OW 6988   3.347   0.248   2.870
 2030SOL    HW1 6989   3.386   0.207   2.953
 2030SOL    HW2 6990   3.290   0.180   2.824
 2031SOL     OW 6991   0.126   6.552   2.595
 2031SOL    HW1 6992   0.198   6.614   2.565
 2031SOL    HW2 6993   0.065   6.600   2.658
 2032SOL     OW 6994   3.371   1.425   1.745
 2032SOL    HW1 6995   3.383   1.517   1.706
 2032SOL    HW2 6996   3.311   1.372   1.686
 2033SOL     OW 6997   2.278   1.118   0.866
 2033SOL    HW1 6998   2.208   1.048   0.876
 2033SOL    HW2 6999   2.290   1.167   0.953
 2034SOL     OW 7000   1.530   4.959   5.901
 2034SOL    HW1 7001   1.512   4.870   5.944
 2034SOL    HW2 7002   1.620   4.991   5.929
 2035SOL     OW 7003   6.558   6.391   2.628
 2035SOL    HW1 7004   6.585   6.346   2.713
 2035SOL    HW2 7005   6.624   6.463   2.606
 2036SOL     OW 7006   1.170   3.718   3.183
 2036SOL    HW1 7007   1.238   3.755   3.120
 2036SOL    HW2 7008   1.108   3.658   3.133
 2037SOL     OW 7009   6.027   2.669   6.251
 2037SOL    HW1 7010   6.025   2.756   6.202
 2037SOL    HW2 7011   6.092   2.674   6.327
 2038SOL     OW 7012   2.656   1.564   0.556
 2038SOL    HW1 7013   2.694   1.647   0.597
 2038SOL    HW2 7014   2.675   1.485   0.615
 2039SOL     OW 7015   0.242   6.661   3.194
 2039SOL    HW1 7016   0.248   6.571   3.237
 2039SOL    HW2 7017   0.318   6.673   3.130
 2040SOL     OW 7018   2.376   2.081   0.183
 2040SOL    HW1 7019   2.290   2.052   0.226
 2040SOL    HW2 7020   2.445   2.099   0.254
 2041SOL     OW 7021   1.383   0.312   5.235
 2041SOL    HW1 7022   1.420   0.301   5.327
 2041SOL    HW2 7023   1.332   0.230   5.209
 2042SOL     OW 7024   5.116   0.271   5.871
 2042SOL    HW1 7025   5.037   0.215   5.844
 2042SOL    HW2 7026   5.145   0.327   5.793
 2043SOL     OW 7027   6.296   2.902   2.986
 2043SOL    HW1 7028   6.323   2.819   3.034
 2043SOL    HW2 7029   6.275   2.880   2.890
 2044SOL     OW 7030   6.081   0.661   0.755
 2044SOL    HW1 7031   6.064   0.605   0.836
 2044SOL    HW2 7032   5.996   0.705   0.726
 2045SOL     OW 7033   1.030   5.342   4.781
 2045SOL    HW1 7034   0.970   5.413   4.818
 2045SOL    HW2 7035   1.101   5.384   4.725
 2046SOL     OW 7036   6.089   2.098   5.356
 2046SOL    HW1 7037   5.996   2.064   5.343
 2046SOL    HW2 7038   6.137   2.098   5.268
 2047SOL     OW 7039   6.350   3.052   1.212
 2047SOL    HW1 7040   6.287   3.129   1.204
 2047SOL    HW2 7041   6.312   2.972   1.166
 2048SOL     OW 7042   0.310   0.474   4.950
 2048SOL    HW1 7043   0.216   0.474   4.986
 2048SOL    HW2 7044   0.308   0.453   4.852
 2049SOL     OW 7045   5.509   1.470   4.022
 2049SOL    HW1 7046   5.491   1.385   3.973
 2049SOL    HW2 7047   5.465   1.467   4.111
 2050SOL     OW 7048   6.939   2.708   4.531
 2050SOL    HW1 7049   6.991   2.629   4.497
 2050SOL    HW2 7050   6.843   2.683   4.539
 2051SOL     OW 7051   1.828   6.354   6.952
 2051SOL    HW1 7052   1.924   6.329   6.941
 2051SOL    HW2 7053   1.779   6.278   6.996
 2052SOL     OW 7054   1.486   2.976   0.713
 2052SOL    HW1 7055   1.532   2.984   0.802
 2052SOL    HW2 7056   1.499   3.061   0.662
 2053SOL     OW 7057   1.044   5.320   5.348
 2053SOL    HW1 7058   0.953   5.286   5.327
 2053SOL    HW2 7059   1.047   5.419   5.330
 2054SOL     OW 7060   3.145   3.953   2.940
 2054SOL    HW1 7061   3.069   3.894   2.915
 2054SOL    HW2 7062   3.130   3.992   3.031
 2055SOL     OW 7063   6.316   3.035   4.901
 2055SOL    HW1 7064   6.414   3.021   4.888
 2055SOL    HW2 7065   6.269   3.026   4.813
 2056SOL     OW 7066   4.148   4.712   1.367
 2056SOL    HW1 7067   4.099   4.789   1.326
 2056SOL    HW2 7068   4.086   4.633   1.374
 2057SOL     OW 7069   4.850   3.662   5.382
 2057SOL    HW1 7070   4.783   3.660   5.307
 2057SOL    HW2 7071   4.865   3.756   5.411
 2058SOL     OW 7072   0.893   6.359   2.202
 2058SOL    HW1 7073   0.900   6.360   2.103
 2058SOL    HW2 7074   0.807   6.314   2.229
 2059SOL     OW 7075   2.491   6.872   6.201
 2059SOL    HW1 7076   2.450   6.921   6.125
 2059SOL    HW2 7077   2.420   6.845   6.266
 2060SOL     OW 7078   0.118   3.978   1.897
 2060SOL    HW1 7079   0.142   3.881   1.903
 2060SOL    HW2 7080   0.087   3.999   1.804
 2061SOL     OW 7081   1.945   2.236   2.530
 2061SOL    HW1 7082   1.892   2.318   2.549
 2061SOL    HW2 7083   1.982   2.240   2.437
 2062SOL     OW 7084   6.854   5.782   5.211
 2062SOL    HW1 7085   6.929   5.716   5.218
 2062SOL    HW2 7086   6.774   5.737   5.170
 2063SOL     OW 7087   1.301   6.460   4.949
 2063SOL    HW1 7088   1.344   6.387   5.002
 2063SOL    HW2 7089   1.292   6.430   4.854
 2064SOL     OW 7090   0.264   3.111   4.434
 2064SOL    HW1 7091   0.277   3.016   4.464
 2064SOL    HW2 7092   0.205   3.112   4.354
 2065SOL     OW 7093   5.674   3.090   6.064
 2065SOL    HW1 7094   5.583   3.118   6.034
 2065SOL    HW2 7095   5.704   3.148   6.140
 2066SOL     OW 7096   6.347   4.200   5.685
 2066SOL    HW1 7097   6.428   4.162   5.641
 2066SOL    HW2 7098   6.351   4.184   5.783
 2067SOL     OW 7099   6.398   5.406   0.840
 2067SOL    HW1 7100   6.366   5.447   0.754
 2067SOL    HW2 7101   6.377   5.309   0.841
 2068SOL     OW 7102   3.969   0.615   4.264
 2068SOL    HW1 7103   4.009   0.696   4.220
 2068SOL    HW2 7104   4.037   0.542   4.265
 2069SOL     OW 7105   0.301   2.358   4.051
 2069SOL    HW1 7106   0.354   2.340   3.968
 2069SOL    HW2 7107   0.239   2.282   4.068
 2070SOL     OW 7108   1.165   2.631   0.869
 2070SOL    HW1 7109   1.149   2.551   0.811
 2070SOL    HW2 7110   1.217   2.699   0.817
 2071SOL     OW 7111   5.933   1.588   6.134
 2071SOL    HW1 7112   6.023   1.564   6.097
 2071SOL    HW2 7113   5.932   1.684   6.160
 2072SOL     OW 7114   4.481   5.028   4.811
 2072SOL    HW1 7115   4.418   4.964   4.768
 2072SOL    HW2 7116   4.429   5.104   4.851
 2073SOL     OW 7117   3.537   6.177   5.429
 2073SOL    HW1 7118   3.555   6.093   5.378
 2073SOL    HW2 7119   3.614   6.195   5.490
 2074SOL     OW 7120   1.906   2.365   6.638
 2074SOL    HW1 7121   1.854   2.447   6.661
 2074SOL    HW2 7122   1.949   2.329   6.721
 2075SOL     OW 7123   6.686   2.268   3.008
 2075SOL    HW1 7124   6.660   2.269   3.104
 2075SOL    HW2 7125   6.690   2.362   2.974
 2076SOL     OW 7126   5.676   0.681   5.560
 2076SOL    HW1 7127   5.679   0.760   5.621
 2076SOL    HW2 7128   5.676   0.597   5.613
 2077SOL     OW 7129   6.576   2.188   1.820
 2077SOL    HW1 7130   6.568   2.089   1.824
 2077SOL    HW2 7131   6.666   2.216   1.852
 2078SOL     OW 7132   1.285   4.651   6.244
 2078SOL    HW1 7133   1.227   4.732   6.254
 2078SOL    HW2 7134   1.293   4.604   6.332
 2079SOL     OW 7135   6.203   1.123   2.770
 2079SOL    HW1 7136   6.257   1.056   2.719
 2079SOL    HW2 7137   6.223   1.215   2.736
 2080SOL     OW 7138   3.639   1.777   5.059
 2080SOL    HW1 7139   3.566   1.827   5.013
 2080SOL    HW2 7140   3.614   1.680   5.066
 2081SOL     OW 7141   0.898   6.794   3.973
 2081SOL    HW1 7142   0.975   6.744   4.013
 2081SOL    HW2 7143   0.833   6.817   4.046
 2082SOL     OW 7144   0.707   6.520   3.035
 2082SOL    HW1 7145   0.718   6.571   3.120
 2082SOL    HW2 7146   0.634   6.453   3.045
 2083SOL     OW 7147   1.401   6.126   4.479
 2083SOL    HW1 7148   1.446   6.149   4.393
 2083SOL    HW2 7149   1.302   6.122   4.465
 2084SOL     OW 7150   0.600   2.991   1.683
 2084SOL    HW1 7151   0.624   3.070   1.628
 2084SOL    HW2 7152   0.630   3.005   1.778
 2085SOL     OW 7153   4.787   6.505   0.917
 2085SOL    HW1 7154   4.884   6.526   0.929
 2085SOL    HW2 7155   4.762   6.519   0.821
 2086SOL     OW 7156   3.773   5.989   6.888
 2086SOL    HW1 7157   3.793   6.029   6.978
 2086SOL    HW2 7158   3.801   5.893   6.887
 2087SOL     OW 7159   4.543   1.944   0.141
 2087SOL    HW1 7160   4.528   2.030   0.092
 2087SOL    HW2 7161   4.614   1.891   0.095
 2088SOL     OW 7162   1.005   6.009   5.802
 2088SOL    HW1 7163   1.059   5.971   5.727
 2088SOL    HW2 7164   1.041   5.976   5.889
 2089SOL     OW 7165   4.227   2.179   5.158
 2089SOL    HW1 7166   4.205   2.267   5.116
 2089SOL    HW2 7167   4.318   2.150   5.127
 2090SOL     OW 7168   5.006   2.954   5.608
 2090SOL    HW1 7169   4.981   2.857   5.619
 2090SOL    HW2 7170   4.924   3.007   5.589
 2091SOL     OW 7171   6.616   6.143   0.688
 2091SOL    HW1 7172   6.704   6.189   0.679
 2091SOL    HW2 7173   6.600   6.120   0.784
 2092SOL     OW 7174   5.595   3.944   1.095
 2092SOL    HW1 7175   5.666   3.875   1.106
 2092SOL    HW2 7176   5.507   3.908   1.125
 2093SOL     OW 7177   3.658   1.821   2.134
 2093SOL    HW1 7178   3.607   1.902   2.162
 2093SOL    HW2 7179   3.665   1.758   2.212
 2094SOL     OW 7180   5.267   2.203   0.801
 2094SOL    HW1 7181   5.323   2.281   0.829
 2094SOL    HW2 7182   5.174   2.215   0.834
 2095SOL     OW 7183   5.925   6.306   3.552
 2095SOL    HW1 7184   5.998   6.278   3.616
 2095SOL    HW2 7185   5.876   6.225   3.521
 2096SOL     OW 7186   4.522   5.643   2.743
 2096SOL    HW1 7187   4.584   5.646   2.664
 2096SOL    HW2 7188   4.433   5.680   2.717
 2097SOL     OW 7189   2.794   3.213   6.999
 2097SOL    HW1 7190   2.850   3.281   0.022
 2097SOL    HW2 7191   2.849   3.164   6.932
 2098SOL     OW 7192   4.066   5.739   3.209
 2098SOL    HW1 7193   4.113   5.795   3.277
 2098SOL    HW2 7194   3.968   5.757   3.214
 2099SOL     OW 7195   4.281   1.516   6.675
 2099SOL    HW1 7196   4.184   1.531   6.696
 2099SOL    HW2 7197   4.301   1.556   6.585
 2100SOL     OW 7198   4.945   1.696   0.357
 2100SOL    HW1 7199   5.009   1.736   0.422
 2100SOL    HW2 7200   4.883   1.633   0.405
 2101SOL     OW 7201   6.785   6.585   1.166
 2101SOL    HW1 7202   6.885   6.584   1.159
 2101SOL    HW2 7203   6.757   6.661   1.225
 2102SOL     OW 7204   4.767   3.437   1.412
 2102SOL    HW1 7205   4.769   3.349   1.364
 2102SOL    HW2 7206   4.689   3.491   1.380
 2103SOL     OW 7207   3.249   3.601   0.519
 2103SOL    HW1 7208   3.271   3.515   0.564
 2103SOL    HW2 7209   3.153   3.623   0.536
 2104SOL     OW 7210   1.506   4.757   1.846
 2104SOL    HW1 7211   1.459   4.758   1.759
 2104SOL    HW2 7212   1.508   4.664   1.883
 2105SOL     OW 7213   3.978   4.750   6.579
 2105SOL    HW1 7214   4.030   4.799   6.649
 2105SOL    HW2 7215   4.041   4.701   6.519
 2106SOL     OW 7216   5.132   3.638   1.022
 2106SOL    HW1 7217   5.042   3.658   0.982
 2106SOL    HW2 7218   5.119   3.582   1.104
 2107SOL     OW 7219   6.146   2.986   5.527
 2107SOL    HW1 7220   6.211   2.929   5.577
 2107SOL    HW2 7221   6.053   2.965   5.557
 2108SOL     OW 7222   5.540   6.334   5.608
 2108SOL    HW1 7223   5.555   6.294   5.698
 2108SOL    HW2 7224   5.446   6.317   5.579
 2109SOL     OW 7225   3.225   5.960   1.949
 2109SOL    HW1 7226   3.189   5.889   1.889
 2109SOL    HW2 7227   3.185   5.952   2.040
 2110SOL     OW 7228   3.663   0.620   5.766
 2110SOL    HW1 7229   3.615   0.694   5.813
 2110SOL    HW2 7230   3.598   0.549   5.741
 2111SOL     OW 7231   1.323   2.157   5.076
 2111SOL    HW1 7232   1.402   2.098   5.056
 2111SOL    HW2 7233   1.293   2.141   5.170
 2112SOL     OW 7234   5.687   2.345   6.662
 2112SOL    HW1 7235   5.703   2.317   6.567
 2112SOL    HW2 7236   5.590   2.363   6.676
 2113SOL     OW 7237   2.177   0.286   4.780
 2113SOL    HW1 7238   2.248   0.242   4.725
 2113SOL    HW2 7239   2.095   0.297   4.725
 2114SOL     OW 7240   2.071   2.808   6.700
 2114SOL    HW1 7241   2.166   2.837   6.693
 2114SOL    HW2 7242   2.014   2.886   6.729
 2115SOL     OW 7243   1.190   4.588   1.872
 2115SOL    HW1 7244   1.126   4.512   1.876
 2115SOL    HW2 7245   1.284   4.553   1.880
 2116SOL     OW 7246   0.976   2.948   1.211
 2116SOL    HW1 7247   0.936   2.867   1.170
 2116SOL    HW2 7248   1.072   2.956   1.184
 2117SOL     OW 7249   5.341   3.121   1.785
 2117SOL    HW1 7250   5.277   3.089   1.855
 2117SOL    HW2 7251   5.377   3.044   1.734
 2118SOL     OW 7252   5.972   3.973   2.633
 2118SOL    HW1 7253   6.056   3.921   2.617
 2118SOL    HW2 7254   5.895   3.930   2.586
 2119SOL     OW 7255   1.701   1.502   0.430
 2119SOL    HW1 7256   1.627   1.568   0.424
 2119SOL    HW2 7257   1.779   1.543   0.478
 2120SOL     OW 7258   6.728   2.717   2.597
 2120SOL    HW1 7259   6.664   2.713   2.520
 2120SOL    HW2 7260   6.750   2.624   2.627
 2121SOL     OW 7261   2.228   2.290   6.334
 2121SOL    HW1 7262   2.203   2.324   6.425
 2121SOL    HW2 7263   2.246   2.368   6.274
 2122SOL     OW 7264   5.922   6.902   6.154
 2122SOL    HW1 7265   6.010   6.935   6.189
 2122SOL    HW2 7266   5.938   6.833   6.084
 2123SOL     OW 7267   6.553   6.014   2.233
 2123SOL    HW1 7268   6.496   6.072   2.290
 2123SOL    HW2 7269   6.618   6.070   2.182
 2124SOL     OW 7270   2.989   1.364   5.605
 2124SOL    HW1 7271   2.973   1.444   5.548
 2124SOL    HW2 7272   2.901   1.329   5.638
 2125SOL     OW 7273   1.625   5.905   2.522
 2125SOL    HW1 7274   1.620   5.978   2.590
 2125SOL    HW2 7275   1.650   5.943   2.433
 2126SOL     OW 7276   4.178   2.805   6.763
 2126SOL    HW1 7277   4.111   2.808   6.688
 2126SOL    HW2 7278   4.130   2.815   6.851
 2127SOL     OW 7279   0.568   1.813   5.624
 2127SOL    HW1 7280   0.662   1.779   5.615
 2127SOL    HW2 7281   0.536   1.844   5.535
 2128SOL     OW 7282   6.285   3.044   0.480
 2128SOL    HW1 7283   6.232   2.969   0.520
 2128SOL    HW2 7284   6.236   3.130   0.492
 2129SOL     OW 7285   5.328   4.476   4.041
 2129SOL    HW1 7286   5.408   4.518   4.084
 2129SOL    HW2 7287   5.312   4.386   4.080
 2130SOL     OW 7288   2.420   1.604   1.148
 2130SOL    HW1 7289   2.370   1.543   1.087
 2130SOL    HW2 7290   2.496   1.554   1.190
 2131SOL     OW 7291   4.933   2.236   0.392
 2131SOL    HW1 7292   4.845   2.192   0.376
 2131SOL    HW2 7293   4.996   2.171   0.434
 2132SOL     OW 7294   3.604   1.572   6.818
 2132SOL    HW1 7295   3.593   1.511   6.897
 2132SOL    HW2 7296   3.550   1.655   6.833
 2133SOL     OW 7297   2.679   2.065   1.156
 2133SOL    HW1 7298   2.684   2.104   1.248
 2133SOL    HW2 7299   2.598   2.007   1.148
 2134SOL     OW 7300   1.363   0.962   4.549
 2134SOL    HW1 7301   1.455   0.979   4.584
 2134SOL    HW2 7302   1.346   0.864   4.544
 2135SOL     OW 7303   0.338   2.019   4.482
 2135SOL    HW1 7304   0.381   1.991   4.396
 2135SOL    HW2 7305   0.239   2.016   4.472
 2136SOL     OW 7306   1.112   3.859   4.938
 2136SOL    HW1 7307   1.180   3.928   4.912
 2136SOL    HW2 7308   1.071   3.885   5.026
 2137SOL     OW 7309   0.903   6.708   5.009
 2137SOL    HW1 7310   0.943   6.799   5.021
 2137SOL    HW2 7311   0.809   6.718   4.977
 2138SOL     OW 7312   5.432   2.879   1.681
 2138SOL    HW1 7313   5.498   2.821   1.729
 2138SOL    HW2 7314   5.371   2.822   1.627
 2139SOL     OW 7315   4.039   0.916   3.363
 2139SOL    HW1 7316   3.939   0.923   3.370
 2139SOL    HW2 7317   4.076   1.002   3.329
 2140SOL     OW 7318   2.818   6.171   2.945
 2140SOL    HW1 7319   2.898   6.111   2.948
 2140SOL    HW2 7320   2.817   6.221   2.858
 2141SOL     OW 7321   6.465   3.309   1.530
 2141SOL    HW1 7322   6.444   3.405   1.547
 2141SOL    HW2 7323   6.549   3.304   1.475
 2142SOL     OW 7324   1.188   2.292   3.104
 2142SOL    HW1 7325   1.101   2.262   3.065
 2142SOL    HW2 7326   1.217   2.377   3.059
 2143SOL     OW 7327   3.666   5.865   0.675
 2143SOL    HW1 7328   3.692   5.962   0.675
 2143SOL    HW2 7329   3.625   5.841   0.588
 2144SOL     OW 7330   1.710   0.575   3.138
 2144SOL    HW1 7331   1.689   0.672   3.142
 2144SOL    HW2 7332   1.769   0.556   3.059
 2145SOL     OW 7333   3.750   5.596   4.232
 2145SOL    HW1 7334   3.784   5.626   4.142
 2145SOL    HW2 7335   3.708   5.506   4.223
 2146SOL     OW 7336   3.277   4.047   2.739
 2146SOL    HW1 7337   3.220   4.057   2.658
 2146SOL    HW2 7338   3.221   4.016   2.816
 2147SOL     OW 7339   0.318   1.250   6.902
 2147SOL    HW1 7340   0.219   1.259   6.901
 2147SOL    HW2 7341   0.359   1.336   6.933
 2148SOL     OW 7342   5.026   3.101   4.427
 2148SOL    HW1 7343   4.969   3.179   4.397
 2148SOL    HW2 7344   5.061   3.054   4.346
 2149SOL     OW 7345   4.073   0.312   1.990
 2149SOL    HW1 7346   4.157   0.265   2.019
 2149SOL    HW2 7347   4.014   0.247   1.942
 2150SOL     OW 7348   3.197   2.089   2.602
 2150SOL    HW1 7349   3.110   2.125   2.567
 2150SOL    HW2 7350   3.196   2.090   2.702
 2151SOL     OW 7351   2.878   1.896   5.118
 2151SOL    HW1 7352   2.807   1.826   5.114
 2151SOL    HW2 7353   2.861   1.957   5.195
 2152SOL     OW 7354   4.995   6.494   1.918
 2152SOL    HW1 7355   5.076   6.478   1.861
 2152SOL    HW2 7356   5.024   6.519   2.011
 2153SOL     OW 7357   4.305   0.926   3.983
 2153SOL    HW1 7358   4.365   0.850   4.011
 2153SOL    HW2 7359   4.349   0.977   3.909
 2154SOL     OW 7360   3.302   5.920   4.714
 2154SOL    HW1 7361   3.244   5.989   4.756
 2154SOL    HW2 7362   3.392   5.922   4.757
 2155SOL     OW 7363   1.984   5.069   6.988
 2155SOL    HW1 7364   2.061   5.033   6.935
 2155SOL    HW2 7365   1.901   5.067   6.932
 2156SOL     OW 7366   2.933   0.019   1.864
 2156SOL    HW1 7367   2.987   0.002   1.782
 2156SOL    HW2 7368   2.964   0.104   1.908
 2157SOL     OW 7369   6.298   1.064   4.309
 2157SOL    HW1 7370   6.372   0.997   4.319
 2157SOL    HW2 7371   6.290   1.116   4.394
 2158SOL     OW 7372   3.172   6.424   0.279
 2158SOL    HW1 7373   3.137   6.498   0.336
 2158SOL    HW2 7374   3.098   6.361   0.256
 2159SOL     OW 7375   1.281   6.113   5.264
 2159SOL    HW1 7376   1.334   6.030   5.247
 2159SOL    HW2 7377   1.186   6.098   5.237
 2160SOL     OW 7378   4.274   3.831   1.552
 2160SOL    HW1 7379   4.221   3.897   1.606
 2160SOL    HW2 7380   4.313   3.876   1.472
 2161SOL     OW 7381   4.956   3.524   3.700
 2161SOL    HW1 7382   5.048   3.551   3.672
 2161SOL    HW2 7383   4.893   3.538   3.623
 2162SOL     OW 7384   1.820   0.728   0.418
 2162SOL    HW1 7385   1.857   0.783   0.343
 2162SOL    HW2 7386   1.887   0.723   0.492
 2163SOL     OW 7387   0.603   6.154   6.496
 2163SOL    HW1 7388   0.617   6.164   6.595
 2163SOL    HW2 7389   0.506   6.142   6.477
 2164SOL     OW 7390   1.746   1.023   6.502
 2164SOL    HW1 7391   1.762   1.097   6.436
 2164SOL    HW2 7392   1.656   1.034   6.543
 2165SOL     OW 7393   1.856   1.340   2.123
 2165SOL    HW1 7394   1.941   1.374   2.083
 2165SOL    HW2 7395   1.867   1.330   2.222
 2166SOL     OW 7396   2.085   2.284   5.882
 2166SOL    HW1 7397   2.144   2.365   5.881
 2166SOL    HW2 7398   2.041   2.274   5.793
 2167SOL     OW 7399   2.926   0.067   2.353
 2167SOL    HW1 7400   2.941   0.052   2.451
 2167SOL    HW2 7401   2.902   7.005   2.309
 2168SOL     OW 7402   6.346   2.773   5.133
 2168SOL    HW1 7403   6.281   2.848   5.145
 2168SOL    HW2 7404   6.433   2.810   5.100
 2169SOL     OW 7405   5.269   2.450   5.890
 2169SOL    HW1 7406   5.246   2.353   5.894
 2169SOL    HW2 7407   5.273   2.479   5.794
 2170SOL     OW 7408   5.598   4.370   5.071
 2170SOL    HW1 7409   5.677   4.310   5.085
 2170SOL    HW2 7410   5.631   4.465   5.061
 2171SOL     OW 7411   6.497   2.347   0.117
 2171SOL    HW1 7412   6.436   2.421   0.141
 2171SOL    HW2 7413   6.507   2.284   0.194
 2172SOL     OW 7414   3.491   1.237   0.613
 2172SOL    HW1 7415   3.392   1.237   0.624
 2172SOL    HW2 7416   3.514   1.281   0.525
 2173SOL     OW 7417   3.920   0.431   5.604
 2173SOL    HW1 7418   3.916   0.379   5.690
 2173SOL    HW2 7419   3.827   0.443   5.569
 2174SOL     OW 7420   6.246   4.299   5.963
 2174SOL    HW1 7421   6.291   4.343   6.040
 2174SOL    HW2 7422   6.149   4.287   5.983
 2175SOL     OW 7423   3.207   1.376   3.082
 2175SOL    HW1 7424   3.248   1.441   3.017
 2175SOL    HW2 7425   3.150   1.426   3.148
 2176SOL     OW 7426   1.128   2.069   1.813
 2176SOL    HW1 7427   1.178   2.035   1.733
 2176SOL    HW2 7428   1.151   2.014   1.893
 2177SOL     OW 7429   6.568   0.571   2.302
 2177SOL    HW1 7430   6.596   0.494   2.360
 2177SOL    HW2 7431   6.472   0.561   2.277
 2178SOL     OW 7432   1.068   3.999   0.552
 2178SOL    HW1 7433   1.010   3.934   0.601
 2178SOL    HW2 7434   1.109   4.064   0.616
 2179SOL     OW 7435   2.099   5.601   4.158
 2179SOL    HW1 7436   2.091   5.520   4.216
 2179SOL    HW2 7437   2.165   5.584   4.085
 2180SOL     OW 7438   2.923   3.448   2.697
 2180SOL    HW1 7439   2.890   3.452   2.791
 2180SOL    HW2 7440   2.881   3.522   2.644
 2181SOL     OW 7441   4.493   4.299   5.838
 2181SOL    HW1 7442   4.484   4.206   5.801
 2181SOL    HW2 7443   4.427   4.313   5.912
 2182SOL     OW 7444   0.198   3.657   6.413
 2182SOL    HW1 7445   0.183   3.729   6.345
 2182SOL    HW2 7446   0.161   3.571   6.378
 2183SOL     OW 7447   3.605   2.762   0.559
 2183SOL    HW1 7448   3.701   2.787   0.543
 2183SOL    HW2 7449   3.559   2.749   0.471
 2184SOL     OW 7450   3.929   0.346   5.872
 2184SOL    HW1 7451   3.905   0.420   5.935
 2184SOL    HW2 7452   3.989   0.281   5.917
 2185SOL     OW 7453   1.709   1.917   1.124
 2185SOL    HW1 7454   1.639   1.930   1.194
 2185SOL    HW2 7455   1.766   1.999   1.117
 2186SOL     OW 7456   6.853   4.412   2.301
 2186SOL    HW1 7457   6.782   4.471   2.339
 2186SOL    HW2 7458   6.901   4.460   2.228
 2187SOL     OW 7459   0.726   1.095   1.677
 2187SOL    HW1 7460   0.641   1.076   1.726
 2187SOL    HW2 7461   0.739   1.029   1.604
 2188SOL     OW 7462   4.659   6.080   3.949
 2188SOL    HW1 7463   4.674   6.073   3.850
 2188SOL    HW2 7464   4.675   5.991   3.992
 2189SOL     OW 7465   1.138   6.967   5.955
 2189SOL    HW1 7466   1.050   6.924   5.938
 2189SOL    HW2 7467   1.125   0.039   5.980
 2190SOL     OW 7468   5.843   3.152   1.696
 2190SOL    HW1 7469   5.910   3.089   1.736
 2190SOL    HW2 7470   5.772   3.173   1.764
 2191SOL     OW 7471   3.280   1.870   6.066
 2191SOL    HW1 7472   3.198   1.909   6.024
 2191SOL    HW2 7473   3.267   1.861   6.164
 2192SOL     OW 7474   4.333   6.699   5.204
 2192SOL    HW1 7475   4.416   6.748   5.229
 2192SOL    HW2 7476   4.348   6.601   5.214
 2193SOL     OW 7477   0.080   5.189   6.109
 2193SOL    HW1 7478   0.006   5.127   6.079
 2193SOL    HW2 7479   0.152   5.189   6.040
 2194SOL     OW 7480   1.867   5.831   0.537
 2194SOL    HW1 7481   1.848   5.851   0.441
 2194SOL    HW2 7482   1.781   5.806   0.584
 2195SOL     OW 7483   0.248   6.766   2.083
 2195SOL    HW1 7484   0.267   6.835   2.014
 2195SOL    HW2 7485   0.283   6.677   2.051
 2196SOL     OW 7486   2.579   0.349   5.550
 2196SOL    HW1 7487   2.614   0.440   5.530
 2196SOL    HW2 7488   2.546   0.346   5.645
 2197SOL     OW 7489   4.960   3.926   1.504
 2197SOL    HW1 7490   4.898   3.865   1.553
 2197SOL    HW2 7491   5.028   3.962   1.568
 2198SOL     OW 7492   0.015   3.614   6.861
 2198SOL    HW1 7493   0.012   3.587   6.764
 2198SOL    HW2 7494   0.049   3.538   6.916
 2199SOL     OW 7495   5.319   0.051   0.868
 2199SOL    HW1 7496   5.227   0.021   0.840
 2199SOL    HW2 7497   5.325   0.150   0.860
 2200SOL     OW 7498   4.128   0.507   4.603
 2200SOL    HW1 7499   4.166   0.591   4.563
 2200SOL    HW2 7500   4.116   0.520   4.702
 2201SOL     OW 7501   5.741   3.761   2.280
 2201SOL    HW1 7502   5.770   3.685   2.222
 2201SOL    HW2 7503   5.643   3.776   2.268
 2202SOL     OW 7504   3.342   4.921   4.145
 2202SOL    HW1 7505   3.343   5.021   4.145
 2202SOL    HW2 7506   3.270   4.888   4.206
 2203SOL     OW 7507   3.290   2.064   2.965
 2203SOL    HW1 7508   3.210   2.121   2.980
 2203SOL    HW2 7509   3.371   2.121   2.952
 2204SOL     OW 7510   3.910   1.066   6.698
 2204SOL    HW1 7511   3.811   1.075   6.711
 2204SOL    HW2 7512   3.953   1.043   6.785
 2205SOL     OW 7513   1.667   0.973   6.887
 2205SOL    HW1 7514   1.661   0.884   6.931
 2205SOL    HW2 7515   1.750   0.979   6.833
 2206SOL     OW 7516   3.331   3.666   5.647
 2206SOL    HW1 7517   3.289   3.686   5.558
 2206SOL    HW2 7518   3.419   3.621   5.633
 2207SOL     OW 7519   0.825   4.276   6.479
 2207SOL    HW1 7520   0.804   4.285   6.382
 2207SOL    HW2 7521   0.742   4.256   6.531
 2208SOL     OW 7522   1.605   4.256   2.296
 2208SOL    HW1 7523   1.683   4.318   2.298
 2208SOL    HW2 7524   1.534   4.293   2.236
 2209SOL     OW 7525   1.603   5.825   6.152
 2209SOL    HW1 7526   1.620   5.747   6.092
 2209SOL    HW2 7527   1.674   5.893   6.140
 2210SOL     OW 7528   0.811   5.174   2.876
 2210SOL    HW1 7529   0.786   5.268   2.894
 2210SOL    HW2 7530   0.911   5.166   2.872
 2211SOL     OW 7531   6.238   1.575   5.431
 2211SOL    HW1 7532   6.146   1.612   5.416
 2211SOL    HW2 7533   6.276   1.545   5.343
 2212SOL     OW 7534   0.354   6.109   6.339
 2212SOL    HW1 7535   0.417   6.062   6.279
 2212SOL    HW2 7536   0.350   6.206   6.313
 2213SOL     OW 7537   4.356   2.394   4.317
 2213SOL    HW1 7538   4.341   2.337   4.236
 2213SOL    HW2 7539   4.305   2.357   4.394
 2214SOL     OW 7540   4.619   0.476   5.632
 2214SOL    HW1 7541   4.540   0.517   5.588
 2214SOL    HW2 7542   4.702   0.526   5.607
 2215SOL     OW 7543   6.743   1.567   5.762
 2215SOL    HW1 7544   6.828   1.529   5.725
 2215SOL    HW2 7545   6.683   1.592   5.686
 2216SOL     OW 7546   1.269   0.584   0.802
 2216SOL    HW1 7547   1.331   0.633   0.863
 2216SOL    HW2 7548   1.310   0.579   0.710
 2217SOL     OW 7549   4.033   0.181   0.794
 2217SOL    HW1 7550   4.122   0.210   0.829
 2217SOL    HW2 7551   4.033   0.189   0.694
 2218SOL     OW 7552   0.944   6.324   6.939
 2218SOL    HW1 7553   0.983   6.243   6.894
 2218SOL    HW2 7554   1.016   6.392   6.954
 2219SOL     OW 7555   1.385   3.760   2.746
 2219SOL    HW1 7556   1.384   3.662   2.727
 2219SOL    HW2 7557   1.479   3.791   2.760
 2220SOL     OW 7558   0.361   1.377   4.531
 2220SOL    HW1 7559   0.287   1.425   4.483
 2220SOL    HW2 7560   0.324   1.329   4.610
 2221SOL     OW 7561   6.638   2.111   1.094
 2221SOL    HW1 7562   6.578   2.187   1.122
 2221SOL    HW2 7563   6.582   2.035   1.061
 2222SOL     OW 7564   4.282   0.383   1.342
 2222SOL    HW1 7565   4.187   0.412   1.345
 2222SOL    HW2 7566   4.296   0.305   1.402
 2223SOL     OW 7567   6.033   5.253   3.424
 2223SOL    HW1 7568   5.992   5.176   3.375
 2223SOL    HW2 7569   5.972   5.282   3.497
 2224SOL     OW 7570   1.787   4.534   1.475
 2224SOL    HW1 7571   1.807   4.630   1.492
 2224SOL    HW2 7572   1.696   4.511   1.510
 2225SOL     OW 7573   6.059   4.933   2.271
 2225SOL    HW1 7574   6.154   4.934   2.240
 2225SOL    HW2 7575   6.025   4.839   2.273
 2226SOL     OW 7576   3.908   3.314   1.022
 2226SOL    HW1 7577   3.873   3.240   1.079
 2226SOL    HW2 7578   4.008   3.312   1.022
 2227SOL     OW 7579   6.252   4.012   5.988
 2227SOL    HW1 7580   6.163   3.974   6.013
 2227SOL    HW2 7581   6.245   4.112   5.986
 2228SOL     OW 7582   3.019   5.349   0.298
 2228SOL    HW1 7583   3.047   5.392   0.383
 2228SOL    HW2 7584   2.976   5.417   0.239
 2229SOL     OW 7585   4.654   1.704   4.002
 2229SOL    HW1 7586   4.693   1.621   4.043
 2229SOL    HW2 7587   4.728   1.765   3.975
 2230SOL     OW 7588   1.440   5.133   3.702
 2230SOL    HW1 7589   1.494   5.157   3.782
 2230SOL    HW2 7590   1.492   5.153   3.619
 2231SOL     OW 7591   2.158   1.720   2.430
 2231SOL    HW1 7592   2.077   1.754   2.477
 2231SOL    HW2 7593   2.192   1.639   2.478
 2232SOL     OW 7594   0.597   3.201   3.492
 2232SOL    HW1 7595   0.694   3.178   3.481
 2232SOL    HW2 7596   0.567   3.256   3.414
 2233SOL     OW 7597   4.105   5.198   6.666
 2233SOL    HW1 7598   4.025   5.196   6.726
 2233SOL    HW2 7599   4.179   5.145   6.707
 2234SOL     OW 7600   3.900   2.577   0.778
 2234SOL    HW1 7601   3.920   2.617   0.689
 2234SOL    HW2 7602   3.868   2.483   0.766
 2235SOL     OW 7603   1.229   6.946   6.921
 2235SOL    HW1 7604   1.189   6.991   7.001
 2235SOL    HW2 7605   1.319   6.985   6.902
 2236SOL     OW 7606   0.651   4.133   0.995
 2236SOL    HW1 7607   0.649   4.034   1.011
 2236SOL    HW2 7608   0.634   4.181   1.081
 2237SOL     OW 7609   6.765   3.612   4.399
 2237SOL    HW1 7610   6.797   3.706   4.386
 2237SOL    HW2 7611   6.665   3.610   4.401
 2238SOL     OW 7612   0.035   5.498   1.978
 2238SOL    HW1 7613   0.042   5.411   2.027
 2238SOL    HW2 7614   6.977   5.546   2.009
 2239SOL     OW 7615   4.259   4.753   3.709
 2239SOL    HW1 7616   4.194   4.806   3.763
 2239SOL    HW2 7617   4.307   4.689   3.769
 2240SOL     OW 7618   6.521   5.268   3.289
 2240SOL    HW1 7619   6.425   5.279   3.317
 2240SOL    HW2 7620   6.530   5.184   3.236
 2241SOL     OW 7621   0.321   6.692   2.456
 2241SOL    HW1 7622   0.373   6.761   2.507
 2241SOL    HW2 7623   0.385   6.632   2.407
 2242SOL     OW 7624   5.375   1.504   2.804
 2242SOL    HW1 7625   5.378   1.598   2.837
 2242SOL    HW2 7626   5.375   1.441   2.882
 2243SOL     OW 7627   2.920   6.039   5.248
 2243SOL    HW1 7628   2.828   6.000   5.240
 2243SOL    HW2 7629   2.971   5.989   5.317
 2244SOL     OW 7630   4.098   1.002   3.769
 2244SOL    HW1 7631   4.087   1.025   3.865
 2244SOL    HW2 7632   4.046   0.919   3.749
 2245SOL     OW 7633   6.891   1.802   2.103
 2245SOL    HW1 7634   6.920   1.829   2.011
 2245SOL    HW2 7635   6.810   1.744   2.098
 2246SOL     OW 7636   1.698   2.923   5.354
 2246SOL    HW1 7637   1.776   2.933   5.292
 2246SOL    HW2 7638   1.729   2.888   5.443
 2247SOL     OW 7639   2.925   2.054   5.331
 2247SOL    HW1 7640   2.955   2.150   5.328
 2247SOL    HW2 7641   2.982   2.003   5.395
 2248SOL     OW 7642   5.167   4.009   5.406
 2248SOL    HW1 7643   5.241   3.972   5.349
 2248SOL    HW2 7644   5.119   4.081   5.356
 2249SOL     OW 7645   5.379   6.155   2.661
 2249SOL    HW1 7646   5.404   6.141   2.565
 2249SOL    HW2 7647   5.279   6.161   2.669
 2250SOL     OW 7648   5.354   3.848   1.187
 2250SOL    HW1 7649   5.353   3.769   1.125
 2250SOL    HW2 7650   5.308   3.823   1.272
 2251SOL     OW 7651   6.204   1.663   0.330
 2251SOL    HW1 7652   6.257   1.587   0.366
 2251SOL    HW2 7653   6.227   1.677   0.233
 2252SOL     OW 7654   6.138   3.263   5.188
 2252SOL    HW1 7655   6.227   3.222   5.204
 2252SOL    HW2 7656   6.081   3.252   5.270
 2253SOL     OW 7657   1.883   3.194   6.379
 2253SOL    HW1 7658   1.966   3.209   6.326
 2253SOL    HW2 7659   1.866   3.096   6.389
 2254SOL     OW 7660   2.247   3.341   6.041
 2254SOL    HW1 7661   2.339   3.303   6.028
 2254SOL    HW2 7662   2.213   3.377   5.954
 2255SOL     OW 7663   5.972   2.871   2.083
 2255SOL    HW1 7664   5.963   2.776   2.113
 2255SOL    HW2 7665   5.881   2.912   2.076
 2256SOL     OW 7666   3.066   5.048   1.836
 2256SOL    HW1 7667   3.112   5.034   1.924
 2256SOL    HW2 7668   2.969   5.065   1.851
 2257SOL     OW 7669   1.758   3.148   4.479
 2257SOL    HW1 7670   1.830   3.188   4.422
 2257SOL    HW2 7671   1.761   3.189   4.570
 2258SOL     OW 7672   1.826   4.745   4.859
 2258SOL    HW1 7673   1.740   4.705   4.826
 2258SOL    HW2 7674   1.884   4.673   4.897
 2259SOL     OW 7675   5.664   4.459   6.509
 2259SOL    HW1 7676   5.614   4.500   6.586
 2259SOL    HW2 7677   5.734   4.397   6.544
 2260SOL     OW 7678   4.143   4.821   2.537
 2260SOL    HW1 7679   4.165   4.776   2.623
 2260SOL    HW2 7680   4.188   4.775   2.462
 2261SOL     OW 7681   5.291   6.682   0.885
 2261SOL    HW1 7682   5.368   6.738   0.916
 2261SOL    HW2 7683   5.324   6.589   0.867
 2262SOL     OW 7684   5.533   1.839   4.185
 2262SOL    HW1 7685   5.504   1.745   4.206
 2262SOL    HW2 7686   5.625   1.854   4.223
 2263SOL     OW 7687   2.282   5.644   6.054
 2263SOL    HW1 7688   2.298   5.573   5.985
 2263SOL    HW2 7689   2.315   5.612   6.142
 2264SOL     OW 7690   3.026   3.548   2.259
 2264SOL    HW1 7691   2.961   3.481   2.224
 2264SOL    HW2 7692   3.102   3.501   2.304
 2265SOL     OW 7693   0.234   1.111   2.738
 2265SOL    HW1 7694   0.148   1.149   2.773
 2265SOL    HW2 7695   0.231   1.011   2.743
 2266SOL     OW 7696   6.537   1.217   0.655
 2266SOL    HW1 7697   6.591   1.142   0.692
 2266SOL    HW2 7698   6.598   1.282   0.609
 2267SOL     OW 7699   5.858   2.667   4.593
 2267SOL    HW1 7700   5.949   2.689   4.557
 2267SOL    HW2 7701   5.825   2.743   4.648
 2268SOL     OW 7702   6.854   6.318   0.616
 2268SOL    HW1 7703   6.823   6.405   0.579
 2268SOL    HW2 7704   6.952   6.306   0.597
 2269SOL     OW 7705   5.857   5.587   5.463
 2269SOL    HW1 7706   5.874   5.642   5.382
 2269SOL    HW2 7707   5.760   5.593   5.487
 2270SOL     OW 7708   3.456   3.802   1.604
 2270SOL    HW1 7709   3.413   3.889   1.628
 2270SOL    HW2 7710   3.549   3.799   1.639
 2271SOL     OW 7711   5.965   4.277   1.500
 2271SOL    HW1 7712   6.044   4.264   1.560
 2271SOL    HW2 7713   5.996   4.314   1.412
 2272SOL     OW 7714   5.649   2.387   4.831
 2272SOL    HW1 7715   5.744   2.375   4.803
 2272SOL    HW2 7716   5.589   2.380   4.751
 2273SOL     OW 7717   1.165   1.058   3.356
 2273SOL    HW1 7718   1.095   1.035   3.425
 2273SOL    HW2 7719   1.129   1.037   3.265
 2274SOL     OW 7720   1.843   3.910   4.896
 2274SOL    HW1 7721   1.749   3.904   4.927
 2274SOL    HW2 7722   1.904   3.925   4.974
 2275SOL     OW 7723   4.831   6.275   4.765
 2275SOL    HW1 7724   4.836   6.212   4.687
 2275SOL    HW2 7725   4.792   6.227   4.844
 2276SOL     OW 7726   3.680   4.708   0.997
 2276SOL    HW1 7727   3.679   4.675   1.091
 2276SOL    HW2 7728   3.652   4.634   0.936
 2277SOL     OW 7729   3.524   3.127   4.976
 2277SOL    HW1 7730   3.452   3.058   4.974
 2277SOL    HW2 7731   3.560   3.140   4.884
 2278SOL     OW 7732   4.585   6.111   2.704
 2278SOL    HW1 7733   4.646   6.168   2.759
 2278SOL    HW2 7734   4.586   6.017   2.740
 2279SOL     OW 7735   5.354   4.083   4.382
 2279SOL    HW1 7736   5.313   4.126   4.301
 2279SOL    HW2 7737   5.291   4.014   4.418
 2280SOL     OW 7738   6.372   6.415   5.268
 2280SOL    HW1 7739   6.316   6.350   5.320
 2280SOL    HW2 7740   6.389   6.496   5.325
 2281SOL     OW 7741   3.528   2.089   1.734
 2281SOL    HW1 7742   3.564   2.156   1.799
 2281SOL    HW2 7743   3.561   1.998   1.759
 2282SOL     OW 7744   4.763   5.861   4.696
 2282SOL    HW1 7745   4.770   5.764   4.670
 2282SOL    HW2 7746   4.849   5.889   4.739
 2283SOL     OW 7747   6.729   3.669   2.786
 2283SOL    HW1 7748   6.731   3.606   2.864
 2283SOL    HW2 7749   6.783   3.750   2.807
 2284SOL     OW 7750   2.411   2.180   2.078
 2284SOL    HW1 7751   2.330   2.212   2.028
 2284SOL    HW2 7752   2.477   2.255   2.087
 2285SOL     OW 7753   1.516   3.764   0.842
 2285SOL    HW1 7754   1.528   3.726   0.933
 2285SOL    HW2 7755   1.591   3.826   0.821
 2286SOL     OW 7756   6.554   5.723   5.133
 2286SOL    HW1 7757   6.524   5.808   5.176
 2286SOL    HW2 7758   6.475   5.663   5.117
 2287SOL     OW 7759   2.079   3.065   1.481
 2287SOL    HW1 7760   2.145   2.999   1.445
 2287SOL    HW2 7761   2.127   3.150   1.505
 2288SOL     OW 7762   0.902   5.804   3.594
 2288SOL    HW1 7763   0.808   5.790   3.564
 2288SOL    HW2 7764   0.927   5.901   3.582
 2289SOL     OW 7765   5.630   1.957   1.889
 2289SOL    HW1 7766   5.657   1.940   1.984
 2289SOL    HW2 7767   5.562   2.031   1.887
 2290SOL     OW 7768   3.260   3.505   3.117
 2290SOL    HW1 7769   3.338   3.471   3.066
 2290SOL    HW2 7770   3.213   3.428   3.162
 2291SOL     OW 7771   2.115   2.226   1.738
 2291SOL    HW1 7772   2.137   2.296   1.670
 2291SOL    HW2 7773   2.154   2.138   1.709
 2292SOL     OW 7774   5.203   2.817   3.764
 2292SOL    HW1 7775   5.254   2.901   3.746
 2292SOL    HW2 7776   5.138   2.832   3.837
 2293SOL     OW 7777   5.596   1.290   0.729
 2293SOL    HW1 7778   5.508   1.250   0.705
 2293SOL    HW2 7779   5.669   1.225   0.705
 2294SOL     OW 7780   2.684   1.879   5.427
 2294SOL    HW1 7781   2.611   1.873   5.359
 2294SOL    HW2 7782   2.752   1.946   5.396
 2295SOL     OW 7783   6.980   0.802   1.400
 2295SOL    HW1 7784   6.911   0.742   1.358
 2295SOL    HW2 7785   0.009   0.750   1.467
 2296SOL     OW 7786   2.850   5.045   3.276
 2296SOL    HW1 7787   2.772   5.084   3.324
 2296SOL    HW2 7788   2.865   5.096   3.191
 2297SOL     OW 7789   5.287   4.648   5.819
 2297SOL    HW1 7790   5.296   4.746   5.803
 2297SOL    HW2 7791   5.248   4.632   5.910
 2298SOL     OW 7792   3.953   3.814   3.609
 2298SOL    HW1 7793   3.875   3.872   3.583
 2298SOL    HW2 7794   4.021   3.815   3.537
 2299SOL     OW 7795   4.920   3.789   4.855
 2299SOL    HW1 7796   4.883   3.827   4.770
 2299SOL    HW2 7797   4.856   3.722   4.893
 2300SOL     OW 7798   3.210   6.870   3.577
 2300SOL    HW1 7799   3.288   6.882   3.515
 2300SOL    HW2 7800   3.147   6.803   3.538
 2301SOL     OW 7801   3.346   2.977   4.214
 2301SOL    HW1 7802   3.326   2.879   4.219
 2301SOL    HW2 7803   3.433   2.995   4.259
 2302SOL     OW 7804   4.000   0.957   0.141
 2302SOL    HW1 7805   4.013   0.858   0.137
 2302SOL    HW2 7806   3.902   0.978   0.144
 2303SOL     OW 7807   2.169   2.581   1.151
 2303SOL    HW1 7808   2.172   2.667   1.099
 2303SOL    HW2 7809   2.213   2.594   1.239
 2304SOL     OW 7810   6.780   5.667   3.799
 2304SOL    HW1 7811   6.711   5.721   3.752
 2304SOL    HW2 7812   6.797   5.583   3.748
 2305SOL     OW 7813   1.664   1.026   4.111
 2305SOL    HW1 7814   1.743   1.078   4.078
 2305SOL    HW2 7815   1.676   0.929   4.088
 2306SOL     OW 7816   1.662   5.203   2.694
 2306SOL    HW1 7817   1.757   5.224   2.669
 2306SOL    HW2 7818   1.641   5.109   2.668
 2307SOL     OW 7819   1.259   2.626   5.396
 2307SOL    HW1 7820   1.223   2.634   5.303
 2307SOL    HW2 7821   1.295   2.533   5.409
 2308SOL     OW 7822   2.077   5.108   1.100
 2308SOL    HW1 7823   2.156   5.054   1.072
 2308SOL    HW2 7824   2.052   5.084   1.194
 2309SOL     OW 7825   1.477   0.256   4.280
 2309SOL    HW1 7826   1.501   0.196   4.356
 2309SOL    HW2 7827   1.538   0.238   4.203
 2310SOL     OW 7828   5.348   6.879   2.235
 2310SOL    HW1 7829   5.334   6.928   2.149
 2310SOL    HW2 7830   5.391   6.940   2.301
 2311SOL     OW 7831   2.019   6.061   0.530
 2311SOL    HW1 7832   1.961   5.982   0.546
 2311SOL    HW2 7833   2.075   6.046   0.449
 2312SOL     OW 7834   3.583   5.417   3.085
 2312SOL    HW1 7835   3.548   5.332   3.126
 2312SOL    HW2 7836   3.633   5.396   3.001
 2313SOL     OW 7837   5.100   5.185   2.588
 2313SOL    HW1 7838   5.087   5.144   2.498
 2313SOL    HW2 7839   5.011   5.192   2.634
 2314SOL     OW 7840   3.405   5.808   3.191
 2314SOL    HW1 7841   3.503   5.795   3.171
 2314SOL    HW2 7842   3.353   5.731   3.153
 2315SOL     OW 7843   4.782   2.879   6.543
 2315SOL    HW1 7844   4.819   2.790   6.571
 2315SOL    HW2 7845   4.788   2.888   6.443
 2316SOL     OW 7846   4.818   2.739   3.633
 2316SOL    HW1 7847   4.742   2.707   3.689
 2316SOL    HW2 7848   4.900   2.686   3.655
 2317SOL     OW 7849   0.762   4.502   2.545
 2317SOL    HW1 7850   0.676   4.484   2.593
 2317SOL    HW2 7851   0.801   4.416   2.513
 2318SOL     OW 7852   0.706   2.325   3.559
 2318SOL    HW1 7853   0.676   2.261   3.488
 2318SOL    HW2 7854   0.645   2.404   3.561
 2319SOL     OW 7855   2.225   4.218   4.882
 2319SOL    HW1 7856   2.280   4.150   4.931
 2319SOL    HW2 7857   2.146   4.174   4.840
 2320SOL     OW 7858   6.968   2.578   4.127
 2320SOL    HW1 7859   6.989   2.675   4.113
 2320SOL    HW2 7860   0.027   2.524   4.116
 2321SOL     OW 7861   2.962   0.406   4.851
 2321SOL    HW1 7862   3.035   0.457   4.806
 2321SOL    HW2 7863   3.001   0.332   4.906
 2322SOL     OW 7864   1.129   1.891   5.706
 2322SOL    HW1 7865   1.219   1.916   5.668
 2322SOL    HW2 7866   1.060   1.896   5.634
 2323SOL     OW 7867   4.261   5.838   3.368
 2323SOL    HW1 7868   4.325   5.787   3.310
 2323SOL    HW2 7869   4.296   5.930   3.383
 2324SOL     OW 7870   1.113   6.226   2.299
 2324SOL    HW1 7871   1.200   6.205   2.254
 2324SOL    HW2 7872   1.056   6.282   2.238
 2325SOL     OW 7873   0.788   3.887   1.599
 2325SOL    HW1 7874   0.839   3.973   1.607
 2325SOL    HW2 7875   0.804   3.832   1.680
 2326SOL     OW 7876   1.573   4.433   6.323
 2326SOL    HW1 7877   1.528   4.387   6.247
 2326SOL    HW2 7878   1.529   4.407   6.409
 2327SOL     OW 7879   4.822   2.966   4.594
 2327SOL    HW1 7880   4.871   3.032   4.536
 2327SOL    HW2 7881   4.827   2.876   4.552
 2328SOL     OW 7882   5.143   1.414   3.076
 2328SOL    HW1 7883   5.227   1.377   3.115
 2328SOL    HW2 7884   5.074   1.422   3.148
 2329SOL     OW 7885   1.342   5.407   3.964
 2329SOL    HW1 7886   1.420   5.345   3.966
 2329SOL    HW2 7887   1.257   5.355   3.956
 2330SOL     OW 7888   0.329   5.011   1.587
 2330SOL    HW1 7889   0.377   5.099   1.583
 2330SOL    HW2 7890   0.394   4.937   1.597
 2331SOL     OW 7891   0.299   4.183   5.423
 2331SOL    HW1 7892   0.215   4.211   5.376
 2331SOL    HW2 7893   0.364   4.147   5.357
 2332SOL     OW 7894   4.959   2.750   6.226
 2332SOL    HW1 7895   4.983   2.707   6.139
 2332SOL    HW2 7896   5.002   2.841   6.231
 2333SOL     OW 7897   0.839   4.930   2.993
 2333SOL    HW1 7898   0.892   4.941   3.077
 2333SOL    HW2 7899   0.818   5.020   2.954
 2334SOL     OW 7900   3.377   6.700   6.886
 2334SOL    HW1 7901   3.422   6.660   6.806
 2334SOL    HW2 7902   3.442   6.706   6.962
 2335SOL     OW 7903   5.742   0.580   3.219
 2335SOL    HW1 7904   5.702   0.610   3.132
 2335SOL    HW2 7905   5.763   0.660   3.275
 2336SOL     OW 7906   4.880   1.013   5.729
 2336SOL    HW1 7907   4.805   1.057   5.680
 2336SOL    HW2 7908   4.891   1.058   5.818
 2337SOL     OW 7909   5.752   0.708   2.972
 2337SOL    HW1 7910   5.689   0.719   2.895
 2337SOL    HW2 7911   5.768   0.797   3.015
 2338SOL     OW 7912   6.822   6.439   0.085
 2338SOL    HW1 7913   6.863   6.528   0.068
 2338SOL    HW2 7914   6.786   6.402   7.024
 2339SOL     OW 7915   3.636   4.694   6.100
 2339SOL    HW1 7916   3.647   4.770   6.037
 2339SOL    HW2 7917   3.708   4.697   6.169
 2340SOL     OW 7918   3.289   6.090   5.482
 2340SOL    HW1 7919   3.379   6.129   5.463
 2340SOL    HW2 7920   3.299   6.017   5.550
 2341SOL     OW 7921   5.994   4.693   0.688
 2341SOL    HW1 7922   6.054   4.757   0.641
 2341SOL    HW2 7923   6.048   4.634   0.748
 2342SOL     OW 7924   0.095   6.495   5.392
 2342SOL    HW1 7925   0.165   6.477   5.462
 2342SOL    HW2 7926   0.035   6.416   5.384
 2343SOL     OW 7927   1.174   6.486   1.011
 2343SOL    HW1 7928   1.225   6.459   0.929
 2343SOL    HW2 7929   1.187   6.417   1.082
 2344SOL     OW 7930   2.677   1.661   2.794
 2344SOL    HW1 7931   2.601   1.726   2.795
 2344SOL    HW2 7932   2.758   1.706   2.758
 2345SOL     OW 7933   1.220   0.742   4.835
 2345SOL    HW1 7934   1.283   0.692   4.894
 2345SOL    HW2 7935   1.237   0.840   4.844
 2346SOL     OW 7936   4.846   3.204   5.577
 2346SOL    HW1 7937   4.798   3.286   5.609
 2346SOL    HW2 7938   4.936   3.230   5.541
 2347SOL     OW 7939   1.470   3.585   2.009
 2347SOL    HW1 7940   1.554   3.610   1.961
 2347SOL    HW2 7941   1.392   3.630   1.965
 2348SOL     OW 7942   2.352   6.235   3.657
 2348SOL    HW1 7943   2.392   6.177   3.586
 2348SOL    HW2 7944   2.364   6.331   3.631
 2349SOL     OW 7945   6.871   6.828   6.058
 2349SOL    HW1 7946   6.899   6.734   6.041
 2349SOL    HW2 7947   6.945   6.877   6.103
 2350SOL     OW 7948   3.180   1.169   5.300
 2350SOL    HW1 7949   3.245   1.239   5.332
 2350SOL    HW2 7950   3.220   1.079   5.311
 2351SOL     OW 7951   2.709   4.854   3.676
 2351SOL    HW1 7952   2.613   4.854   3.701
 2351SOL    HW2 7953   2.749   4.944   3.693
 2352SOL     OW 7954   6.375   4.114   3.060
 2352SOL    HW1 7955   6.334   4.039   3.008
 2352SOL    HW2 7956   6.387   4.193   3.000
 2353SOL     OW 7957   2.529   3.960   5.657
 2353SOL    HW1 7958   2.434   3.983   5.673
 2353SOL    HW2 7959   2.581   4.043   5.638
 2354SOL     OW 7960   3.717   2.616   0.051
 2354SOL    HW1 7961   3.699   2.588   0.146
 2354SOL    HW2 7962   3.782   2.551   0.010
 2355SOL     OW 7963   0.619   6.792   1.066
 2355SOL    HW1 7964   0.618   6.874   1.009
 2355SOL    HW2 7965   0.556   6.724   1.029
 2356SOL     OW 7966   2.341   5.030   2.561
 2356SOL    HW1 7967   2.279   5.089   2.614
 2356SOL    HW2 7968   2.435   5.061   2.574
 2357SOL     OW 7969   5.426   4.756   2.991
 2357SOL    HW1 7970   5.462   4.781   2.901
 2357SOL    HW2 7971   5.498   4.713   3.045
 2358SOL     OW 7972   3.570   0.213   4.323
 2358SOL    HW1 7973   3.606   0.299   4.288
 2358SOL    HW2 7974   3.625   0.137   4.289
 2359SOL     OW 7975   2.568   1.506   5.774
 2359SOL    HW1 7976   2.486   1.500   5.832
 2359SOL    HW2 7977   2.565   1.591   5.721
 2360SOL     OW 7978   3.835   4.417   0.647
 2360SOL    HW1 7979   3.766   4.355   0.610
 2360SOL    HW2 7980   3.926   4.384   0.623
 2361SOL     OW 7981   3.348   6.717   3.034
 2361SOL    HW1 7982   3.280   6.788   3.013
 2361SOL    HW2 7983   3.434   6.761   3.060
 2362SOL     OW 7984   4.403   5.893   4.804
 2362SOL    HW1 7985   4.469   5.960   4.839
 2362SOL    HW2 7986   4.368   5.924   4.716
 2363SOL     OW 7987   3.894   2.248   6.575
 2363SOL    HW1 7988   3.974   2.280   6.625
 2363SOL    HW2 7989   3.813   2.255   6.633
 2364SOL     OW 7990   5.194   1.758   1.879
 2364SOL    HW1 7991   5.191   1.681   1.944
 2364SOL    HW2 7992   5.288   1.771   1.848
 2365SOL     OW 7993   5.222   3.677   4.700
 2365SOL    HW1 7994   5.319   3.696   4.689
 2365SOL    HW2 7995   5.205   3.580   4.679
 2366SOL     OW 7996   1.723   4.054   5.295
 2366SOL    HW1 7997   1.653   3.988   5.326
 2366SOL    HW2 7998   1.732   4.127   5.362
 2367SOL     OW 7999   1.292   3.641   5.802
 2367SOL    HW1 8000   1.211   3.659   5.859
 2367SOL    HW2 8001   1.329   3.551   5.824
 2368SOL     OW 8002   4.679   0.935   4.289
 2368SOL    HW1 8003   4.614   0.893   4.226
 2368SOL    HW2 8004   4.696   1.029   4.261
 2369SOL     OW 8005   3.757   1.530   3.231
 2369SOL    HW1 8006   3.838   1.576   3.264
 2369SOL    HW2 8007   3.721   1.578   3.151
 2370SOL     OW 8008   4.970   2.800   0.703
 2370SOL    HW1 8009   4.872   2.781   0.702
 2370SOL    HW2 8010   4.997   2.843   0.617
 2371SOL     OW 8011   0.973   6.889   2.744
 2371SOL    HW1 8012   0.910   6.813   2.763
 2371SOL    HW2 8013   1.001   6.886   2.649
 2372SOL     OW 8014   6.245   1.338   5.880
 2372SOL    HW1 8015   6.317   1.403   5.908
 2372SOL    HW2 8016   6.157   1.386   5.877
 2373SOL     OW 8017   6.007   0.996   6.448
 2373SOL    HW1 8018   5.915   0.992   6.409
 2373SOL    HW2 8019   6.067   1.051   6.389
 2374SOL     OW 8020   5.926   5.796   3.142
 2374SOL    HW1 8021   5.918   5.893   3.162
 2374SOL    HW2 8022   5.984   5.782   3.061
 2375SOL     OW 8023   0.553   0.600   3.672
 2375SOL    HW1 8024   0.499   0.556   3.744
 2375SOL    HW2 8025   0.495   0.659   3.617
 2376SOL     OW 8026   0.055   2.124   3.285
 2376SOL    HW1 8027   0.026   2.113   3.380
 2376SOL    HW2 8028   0.104   2.042   3.255
 2377SOL     OW 8029   3.494   4.589   6.348
 2377SOL    HW1 8030   3.470   4.650   6.424
 2377SOL    HW2 8031   3.516   4.643   6.267
 2378SOL     OW 8032   5.928   1.925   0.541
 2378SOL    HW1 8033   6.013   1.930   0.595
 2378SOL    HW2 8034   5.881   2.013   0.548
 2379SOL     OW 8035   6.805   4.949   0.450
 2379SOL    HW1 8036   6.726   4.958   0.510
 2379SOL    HW2 8037   6.889   4.961   0.503
 2380SOL     OW 8038   5.892   2.759   5.405
 2380SOL    HW1 8039   5.852   2.807   5.484
 2380SOL    HW2 8040   5.873   2.811   5.322
 2381SOL     OW 8041   2.050   4.871   5.226
 2381SOL    HW1 8042   2.002   4.919   5.154
 2381SOL    HW2 8043   2.113   4.805   5.186
 2382SOL     OW 8044   1.786   5.780   2.738
 2382SOL    HW1 8045   1.731   5.822   2.666
 2382SOL    HW2 8046   1.727   5.726   2.798
 2383SOL     OW 8047   5.603   5.680   5.551
 2383SOL    HW1 8048   5.567   5.681   5.644
 2383SOL    HW2 8049   5.671   5.754   5.540
 2384SOL     OW 8050   0.495   1.896   1.539
 2384SOL    HW1 8051   0.541   1.967   1.592
 2384SOL    HW2 8052   0.422   1.856   1.595
 2385SOL     OW 8053   0.970   1.940   0.209
 2385SOL    HW1 8054   0.930   2.018   0.255
 2385SOL    HW2 8055   0.969   1.861   0.269
 2386SOL     OW 8056   3.143   5.032   4.520
 2386SOL    HW1 8057   3.147   5.096   4.443
 2386SOL    HW2 8058   3.121   5.083   4.604
 2387SOL     OW 8059   0.264   2.896   4.117
 2387SOL    HW1 8060   0.330   2.858   4.182
 2387SOL    HW2 8061   0.311   2.925   4.034
 2388SOL     OW 8062   0.376   2.236   5.601
 2388SOL    HW1 8063   0.298   2.245   5.539
 2388SOL    HW2 8064   0.448   2.183   5.555
 2389SOL     OW 8065   5.263   4.566   4.421
 2389SOL    HW1 8066   5.299   4.607   4.504
 2389SOL    HW2 8067   5.210   4.485   4.444
 2390SOL     OW 8068   4.024   3.614   5.807
 2390SOL    HW1 8069   4.007   3.599   5.904
 2390SOL    HW2 8070   4.016   3.527   5.758
 2391SOL     OW 8071   3.308   3.070   6.724
 2391SOL    HW1 8072   3.407   3.051   6.722
 2391SOL    HW2 8073   3.290   3.154   6.674
 2392SOL     OW 8074   3.310   4.313   5.825
 2392SOL    HW1 8075   3.398   4.325   5.778
 2392SOL    HW2 8076   3.301   4.383   5.896
 2393SOL     OW 8077   4.073   5.376   1.835
 2393SOL    HW1 8078   3.989   5.359   1.783
 2393SOL    HW2 8079   4.151   5.380   1.772
 2394SOL     OW 8080   0.162   4.347   3.823
 2394SOL    HW1 8081   0.140   4.332   3.727
 2394SOL    HW2 8082   0.113   4.427   3.857
 2395SOL     OW 8083   0.770   2.919   6.446
 2395SOL    HW1 8084   0.719   2.985   6.501
 2395SOL    HW2 8085   0.754   2.827   6.481
 2396SOL     OW 8086   5.575   0.733   6.272
 2396SOL    HW1 8087   5.493   0.695   6.230
 2396SOL    HW2 8088   5.556   0.827   6.302
 2397SOL     OW 8089   0.369   4.595   6.170
 2397SOL    HW1 8090   0.297   4.613   6.236
 2397SOL    HW2 8091   0.458   4.612   6.213
 2398SOL     OW 8092   2.585   5.551   4.140
 2398SOL    HW1 8093   2.646   5.516   4.211
 2398SOL    HW2 8094   2.573   5.649   4.151
 2399SOL     OW 8095   3.443   2.015   3.729
 2399SOL    HW1 8096   3.461   2.103   3.772
 2399SOL    HW2 8097   3.346   2.009   3.705
 2400SOL     OW 8098   2.380   3.647   0.352
 2400SOL    HW1 8099   2.359   3.581   0.279
 2400SOL    HW2 8100   2.307   3.715   0.359
 2401SOL     OW 8101   3.872   6.947   4.170
 2401SOL    HW1 8102   3.868   0.007   4.224
 2401SOL    HW2 8103   3.908   6.873   4.227
 2402SOL     OW 8104   0.526   2.416   3.217
 2402SOL    HW1 8105   0.594   2.451   3.152
 2402SOL    HW2 8106   0.509   2.320   3.198
 2403SOL     OW 8107   3.814   3.570   1.296
 2403SOL    HW1 8108   3.885   3.501   1.282
 2403SOL    HW2 8109   3.798   3.580   1.394
 2404SOL     OW 8110   6.018   1.397   1.436
 2404SOL    HW1 8111   6.088   1.381   1.505
 2404SOL    HW2 8112   6.027   1.490   1.399
 2405SOL     OW 8113   2.905   4.870   5.824
 2405SOL    HW1 8114   2.909   4.825   5.735
 2405SOL    HW2 8115   2.984   4.843   5.878
 2406SOL     OW 8116   2.115   6.857   3.438
 2406SOL    HW1 8117   2.123   6.789   3.510
 2406SOL    HW2 8118   2.092   6.945   3.477
 2407SOL     OW 8119   4.526   2.391   3.058
 2407SOL    HW1 8120   4.570   2.332   2.990
 2407SOL    HW2 8121   4.427   2.380   3.053
 2408SOL     OW 8122   2.659   5.337   3.107
 2408SOL    HW1 8123   2.592   5.392   3.057
 2408SOL    HW2 8124   2.717   5.397   3.162
 2409SOL     OW 8125   2.979   2.981   0.868
 2409SOL    HW1 8126   2.979   2.980   0.768
 2409SOL    HW2 8127   2.932   3.064   0.899
 2410SOL     OW 8128   6.228   3.500   6.065
 2410SOL    HW1 8129   6.241   3.402   6.079
 2410SOL    HW2 8130   6.209   3.519   5.969
 2411SOL     OW 8131   2.618   3.947   5.996
 2411SOL    HW1 8132   2.644   4.036   6.034
 2411SOL    HW2 8133   2.601   3.956   5.898
 2412SOL     OW 8134   2.545   3.088   0.014
 2412SOL    HW1 8135   2.575   2.994   7.020
 2412SOL    HW2 8136   2.625   3.146   0.028
 2413SOL     OW 8137   6.353   3.410   6.514
 2413SOL    HW1 8138   6.255   3.391   6.519
 2413SOL    HW2 8139   6.401   3.351   6.579
 2414SOL     OW 8140   5.468   1.940   3.944
 2414SOL    HW1 8141   5.491   1.916   4.038
 2414SOL    HW2 8142   5.543   1.993   3.904
 2415SOL     OW 8143   2.322   6.843   0.066
 2415SOL    HW1 8144   2.241   6.835   0.008
 2415SOL    HW2 8145   2.304   6.803   0.155
 2416SOL     OW 8146   0.951   3.128   3.227
 2416SOL    HW1 8147   0.902   3.213   3.207
 2416SOL    HW2 8148   0.970   3.122   3.325
 2417SOL     OW 8149   4.664   2.467   6.771
 2417SOL    HW1 8150   4.637   2.372   6.754
 2417SOL    HW2 8151   4.615   2.501   6.852
 2418SOL     OW 8152   3.845   4.095   5.436
 2418SOL    HW1 8153   3.906   4.017   5.428
 2418SOL    HW2 8154   3.844   4.147   5.351
 2419SOL     OW 8155   2.171   7.020   4.696
 2419SOL    HW1 8156   2.255   7.012   4.750
 2419SOL    HW2 8157   2.094   6.983   4.748
 2420SOL     OW 8158   3.239   5.588   1.897
 2420SOL    HW1 8159   3.204   5.565   1.806
 2420SOL    HW2 8160   3.338   5.597   1.894
 2421SOL     OW 8161   3.718   6.607   3.923
 2421SOL    HW1 8162   3.757   6.598   3.831
 2421SOL    HW2 8163   3.619   6.596   3.919
 2422SOL     OW 8164   3.815   7.010   1.200
 2422SOL    HW1 8165   3.901   7.000   1.249
 2422SOL    HW2 8166   3.760   0.057   1.244
 2423SOL     OW 8167   1.738   5.673   1.513
 2423SOL    HW1 8168   1.714   5.608   1.586
 2423SOL    HW2 8169   1.785   5.752   1.553
 2424SOL     OW 8170   5.856   6.414   6.870
 2424SOL    HW1 8171   5.901   6.377   6.789
 2424SOL    HW2 8172   5.887   6.507   6.885
 2425SOL     OW 8173   4.617   5.963   5.920
 2425SOL    HW1 8174   4.576   5.872   5.913
 2425SOL    HW2 8175   4.678   5.978   5.843
 2426SOL     OW 8176   1.214   5.758   5.071
 2426SOL    HW1 8177   1.149   5.826   5.037
 2426SOL    HW2 8178   1.178   5.667   5.055
 2427SOL     OW 8179   4.979   6.331   6.593
 2427SOL    HW1 8180   4.897   6.307   6.645
 2427SOL    HW2 8181   4.976   6.429   6.571
 2428SOL     OW 8182   0.478   1.198   3.039
 2428SOL    HW1 8183   0.505   1.188   2.943
 2428SOL    HW2 8184   0.475   1.295   3.063
 2429SOL     OW 8185   5.035   4.787   2.343
 2429SOL    HW1 8186   4.939   4.768   2.362
 2429SOL    HW2 8187   5.047   4.810   2.247
 2430SOL     OW 8188   5.834   2.411   0.813
 2430SOL    HW1 8189   5.828   2.312   0.816
 2430SOL    HW2 8190   5.829   2.442   0.718
 2431SOL     OW 8191   5.787   1.590   1.853
 2431SOL    HW1 8192   5.706   1.649   1.860
 2431SOL    HW2 8193   5.757   1.494   1.853
 2432SOL     OW 8194   3.189   5.568   1.606
 2432SOL    HW1 8195   3.275   5.603   1.569
 2432SOL    HW2 8196   3.155   5.493   1.548
 2433SOL     OW 8197   0.471   5.960   0.105
 2433SOL    HW1 8198   0.449   5.913   0.019
 2433SOL    HW2 8199   0.486   6.057   0.087
 2434SOL     OW 8200   4.857   1.694   2.172
 2434SOL    HW1 8201   4.898   1.631   2.238
 2434SOL    HW2 8202   4.888   1.787   2.190
 2435SOL     OW 8203   5.814   5.884   0.405
 2435SOL    HW1 8204   5.809   5.834   0.319
 2435SOL    HW2 8205   5.824   5.982   0.387
 2436SOL     OW 8206   1.783   1.442   1.596
 2436SOL    HW1 8207   1.687   1.412   1.600
 2436SOL    HW2 8208   1.812   1.448   1.500
 2437SOL     OW 8209   5.893   5.969   1.856
 2437SOL    HW1 8210   5.978   6.017   1.879
 2437SOL    HW2 8211   5.913   5.874   1.833
 2438SOL     OW 8212   4.010   1.684   4.356
 2438SOL    HW1 8213   4.012   1.757   4.425
 2438SOL    HW2 8214   4.104   1.658   4.332
 2439SOL     OW 8215   0.430   5.166   6.489
 2439SOL    HW1 8216   0.519   5.123   6.504
 2439SOL    HW2 8217   0.417   5.239   6.556
 2440SOL     OW 8218   4.137   7.024   5.533
 2440SOL    HW1 8219   4.191   0.074   5.573
 2440SOL    HW2 8220   4.196   6.945   5.517
 2441SOL     OW 8221   5.661   1.207   0.015
 2441SOL    HW1 8222   5.727   1.197   0.089
 2441SOL    HW2 8223   5.577   1.250   0.049
 2442SOL     OW 8224   5.791   4.342   2.902
 2442SOL    HW1 8225   5.709   4.286   2.910
 2442SOL    HW2 8226   5.838   4.319   2.816
 2443SOL     OW 8227   2.411   0.893   6.248
 2443SOL    HW1 8228   2.410   0.828   6.172
 2443SOL    HW2 8229   2.357   0.974   6.223
 2444SOL     OW 8230   4.288   4.667   0.090
 2444SOL    HW1 8231   4.274   4.672   0.189
 2444SOL    HW2 8232   4.255   4.578   0.056
 2445SOL     OW 8233   6.540   1.178   2.110
 2445SOL    HW1 8234   6.444   1.158   2.088
 2445SOL    HW2 8235   6.584   1.094   2.142
 2446SOL     OW 8236   1.050   2.631   3.341
 2446SOL    HW1 8237   1.122   2.690   3.379
 2446SOL    HW2 8238   0.999   2.681   3.271
 2447SOL     OW 8239   2.141   0.827   1.165
 2447SOL    HW1 8240   2.163   0.923   1.181
 2447SOL    HW2 8241   2.141   0.778   1.252
 2448SOL     OW 8242   6.007   1.747   4.122
 2448SOL    HW1 8243   5.918   1.703   4.113
 2448SOL    HW2 8244   6.077   1.690   4.079
 2449SOL     OW 8245   1.270   3.325   1.970
 2449SOL    HW1 8246   1.299   3.231   1.953
 2449SOL    HW2 8247   1.332   3.368   2.035
 2450SOL     OW 8248   2.594   5.256   6.641
 2450SOL    HW1 8249   2.630   5.218   6.726
 2450SOL    HW2 8250   2.582   5.183   6.574
 2451SOL     OW 8251   0.813   0.156   3.528
 2451SOL    HW1 8252   0.865   0.160   3.443
 2451SOL    HW2 8253   0.760   0.240   3.539
 2452SOL     OW 8254   2.621   1.864   3.817
 2452SOL    HW1 8255   2.605   1.829   3.909
 2452SOL    HW2 8256   2.653   1.958   3.823
 2453SOL     OW 8257   6.975   2.949   0.563
 2453SOL    HW1 8258   0.007   2.872   0.531
 2453SOL    HW2 8259   0.004   3.033   0.560
 2454SOL     OW 8260   2.279   6.250   6.541
 2454SOL    HW1 8261   2.374   6.247   6.510
 2454SOL    HW2 8262   2.226   6.177   6.497
 2455SOL     OW 8263   4.286   0.901   0.903
 2455SOL    HW1 8264   4.320   0.916   0.811
 2455SOL    HW2 8265   4.299   0.805   0.928
 2456SOL     OW 8266   0.873   2.501   6.362
 2456SOL    HW1 8267   0.932   2.451   6.425
 2456SOL    HW2 8268   0.807   2.556   6.414
 2457SOL     OW 8269   6.554   1.216   5.118
 2457SOL    HW1 8270   6.528   1.221   5.214
 2457SOL    HW2 8271   6.597   1.301   5.090
 2458SOL     OW 8272   0.970   0.050   3.912
 2458SOL    HW1 8273   0.872   0.046   3.897
 2458SOL    HW2 8274   0.994   7.016   3.990
 2459SOL     OW 8275   2.927   5.947   6.086
 2459SOL    HW1 8276   2.881   6.000   6.015
 2459SOL    HW2 8277   2.867   5.873   6.117
 2460SOL     OW 8278   1.692   1.306   0.702
 2460SOL    HW1 8279   1.638   1.369   0.757
 2460SOL    HW2 8280   1.721   1.352   0.617
 2461SOL     OW 8281   5.297   0.656   3.991
 2461SOL    HW1 8282   5.318   0.699   4.079
 2461SOL    HW2 8283   5.251   0.569   4.007
 2462SOL     OW 8284   2.293   5.033   0.088
 2462SOL    HW1 8285   2.202   5.029   0.131
 2462SOL    HW2 8286   2.353   4.966   0.130
 2463SOL     OW 8287   6.368   1.920   0.322
 2463SOL    HW1 8288   6.270   1.930   0.302
 2463SOL    HW2 8289   6.393   1.824   0.320
 2464SOL     OW 8290   1.368   2.995   3.471
 2464SOL    HW1 8291   1.392   2.904   3.505
 2464SOL    HW2 8292   1.419   3.064   3.521
 2465SOL     OW 8293   0.252   6.396   6.249
 2465SOL    HW1 8294   0.187   6.337   6.200
 2465SOL    HW2 8295   0.294   6.460   6.184
 2466SOL     OW 8296   1.801   1.430   2.661
 2466SOL    HW1 8297   1.775   1.339   2.694
 2466SOL    HW2 8298   1.746   1.452   2.580
 2467SOL     OW 8299   4.735   1.984   5.554
 2467SOL    HW1 8300   4.756   1.914   5.486
 2467SOL    HW2 8301   4.820   2.027   5.584
 2468SOL     OW 8302   4.248   6.813   0.769
 2468SOL    HW1 8303   4.277   6.761   0.850
 2468SOL    HW2 8304   4.200   6.896   0.797
 2469SOL     OW 8305   3.866   3.287   4.830
 2469SOL    HW1 8306   3.770   3.303   4.852
 2469SOL    HW2 8307   3.924   3.337   4.894
 2470SOL     OW 8308   3.855   4.591   5.688
 2470SOL    HW1 8309   3.765   4.614   5.652
 2470SOL    HW2 8310   3.899   4.524   5.629
 2471SOL     OW 8311   2.914   6.583   0.681
 2471SOL    HW1 8312   2.835   6.546   0.633
 2471SOL    HW2 8313   2.955   6.656   0.626
 2472SOL     OW 8314   4.650   2.106   3.484
 2472SOL    HW1 8315   4.647   2.204   3.464
 2472SOL    HW2 8316   4.582   2.058   3.428
 2473SOL     OW 8317   1.323   4.015   5.509
 2473SOL    HW1 8318   1.240   4.056   5.471
 2473SOL    HW2 8319   1.388   4.087   5.534
 2474SOL     OW 8320   0.985   6.197   0.925
 2474SOL    HW1 8321   0.942   6.285   0.945
 2474SOL    HW2 8322   1.049   6.208   0.848
 2475SOL     OW 8323   4.382   1.066   2.443
 2475SOL    HW1 8324   4.387   1.116   2.530
 2475SOL    HW2 8325   4.458   1.002   2.437
 2476SOL     OW 8326   5.552   0.407   2.323
 2476SOL    HW1 8327   5.512   0.473   2.259
 2476SOL    HW2 8328   5.509   0.317   2.308
 2477SOL     OW 8329   4.427   1.183   3.371
 2477SOL    HW1 8330   4.491   1.174   3.294
 2477SOL    HW2 8331   4.336   1.156   3.341
 2478SOL     OW 8332   6.426   1.318   1.840
 2478SOL    HW1 8333   6.515   1.272   1.837
 2478SOL    HW2 8334   6.367   1.273   1.907
 2479SOL     OW 8335   0.828   3.158   2.485
 2479SOL    HW1 8336   0.864   3.072   2.520
 2479SOL    HW2 8337   0.735   3.172   2.520
 2480SOL     OW 8338   4.705   3.449   0.574
 2480SOL    HW1 8339   4.613   3.487   0.589
 2480SOL    HW2 8340   4.752   3.441   0.662
 2481SOL     OW 8341   3.606   6.428   0.718
 2481SOL    HW1 8342   3.695   6.395   0.748
 2481SOL    HW2 8343   3.618   6.492   0.642
 2482SOL     OW 8344   5.073   3.585   6.219
 2482SOL    HW1 8345   5.146   3.619   6.278
 2482SOL    HW2 8346   4.985   3.591   6.266
 2483SOL     OW 8347   1.906   1.947   6.991
 2483SOL    HW1 8348   1.879   2.043   6.989
 2483SOL    HW2 8349   1.826   1.890   7.011
 2484SOL     OW 8350   3.643   0.740   6.880
 2484SOL    HW1 8351   3.595   0.768   6.963
 2484SOL    HW2 8352   3.694   0.656   6.898
 2485SOL     OW 8353   5.891   3.485   1.093
 2485SOL    HW1 8354   5.942   3.458   1.012
 2485SOL    HW2 8355   5.794   3.494   1.070
 2486SOL     OW 8356   1.416   5.073   5.065
 2486SOL    HW1 8357   1.460   5.025   5.140
 2486SOL    HW2 8358   1.321   5.092   5.087
 2487SOL     OW 8359   4.320   6.686   0.553
 2487SOL    HW1 8360   4.283   6.733   0.633
 2487SOL    HW2 8361   4.329   6.588   0.573
 2488SOL     OW 8362   0.894   4.312   2.401
 2488SOL    HW1 8363   0.871   4.244   2.332
 2488SOL    HW2 8364   0.986   4.295   2.436
 2489SOL     OW 8365   0.794   6.177   4.096
 2489SOL    HW1 8366   0.872   6.182   4.033
 2489SOL    HW2 8367   0.740   6.095   4.076
 2490SOL     OW 8368   0.066   4.972   1.136
 2490SOL    HW1 8369   0.156   4.963   1.180
 2490SOL    HW2 8370   0.013   5.042   1.183
 2491SOL     OW 8371   3.195   4.627   0.292
 2491SOL    HW1 8372   3.178   4.633   0.391
 2491SOL    HW2 8373   3.147   4.701   0.246
 2492SOL     OW 8374   4.747   3.682   0.434
 2492SOL    HW1 8375   4.656   3.720   0.417
 2492SOL    HW2 8376   4.738   3.596   0.484
 2493SOL     OW 8377   5.769   0.031   2.320
 2493SOL    HW1 8378   5.767   0.125   2.356
 2493SOL    HW2 8379   5.824   6.998   2.380
 2494SOL     OW 8380   5.338   4.365   3.274
 2494SOL    HW1 8381   5.281   4.447   3.278
 2494SOL    HW2 8382   5.338   4.328   3.182
 2495SOL     OW 8383   5.078   6.168   3.805
 2495SOL    HW1 8384   5.090   6.133   3.898
 2495SOL    HW2 8385   5.084   6.093   3.740
 2496SOL     OW 8386   0.339   2.441   6.281
 2496SOL    HW1 8387   0.402   2.480   6.213
 2496SOL    HW2 8388   0.247   2.436   6.243
 2497SOL     OW 8389   0.169   0.371   0.421
 2497SOL    HW1 8390   0.084   0.359   0.370
 2497SOL    HW2 8391   0.190   0.288   0.472
 2498SOL     OW 8392   3.167   1.851   5.123
 2498SOL    HW1 8393   3.070   1.870   5.114
 2498SOL    HW2 8394   3.217   1.937   5.133
 2499SOL     OW 8395   6.012   3.044   2.880
 2499SOL    HW1 8396   6.096   2.999   2.849
 2499SOL    HW2 8397   5.941   2.976   2.897
 2500SOL     OW 8398   4.042   4.233   6.997
 2500SOL    HW1 8399   4.078   4.176   0.047
 2500SOL    HW2 8400   4.100   4.314   6.986
 2501SOL     OW 8401   5.314   5.370   0.798
 2501SOL    HW1 8402   5.278   5.384   0.890
 2501SOL    HW2 8403   5.241   5.339   0.737
 2502SOL     OW 8404   0.797   0.685   3.847
 2502SOL    HW1 8405   0.730   0.642   3.787
 2502SOL    HW2 8406   0.784   0.652   3.940
 2503SOL     OW 8407   2.599   6.445   4.746
 2503SOL    HW1 8408   2.552   6.533   4.756
 2503SOL    HW2 8409   2.672   6.439   4.815
 2504SOL     OW 8410   3.881   5.245   4.215
 2504SOL    HW1 8411   3.978   5.257   4.238
 2504SOL    HW2 8412   3.873   5.209   4.122
 2505SOL     OW 8413   0.168   6.997   3.195
 2505SOL    HW1 8414   0.255   7.010   3.147
 2505SOL    HW2 8415   0.130   0.061   3.221
 2506SOL     OW 8416   6.461   3.873   6.061
 2506SOL    HW1 8417   6.380   3.928   6.040
 2506SOL    HW2 8418   6.531   3.932   6.101
 2507SOL     OW 8419   6.615   3.055   0.150
 2507SOL    HW1 8420   6.686   3.065   0.220
 2507SOL    HW2 8421   6.538   3.004   0.188
 2508SOL     OW 8422   3.168   1.489   3.411
 2508SOL    HW1 8423   3.149   1.409   3.468
 2508SOL    HW2 8424   3.098   1.497   3.340
 2509SOL     OW 8425   0.093   3.868   0.821
 2509SOL    HW1 8426   0.088   3.860   0.920
 2509SOL    HW2 8427   0.170   3.928   0.796
 2510SOL     OW 8428   3.220   4.997   1.206
 2510SOL    HW1 8429   3.146   4.962   1.149
 2510SOL    HW2 8430   3.184   5.067   1.268
 2511SOL     OW 8431   3.814   1.804   4.168
 2511SOL    HW1 8432   3.791   1.901   4.175
 2511SOL    HW2 8433   3.887   1.783   4.233
 2512SOL     OW 8434   4.699   3.462   5.599
 2512SOL    HW1 8435   4.732   3.552   5.628
 2512SOL    HW2 8436   4.610   3.445   5.640
 2513SOL     OW 8437   2.170   3.915   5.267
 2513SOL    HW1 8438   2.259   3.941   5.231
 2513SOL    HW2 8439   2.111   3.885   5.193
 2514SOL     OW 8440   0.439   4.081   5.230
 2514SOL    HW1 8441   0.443   3.993   5.182
 2514SOL    HW2 8442   0.532   4.114   5.248
 2515SOL     OW 8443   1.204   6.900   0.916
 2515SOL    HW1 8444   1.266   6.827   0.944
 2515SOL    HW2 8445   1.132   6.912   0.985
 2516SOL     OW 8446   5.720   2.247   2.621
 2516SOL    HW1 8447   5.757   2.259   2.529
 2516SOL    HW2 8448   5.730   2.332   2.672
 2517SOL     OW 8449   0.313   6.890   6.470
 2517SOL    HW1 8450   0.358   6.924   6.388
 2517SOL    HW2 8451   0.239   6.952   6.496
 2518SOL     OW 8452   1.551   4.712   6.894
 2518SOL    HW1 8453   1.644   4.708   6.932
 2518SOL    HW2 8454   1.533   4.629   6.841
 2519SOL     OW 8455   3.924   6.061   1.974
 2519SOL    HW1 8456   3.920   5.978   1.918
 2519SOL    HW2 8457   3.940   6.037   2.069
 2520SOL     OW 8458   3.404   1.712   0.656
 2520SOL    HW1 8459   3.375   1.797   0.700
 2520SOL    HW2 8460   3.338   1.686   0.585
 2521SOL     OW 8461   2.802   0.749   5.568
 2521SOL    HW1 8462   2.740   0.673   5.547
 2521SOL    HW2 8463   2.766   0.833   5.528
 2522SOL     OW 8464   0.914   2.796   5.178
 2522SOL    HW1 8465   0.922   2.887   5.139
 2522SOL    HW2 8466   1.006   2.758   5.191
 2523SOL     OW 8467   0.036   3.196   1.136
 2523SOL    HW1 8468   0.048   3.110   1.186
 2523SOL    HW2 8469   0.097   3.265   1.174
 2524SOL     OW 8470   0.628   6.349   4.838
 2524SOL    HW1 8471   0.644   6.267   4.892
 2524SOL    HW2 8472   0.668   6.337   4.746
 2525SOL     OW 8473   1.237   2.374   5.534
 2525SOL    HW1 8474   1.178   2.364   5.614
 2525SOL    HW2 8475   1.324   2.328   5.551
 2526SOL     OW 8476   1.026   4.437   6.346
 2526SOL    HW1 8477   1.099   4.464   6.409
 2526SOL    HW2 8478   0.962   4.376   6.394
 2527SOL     OW 8479   5.272   6.043   5.508
 2527SOL    HW1 8480   5.238   6.135   5.524
 2527SOL    HW2 8481   5.371   6.047   5.493
 2528SOL     OW 8482   6.100   5.030   0.295
 2528SOL    HW1 8483   6.040   5.072   0.363
 2528SOL    HW2 8484   6.048   4.961   0.243
 2529SOL     OW 8485   6.855   5.905   6.311
 2529SOL    HW1 8486   6.893   5.813   6.313
 2529SOL    HW2 8487   6.812   5.925   6.399
 2530SOL     OW 8488   2.800   6.468   4.933
 2530SOL    HW1 8489   2.858   6.388   4.946
 2530SOL    HW2 8490   2.744   6.482   5.014
 2531SOL     OW 8491   5.562   5.927   4.900
 2531SOL    HW1 8492   5.601   5.897   4.813
 2531SOL    HW2 8493   5.480   5.981   4.883
 2532SOL     OW 8494   0.559   5.315   1.007
 2532SOL    HW1 8495   0.609   5.233   1.035
 2532SOL    HW2 8496   0.583   5.339   0.913
 2533SOL     OW 8497   3.176   6.491   4.269
 2533SOL    HW1 8498   3.159   6.491   4.170
 2533SOL    HW2 8499   3.266   6.531   4.287
 2534SOL     OW 8500   3.887   0.552   2.810
 2534SOL    HW1 8501   3.937   0.621   2.862
 2534SOL    HW2 8502   3.873   0.585   2.716
 2535SOL     OW 8503   3.315   2.495   5.521
 2535SOL    HW1 8504   3.302   2.558   5.597
 2535SOL    HW2 8505   3.278   2.534   5.437
 2536SOL     OW 8506   1.385   1.469   4.461
 2536SOL    HW1 8507   1.436   1.426   4.386
 2536SOL    HW2 8508   1.308   1.412   4.486
 2537SOL     OW 8509   3.641   0.242   5.899
 2537SOL    HW1 8510   3.617   0.279   5.810
 2537SOL    HW2 8511   3.692   0.311   5.951
 2538SOL     OW 8512   0.740   4.571   2.963
 2538SOL    HW1 8513   0.710   4.605   3.053
 2538SOL    HW2 8514   0.832   4.604   2.944
 2539SOL     OW 8515   6.095   0.842   4.864
 2539SOL    HW1 8516   6.145   0.843   4.778
 2539SOL    HW2 8517   6.023   0.912   4.862
 2540SOL     OW 8518   3.849   1.877   2.796
 2540SOL    HW1 8519   3.921   1.812   2.820
 2540SOL    HW2 8520   3.767   1.857   2.850
 2541SOL     OW 8521   2.824   0.446   5.080
 2541SOL    HW1 8522   2.879   0.442   4.996
 2541SOL    HW2 8523   2.731   0.415   5.061
 2542SOL     OW 8524   3.393   1.654   5.872
 2542SOL    HW1 8525   3.309   1.666   5.926
 2542SOL    HW2 8526   3.370   1.620   5.781
 2543SOL     OW 8527   1.438   0.984   3.298
 2543SOL    HW1 8528   1.486   0.918   3.357
 2543SOL    HW2 8529   1.341   0.986   3.325
 2544SOL     OW 8530   0.290   0.028   1.163
 2544SOL    HW1 8531   0.373   0.064   1.119
 2544SOL    HW2 8532   0.313   7.020   1.255
 2545SOL     OW 8533   1.222   0.267   2.322
 2545SOL    HW1 8534   1.128   0.241   2.303
 2545SOL    HW2 8535   1.222   0.348   2.382
 2546SOL     OW 8536   0.238   0.813   1.943
 2546SOL    HW1 8537   0.143   0.839   1.927
 2546SOL    HW2 8538   0.299   0.881   1.903
 2547SOL     OW 8539   6.595   5.061   0.240
 2547SOL    HW1 8540   6.511   5.083   0.191
 2547SOL    HW2 8541   6.611   5.129   0.312
 2548SOL     OW 8542   1.324   6.516   5.882
 2548SOL    HW1 8543   1.358   6.584   5.947
 2548SOL    HW2 8544   1.227   6.500   5.898
 2549SOL     OW 8545   2.118   0.441   1.087
 2549SOL    HW1 8546   2.192   0.500   1.056
 2549SOL    HW2 8547   2.046   0.439   1.018
 2550SOL     OW 8548   6.689   0.302   6.794
 2550SOL    HW1 8549   6.640   0.299   6.707
 2550SOL    HW2 8550   6.671   0.389   6.840
 2551SOL     OW 8551   3.128   5.437   0.528
 2551SOL    HW1 8552   3.073   5.494   0.588
 2551SOL    HW2 8553   3.126   5.342   0.561
 2552SOL     OW 8554   1.685   6.055   4.934
 2552SOL    HW1 8555   1.590   6.026   4.927
 2552SOL    HW2 8556   1.743   5.977   4.958
 2553SOL     OW 8557   4.985   3.301   5.835
 2553SOL    HW1 8558   4.918   3.232   5.811
 2553SOL    HW2 8559   4.942   3.369   5.895
 2554SOL     OW 8560   2.018   0.044   0.246
 2554SOL    HW1 8561   1.953   0.063   0.319
 2554SOL    HW2 8562   1.992   0.094   0.164
 2555SOL     OW 8563   5.720   6.996   5.388
 2555SOL    HW1 8564   5.691   0.029   5.465
 2555SOL    HW2 8565   5.642   6.941   5.357
 2556SOL     OW 8566   4.199   5.841   0.415
 2556SOL    HW1 8567   4.126   5.776   0.434
 2556SOL    HW2 8568   4.188   5.922   0.473
 2557SOL     OW 8569   2.383   4.564   7.007
 2557SOL    HW1 8570   2.419   4.502   0.053
 2557SOL    HW2 8571   2.360   4.512   6.926
 2558SOL     OW 8572   5.421   1.657   4.862
 2558SOL    HW1 8573   5.461   1.583   4.916
 2558SOL    HW2 8574   5.473   1.668   4.777
 2559SOL     OW 8575   0.175   3.527   4.178
 2559SOL    HW1 8576   0.202   3.446   4.229
 2559SOL    HW2 8577   0.099   3.504   4.117
 2560SOL     OW 8578   6.031   3.541   4.115
 2560SOL    HW1 8579   5.963   3.615   4.117
 2560SOL    HW2 8580   5.999   3.465   4.171
 2561SOL     OW 8581   3.145   6.321   5.357
 2561SOL    HW1 8582   3.173   6.294   5.265
 2561SOL    HW2 8583   3.172   6.251   5.423
 2562SOL     OW 8584   2.078   5.569   1.527
 2562SOL    HW1 8585   2.083   5.640   1.458
 2562SOL    HW2 8586   1.995   5.582   1.582
 2563SOL     OW 8587   3.605   2.485   0.607
 2563SOL    HW1 8588   3.556   2.447   0.685
 2563SOL    HW2 8589   3.598   2.584   0.608
 2564SOL     OW 8590   2.056   5.818   5.659
 2564SOL    HW1 8591   2.152   5.812   5.687
 2564SOL    HW2 8592   2.030   5.914   5.647
 2565SOL     OW 8593   1.465   0.682   0.260
 2565SOL    HW1 8594   1.428   0.768   0.224
 2565SOL    HW2 8595   1.488   0.695   0.357
 2566SOL     OW 8596   2.395   6.944   1.033
 2566SOL    HW1 8597   2.483   6.942   1.082
 2566SOL    HW2 8598   2.412   6.967   0.937
 2567SOL     OW 8599   0.625   1.169   0.771
 2567SOL    HW1 8600   0.725   1.171   0.767
 2567SOL    HW2 8601   0.590   1.262   0.774
 2568SOL     OW 8602   3.981   0.266   6.617
 2568SOL    HW1 8603   3.884   0.281   6.637
 2568SOL    HW2 8604   3.998   0.282   6.520
 2569SOL     OW 8605   2.791   1.696   1.777
 2569SOL    HW1 8606   2.888   1.718   1.783
 2569SOL    HW2 8607   2.753   1.684   1.869
 2570SOL     OW 8608   5.625   0.350   6.589
 2570SOL    HW1 8609   5.627   0.447   6.565
 2570SOL    HW2 8610   5.538   0.328   6.634
 2571SOL     OW 8611   2.508   4.593   6.009
 2571SOL    HW1 8612   2.523   4.675   5.954
 2571SOL    HW2 8613   2.524   4.614   6.106
 2572SOL     OW 8614   2.481   5.261   0.914
 2572SOL    HW1 8615   2.409   5.226   0.854
 2572SOL    HW2 8616   2.507   5.190   0.979
 2573SOL     OW 8617   6.821   2.343   1.851
 2573SOL    HW1 8618   6.888   2.279   1.887
 2573SOL    HW2 8619   6.821   2.338   1.751
 2574SOL     OW 8620   5.910   3.794   0.417
 2574SOL    HW1 8621   5.944   3.802   0.510
 2574SOL    HW2 8622   5.925   3.701   0.384
 2575SOL     OW 8623   4.885   5.259   0.982
 2575SOL    HW1 8624   4.850   5.352   0.990
 2575SOL    HW2 8625   4.816   5.194   1.016
 2576SOL     OW 8626   4.153   6.345   4.599
 2576SOL    HW1 8627   4.098   6.271   4.560
 2576SOL    HW2 8628   4.222   6.374   4.533
 2577SOL     OW 8629   4.434   6.578   2.012
 2577SOL    HW1 8630   4.354   6.636   1.996
 2577SOL    HW2 8631   4.514   6.635   2.032
 2578SOL     OW 8632   4.797   1.777   5.351
 2578SOL    HW1 8633   4.777   1.779   5.253
 2578SOL    HW2 8634   4.728   1.723   5.399
 2579SOL     OW 8635   1.339   6.359   3.078
 2579SOL    HW1 8636   1.414   6.357   3.144
 2579SOL    HW2 8637   1.358   6.292   3.006
 2580SOL     OW 8638   2.878   3.855   6.086
 2580SOL    HW1 8639   2.896   3.865   6.184
 2580SOL    HW2 8640   2.789   3.893   6.064
 2581SOL     OW 8641   1.536   4.976   1.492
 2581SOL    HW1 8642   1.505   4.907   1.426
 2581SOL    HW2 8643   1.634   4.992   1.478
 2582SOL     OW 8644   0.620   4.225   1.648
 2582SOL    HW1 8645   0.557   4.162   1.694
 2582SOL    HW2 8646   0.600   4.226   1.550
 2583SOL     OW 8647   1.478   1.472   6.899
 2583SOL    HW1 8648   1.523   1.383   6.910
 2583SOL    HW2 8649   1.480   1.499   6.803
 2584SOL     OW 8650   4.170   4.920   6.121
 2584SOL    HW1 8651   4.113   4.842   6.096
 2584SOL    HW2 8652   4.153   4.995   6.057
 2585SOL     OW 8653   4.435   3.326   0.211
 2585SOL    HW1 8654   4.531   3.309   0.233
 2585SOL    HW2 8655   4.399   3.249   0.158
 2586SOL     OW 8656   4.172   1.163   3.286
 2586SOL    HW1 8657   4.138   1.110   3.208
 2586SOL    HW2 8658   4.167   1.260   3.264
 2587SOL     OW 8659   0.007   0.681   3.205
 2587SOL    HW1 8660   6.958   0.713   3.144
 2587SOL    HW2 8661   0.053   0.759   3.247
 2588SOL     OW 8662   4.985   1.423   6.526
 2588SOL    HW1 8663   4.942   1.459   6.443
 2588SOL    HW2 8664   4.977   1.323   6.528
 2589SOL     OW 8665   0.936   6.573   5.480
 2589SOL    HW1 8666   0.966   6.506   5.547
 2589SOL    HW2 8667   0.836   6.576   5.478
 2590SOL     OW 8668   3.114   5.110   0.108
 2590SOL    HW1 8669   3.214   5.120   0.100
 2590SOL    HW2 8670   3.076   5.187   0.158
 2591SOL     OW 8671   0.005   4.788   3.342
 2591SOL    HW1 8672   6.936   4.823   3.330
 2591SOL    HW2 8673   0.062   4.857   3.386
 2592SOL     OW 8674   3.235   5.517   0.069
 2592SOL    HW1 8675   3.230   5.462   7.009
 2592SOL    HW2 8676   3.142   5.530   0.106
 2593SOL     OW 8677   4.291   5.483   0.085
 2593SOL    HW1 8678   4.320   5.542   0.159
 2593SOL    HW2 8679   4.199   5.509   0.055
 2594SOL     OW 8680   1.708   4.511   5.891
 2594SOL    HW1 8681   1.621   4.547   5.858
 2594SOL    HW2 8682   1.782   4.544   5.832
 2595SOL     OW 8683   6.989   0.379   3.845
 2595SOL    HW1 8684   6.912   0.373   3.781
 2595SOL    HW2 8685   0.021   0.297   3.837
 2596SOL     OW 8686   3.211   2.032   1.712
 2596SOL    HW1 8687   3.137   2.058   1.774
 2596SOL    HW2 8688   3.292   2.008   1.765
 2597SOL     OW 8689   0.313   4.864   5.688
 2597SOL    HW1 8690   0.353   4.774   5.672
 2597SOL    HW2 8691   0.214   4.858   5.681
 2598SOL     OW 8692   6.281   1.544   2.877
 2598SOL    HW1 8693   6.185   1.516   2.889
 2598SOL    HW2 8694   6.339   1.462   2.875
 2599SOL     OW 8695   1.079   5.842   1.048
 2599SOL    HW1 8696   1.156   5.788   1.015
 2599SOL    HW2 8697   1.111   5.932   1.078
 2600SOL     OW 8698   5.845   3.199   4.635
 2600SOL    HW1 8699   5.878   3.104   4.629
 2600SOL    HW2 8700   5.771   3.212   4.569
 2601SOL     OW 8701   2.041   1.661   2.154
 2601SOL    HW1 8702   2.109   1.706   2.212
 2601SOL    HW2 8703   2.021   1.720   2.075
 2602SOL     OW 8704   1.143   4.753   4.817
 2602SOL    HW1 8705   1.047   4.736   4.839
 2602SOL    HW2 8706   1.193   4.666   4.817
 2603SOL     OW 8707   3.480   0.520   3.719
 2603SOL    HW1 8708   3.573   0.486   3.712
 2603SOL    HW2 8709   3.477   0.596   3.784
 2604SOL     OW 8710   4.714   2.351   2.657
 2604SOL    HW1 8711   4.717   2.428   2.594
 2604SOL    HW2 8712   4.663   2.275   2.615
 2605SOL     OW 8713   1.799   2.829   3.322
 2605SOL    HW1 8714   1.896   2.801   3.319
 2605SOL    HW2 8715   1.777   2.862   3.414
 2606SOL     OW 8716   5.437   4.755   1.369
 2606SOL    HW1 8717   5.437   4.755   1.269
 2606SOL    HW2 8718   5.346   4.733   1.403
 2607SOL     OW 8719   1.353   1.601   2.252
 2607SOL    HW1 8720   1.411   1.632   2.177
 2607SOL    HW2 8721   1.260   1.586   2.218
 2608SOL     OW 8722   4.111   5.165   0.453
 2608SOL    HW1 8723   4.178   5.187   0.383
 2608SOL    HW2 8724   4.153   5.173   0.543
 2609SOL     OW 8725   6.629   0.938   2.180
 2609SOL    HW1 8726   6.676   0.880   2.247
 2609SOL    HW2 8727   6.590   0.880   2.109
 2610SOL     OW 8728   0.846   3.828   4.299
 2610SOL    HW1 8729   0.880   3.807   4.392
 2610SOL    HW2 8730   0.746   3.827   4.299
 2611SOL     OW 8731   4.109   6.043   0.886
 2611SOL    HW1 8732   4.205   6.015   0.877
 2611SOL    HW2 8733   4.105   6.143   0.898
 2612SOL     OW 8734   6.348   6.594   4.502
 2612SOL    HW1 8735   6.357   6.538   4.585
 2612SOL    HW2 8736   6.320   6.687   4.527
 2613SOL     OW 8737   1.823   5.431   5.990
 2613SOL    HW1 8738   1.889   5.483   5.936
 2613SOL    HW2 8739   1.744   5.409   5.934
 2614SOL     OW 8740   6.556   2.142   0.285
 2614SOL    HW1 8741   6.492   2.065   0.283
 2614SOL    HW2 8742   6.649   2.108   0.300
 2615SOL     OW 8743   0.727   3.476   2.447
 2615SOL    HW1 8744   0.641   3.527   2.442
 2615SOL    HW2 8745   0.729   3.405   2.376
 2616SOL     OW 8746   2.442   2.867   6.105
 2616SOL    HW1 8747   2.437   2.826   6.197
 2616SOL    HW2 8748   2.537   2.890   6.085
 2617SOL     OW 8749   4.220   0.764   0.427
 2617SOL    HW1 8750   4.124   0.790   0.438
 2617SOL    HW2 8751   4.239   0.748   0.330
 2618SOL     OW 8752   6.890   0.226   4.102
 2618SOL    HW1 8753   6.942   0.220   4.187
 2618SOL    HW2 8754   6.919   0.307   4.051
 2619SOL     OW 8755   5.352   2.118   1.566
 2619SOL    HW1 8756   5.266   2.068   1.561
 2619SOL    HW2 8757   5.424   2.064   1.521
 2620SOL     OW 8758   6.997   6.749   3.610
 2620SOL    HW1 8759   7.013   6.771   3.513
 2620SOL    HW2 8760   6.954   6.827   3.655
 2621SOL     OW 8761   0.813   5.185   2.284
 2621SOL    HW1 8762   0.782   5.169   2.378
 2621SOL    HW2 8763   0.774   5.272   2.251
 2622SOL     OW 8764   1.964   4.023   6.145
 2622SOL    HW1 8765   1.967   4.011   6.245
 2622SOL    HW2 8766   1.919   3.944   6.104
 2623SOL     OW 8767   0.843   0.414   5.675
 2623SOL    HW1 8768   0.787   0.412   5.593
 2623SOL    HW2 8769   0.789   0.447   5.752
 2624SOL     OW 8770   0.539   1.592   4.878
 2624SOL    HW1 8771   0.491   1.514   4.918
 2624SOL    HW2 8772   0.551   1.577   4.780
 2625SOL     OW 8773   2.662   3.658   6.084
 2625SOL    HW1 8774   2.745   3.688   6.037
 2625SOL    HW2 8775   2.659   3.558   6.086
 2626SOL     OW 8776   6.873   0.538   6.417
 2626SOL    HW1 8777   6.892   0.577   6.507
 2626SOL    HW2 8778   6.786   0.489   6.419
 2627SOL     OW 8779   1.420   1.043   6.282
 2627SOL    HW1 8780   1.478   1.109   6.234
 2627SOL    HW2 8781   1.429   0.953   6.239
 2628SOL     OW 8782   2.255   4.064   5.738
 2628SOL    HW1 8783   2.196   4.076   5.658
 2628SOL    HW2 8784   2.245   3.971   5.774
 2629SOL     OW 8785   3.724   3.459   2.064
 2629SOL    HW1 8786   3.683   3.453   1.973
 2629SOL    HW2 8787   3.823   3.456   2.056
 2630SOL     OW 8788   3.568   1.204   2.466
 2630SOL    HW1 8789   3.663   1.221   2.494
 2630SOL    HW2 8790   3.566   1.139   2.391
 2631SOL     OW 8791   5.290   0.609   6.461
 2631SOL    HW1 8792   5.219   0.597   6.392
 2631SOL    HW2 8793   5.301   0.706   6.481
 2632SOL     OW 8794   5.769   3.037   0.764
 2632SOL    HW1 8795   5.713   2.956   0.745
 2632SOL    HW2 8796   5.786   3.044   0.862
 2633SOL     OW 8797   0.066   1.639   4.899
 2633SOL    HW1 8798   7.011   1.698   4.883
 2633SOL    HW2 8799   0.035   1.547   4.922
 2634SOL     OW 8800   0.859   5.185   3.552
 2634SOL    HW1 8801   0.926   5.120   3.515
 2634SOL    HW2 8802   0.881   5.205   3.648
 2635SOL     OW 8803   6.759   6.011   4.368
 2635SOL    HW1 8804   6.708   5.931   4.401
 2635SOL    HW2 8805   6.835   5.981   4.311
 2636SOL     OW 8806   3.896   0.617   6.510
 2636SOL    HW1 8807   3.931   0.666   6.590
 2636SOL    HW2 8808   3.822   0.555   6.538
 2637SOL     OW 8809   6.091   2.012   4.156
 2637SOL    HW1 8810   6.147   2.066   4.094
 2637SOL    HW2 8811   6.095   1.916   4.130
 2638SOL     OW 8812   6.851   6.864   4.481
 2638SOL    HW1 8813   6.768   6.912   4.451
 2638SOL    HW2 8814   6.890   6.912   4.560
 2639SOL     OW 8815   6.788   6.210   0.250
 2639SOL    HW1 8816   6.879   6.215   0.293
 2639SOL    HW2 8817   6.791   6.254   0.161
 2640SOL     OW 8818   6.775   6.508   5.467
 2640SOL    HW1 8819   6.813   6.453   5.393
 2640SOL    HW2 8820   6.682   6.537   5.443
 2641SOL     OW 8821   5.493   2.541   1.962
 2641SOL    HW1 8822   5.449   2.532   1.873
 2641SOL    HW2 8823   5.492   2.452   2.009
 2642SOL     OW 8824   6.184   0.302   3.816
 2642SOL    HW1 8825   6.133   0.388   3.815
 2642SOL    HW2 8826   6.130   0.232   3.862
 2643SOL     OW 8827   1.393   3.578   3.749
 2643SOL    HW1 8828   1.391   3.537   3.840
 2643SOL    HW2 8829   1.334   3.659   3.749
 2644SOL     OW 8830   4.747   5.043   4.833
 2644SOL    HW1 8831   4.751   5.115   4.903
 2644SOL    HW2 8832   4.653   5.033   4.802
 2645SOL     OW 8833   4.376   5.480   4.026
 2645SOL    HW1 8834   4.362   5.541   3.948
 2645SOL    HW2 8835   4.375   5.534   4.110
 2646SOL     OW 8836   6.803   2.044   0.325
 2646SOL    HW1 8837   6.838   2.020   0.234
 2646SOL    HW2 8838   6.880   2.072   0.383
 2647SOL     OW 8839   6.197   6.622   1.798
 2647SOL    HW1 8840   6.224   6.586   1.709
 2647SOL    HW2 8841   6.244   6.708   1.815
 2648SOL     OW 8842   6.868   6.007   4.037
 2648SOL    HW1 8843   6.902   6.100   4.027
 2648SOL    HW2 8844   6.906   5.966   4.120
 2649SOL     OW 8845   6.252   3.208   0.925
 2649SOL    HW1 8846   6.173   3.268   0.941
 2649SOL    HW2 8847   6.336   3.257   0.948
 2650SOL     OW 8848   2.067   4.857   4.007
 2650SOL    HW1 8849   2.019   4.774   4.037
 2650SOL    HW2 8850   2.048   4.931   4.073
 2651SOL     OW 8851   2.972   1.502   1.326
 2651SOL    HW1 8852   3.026   1.463   1.251
 2651SOL    HW2 8853   2.986   1.601   1.329
 2652SOL     OW 8854   4.467   3.345   5.751
 2652SOL    HW1 8855   4.491   3.397   5.833
 2652SOL    HW2 8856   4.396   3.279   5.771
 2653SOL     OW 8857   4.788   6.212   5.889
 2653SOL    HW1 8858   4.762   6.169   5.976
 2653SOL    HW2 8859   4.707   6.251   5.845
 2654SOL     OW 8860   4.720   7.024   1.170
 2654SOL    HW1 8861   4.818   7.005   1.176
 2654SOL    HW2 8862   4.690   7.017   1.075
 2655SOL     OW 8863   4.919   5.729   3.864
 2655SOL    HW1 8864   4.865   5.668   3.922
 2655SOL    HW2 8865   4.965   5.797   3.922
 2656SOL     OW 8866   3.608   5.492   4.543
 2656SOL    HW1 8867   3.628   5.430   4.467
 2656SOL    HW2 8868   3.542   5.561   4.514
 2657SOL     OW 8869   1.607   3.725   0.359
 2657SOL    HW1 8870   1.555   3.715   0.444
 2657SOL    HW2 8871   1.604   3.639   0.308
 2658SOL     OW 8872   4.791   4.723   0.012
 2658SOL    HW1 8873   4.830   4.640   6.996
 2658SOL    HW2 8874   4.694   4.706   0.034
 2659SOL     OW 8875   4.741   3.185   5.329
 2659SOL    HW1 8876   4.781   3.175   5.420
 2659SOL    HW2 8877   4.707   3.278   5.318
 2660SOL     OW 8878   0.772   0.280   1.869
 2660SOL    HW1 8879   0.707   0.239   1.933
 2660SOL    HW2 8880   0.747   0.255   1.775
 2661SOL     OW 8881   1.882   6.567   1.425
 2661SOL    HW1 8882   1.870   6.473   1.455
 2661SOL    HW2 8883   1.887   6.570   1.325
 2662SOL     OW 8884   3.036   0.276   4.186
 2662SOL    HW1 8885   3.107   0.208   4.168
 2662SOL    HW2 8886   3.049   0.354   4.125
 2663SOL     OW 8887   4.436   4.469   6.450
 2663SOL    HW1 8888   4.415   4.372   6.437
 2663SOL    HW2 8889   4.513   4.495   6.391
 2664SOL     OW 8890   4.422   3.266   5.397
 2664SOL    HW1 8891   4.397   3.319   5.478
 2664SOL    HW2 8892   4.493   3.315   5.347
 2665SOL     OW 8893   2.682   3.531   5.443
 2665SOL    HW1 8894   2.637   3.586   5.513
 2665SOL    HW2 8895   2.689   3.436   5.474
 2666SOL     OW 8896   1.381   4.619   1.590
 2666SOL    HW1 8897   1.445   4.541   1.588
 2666SOL    HW2 8898   1.289   4.585   1.608
 2667SOL     OW 8899   1.282   5.682   3.689
 2667SOL    HW1 8900   1.244   5.760   3.738
 2667SOL    HW2 8901   1.376   5.702   3.662
 2668SOL     OW 8902   6.295   2.802   4.701
 2668SOL    HW1 8903   6.380   2.846   4.673
 2668SOL    HW2 8904   6.315   2.732   4.769
 2669SOL     OW 8905   3.128   5.331   6.389
 2669SOL    HW1 8906   3.076   5.344   6.305
 2669SOL    HW2 8907   3.210   5.388   6.387
 2670SOL     OW 8908   5.851   3.152   4.914
 2670SOL    HW1 8909   5.845   3.145   4.815
 2670SOL    HW2 8910   5.928   3.097   4.946
 2671SOL     OW 8911   5.068   5.120   6.422
 2671SOL    HW1 8912   5.004   5.161   6.487
 2671SOL    HW2 8913   5.115   5.043   6.464
 2672SOL     OW 8914   3.089   6.449   1.478
 2672SOL    HW1 8915   3.177   6.408   1.455
 2672SOL    HW2 8916   3.096   6.549   1.473
 2673SOL     OW 8917   6.343   2.216   2.024
 2673SOL    HW1 8918   6.437   2.241   2.001
 2673SOL    HW2 8919   6.283   2.244   1.949
 2674SOL     OW 8920   0.855   4.490   3.986
 2674SOL    HW1 8921   0.891   4.508   4.078
 2674SOL    HW2 8922   0.782   4.555   3.966
 2675SOL     OW 8923   6.787   6.324   3.813
 2675SOL    HW1 8924   6.731   6.394   3.857
 2675SOL    HW2 8925   6.825   6.362   3.728
 2676SOL     OW 8926   3.203   3.074   1.459
 2676SOL    HW1 8927   3.154   3.057   1.545
 2676SOL    HW2 8928   3.141   3.059   1.382
 2677SOL     OW 8929   2.540   4.397   1.358
 2677SOL    HW1 8930   2.598   4.470   1.394
 2677SOL    HW2 8931   2.452   4.397   1.406
 2678SOL     OW 8932   0.104   2.610   2.253
 2678SOL    HW1 8933   0.199   2.581   2.267
 2678SOL    HW2 8934   0.050   2.583   2.333
 2679SOL     OW 8935   1.947   4.603   2.448
 2679SOL    HW1 8936   2.012   4.579   2.519
 2679SOL    HW2 8937   1.989   4.670   2.386
 2680SOL     OW 8938   0.726   2.325   0.447
 2680SOL    HW1 8939   0.696   2.246   0.500
 2680SOL    HW2 8940   0.670   2.334   0.365
 2681SOL     OW 8941   1.065   2.427   4.867
 2681SOL    HW1 8942   1.060   2.526   4.869
 2681SOL    HW2 8943   0.992   2.388   4.922
 2682SOL     OW 8944   4.802   4.230   3.594
 2682SOL    HW1 8945   4.831   4.146   3.641
 2682SOL    HW2 8946   4.745   4.205   3.515
 2683SOL     OW 8947   2.314   4.766   2.065
 2683SOL    HW1 8948   2.287   4.796   1.973
 2683SOL    HW2 8949   2.293   4.838   2.131
 2684SOL     OW 8950   4.579   6.987   1.981
 2684SOL    HW1 8951   4.617   6.896   1.994
 2684SOL    HW2 8952   4.517   7.008   2.057
 2685SOL     OW 8953   5.711   5.352   5.949
 2685SOL    HW1 8954   5.675   5.440   5.979
 2685SOL    HW2 8955   5.753   5.362   5.859
 2686SOL     OW 8956   1.286   1.679   5.267
 2686SOL    HW1 8957   1.380   1.661   5.241
 2686SOL    HW2 8958   1.257   1.613   5.337
 2687SOL     OW 8959   3.727   5.688   0.386
 2687SOL    HW1 8960   3.779   5.603   0.371
 2687SOL    HW2 8961   3.685   5.716   0.299
 2688SOL     OW 8962   2.301   2.339   0.474
 2688SOL    HW1 8963   2.287   2.250   0.518
 2688SOL    HW2 8964   2.357   2.397   0.533
 2689SOL     OW 8965   6.813   3.826   2.416
 2689SOL    HW1 8966   6.877   3.896   2.383
 2689SOL    HW2 8967   6.750   3.801   2.343
 2690SOL     OW 8968   3.079   3.381   6.444
 2690SOL    HW1 8969   2.981   3.368   6.431
 2690SOL    HW2 8970   3.113   3.447   6.377
 2691SOL     OW 8971   0.036   4.664   3.903
 2691SOL    HW1 8972   0.127   4.703   3.910
 2691SOL    HW2 8973   0.021   4.631   3.810
 2692SOL     OW 8974   2.418   6.935   3.072
 2692SOL    HW1 8975   2.326   6.896   3.075
 2692SOL    HW2 8976   2.422   7.015   3.133
 2693SOL     OW 8977   2.434   4.967   4.196
 2693SOL    HW1 8978   2.397   4.991   4.286
 2693SOL    HW2 8979   2.437   4.867   4.187
 2694SOL     OW 8980   3.847   6.699   3.636
 2694SOL    HW1 8981   3.765   6.738   3.679
 2694SOL    HW2 8982   3.820   6.623   3.577
 2695SOL     OW 8983   5.575   0.278   2.980
 2695SOL    HW1 8984   5.658   0.311   2.933
 2695SOL    HW2 8985   5.504   0.348   2.975
 2696SOL     OW 8986   4.749   3.952   5.670
 2696SOL    HW1 8987   4.657   3.920   5.650
 2696SOL    HW2 8988   4.807   3.874   5.694
 2697SOL     OW 8989   4.118   1.539   2.508
 2697SOL    HW1 8990   4.031   1.589   2.510
 2697SOL    HW2 8991   4.173   1.574   2.432
 2698SOL     OW 8992   1.760   4.854   6.713
 2698SOL    HW1 8993   1.776   4.756   6.721
 2698SOL    HW2 8994   1.830   4.895   6.655
 2699SOL     OW 8995   2.999   6.182   0.800
 2699SOL    HW1 8996   3.016   6.159   0.895
 2699SOL    HW2 8997   3.021   6.104   0.742
 2700SOL     OW 8998   2.791   1.702   0.945
 2700SOL    HW1 8999   2.888   1.699   0.920
 2700SOL    HW2 9000   2.736   1.712   0.862
 2701SOL     OW 9001   5.298   2.082   5.640
 2701SOL    HW1 9002   5.222   2.117   5.695
 2701SOL    HW2 9003   5.350   2.158   5.602
 2702SOL     OW 9004   0.881   2.452   3.182
 2702SOL    HW1 9005   0.830   2.493   3.105
 2702SOL    HW2 9006   0.947   2.518   3.216
 2703SOL     OW 9007   1.292   6.015   1.584
 2703SOL    HW1 9008   1.353   5.958   1.640
 2703SOL    HW2 9009   1.282   6.105   1.626
 2704SOL     OW 9010   6.575   6.433   2.028
 2704SOL    HW1 9011   6.486   6.390   2.015
 2704SOL    HW2 9012   6.606   6.474   1.942
 2705SOL     OW 9013   6.684   0.544   5.074
 2705SOL    HW1 9014   6.616   0.491   5.125
 2705SOL    HW2 9015   6.638   0.598   5.004
 2706SOL     OW 9016   6.589   4.754   3.363
 2706SOL    HW1 9017   6.624   4.679   3.308
 2706SOL    HW2 9018   6.489   4.757   3.355
 2707SOL     OW 9019   4.153   0.239   4.417
 2707SOL    HW1 9020   4.191   0.272   4.504
 2707SOL    HW2 9021   4.160   0.140   4.413
 2708SOL     OW 9022   6.214   2.791   1.222
 2708SOL    HW1 9023   6.144   2.848   1.266
 2708SOL    HW2 9024   6.251   2.726   1.288
 2709SOL     OW 9025   4.924   0.172   6.767
 2709SOL    HW1 9026   5.006   0.205   6.721
 2709SOL    HW2 9027   4.923   0.206   6.861
 2710SOL     OW 9028   1.749   2.593   4.085
 2710SOL    HW1 9029   1.835   2.625   4.047
 2710SOL    HW2 9030   1.727   2.646   4.167
 2711SOL     OW 9031   3.195   0.596   3.674
 2711SOL    HW1 9032   3.286   0.560   3.693
 2711SOL    HW2 9033   3.128   0.522   3.675
 2712SOL     OW 9034   2.174   5.686   2.136
 2712SOL    HW1 9035   2.170   5.601   2.084
 2712SOL    HW2 9036   2.259   5.735   2.115
 2713SOL     OW 9037   3.360   4.012   6.455
 2713SOL    HW1 9038   3.312   4.090   6.495
 2713SOL    HW2 9039   3.334   3.929   6.504
 2714SOL     OW 9040   3.548   3.540   6.783
 2714SOL    HW1 9041   3.467   3.588   6.816
 2714SOL    HW2 9042   3.534   3.514   6.687
 2715SOL     OW 9043   5.483   2.365   0.638
 2715SOL    HW1 9044   5.497   2.449   0.586
 2715SOL    HW2 9045   5.455   2.387   0.731
 2716SOL     OW 9046   5.038   3.354   3.921
 2716SOL    HW1 9047   5.015   3.417   3.847
 2716SOL    HW2 9048   5.117   3.300   3.894
 2717SOL     OW 9049   0.556   0.051   1.714
 2717SOL    HW1 9050   0.573   0.050   1.813
 2717SOL    HW2 9051   0.596   6.994   1.672
 2718SOL     OW 9052   0.460   0.860   5.445
 2718SOL    HW1 9053   0.526   0.867   5.370
 2718SOL    HW2 9054   0.370   0.890   5.412
 2719SOL     OW 9055   1.111   4.531   1.554
 2719SOL    HW1 9056   1.064   4.461   1.608
 2719SOL    HW2 9057   1.087   4.622   1.588
 2720SOL     OW 9058   1.237   0.413   2.811
 2720SOL    HW1 9059   1.301   0.440   2.883
 2720SOL    HW2 9060   1.166   0.355   2.850
 2721SOL     OW 9061   3.312   6.603   3.317
 2721SOL    HW1 9062   3.307   6.528   3.250
 2721SOL    HW2 9063   3.354   6.570   3.401
 2722SOL     OW 9064   5.328   5.109   6.742
 2722SOL    HW1 9065   5.408   5.164   6.716
 2722SOL    HW2 9066   5.357   5.034   6.801
 2723SOL     OW 9067   1.978   5.910   6.613
 2723SOL    HW1 9068   1.944   5.997   6.649
 2723SOL    HW2 9069   2.029   5.862   6.685
 2724SOL     OW 9070   1.305   6.301   6.391
 2724SOL    HW1 9071   1.276   6.394   6.413
 2724SOL    HW2 9072   1.277   6.280   6.297
 2725SOL     OW 9073   5.373   4.239   4.937
 2725SOL    HW1 9074   5.310   4.314   4.956
 2725SOL    HW2 9075   5.467   4.272   4.942
 2726SOL     OW 9076   0.363   2.506   1.876
 2726SOL    HW1 9077   0.287   2.569   1.859
 2726SOL    HW2 9078   0.366   2.483   1.973
 2727SOL     OW 9079   1.353   3.762   4.370
 2727SOL    HW1 9080   1.324   3.719   4.285
 2727SOL    HW2 9081   1.439   3.811   4.356
 2728SOL     OW 9082   5.315   6.060   5.936
 2728SOL    HW1 9083   5.332   6.002   6.015
 2728SOL    HW2 9084   5.222   6.096   5.940
 2729SOL     OW 9085   6.527   6.466   0.124
 2729SOL    HW1 9086   6.510   6.380   0.075
 2729SOL    HW2 9087   6.625   6.488   0.118
 2730SOL     OW 9088   1.122   6.369   1.978
 2730SOL    HW1 9089   1.131   6.448   1.918
 2730SOL    HW2 9090   1.206   6.357   2.031
 2731SOL     OW 9091   2.989   3.761   2.819
 2731SOL    HW1 9092   2.960   3.763   2.723
 2731SOL    HW2 9093   2.971   3.670   2.857
 2732SOL     OW 9094   5.802   1.693   0.851
 2732SOL    HW1 9095   5.761   1.603   0.866
 2732SOL    HW2 9096   5.730   1.761   0.841
 2733SOL     OW 9097   6.807   1.701   5.053
 2733SOL    HW1 9098   6.880   1.759   5.016
 2733SOL    HW2 9099   6.719   1.728   5.014
 2734SOL     OW 9100   3.166   5.807   1.390
 2734SOL    HW1 9101   3.230   5.763   1.453
 2734SOL    HW2 9102   3.078   5.758   1.392
 2735SOL     OW 9103   1.260   2.183   2.065
 2735SOL    HW1 9104   1.336   2.129   2.029
 2735SOL    HW2 9105   1.257   2.272   2.020
 2736SOL     OW 9106   6.047   6.341   4.815
 2736SOL    HW1 9107   6.108   6.382   4.883
 2736SOL    HW2 9108   5.991   6.413   4.774
 2737SOL     OW 9109   3.022   3.584   5.414
 2737SOL    HW1 9110   3.086   3.649   5.373
 2737SOL    HW2 9111   2.928   3.611   5.393
 2738SOL     OW 9112   6.052   6.191   2.188
 2738SOL    HW1 9113   6.124   6.253   2.220
 2738SOL    HW2 9114   6.064   6.101   2.232
 2739SOL     OW 9115   1.302   4.559   0.846
 2739SOL    HW1 9116   1.217   4.533   0.893
 2739SOL    HW2 9117   1.332   4.484   0.787
 2740SOL     OW 9118   6.840   5.280   1.828
 2740SOL    HW1 9119   6.914   5.224   1.865
 2740SOL    HW2 9120   6.832   5.263   1.729
 2741SOL     OW 9121   6.689   1.434   5.037
 2741SOL    HW1 9122   6.763   1.491   5.072
 2741SOL    HW2 9123   6.710   1.406   4.943
 2742SOL     OW 9124   1.890   5.367   0.577
 2742SOL    HW1 9125   1.986   5.370   0.549
 2742SOL    HW2 9126   1.875   5.433   0.651
 2743SOL     OW 9127   0.022   4.846   2.388
 2743SOL    HW1 9128   6.960   4.897   2.392
 2743SOL    HW2 9129   0.092   4.897   2.438
 2744SOL     OW 9130   4.577   3.112   0.800
 2744SOL    HW1 9131   4.502   3.057   0.762
 2744SOL    HW2 9132   4.588   3.195   0.744
 2745SOL     OW 9133   6.510   1.117   4.762
 2745SOL    HW1 9134   6.569   1.197   4.771
 2745SOL    HW2 9135   6.434   1.124   4.827
 2746SOL     OW 9136   1.044   2.523   4.327
 2746SOL    HW1 9137   1.017   2.457   4.397
 2746SOL    HW2 9138   1.067   2.610   4.369
 2747SOL     OW 9139   5.100   5.693   6.809
 2747SOL    HW1 9140   5.057   5.618   6.859
 2747SOL    HW2 9141   5.030   5.745   6.760
 2748SOL     OW 9142   4.576   1.168   2.048
 2748SOL    HW1 9143   4.594   1.259   2.087
 2748SOL    HW2 9144   4.623   1.160   1.960
 2749SOL     OW 9145   6.566   4.649   0.964
 2749SOL    HW1 9146   6.650   4.698   0.940
 2749SOL    HW2 9147   6.552   4.654   1.062
 2750SOL     OW 9148   2.254   4.302   2.134
 2750SOL    HW1 9149   2.253   4.207   2.105
 2750SOL    HW2 9150   2.348   4.337   2.131
 2751SOL     OW 9151   0.809   2.388   1.645
 2751SOL    HW1 9152   0.749   2.309   1.633
 2751SOL    HW2 9153   0.789   2.432   1.732
 2752SOL     OW 9154   3.238   4.384   6.253
 2752SOL    HW1 9155   3.150   4.349   6.284
 2752SOL    HW2 9156   3.312   4.330   6.295
 2753SOL     OW 9157   6.611   6.351   4.882
 2753SOL    HW1 9158   6.604   6.252   4.898
 2753SOL    HW2 9159   6.639   6.397   4.966
 2754SOL     OW 9160   0.420   0.329   0.323
 2754SOL    HW1 9161   0.329   0.327   0.365
 2754SOL    HW2 9162   0.448   0.424   0.309
 2755SOL     OW 9163   3.857   6.789   2.819
 2755SOL    HW1 9164   3.929   6.731   2.781
 2755SOL    HW2 9165   3.874   6.884   2.794
 2756SOL     OW 9166   4.117   6.096   6.900
 2756SOL    HW1 9167   4.126   5.997   6.889
 2756SOL    HW2 9168   4.101   6.138   6.811
 2757SOL     OW 9169   2.128   6.449   0.228
 2757SOL    HW1 9170   2.065   6.390   0.278
 2757SOL    HW2 9171   2.102   6.544   0.241
 2758SOL     OW 9172   4.562   0.291   4.175
 2758SOL    HW1 9173   4.471   0.270   4.139
 2758SOL    HW2 9174   4.619   0.327   4.101
 2759SOL     OW 9175   5.891   6.719   5.632
 2759SOL    HW1 9176   5.950   6.779   5.577
 2759SOL    HW2 9177   5.805   6.704   5.583
 2760SOL     OW 9178   0.748   5.926   1.658
 2760SOL    HW1 9179   0.658   5.906   1.698
 2760SOL    HW2 9180   0.811   5.853   1.682
 2761SOL     OW 9181   2.164   4.507   4.072
 2761SOL    HW1 9182   2.124   4.502   4.163
 2761SOL    HW2 9183   2.225   4.429   4.057
 2762SOL     OW 9184   1.543   0.825   5.268
 2762SOL    HW1 9185   1.566   0.915   5.303
 2762SOL    HW2 9186   1.520   0.831   5.171
 2763SOL     OW 9187   5.179   1.549   4.027
 2763SOL    HW1 9188   5.245   1.489   4.071
 2763SOL    HW2 9189   5.225   1.606   3.959
 2764SOL     OW 9190   6.325   0.938   0.902
 2764SOL    HW1 9191   6.326   0.869   0.830
 2764SOL    HW2 9192   6.297   1.026   0.865
 2765SOL     OW 9193   5.488   0.400   0.560
 2765SOL    HW1 9194   5.492   0.433   0.465
 2765SOL    HW2 9195   5.576   0.362   0.586
 2766SOL     OW 9196   4.580   2.476   0.467
 2766SOL    HW1 9197   4.559   2.544   0.538
 2766SOL    HW2 9198   4.648   2.411   0.502
 2767SOL     OW 9199   6.753   5.343   0.023
 2767SOL    HW1 9200   6.704   5.415   6.997
 2767SOL    HW2 9201   6.803   5.286   6.982
 2768SOL     OW 9202   4.928   0.517   0.354
 2768SOL    HW1 9203   4.868   0.535   0.276
 2768SOL    HW2 9204   4.885   0.552   0.438
 2769SOL     OW 9205   0.543   4.203   3.725
 2769SOL    HW1 9206   0.565   4.122   3.780
 2769SOL    HW2 9207   0.622   4.264   3.722
 2770SOL     OW 9208   2.551   5.566   5.879
 2770SOL    HW1 9209   2.623   5.519   5.828
 2770SOL    HW2 9210   2.494   5.499   5.926
 2771SOL     OW 9211   6.251   0.761   2.723
 2771SOL    HW1 9212   6.255   0.733   2.819
 2771SOL    HW2 9213   6.289   0.852   2.713
 2772SOL     OW 9214   4.430   1.130   0.898
 2772SOL    HW1 9215   4.398   1.184   0.975
 2772SOL    HW2 9216   4.373   1.048   0.888
 2773SOL     OW 9217   5.597   2.458   5.275
 2773SOL    HW1 9218   5.578   2.495   5.185
 2773SOL    HW2 9219   5.542   2.507   5.343
 2774SOL     OW 9220   6.167   3.890   3.533
 2774SOL    HW1 9221   6.173   3.899   3.433
 2774SOL    HW2 9222   6.121   3.805   3.556
 2775SOL     OW 9223   6.816   5.366   6.433
 2775SOL    HW1 9224   6.810   5.295   6.503
 2775SOL    HW2 9225   6.904   5.412   6.440
 2776SOL     OW 9226   5.179   5.113   5.773
 2776SOL    HW1 9227   5.278   5.111   5.787
 2776SOL    HW2 9228   5.143   5.203   5.798
 2777SOL     OW 9229   2.701   1.044   2.254
 2777SOL    HW1 9230   2.785   0.991   2.255
 2777SOL    HW2 9231   2.710   1.122   2.316
 2778SOL     OW 9232   1.252   0.101   5.183
 2778SOL    HW1 9233   1.301   0.018   5.207
 2778SOL    HW2 9234   1.180   0.080   5.116
 2779SOL     OW 9235   4.903   6.798   1.011
 2779SOL    HW1 9236   4.963   6.735   0.961
 2779SOL    HW2 9237   4.879   6.758   1.099
 2780SOL     OW 9238   6.625   6.174   6.667
 2780SOL    HW1 9239   6.718   6.166   6.631
 2780SOL    HW2 9240   6.628   6.203   6.762
 2781SOL     OW 9241   6.007   5.906   1.564
 2781SOL    HW1 9242   5.996   5.834   1.633
 2781SOL    HW2 9243   5.988   5.868   1.473
 2782SOL     OW 9244   3.511   1.921   5.479
 2782SOL    HW1 9245   3.544   2.009   5.445
 2782SOL    HW2 9246   3.414   1.929   5.504
 2783SOL     OW 9247   5.743   3.692   4.606
 2783SOL    HW1 9248   5.754   3.678   4.704
 2783SOL    HW2 9249   5.801   3.627   4.556
 2784SOL     OW 9250   3.137   2.151   1.373
 2784SOL    HW1 9251   3.231   2.181   1.384
 2784SOL    HW2 9252   3.133   2.076   1.308
 2785SOL     OW 9253   5.562   1.848   0.825
 2785SOL    HW1 9254   5.476   1.797   0.826
 2785SOL    HW2 9255   5.544   1.944   0.847
 2786SOL     OW 9256   4.415   5.793   1.987
 2786SOL    HW1 9257   4.475   5.726   1.942
 2786SOL    HW2 9258   4.402   5.767   2.083
 2787SOL     OW 9259   3.060   2.116   0.072
 2787SOL    HW1 9260   3.019   2.113   0.163
 2787SOL    HW2 9261   3.133   2.185   0.072
 2788SOL     OW 9262   2.279   4.933   6.105
 2788SOL    HW1 9263   2.236   4.842   6.109
 2788SOL    HW2 9264   2.217   5.001   6.143
 2789SOL     OW 9265   1.673   2.509   3.421
 2789SOL    HW1 9266   1.655   2.607   3.410
 2789SOL    HW2 9267   1.585   2.460   3.424
 2790SOL     OW 9268   2.738   5.781   2.167
 2790SOL    HW1 9269   2.812   5.745   2.110
 2790SOL    HW2 9270   2.651   5.744   2.136
 2791SOL     OW 9271   1.143   4.144   3.952
 2791SOL    HW1 9272   1.106   4.227   3.910
 2791SOL    HW2 9273   1.125   4.146   4.051
 2792SOL     OW 9274   1.133   6.925   4.573
 2792SOL    HW1 9275   1.117   6.831   4.604
 2792SOL    HW2 9276   1.178   6.977   4.646
 2793SOL     OW 9277   4.899   3.421   3.335
 2793SOL    HW1 9278   4.966   3.432   3.262
 2793SOL    HW2 9279   4.851   3.507   3.349
 2794SOL     OW 9280   0.190   2.748   0.861
 2794SOL    HW1 9281   0.287   2.767   0.848
 2794SOL    HW2 9282   0.158   2.685   0.790
 2795SOL     OW 9283   1.927   2.979   0.935
 2795SOL    HW1 9284   1.839   2.936   0.955
 2795SOL    HW2 9285   1.922   3.076   0.957
 2796SOL     OW 9286   6.327   4.971   2.582
 2796SOL    HW1 9287   6.348   5.037   2.654
 2796SOL    HW2 9288   6.280   4.892   2.623
 2797SOL     OW 9289   5.114   4.710   4.260
 2797SOL    HW1 9290   5.177   4.667   4.326
 2797SOL    HW2 9291   5.159   4.714   4.171
 2798SOL     OW 9292   1.142   4.845   1.777
 2798SOL    HW1 9293   1.186   4.909   1.841
 2798SOL    HW2 9294   1.160   4.751   1.806
 2799SOL     OW 9295   6.746   6.857   0.672
 2799SOL    HW1 9296   6.768   6.794   0.746
 2799SOL    HW2 9297   6.650   6.844   0.646
 2800SOL     OW 9298   4.558   4.566   0.104
 2800SOL    HW1 9299   4.584   4.565   0.201
 2800SOL    HW2 9300   4.476   4.622   0.092
 2801SOL     OW 9301   5.303   5.345   5.074
 2801SOL    HW1 9302   5.349   5.269   5.120
 2801SOL    HW2 9303   5.240   5.389   5.137
 2802SOL     OW 9304   4.721   2.290   6.316
 2802SOL    HW1 9305   4.727   2.380   6.273
 2802SOL    HW2 9306   4.632   2.249   6.297
 2803SOL     OW 9307   3.059   5.887   6.503
 2803SOL    HW1 9308   3.154   5.868   6.477
 2803SOL    HW2 9309   3.036   5.981   6.478
 2804SOL     OW 9310   6.788   4.677   5.102
 2804SOL    HW1 9311   6.812   4.761   5.054
 2804SOL    HW2 9312   6.780   4.696   5.200
 2805SOL     OW 9313   5.115   2.714   2.077
 2805SOL    HW1 9314   5.033   2.715   2.021
 2805SOL    HW2 9315   5.134   2.807   2.110
 2806SOL     OW 9316   6.726   5.122   4.568
 2806SOL    HW1 9317   6.813   5.170   4.559
 2806SOL    HW2 9318   6.711   5.099   4.664
 2807SOL     OW 9319   5.206   5.189   3.529
 2807SOL    HW1 9320   5.145   5.184   3.450
 2807SOL    HW2 9321   5.152   5.193   3.613
 2808SOL     OW 9322   5.281   3.207   2.679
 2808SOL    HW1 9323   5.351   3.221   2.748
 2808SOL    HW2 9324   5.237   3.294   2.657
 2809SOL     OW 9325   5.778   2.764   1.678
 2809SOL    HW1 9326   5.857   2.822   1.700
 2809SOL    HW2 9327   5.709   2.773   1.751
 2810SOL     OW 9328   3.145   5.750   3.728
 2810SOL    HW1 9329   3.187   5.776   3.815
 2810SOL    HW2 9330   3.119   5.654   3.731
 2811SOL     OW 9331   1.269   1.162   3.056
 2811SOL    HW1 9332   1.322   1.137   3.137
 2811SOL    HW2 9333   1.249   1.260   3.060
 2812SOL     OW 9334   5.213   3.503   0.220
 2812SOL    HW1 9335   5.304   3.517   0.260
 2812SOL    HW2 9336   5.222   3.446   0.138
 2813SOL     OW 9337   6.556   0.396   5.977
 2813SOL    HW1 9338   6.528   0.418   6.070
 2813SOL    HW2 9339   6.607   0.473   5.938
 2814SOL     OW 9340   4.929   3.128   6.720
 2814SOL    HW1 9341   4.847   3.073   6.735
 2814SOL    HW2 9342   4.972   3.103   6.634
 2815SOL     OW 9343   6.446   1.276   5.378
 2815SOL    HW1 9344   6.350   1.265   5.351
 2815SOL    HW2 9345   6.451   1.308   5.472
 2816SOL     OW 9346   6.603   5.353   3.033
 2816SOL    HW1 9347   6.624   5.316   3.124
 2816SOL    HW2 9348   6.504   5.356   3.021
 2817SOL     OW 9349   2.662   0.290   1.272
 2817SOL    HW1 9350   2.611   0.261   1.192
 2817SOL    HW2 9351   2.662   0.390   1.277
 2818SOL     OW 9352   0.061   0.660   0.277
 2818SOL    HW1 9353   6.986   0.664   0.286
 2818SOL    HW2 9354   0.091   0.565   0.280
 2819SOL     OW 9355   0.788   0.964   1.459
 2819SOL    HW1 9356   0.783   1.012   1.371
 2819SOL    HW2 9357   0.754   0.870   1.447
 2820SOL     OW 9358   1.413   1.938   3.254
 2820SOL    HW1 9359   1.462   1.992   3.186
 2820SOL    HW2 9360   1.361   1.866   3.209
 2821SOL     OW 9361   4.160   3.274   0.227
 2821SOL    HW1 9362   4.253   3.311   0.233
 2821SOL    HW2 9363   4.144   3.240   0.134
 2822SOL     OW 9364   4.597   2.214   6.723
 2822SOL    HW1 9365   4.606   2.165   6.810
 2822SOL    HW2 9366   4.665   2.179   6.658
 2823SOL     OW 9367   3.459   6.070   0.323
 2823SOL    HW1 9368   3.464   5.971   0.316
 2823SOL    HW2 9369   3.545   6.110   0.290
 2824SOL     OW 9370   3.111   0.864   3.708
 2824SOL    HW1 9371   3.154   0.774   3.697
 2824SOL    HW2 9372   3.165   0.919   3.771
 2825SOL     OW 9373   6.743   0.612   6.645
 2825SOL    HW1 9374   6.707   0.687   6.701
 2825SOL    HW2 9375   6.666   0.557   6.612
 2826SOL     OW 9376   4.463   1.876   6.740
 2826SOL    HW1 9377   4.389   1.890   6.674
 2826SOL    HW2 9378   4.438   1.802   6.802
 2827SOL     OW 9379   6.516   0.620   5.660
 2827SOL    HW1 9380   6.464   0.570   5.729
 2827SOL    HW2 9381   6.605   0.576   5.647
 2828SOL     OW 9382   3.123   1.334   0.397
 2828SOL    HW1 9383   3.029   1.311   0.373
 2828SOL    HW2 9384   3.179   1.334   0.315
 2829SOL     OW 9385   3.607   3.484   5.895
 2829SOL    HW1 9386   3.682   3.544   5.922
 2829SOL    HW2 9387   3.581   3.505   5.800
 2830SOL     OW 9388   1.249   3.211   6.045
 2830SOL    HW1 9389   1.203   3.233   6.131
 2830SOL    HW2 9390   1.190   3.153   5.989
 2831SOL     OW 9391   0.659   5.705   3.493
 2831SOL    HW1 9392   0.687   5.610   3.498
 2831SOL    HW2 9393   0.561   5.710   3.473
 2832SOL     OW 9394   1.220   0.501   2.497
 2832SOL    HW1 9395   1.255   0.566   2.428
 2832SOL    HW2 9396   1.256   0.526   2.587
 2833SOL     OW 9397   4.342   2.329   2.268
 2833SOL    HW1 9398   4.245   2.344   2.290
 2833SOL    HW2 9399   4.351   2.315   2.169
 2834SOL     OW 9400   2.297   6.056   5.689
 2834SOL    HW1 9401   2.201   6.083   5.680
 2834SOL    HW2 9402   2.306   5.989   5.763
 2835SOL     OW 9403   6.885   0.306   1.980
 2835SOL    HW1 9404   6.948   0.344   2.048
 2835SOL    HW2 9405   6.935   0.291   1.894
 2836SOL     OW 9406   5.819   0.166   2.618
 2836SOL    HW1 9407   5.836   0.233   2.546
 2836SOL    HW2 9408   5.721   0.163   2.638
 2837SOL     OW 9409   5.360   3.963   3.106
 2837SOL    HW1 9410   5.434   3.960   3.174
 2837SOL    HW2 9411   5.328   4.058   3.098
 2838SOL     OW 9412   2.169   5.068   0.462
 2838SOL    HW1 9413   2.125   5.080   0.373
 2838SOL    HW2 9414   2.099   5.051   0.531
 2839SOL     OW 9415   6.482   1.551   1.977
 2839SOL    HW1 9416   6.558   1.588   1.923
 2839SOL    HW2 9417   6.448   1.468   1.934
 2840SOL     OW 9418   1.845   0.967   3.432
 2840SOL    HW1 9419   1.797   1.006   3.354
 2840SOL    HW2 9420   1.873   0.874   3.411
 2841SOL     OW 9421   0.616   0.633   6.260
 2841SOL    HW1 9422   0.696   0.668   6.212
 2841SOL    HW2 9423   0.630   0.642   6.359
 2842SOL     OW 9424   0.225   3.556   4.448
 2842SOL    HW1 9425   0.189   3.585   4.360
 2842SOL    HW2 9426   0.285   3.477   4.436
 2843SOL     OW 9427   2.785   1.249   2.820
 2843SOL    HW1 9428   2.764   1.250   2.918
 2843SOL    HW2 9429   2.820   1.159   2.795
 2844SOL     OW 9430   0.298   5.724   0.689
 2844SOL    HW1 9431   0.302   5.778   0.773
 2844SOL    HW2 9432   0.298   5.627   0.712
 2845SOL     OW 9433   6.874   3.169   1.560
 2845SOL    HW1 9434   6.951   3.161   1.623
 2845SOL    HW2 9435   6.856   3.080   1.518
 2846SOL     OW 9436   4.306   1.009   6.631
 2846SOL    HW1 9437   4.400   1.037   6.611
 2846SOL    HW2 9438   4.276   0.943   6.562
 2847SOL     OW 9439   5.221   3.881   3.838
 2847SOL    HW1 9440   5.263   3.844   3.755
 2847SOL    HW2 9441   5.261   3.837   3.919
 2848SOL     OW 9442   1.736   3.165   5.824
 2848SOL    HW1 9443   1.785   3.176   5.910
 2848SOL    HW2 9444   1.639   3.146   5.842
 2849SOL     OW 9445   3.307   6.869   0.629
 2849SOL    HW1 9446   3.239   6.883   0.558
 2849SOL    HW2 9447   3.265   6.882   0.719
 2850SOL     OW 9448   2.934   0.310   2.191
 2850SOL    HW1 9449   3.005   0.265   2.137
 2850SOL    HW2 9450   2.909   0.252   2.268
 2851SOL     OW 9451   0.031   1.924   5.559
 2851SOL    HW1 9452   0.020   1.827   5.582
 2851SOL    HW2 9453   0.067   1.973   5.638
 2852SOL     OW 9454   5.917   4.863   0.175
 2852SOL    HW1 9455   5.844   4.889   0.237
 2852SOL    HW2 9456   5.877   4.827   0.090
 2853SOL     OW 9457   1.900   2.622   6.855
 2853SOL    HW1 9458   1.914   2.644   6.952
 2853SOL    HW2 9459   1.962   2.676   6.799
 2854SOL     OW 9460   3.889   0.955   5.192
 2854SOL    HW1 9461   3.915   0.991   5.282
 2854SOL    HW2 9462   3.957   0.982   5.124
 2855SOL     OW 9463   2.682   1.358   6.718
 2855SOL    HW1 9464   2.674   1.292   6.643
 2855SOL    HW2 9465   2.776   1.392   6.723
 2856SOL     OW 9466   1.803   2.793   6.044
 2856SOL    HW1 9467   1.881   2.831   6.094
 2856SOL    HW2 9468   1.822   2.795   5.946
 2857SOL     OW 9469   3.255   1.637   2.248
 2857SOL    HW1 9470   3.198   1.557   2.267
 2857SOL    HW2 9471   3.237   1.708   2.315
 2858SOL     OW 9472   5.285   4.304   2.981
 2858SOL    HW1 9473   5.269   4.262   2.892
 2858SOL    HW2 9474   5.256   4.400   2.979
 2859SOL     OW 9475   5.041   2.007   0.156
 2859SOL    HW1 9476   5.041   1.940   0.082
 2859SOL    HW2 9477   5.114   1.984   0.221
 2860SOL     OW 9478   3.506   1.897   1.015
 2860SOL    HW1 9479   3.492   1.973   1.078
 2860SOL    HW2 9480   3.426   1.886   0.956
 2861SOL     OW 9481   3.919   3.927   6.241
 2861SOL    HW1 9482   3.984   3.978   6.297
 2861SOL    HW2 9483   3.834   3.980   6.234
 2862SOL     OW 9484   5.534   1.911   3.214
 2862SOL    HW1 9485   5.583   1.951   3.291
 2862SOL    HW2 9486   5.445   1.956   3.204
 2863SOL     OW 9487   4.776   1.056   6.961
 2863SOL    HW1 9488   4.717   1.133   6.985
 2863SOL    HW2 9489   4.757   0.979   7.022
 2864SOL     OW 9490   4.189   1.349   1.369
 2864SOL    HW1 9491   4.260   1.360   1.438
 2864SOL    HW2 9492   4.195   1.423   1.302
 2865SOL     OW 9493   5.073   4.301   6.398
 2865SOL    HW1 9494   5.160   4.310   6.351
 2865SOL    HW2 9495   5.078   4.347   6.487
 2866SOL     OW 9496   6.322   5.996   6.608
 2866SOL    HW1 9497   6.273   6.083   6.610
 2866SOL    HW2 9498   6.417   6.011   6.584
 2867SOL     OW 9499   5.483   3.775   2.663
 2867SOL    HW1 9500   5.389   3.809   2.661
 2867SOL    HW2 9501   5.488   3.694   2.722
 2868SOL     OW 9502   6.836   2.427   5.562
 2868SOL    HW1 9503   6.879   2.431   5.472
 2868SOL    HW2 9504   6.901   2.394   5.629
 2869SOL     OW 9505   6.584   0.842   3.667
 2869SOL    HW1 9506   6.599   0.939   3.650
 2869SOL    HW2 9507   6.668   0.791   3.650
 2870SOL     OW 9508   0.099   1.108   4.409
 2870SOL    HW1 9509   0.079   1.128   4.313
 2870SOL    HW2 9510   0.152   1.023   4.415
 2871SOL     OW 9511   0.774   2.177   0.086
 2871SOL    HW1 9512   0.800   2.207   0.177
 2871SOL    HW2 9513   0.843   2.113   0.050
 2872SOL     OW 9514   3.387   1.173   2.926
 2872SOL    HW1 9515   3.356   1.170   2.831
 2872SOL    HW2 9516   3.315   1.211   2.983
 2873SOL     OW 9517   6.482   4.751   2.738
 2873SOL    HW1 9518   6.473   4.713   2.830
 2873SOL    HW2 9519   6.511   4.846   2.745
 2874SOL     OW 9520   3.370   6.455   3.547
 2874SOL    HW1 9521   3.380   6.496   3.638
 2874SOL    HW2 9522   3.374   6.355   3.555
 2875SOL     OW 9523   4.985   0.036   0.972
 2875SOL    HW1 9524   4.959   0.079   1.059
 2875SOL    HW2 9525   4.957   6.964   0.973
 2876SOL     OW 9526   0.958   7.018   1.599
 2876SOL    HW1 9527   1.046   6.980   1.570
 2876SOL    HW2 9528   0.968   0.093   1.609
 2877SOL     OW 9529   3.612   2.644   5.388
 2877SOL    HW1 9530   3.528   2.650   5.334
 2877SOL    HW2 9531   3.674   2.578   5.347
 2878SOL     OW 9532   4.301   5.337   4.578
 2878SOL    HW1 9533   4.398   5.321   4.593
 2878SOL    HW2 9534   4.250   5.252   4.594
 2879SOL     OW 9535   5.176   4.758   0.578
 2879SOL    HW1 9536   5.225   4.676   0.607
 2879SOL    HW2 9537   5.180   4.827   0.650
 2880SOL     OW 9538   6.000   6.813   1.644
 2880SOL    HW1 9539   5.907   6.845   1.626
 2880SOL    HW2 9540   5.996   6.727   1.694
 2881SOL     OW 9541   5.434   6.136   6.661
 2881SOL    HW1 9542   5.369   6.208   6.635
 2881SOL    HW2 9543   5.523   6.177   6.681
 2882SOL     OW 9544   0.486   4.479   2.278
 2882SOL    HW1 9545   0.496   4.384   2.310
 2882SOL    HW2 9546   0.572   4.510   2.239
 2883SOL     OW 9547   5.962   6.560   3.638
 2883SOL    HW1 9548   6.025   6.601   3.572
 2883SOL    HW2 9549   5.928   6.473   3.603
 2884SOL     OW 9550   0.851   5.505   2.801
 2884SOL    HW1 9551   0.910   5.440   2.754
 2884SOL    HW2 9552   0.904   5.585   2.829
 2885SOL     OW 9553   0.463   3.561   2.321
 2885SOL    HW1 9554   0.402   3.526   2.392
 2885SOL    HW2 9555   0.496   3.485   2.265
 2886SOL     OW 9556   2.855   4.050   5.608
 2886SOL    HW1 9557   2.936   4.101   5.638
 2886SOL    HW2 9558   2.862   3.955   5.641
 2887SOL     OW 9559   1.270   0.064   4.410
 2887SOL    HW1 9560   1.365   0.061   4.440
 2887SOL    HW2 9561   1.213   0.011   4.473
 2888SOL     OW 9562   0.805   4.277   0.406
 2888SOL    HW1 9563   0.792   4.213   0.330
 2888SOL    HW2 9564   0.855   4.357   0.373
 2889SOL     OW 9565   2.123   6.928   1.917
 2889SOL    HW1 9566   2.216   6.946   1.951
 2889SOL    HW2 9567   2.064   6.904   1.993
 2890SOL     OW 9568   2.257   6.746   0.867
 2890SOL    HW1 9569   2.275   6.702   0.779
 2890SOL    HW2 9570   2.326   6.717   0.934
 2891SOL     OW 9571   1.467   3.992   3.252
 2891SOL    HW1 9572   1.485   4.033   3.341
 2891SOL    HW2 9573   1.371   4.007   3.228
 2892SOL     OW 9574   5.403   3.490   6.975
 2892SOL    HW1 9575   5.486   3.517   6.926
 2892SOL    HW2 9576   5.325   3.543   6.941
 2893SOL     OW 9577   7.002   6.631   4.812
 2893SOL    HW1 9578   0.042   6.620   4.737
 2893SOL    HW2 9579   6.986   6.729   4.829
 2894SOL     OW 9580   2.679   3.135   0.435
 2894SOL    HW1 9581   2.722   3.199   0.499
 2894SOL    HW2 9582   2.750   3.083   0.389
 2895SOL     OW 9583   4.306   2.804   6.135
 2895SOL    HW1 9584   4.232   2.750   6.094
 2895SOL    HW2 9585   4.386   2.745   6.149
 2896SOL     OW 9586   4.281   5.351   6.297
 2896SOL    HW1 9587   4.223   5.372   6.219
 2896SOL    HW2 9588   4.251   5.265   6.339
 2897SOL     OW 9589   3.549   4.924   3.433
 2897SOL    HW1 9590   3.577   5.013   3.467
 2897SOL    HW2 9591   3.574   4.915   3.336
 2898SOL     OW 9592   3.984   6.055   4.141
 2898SOL    HW1 9593   3.958   6.126   4.075
 2898SOL    HW2 9594   4.018   5.975   4.093
 2899SOL     OW 9595   0.661   1.776   0.658
 2899SOL    HW1 9596   0.602   1.791   0.738
 2899SOL    HW2 9597   0.741   1.723   0.685
 2900SOL     OW 9598   2.170   4.856   5.728
 2900SOL    HW1 9599   2.075   4.880   5.709
 2900SOL    HW2 9600   2.173   4.793   5.805
 2901SOL     OW 9601   2.247   6.518   3.809
 2901SOL    HW1 9602   2.207   6.439   3.855
 2901SOL    HW2 9603   2.331   6.491   3.763
 2902SOL     OW 9604   4.707   6.559   1.530
 2902SOL    HW1 9605   4.683   6.477   1.581
 2902SOL    HW2 9606   4.631   6.625   1.535
 2903SOL     OW 9607   3.034   0.605   0.371
 2903SOL    HW1 9608   2.974   0.585   0.294
 2903SOL    HW2 9609   3.028   0.701   0.395
 2904SOL     OW 9610   2.430   3.740   5.360
 2904SOL    HW1 9611   2.339   3.702   5.348
 2904SOL    HW2 9612   2.445   3.812   5.292
 2905SOL     OW 9613   1.253   2.151   3.680
 2905SOL    HW1 9614   1.347   2.118   3.688
 2905SOL    HW2 9615   1.213   2.118   3.595
 2906SOL     OW 9616   4.702   5.722   2.548
 2906SOL    HW1 9617   4.795   5.715   2.583
 2906SOL    HW2 9618   4.698   5.793   2.478
 2907SOL     OW 9619   0.146   1.480   4.434
 2907SOL    HW1 9620   0.102   1.418   4.499
 2907SOL    HW2 9621   0.078   1.514   4.369
 2908SOL     OW 9622   4.803   6.675   4.179
 2908SOL    HW1 9623   4.734   6.709   4.243
 2908SOL    HW2 9624   4.893   6.678   4.223
 2909SOL     OW 9625   0.438   6.707   3.922
 2909SOL    HW1 9626   0.362   6.730   3.861
 2909SOL    HW2 9627   0.522   6.748   3.888
 2910SOL     OW 9628   4.956   6.598   4.567
 2910SOL    HW1 9629   4.872   6.544   4.557
 2910SOL    HW2 9630   4.936   6.679   4.623
 2911SOL     OW 9631   1.903   5.421   3.333
 2911SOL    HW1 9632   1.953   5.469   3.261
 2911SOL    HW2 9633   1.961   5.409   3.413
 2912SOL     OW 9634   4.552   6.847   6.543
 2912SOL    HW1 9635   4.569   6.932   6.592
 2912SOL    HW2 9636   4.454   6.833   6.533
 2913SOL     OW 9637   2.305   4.458   3.049
 2913SOL    HW1 9638   2.303   4.367   3.009
 2913SOL    HW2 9639   2.381   4.510   3.010
 2914SOL     OW 9640   5.965   6.357   6.026
 2914SOL    HW1 9641   5.885   6.368   5.967
 2914SOL    HW2 9642   6.045   6.395   5.979
 2915SOL     OW 9643   5.497   1.432   5.230
 2915SOL    HW1 9644   5.586   1.422   5.186
 2915SOL    HW2 9645   5.507   1.423   5.329
 2916SOL     OW 9646   6.843   6.170   6.231
 2916SOL    HW1 9647   6.847   6.088   6.287
 2916SOL    HW2 9648   6.770   6.161   6.163
 2917SOL     OW 9649   4.001   6.390   2.261
 2917SOL    HW1 9650   4.048   6.316   2.308
 2917SOL    HW2 9651   4.041   6.478   2.289
 2918SOL     OW 9652   6.933   3.928   3.995
 2918SOL    HW1 9653   6.993   3.977   3.931
 2918SOL    HW2 9654   6.884   3.856   3.945
 2919SOL     OW 9655   6.842   1.052   1.001
 2919SOL    HW1 9656   6.786   1.108   0.940
 2919SOL    HW2 9657   6.936   1.086   1.000
 2920SOL     OW 9658   2.728   2.228   2.228
 2920SOL    HW1 9659   2.726   2.306   2.290
 2920SOL    HW2 9660   2.797   2.243   2.157
 2921SOL     OW 9661   1.182   0.777   3.189
 2921SOL    HW1 9662   1.237   0.820   3.117
 2921SOL    HW2 9663   1.213   0.683   3.203
 2922SOL     OW 9664   4.960   6.755   0.603
 2922SOL    HW1 9665   5.037   6.817   0.596
 2922SOL    HW2 9666   4.970   6.681   0.535
 2923SOL     OW 9667   6.743   4.873   2.031
 2923SOL    HW1 9668   6.784   4.782   2.040
 2923SOL    HW2 9669   6.694   4.879   1.944
 2924SOL     OW 9670   0.672   1.696   6.743
 2924SOL    HW1 9671   0.756   1.648   6.718
 2924SOL    HW2 9672   0.665   1.781   6.691
 2925SOL     OW 9673   4.808   1.116   3.166
 2925SOL    HW1 9674   4.713   1.104   3.136
 2925SOL    HW2 9675   4.819   1.080   3.258
 2926SOL     OW 9676   0.044   1.280   4.601
 2926SOL    HW1 9677   0.043   1.216   4.524
 2926SOL    HW2 9678   0.108   1.248   4.671
 2927SOL     OW 9679   1.334   1.682   3.184
 2927SOL    HW1 9680   1.245   1.646   3.154
 2927SOL    HW2 9681   1.356   1.647   3.275
 2928SOL     OW 9682   6.986   2.381   5.846
 2928SOL    HW1 9683   6.933   2.464   5.862
 2928SOL    HW2 9684   0.057   2.406   5.827
 2929SOL     OW 9685   0.511   1.065   6.347
 2929SOL    HW1 9686   0.443   1.020   6.404
 2929SOL    HW2 9687   0.466   1.113   6.272
 2930SOL     OW 9688   4.291   6.433   5.206
 2930SOL    HW1 9689   4.263   6.400   5.296
 2930SOL    HW2 9690   4.225   6.405   5.137
 2931SOL     OW 9691   5.561   5.267   0.886
 2931SOL    HW1 9692   5.472   5.277   0.841
 2931SOL    HW2 9693   5.631   5.316   0.833
 2932SOL     OW 9694   1.313   5.325   1.290
 2932SOL    HW1 9695   1.298   5.416   1.252
 2932SOL    HW2 9696   1.258   5.259   1.240
 2933SOL     OW 9697   5.996   4.213   3.047
 2933SOL    HW1 9698   5.914   4.222   2.992
 2933SOL    HW2 9699   6.076   4.209   2.988
 2934SOL     OW 9700   4.770   1.519   0.493
 2934SOL    HW1 9701   4.759   1.519   0.593
 2934SOL    HW2 9702   4.684   1.549   0.451
 2935SOL     OW 9703   6.191   3.418   1.144
 2935SOL    HW1 9704   6.122   3.490   1.136
 2935SOL    HW2 9705   6.270   3.453   1.193
 2936SOL     OW 9706   3.918   5.075   2.215
 2936SOL    HW1 9707   3.915   4.976   2.207
 2936SOL    HW2 9708   3.935   5.115   2.124
 2937SOL     OW 9709   4.082   4.883   0.272
 2937SOL    HW1 9710   3.992   4.876   0.315
 2937SOL    HW2 9711   4.138   4.951   0.322
 2938SOL     OW 9712   4.966   4.863   6.008
 2938SOL    HW1 9713   4.909   4.822   5.936
 2938SOL    HW2 9714   4.908   4.893   6.084
 2939SOL     OW 9715   0.466   0.463   3.939
 2939SOL    HW1 9716   0.462   0.486   4.036
 2939SOL    HW2 9717   0.545   0.405   3.922
 2940SOL     OW 9718   6.005   6.349   6.643
 2940SOL    HW1 9719   6.011   6.276   6.574
 2940SOL    HW2 9720   6.036   6.435   6.602
 2941SOL     OW 9721   2.464   2.606   4.207
 2941SOL    HW1 9722   2.420   2.517   4.206
 2941SOL    HW2 9723   2.441   2.655   4.291
 2942SOL     OW 9724   3.004   2.365   1.485
 2942SOL    HW1 9725   3.051   2.449   1.460
 2942SOL    HW2 9726   3.050   2.287   1.442
 2943SOL     OW 9727   5.499   4.481   2.643
 2943SOL    HW1 9728   5.418   4.539   2.648
 2943SOL    HW2 9729   5.549   4.485   2.729
 2944SOL     OW 9730   2.581   5.292   5.317
 2944SOL    HW1 9731   2.610   5.216   5.376
 2944SOL    HW2 9732   2.597   5.268   5.221
 2945SOL     OW 9733   3.716   3.947   3.579
 2945SOL    HW1 9734   3.749   4.019   3.641
 2945SOL    HW2 9735   3.617   3.952   3.572
 2946SOL     OW 9736   1.104   5.652   0.075
 2946SOL    HW1 9737   1.087   5.738   0.026
 2946SOL    HW2 9738   1.151   5.588   0.014
 2947SOL     OW 9739   0.728   3.345   6.636
 2947SOL    HW1 9740   0.811   3.397   6.615
 2947SOL    HW2 9741   0.696   3.370   6.727
 2948SOL     OW 9742   6.437   4.660   5.864
 2948SOL    HW1 9743   6.432   4.760   5.864
 2948SOL    HW2 9744   6.394   4.625   5.781
 2949SOL     OW 9745   3.006   5.693   1.055
 2949SOL    HW1 9746   2.911   5.674   1.033
 2949SOL    HW2 9747   3.017   5.695   1.155
 2950SOL     OW 9748   4.837   3.873   4.612
 2950SOL    HW1 9749   4.820   3.956   4.559
 2950SOL    HW2 9750   4.790   3.796   4.570
 2951SOL     OW 9751   6.006   2.299   1.292
 2951SOL    HW1 9752   5.971   2.389   1.267
 2951SOL    HW2 9753   5.956   2.229   1.241
 2952SOL     OW 9754   0.738   5.574   5.468
 2952SOL    HW1 9755   0.825   5.534   5.438
 2952SOL    HW2 9756   0.703   5.522   5.546
 2953SOL     OW 9757   5.175   3.294   3.481
 2953SOL    HW1 9758   5.079   3.313   3.460
 2953SOL    HW2 9759   5.216   3.244   3.405
 2954SOL     OW 9760   0.737   5.525   1.653
 2954SOL    HW1 9761   0.754   5.530   1.555
 2954SOL    HW2 9762   0.639   5.528   1.671
 2955SOL     OW 9763   1.070   4.258   1.423
 2955SOL    HW1 9764   0.993   4.207   1.462
 2955SOL    HW2 9765   1.036   4.320   1.352
 2956SOL     OW 9766   5.779   6.242   2.780
 2956SOL    HW1 9767   5.760   6.146   2.757
 2956SOL    HW2 9768   5.792   6.295   2.697
 2957SOL     OW 9769   6.203   3.332   1.929
 2957SOL    HW1 9770   6.240   3.261   1.989
 2957SOL    HW2 9771   6.210   3.301   1.834
 2958SOL     OW 9772   2.519   4.596   4.633
 2958SOL    HW1 9773   2.543   4.500   4.646
 2958SOL    HW2 9774   2.579   4.653   4.689
 2959SOL     OW 9775   4.902   4.896   0.506
 2959SOL    HW1 9776   4.857   4.848   0.431
 2959SOL    HW2 9777   4.998   4.867   0.511
 2960SOL     OW 9778   3.950   6.981   6.108
 2960SOL    HW1 9779   3.941   6.909   6.176
 2960SOL    HW2 9780   4.029   6.961   6.049
 2961SOL     OW 9781   4.930   2.314   4.433
 2961SOL    HW1 9782   5.008   2.376   4.429
 2961SOL    HW2 9783   4.857   2.350   4.375
 2962SOL     OW 9784   4.412   0.812   3.672
 2962SOL    HW1 9785   4.339   0.797   3.604
 2962SOL    HW2 9786   4.388   0.892   3.727
 2963SOL     OW 9787   2.013   1.261   5.936
 2963SOL    HW1 9788   2.082   1.201   5.896
 2963SOL    HW2 9789   2.056   1.324   6.001
 2964SOL     OW 9790   6.704   0.289   2.811
 2964SOL    HW1 9791   6.620   0.296   2.865
 2964SOL    HW2 9792   6.780   0.330   2.863
 2965SOL     OW 9793   0.228   0.789   4.652
 2965SOL    HW1 9794   0.283   0.721   4.603
 2965SOL    HW2 9795   0.158   0.743   4.706
 2966SOL     OW 9796   5.663   5.663   4.284
 2966SOL    HW1 9797   5.759   5.654   4.259
 2966SOL    HW2 9798   5.606   5.616   4.216
 2967SOL     OW 9799   6.167   1.869   4.650
 2967SOL    HW1 9800   6.202   1.820   4.570
 2967SOL    HW2 9801   6.100   1.938   4.620
 2968SOL     OW 9802   0.957   3.467   6.604
 2968SOL    HW1 9803   0.979   3.490   6.699
 2968SOL    HW2 9804   1.028   3.504   6.544
 2969SOL     OW 9805   5.892   1.068   4.902
 2969SOL    HW1 9806   5.816   1.016   4.862
 2969SOL    HW2 9807   5.858   1.129   4.973
 2970SOL     OW 9808   1.066   4.000   6.280
 2970SOL    HW1 9809   1.111   3.937   6.217
 2970SOL    HW2 9810   1.080   4.094   6.248
 2971SOL     OW 9811   5.831   3.685   5.953
 2971SOL    HW1 9812   5.877   3.672   6.041
 2971SOL    HW2 9813   5.896   3.725   5.888
 2972SOL     OW 9814   6.631   4.664   6.455
 2972SOL    HW1 9815   6.561   4.595   6.437
 2972SOL    HW2 9816   6.615   4.705   6.545
 2973SOL     OW 9817   5.396   1.087   4.231
 2973SOL    HW1 9818   5.387   1.075   4.329
 2973SOL    HW2 9819   5.477   1.142   4.211
 2974SOL     OW 9820   0.870   4.012   2.501
 2974SOL    HW1 9821   0.804   4.038   2.430
 2974SOL    HW2 9822   0.856   3.917   2.527
 2975SOL     OW 9823   0.240   2.004   4.965
 2975SOL    HW1 9824   0.200   1.994   4.874
 2975SOL    HW2 9825   0.340   2.008   4.956
 2976SOL     OW 9826   4.271   2.306   3.055
 2976SOL    HW1 9827   4.280   2.222   3.002
 2976SOL    HW2 9828   4.205   2.292   3.129
 2977SOL     OW 9829   1.946   6.269   4.298
 2977SOL    HW1 9830   1.910   6.224   4.379
 2977SOL    HW2 9831   1.882   6.340   4.268
 2978SOL     OW 9832   4.380   4.738   6.453
 2978SOL    HW1 9833   4.404   4.642   6.468
 2978SOL    HW2 9834   4.453   4.783   6.401
 2979SOL     OW 9835   4.744   0.092   4.722
 2979SOL    HW1 9836   4.729   0.076   4.820
 2979SOL    HW2 9837   4.673   0.044   4.670
 2980SOL     OW 9838   1.193   6.261   3.908
 2980SOL    HW1 9839   1.157   6.326   3.841
 2980SOL    HW2 9840   1.158   6.169   3.888
 2981SOL     OW 9841   1.533   1.466   6.038
 2981SOL    HW1 9842   1.455   1.471   6.100
 2981SOL    HW2 9843   1.500   1.470   5.943
 2982SOL     OW 9844   4.220   5.718   2.908
 2982SOL    HW1 9845   4.224   5.657   2.987
 2982SOL    HW2 9846   4.220   5.813   2.939
 2983SOL     OW 9847   0.630   1.410   3.915
 2983SOL    HW1 9848   0.538   1.375   3.902
 2983SOL    HW2 9849   0.627   1.492   3.973
 2984SOL     OW 9850   5.208   5.303   1.715
 2984SOL    HW1 9851   5.145   5.285   1.640
 2984SOL    HW2 9852   5.157   5.340   1.793
 2985SOL     OW 9853   1.439   2.204   5.609
 2985SOL    HW1 9854   1.444   2.193   5.708
 2985SOL    HW2 9855   1.530   2.221   5.573
 2986SOL     OW 9856   2.374   4.133   6.487
 2986SOL    HW1 9857   2.414   4.080   6.412
 2986SOL    HW2 9858   2.419   4.222   6.492
 2987SOL     OW 9859   5.560   0.838   3.711
 2987SOL    HW1 9860   5.461   0.847   3.722
 2987SOL    HW2 9861   5.581   0.746   3.678
 2988SOL     OW 9862   0.747   6.673   2.805
 2988SOL    HW1 9863   0.778   6.588   2.846
 2988SOL    HW2 9864   0.696   6.654   2.721
 2989SOL     OW 9865   6.756   6.507   0.454
 2989SOL    HW1 9866   6.828   6.574   0.435
 2989SOL    HW2 9867   6.723   6.468   0.367
 2990SOL     OW 9868   4.544   1.618   4.486
 2990SOL    HW1 9869   4.558   1.530   4.530
 2990SOL    HW2 9870   4.453   1.621   4.444
 2991SOL     OW 9871   0.035   3.859   6.239
 2991SOL    HW1 9872   6.989   3.930   6.236
 2991SOL    HW2 9873   0.066   3.838   6.146
 2992SOL     OW 9874   1.776   5.056   5.977
 2992SOL    HW1 9875   1.719   5.135   5.996
 2992SOL    HW2 9876   1.866   5.068   6.018
 2993SOL     OW 9877   0.839   5.174   1.631
 2993SOL    HW1 9878   0.908   5.103   1.623
 2993SOL    HW2 9879   0.852   5.223   1.718
 2994SOL     OW 9880   3.643   6.785   0.327
 2994SOL    HW1 9881   3.570   6.774   0.395
 2994SOL    HW2 9882   3.728   6.808   0.374
 2995SOL     OW 9883   2.082   3.769   6.818
 2995SOL    HW1 9884   2.091   3.782   6.719
 2995SOL    HW2 9885   1.985   3.771   6.843
 2996SOL     OW 9886   2.145   6.729   4.215
 2996SOL    HW1 9887   2.109   6.653   4.269
 2996SOL    HW2 9888   2.215   6.694   4.152
 2997SOL     OW 9889   5.331   0.532   2.166
 2997SOL    HW1 9890   5.340   0.544   2.067
 2997SOL    HW2 9891   5.244   0.570   2.197
 2998SOL     OW 9892   5.229   0.152   4.662
 2998SOL    HW1 9893   5.173   0.195   4.591
 2998SOL    HW2 9894   5.225   0.053   4.652
 2999SOL     OW 9895   3.562   5.003   3.988
 2999SOL    HW1 9896   3.500   4.949   4.044
 2999SOL    HW2 9897   3.652   5.006   4.031
 3000SOL     OW 9898   2.321   4.333   6.765
 3000SOL    HW1 9899   2.245   4.380   6.719
 3000SOL    HW2 9900   2.297   4.236   6.777
 3001SOL     OW 9901   5.714   5.859   6.813
 3001SOL    HW1 9902   5.752   5.774   6.851
 3001SOL    HW2 9903   5.620   5.870   6.844
 3002SOL     OW 9904   4.095   6.943   5.882
 3002SOL    HW1 9905   4.163   7.013   5.902
 3002SOL    HW2 9906   4.040   6.971   5.803
 3003SOL     OW 9907   1.990   0.098   6.738
 3003SOL    HW1 9908   1.969   0.193   6.718
 3003SOL    HW2 9909   1.942   0.039   6.673
 3004SOL     OW 9910   1.337   4.874   3.700
 3004SOL    HW1 9911   1.373   4.819   3.625
 3004SOL    HW2 9912   1.367   4.969   3.689
 3005SOL     OW 9913   3.018   2.292   0.390
 3005SOL    HW1 9914   2.967   2.218   0.347
 3005SOL    HW2 9915   3.031   2.366   0.324
 3006SOL     OW 9916   5.044   2.215   6.679
 3006SOL    HW1 9917   5.117   2.160   6.719
 3006SOL    HW2 9918   5.010   2.281   6.746
 3007SOL     OW 9919   5.527   5.238   1.379
 3007SOL    HW1 9920   5.496   5.168   1.442
 3007SOL    HW2 9921   5.591   5.198   1.313
 3008SOL     OW 9922   3.514   0.595   6.343
 3008SOL    HW1 9923   3.505   0.538   6.262
 3008SOL    HW2 9924   3.458   0.677   6.333
 3009SOL     OW 9925   0.740   0.121   3.217
 3009SOL    HW1 9926   0.824   0.067   3.214
 3009SOL    HW2 9927   0.672   0.074   3.273
 3010SOL     OW 9928   3.156   6.573   3.995
 3010SOL    HW1 9929   3.181   6.663   3.962
 3010SOL    HW2 9930   3.064   6.550   3.964
 3011SOL     OW 9931   5.336   1.441   1.075
 3011SOL    HW1 9932   5.253   1.386   1.066
 3011SOL    HW2 9933   5.356   1.486   0.988
 3012SOL     OW 9934   1.051   3.527   5.131
 3012SOL    HW1 9935   1.029   3.524   5.228
 3012SOL    HW2 9936   1.144   3.562   5.118
 3013SOL     OW 9937   5.424   5.696   4.855
 3013SOL    HW1 9938   5.493   5.636   4.815
 3013SOL    HW2 9939   5.468   5.773   4.899
 3014SOL     OW 9940   4.914   3.515   4.594
 3014SOL    HW1 9941   4.917   3.554   4.686
 3014SOL    HW2 9942   4.880   3.422   4.598
 3015SOL     OW 9943   2.603   2.225   0.339
 3015SOL    HW1 9944   2.632   2.277   0.419
 3015SOL    HW2 9945   2.618   2.128   0.355
 3016SOL     OW 9946   2.889   5.641   3.952
 3016SOL    HW1 9947   2.875   5.739   3.938
 3016SOL    HW2 9948   2.896   5.622   4.050
 3017SOL     OW 9949   1.093   5.308   1.983
 3017SOL    HW1 9950   1.004   5.294   1.940
 3017SOL    HW2 9951   1.165   5.294   1.915
 3018SOL     OW 9952   2.044   6.719   5.613
 3018SOL    HW1 9953   1.947   6.738   5.627
 3018SOL    HW2 9954   2.068   6.633   5.657
 3019SOL     OW 9955   1.921   0.121   6.985
 3019SOL    HW1 9956   1.959   0.210   7.011
 3019SOL    HW2 9957   1.970   0.086   6.905
 3020SOL     OW 9958   4.040   3.586   1.923
 3020SOL    HW1 9959   4.035   3.486   1.931
 3020SOL    HW2 9960   3.981   3.617   1.848
 3021SOL     OW 9961   3.322   0.107   6.902
 3021SOL    HW1 9962   3.255   0.137   6.970
 3021SOL    HW2 9963   3.276   0.053   6.832
 3022SOL     OW 9964   3.822   4.953   4.395
 3022SOL    HW1 9965   3.815   4.939   4.493
 3022SOL    HW2 9966   3.903   5.010   4.375
 3023SOL     OW 9967   4.737   0.484   2.500
 3023SOL    HW1 9968   4.815   0.502   2.440
 3023SOL    HW2 9969   4.676   0.417   2.456
 3024SOL     OW 9970   4.328   6.246   5.972
 3024SOL    HW1 9971   4.230   6.240   5.953
 3024SOL    HW2 9972   4.372   6.300   5.900
 3025SOL     OW 9973   3.799   1.339   0.741
 3025SOL    HW1 9974   3.718   1.379   0.699
 3025SOL    HW2 9975   3.794   1.350   0.840
 3026SOL     OW 9976   1.967   2.088   0.660
 3026SOL    HW1 9977   1.923   2.119   0.575
 3026SOL    HW2 9978   1.901   2.036   0.714
 3027SOL     OW 9979   4.386   0.645   2.349
 3027SOL    HW1 9980   4.368   0.739   2.380
 3027SOL    HW2 9981   4.484   0.635   2.329
 3028SOL     OW 9982   1.918   3.955   5.734
 3028SOL    HW1 9983   1.871   4.039   5.708
 3028SOL    HW2 9984   2.011   3.956   5.699
 3029SOL     OW 9985   0.458   3.711   4.707
 3029SOL    HW1 9986   0.455   3.616   4.740
 3029SOL    HW2 9987   0.484   3.712   4.611
 3030SOL     OW 9988   1.206   2.506   5.886
 3030SOL    HW1 9989   1.266   2.444   5.936
 3030SOL    HW2 9990   1.210   2.597   5.928
 3031SOL     OW 9991   0.723   2.926   0.776
 3031SOL    HW1 9992   0.819   2.905   0.793
 3031SOL    HW2 9993   0.711   3.025   0.770
 3032SOL     OW 9994   4.350   6.657   1.661
 3032SOL    HW1 9995   4.323   6.656   1.758
 3032SOL    HW2 9996   4.293   6.593   1.610
 3033SOL     OW 9997   0.169   2.073   1.767
 3033SOL    HW1 9998   0.234   2.060   1.841
 3033SOL    HW2 9999   0.214   2.119   1.690
 3034SOL     OW10000   1.849   5.764   3.547
 3034SOL    HW110001   1.907   5.683   3.536
 3034SOL    HW210002   1.826   5.775   3.644
 3035SOL     OW10003   6.791   2.989   6.963
 3035SOL    HW110004   6.725   2.980   0.014
 3035SOL    HW210005   6.875   3.032   6.997
 3036SOL     OW10006   1.456   2.640   6.561
 3036SOL    HW110007   1.468   2.725   6.509
 3036SOL    HW210008   1.363   2.634   6.595
 3037SOL     OW10009   1.050   6.112   4.335
 3037SOL    HW110010   1.034   6.031   4.279
 3037SOL    HW210011   1.022   6.093   4.429
 3038SOL     OW10012   5.709   5.891   6.545
 3038SOL    HW110013   5.709   5.887   6.645
 3038SOL    HW210014   5.695   5.985   6.515
 3039SOL     OW10015   0.026   4.171   1.456
 3039SOL    HW110016   0.088   4.196   1.382
 3039SOL    HW210017   6.964   4.137   1.419
 3040SOL     OW10018   4.588   3.534   5.980
 3040SOL    HW110019   4.556   3.500   6.068
 3040SOL    HW210020   4.510   3.562   5.924
 3041SOL     OW10021   2.318   2.838   4.765
 3041SOL    HW110022   2.369   2.874   4.843
 3041SOL    HW210023   2.306   2.910   4.697
 3042SOL     OW10024   5.250   6.420   1.826
 3042SOL    HW110025   5.291   6.482   1.758
 3042SOL    HW210026   5.291   6.437   1.915
 3043SOL     OW10027   0.939   5.784   1.287
 3043SOL    HW110028   0.997   5.844   1.341
 3043SOL    HW210029   0.963   5.793   1.190
 3044SOL     OW10030   3.376   4.540   6.050
 3044SOL    HW110031   3.455   4.591   6.082
 3044SOL    HW210032   3.334   4.492   6.127
 3045SOL     OW10033   4.914   1.385   3.274
 3045SOL    HW110034   4.905   1.381   3.374
 3045SOL    HW210035   4.937   1.294   3.240
 3046SOL     OW10036   2.518   2.082   6.605
 3046SOL    HW110037   2.481   2.133   6.683
 3046SOL    HW210038   2.443   2.036   6.557
 3047SOL     OW10039   5.104   0.115   2.337
 3047SOL    HW110040   5.062   0.028   2.312
 3047SOL    HW210041   5.126   0.115   2.435
 3048SOL     OW10042   3.893   2.361   1.748
 3048SOL    HW110043   3.874   2.459   1.737
 3048SOL    HW210044   3.814   2.317   1.791
 3049SOL     OW10045   1.109   6.553   1.781
 3049SOL    HW110046   1.039   6.623   1.767
 3049SOL    HW210047   1.188   6.573   1.722
 3050SOL     OW10048   3.412   0.735   2.574
 3050SOL    HW110049   3.431   0.820   2.624
 3050SOL    HW210050   3.497   0.703   2.531
 3051SOL     OW10051   1.967   4.147   6.914
 3051SOL    HW110052   2.009   4.090   6.844
 3051SOL    HW210053   1.872   4.119   6.928
 3052SOL     OW10054   5.341   0.005   2.009
 3052SOL    HW110055   5.284   0.050   1.940
 3052SOL    HW210056   5.401   0.072   2.052
 3053SOL     OW10057   0.165   1.512   6.810
 3053SOL    HW110058   0.206   1.552   6.891
 3053SOL    HW210059   0.229   1.520   6.733
 3054SOL     OW10060   6.850   2.335   1.576
 3054SOL    HW110061   6.943   2.365   1.553
 3054SOL    HW210062   6.807   2.295   1.495
 3055SOL     OW10063   5.064   6.902   3.978
 3055SOL    HW110064   5.074   6.863   4.069
 3055SOL    HW210065   5.149   6.949   3.952
 3056SOL     OW10066   6.382   1.499   5.212
 3056SOL    HW110067   6.416   1.407   5.230
 3056SOL    HW210068   6.449   1.566   5.243
 3057SOL     OW10069   4.039   6.042   3.321
 3057SOL    HW110070   3.948   6.044   3.279
 3057SOL    HW210071   4.043   6.109   3.395
 3058SOL     OW10072   6.898   5.637   0.984
 3058SOL    HW110073   6.834   5.577   1.032
 3058SOL    HW210074   6.893   5.620   0.885
 3059SOL     OW10075   2.530   2.135   4.528
 3059SOL    HW110076   2.551   2.120   4.624
 3059SOL    HW210077   2.571   2.221   4.498
 3060SOL     OW10078   0.843   5.869   0.444
 3060SOL    HW110079   0.757   5.822   0.425
 3060SOL    HW210080   0.883   5.833   0.528
 3061SOL     OW10081   5.462   0.685   5.828
 3061SOL    HW110082   5.411   0.607   5.864
 3061SOL    HW210083   5.517   0.726   5.901
 3062SOL     OW10084   1.337   6.561   6.906
 3062SOL    HW110085   1.434   6.565   6.886
 3062SOL    HW210086   1.313   6.632   6.972
 3063SOL     OW10087   2.790   5.227   1.701
 3063SOL    HW110088   2.794   5.130   1.728
 3063SOL    HW210089   2.824   5.283   1.776
 3064SOL     OW10090   5.382   3.839   4.075
 3064SOL    HW110091   5.418   3.825   4.167
 3064SOL    HW210092   5.454   3.824   4.008
 3065SOL     OW10093   2.254   0.656   6.903
 3065SOL    HW110094   2.308   0.710   6.839
 3065SOL    HW210095   2.308   0.640   6.986
 3066SOL     OW10096   4.884   5.321   0.727
 3066SOL    HW110097   4.935   5.263   0.662
 3066SOL    HW210098   4.904   5.291   0.820
 3067SOL     OW10099   3.646   2.065   4.769
 3067SOL    HW110100   3.570   2.047   4.831
 3067SOL    HW210101   3.726   2.095   4.821
 3068SOL     OW10102   5.698   6.722   1.154
 3068SOL    HW110103   5.622   6.658   1.169
 3068SOL    HW210104   5.746   6.698   1.070
 3069SOL     OW10105   6.982   6.364   1.912
 3069SOL    HW110106   0.057   6.361   1.898
 3069SOL    HW210107   6.944   6.443   1.864
 3070SOL     OW10108   1.132   0.859   2.181
 3070SOL    HW110109   1.177   0.940   2.220
 3070SOL    HW210110   1.049   0.887   2.133
 3071SOL     OW10111   5.942   6.083   3.079
 3071SOL    HW110112   5.846   6.109   3.077
 3071SOL    HW210113   5.968   6.041   2.992
 3072SOL     OW10114   1.422   6.930   0.185
 3072SOL    HW110115   1.327   6.937   0.155
 3072SOL    HW210116   1.459   6.840   0.160
 3073SOL     OW10117   0.014   3.419   5.148
 3073SOL    HW110118   7.002   3.426   5.242
 3073SOL    HW210119   6.968   3.449   5.083
 3074SOL     OW10120   5.164   3.277   0.906
 3074SOL    HW110121   5.175   3.294   0.808
 3074SOL    HW210122   5.249   3.237   0.941
 3075SOL     OW10123   2.067   5.864   1.928
 3075SOL    HW110124   2.082   5.962   1.942
 3075SOL    HW210125   2.112   5.812   2.000
 3076SOL     OW10126   0.318   0.677   4.211
 3076SOL    HW110127   0.276   0.724   4.289
 3076SOL    HW210128   0.387   0.737   4.170
 3077SOL     OW10129   4.867   5.261   2.747
 3077SOL    HW110130   4.881   5.360   2.752
 3077SOL    HW210131   4.794   5.234   2.809
 3078SOL     OW10132   0.974   3.407   1.595
 3078SOL    HW110133   0.913   3.345   1.643
 3078SOL    HW210134   0.920   3.476   1.547
 3079SOL     OW10135   2.532   1.842   4.854
 3079SOL    HW110136   2.486   1.798   4.777
 3079SOL    HW210137   2.570   1.930   4.825
 3080SOL     OW10138   4.886   3.984   3.665
 3080SOL    HW110139   4.940   3.923   3.607
 3080SOL    HW210140   4.870   3.940   3.753
 3081SOL     OW10141   0.320   2.651   5.942
 3081SOL    HW110142   0.410   2.651   5.897
 3081SOL    HW210143   0.263   2.579   5.903
 3082SOL     OW10144   3.194   0.053   4.062
 3082SOL    HW110145   3.280   0.087   4.023
 3082SOL    HW210146   3.214   7.009   4.132
 3083SOL     OW10147   4.476   6.454   3.157
 3083SOL    HW110148   4.541   6.381   3.180
 3083SOL    HW210149   4.412   6.467   3.233
 3084SOL     OW10150   5.137   4.336   4.496
 3084SOL    HW110151   5.157   4.265   4.563
 3084SOL    HW210152   5.112   4.294   4.409
 3085SOL     OW10153   0.225   4.750   1.698
 3085SOL    HW110154   0.223   4.711   1.606
 3085SOL    HW210155   0.149   4.714   1.751
 3086SOL     OW10156   4.029   2.005   2.175
 3086SOL    HW110157   3.969   1.996   2.255
 3086SOL    HW210158   3.974   2.032   2.096
 3087SOL     OW10159   1.432   4.806   3.944
 3087SOL    HW110160   1.441   4.710   3.971
 3087SOL    HW210161   1.407   4.811   3.847
 3088SOL     OW10162   2.552   5.099   5.966
 3088SOL    HW110163   2.607   5.029   5.921
 3088SOL    HW210164   2.494   5.055   6.036
 3089SOL     OW10165   1.342   3.102   0.400
 3089SOL    HW110166   1.387   3.129   0.315
 3089SOL    HW210167   1.352   3.004   0.414
 3090SOL     OW10168   1.870   2.106   1.893
 3090SOL    HW110169   1.784   2.158   1.887
 3090SOL    HW210170   1.938   2.148   1.833
 3091SOL     OW10171   1.253   0.024   0.637
 3091SOL    HW110172   1.284   0.113   0.671
 3091SOL    HW210173   1.241   6.985   0.713
 3092SOL     OW10174   4.989   6.540   0.418
 3092SOL    HW110175   4.890   6.545   0.407
 3092SOL    HW210176   5.034   6.569   0.334
 3093SOL     OW10177   5.375   5.904   6.146
 3093SOL    HW110178   5.475   5.911   6.137
 3093SOL    HW210179   5.346   5.950   6.229
 3094SOL     OW10180   2.345   6.394   4.425
 3094SOL    HW110181   2.273   6.463   4.430
 3094SOL    HW210182   2.349   6.357   4.332
 3095SOL     OW10183   2.075   5.737   4.429
 3095SOL    HW110184   2.121   5.709   4.344
 3095SOL    HW210185   2.098   5.673   4.502
 3096SOL     OW10186   1.212   6.701   5.048
 3096SOL    HW110187   1.244   6.618   5.002
 3096SOL    HW210188   1.113   6.699   5.055
 3097SOL     OW10189   0.183   2.391   0.999
 3097SOL    HW110190   0.215   2.297   1.007
 3097SOL    HW210191   0.239   2.441   0.934
 3098SOL     OW10192   2.663   3.401   0.599
 3098SOL    HW110193   2.753   3.431   0.630
 3098SOL    HW210194   2.598   3.476   0.608
 3099SOL     OW10195   0.640   6.415   3.779
 3099SOL    HW110196   0.590   6.404   3.693
 3099SOL    HW210197   0.619   6.505   3.818
 3100SOL     OW10198   6.492   6.998   4.788
 3100SOL    HW110199   6.417   7.018   4.852
 3100SOL    HW210200   6.502   6.899   4.779
 3101SOL     OW10201   5.044   6.127   5.896
 3101SOL    HW110202   5.076   6.151   5.805
 3101SOL    HW210203   4.951   6.161   5.908
 3102SOL     OW10204   0.308   5.216   3.069
 3102SOL    HW110205   0.322   5.146   3.139
 3102SOL    HW210206   0.332   5.179   2.980
 3103SOL     OW10207   3.556   0.793   2.006
 3103SOL    HW110208   3.606   0.874   2.037
 3103SOL    HW210209   3.470   0.822   1.962
 3104SOL     OW10210   5.204   6.668   5.287
 3104SOL    HW110211   5.168   6.749   5.333
 3104SOL    HW210212   5.181   6.671   5.190
 3105SOL     OW10213   6.181   4.321   1.864
 3105SOL    HW110214   6.219   4.255   1.799
 3105SOL    HW210215   6.083   4.303   1.877
 3106SOL     OW10216   5.810   1.603   2.502
 3106SOL    HW110217   5.826   1.514   2.545
 3106SOL    HW210218   5.757   1.661   2.565
 3107SOL     OW10219   4.075   0.854   4.174
 3107SOL    HW110220   4.022   0.935   4.201
 3107SOL    HW210221   4.129   0.876   4.093
 3108SOL     OW10222   1.270   0.357   4.510
 3108SOL    HW110223   1.277   0.288   4.437
 3108SOL    HW210224   1.212   0.432   4.479
 3109SOL     OW10225   5.748   6.281   1.827
 3109SOL    HW110226   5.709   6.367   1.859
 3109SOL    HW210227   5.812   6.245   1.894
 3110SOL     OW10228   1.623   1.757   3.705
 3110SOL    HW110229   1.660   1.667   3.683
 3110SOL    HW210230   1.671   1.795   3.784
 3111SOL     OW10231   5.855   6.119   3.864
 3111SOL    HW110232   5.791   6.105   3.939
 3111SOL    HW210233   5.880   6.215   3.859
 3112SOL     OW10234   5.091   2.631   5.983
 3112SOL    HW110235   5.150   2.554   5.957
 3112SOL    HW210236   5.133   2.717   5.953
 3113SOL     OW10237   1.592   6.100   3.993
 3113SOL    HW110238   1.652   6.091   3.914
 3113SOL    HW210239   1.502   6.063   3.971
 3114SOL     OW10240   4.096   2.084   6.866
 3114SOL    HW110241   4.139   2.146   6.800
 3114SOL    HW210242   3.998   2.101   6.868
 3115SOL     OW10243   4.359   3.377   6.639
 3115SOL    HW110244   4.327   3.287   6.671
 3115SOL    HW210245   4.379   3.371   6.541
 3116SOL     OW10246   0.413   3.713   6.604
 3116SOL    HW110247   0.386   3.716   6.508
 3116SOL    HW210248   0.373   3.632   6.647
 3117SOL     OW10249   4.298   3.819   5.311
 3117SOL    HW110250   4.395   3.794   5.314
 3117SOL    HW210251   4.243   3.746   5.351
 3118SOL     OW10252   0.334   4.442   0.787
 3118SOL    HW110253   0.305   4.466   0.694
 3118SOL    HW210254   0.397   4.365   0.783
 3119SOL     OW10255   2.201   3.325   5.488
 3119SOL    HW110256   2.114   3.276   5.485
 3119SOL    HW210257   2.275   3.265   5.457
 3120SOL     OW10258   2.871   6.720   4.026
 3120SOL    HW110259   2.927   6.792   3.985
 3120SOL    HW210260   2.869   6.641   3.965
 3121SOL     OW10261   0.191   1.615   2.487
 3121SOL    HW110262   0.197   1.703   2.533
 3121SOL    HW210263   0.144   1.549   2.546
 3122SOL     OW10264   3.042   5.986   5.700
 3122SOL    HW110265   3.093   5.992   5.785
 3122SOL    HW210266   2.951   5.949   5.718
 3123SOL     OW10267   3.452   1.078   4.038
 3123SOL    HW110268   3.501   1.001   4.079
 3123SOL    HW210269   3.449   1.154   4.103
 3124SOL     OW10270   4.147   6.367   4.998
 3124SOL    HW110271   4.205   6.339   4.921
 3124SOL    HW210272   4.078   6.432   4.965
 3125SOL     OW10273   6.307   2.129   5.088
 3125SOL    HW110274   6.319   2.043   5.138
 3125SOL    HW210275   6.391   2.183   5.097
 3126SOL     OW10276   4.576   4.902   6.377
 3126SOL    HW110277   4.647   4.888   6.447
 3126SOL    HW210278   4.616   4.950   6.299
 3127SOL     OW10279   0.791   2.792   3.751
 3127SOL    HW110280   0.767   2.750   3.839
 3127SOL    HW210281   0.706   2.815   3.702
 3128SOL     OW10282   1.998   0.370   6.661
 3128SOL    HW110283   2.064   0.379   6.736
 3128SOL    HW210284   1.932   0.445   6.666
 3129SOL     OW10285   0.431   4.371   6.647
 3129SOL    HW110286   0.377   4.396   6.567
 3129SOL    HW210287   0.510   4.318   6.619
 3130SOL     OW10288   1.463   4.424   1.848
 3130SOL    HW110289   1.532   4.398   1.916
 3130SOL    HW210290   1.404   4.345   1.828
 3131SOL     OW10291   0.081   2.552   1.887
 3131SOL    HW110292   0.075   2.639   1.935
 3131SOL    HW210293   0.037   2.481   1.943
 3132SOL     OW10294   4.395   4.782   5.662
 3132SOL    HW110295   4.396   4.876   5.697
 3132SOL    HW210296   4.335   4.726   5.718
 3133SOL     OW10297   2.938   2.288   3.491
 3133SOL    HW110298   3.028   2.312   3.456
 3133SOL    HW210299   2.940   2.285   3.591
 3134SOL     OW10300   4.633   4.565   1.511
 3134SOL    HW110301   4.627   4.502   1.434
 3134SOL    HW210302   4.544   4.607   1.527
 3135SOL     OW10303   4.845   0.746   5.279
 3135SOL    HW110304   4.806   0.805   5.350
 3135SOL    HW210305   4.943   0.764   5.271
 3136SOL     OW10306   5.108   0.880   6.993
 3136SOL    HW110307   5.188   0.877   0.030
 3136SOL    HW210308   5.081   0.976   6.978
 3137SOL     OW10309   6.349   0.567   3.461
 3137SOL    HW110310   6.407   0.612   3.394
 3137SOL    HW210311   6.375   0.596   3.553
 3138SOL     OW10312   6.470   2.469   3.957
 3138SOL    HW110313   6.549   2.486   3.898
 3138SOL    HW210314   6.501   2.431   4.045
 3139SOL     OW10315   4.514   7.021   0.578
 3139SOL    HW110316   4.509   6.952   0.650
 3139SOL    HW210317   4.483   6.981   0.492
 3140SOL     OW10318   5.358   0.107   7.022
 3140SOL    HW110319   5.452   0.113   6.987
 3140SOL    HW210320   5.326   0.012   7.015
 3141SOL     OW10321   0.136   5.789   6.121
 3141SOL    HW110322   0.176   5.854   6.057
 3141SOL    HW210323   0.199   5.775   6.197
 3142SOL     OW10324   4.668   6.356   1.714
 3142SOL    HW110325   4.703   6.381   1.804
 3142SOL    HW210326   4.617   6.270   1.720
 3143SOL     OW10327   6.934   2.745   0.003
 3143SOL    HW110328   6.861   2.811   7.010
 3143SOL    HW210329   6.928   2.670   6.961
 3144SOL     OW10330   3.378   3.624   1.031
 3144SOL    HW110331   3.356   3.702   1.090
 3144SOL    HW210332   3.478   3.614   1.025
 3145SOL     OW10333   1.945   5.047   2.334
 3145SOL    HW110334   2.015   5.108   2.299
 3145SOL    HW210335   1.983   4.956   2.348
 3146SOL     OW10336   1.670   0.219   3.125
 3146SOL    HW110337   1.619   0.231   3.040
 3146SOL    HW210338   1.649   0.129   3.164
 3147SOL     OW10339   3.108   5.195   6.666
 3147SOL    HW110340   3.031   5.254   6.642
 3147SOL    HW210341   3.101   5.168   6.762
 3148SOL     OW10342   5.017   5.966   4.791
 3148SOL    HW110343   5.054   6.043   4.844
 3148SOL    HW210344   5.087   5.895   4.782
 3149SOL     OW10345   3.151   0.496   5.404
 3149SOL    HW110346   3.148   0.514   5.305
 3149SOL    HW210347   3.143   0.582   5.454
 3150SOL     OW10348   6.534   5.659   4.095
 3150SOL    HW110349   6.531   5.608   4.181
 3150SOL    HW210350   6.444   5.656   4.051
 3151SOL     OW10351   3.939   1.044   6.383
 3151SOL    HW110352   3.917   0.996   6.299
 3151SOL    HW210353   3.959   0.978   6.456
 3152SOL     OW10354   1.244   5.507   0.721
 3152SOL    HW110355   1.180   5.431   0.734
 3152SOL    HW210356   1.318   5.478   0.660
 3153SOL     OW10357   6.333   4.540   1.873
 3153SOL    HW110358   6.390   4.538   1.955
 3153SOL    HW210359   6.277   4.457   1.868
 3154SOL     OW10360   6.324   1.630   0.828
 3154SOL    HW110361   6.270   1.695   0.775
 3154SOL    HW210362   6.285   1.538   0.820
 3155SOL     OW10363   6.651   5.471   1.413
 3155SOL    HW110364   6.604   5.388   1.441
 3155SOL    HW210365   6.728   5.488   1.474
 3156SOL     OW10366   2.970   3.636   3.249
 3156SOL    HW110367   2.971   3.677   3.340
 3156SOL    HW210368   2.993   3.539   3.256
 3157SOL     OW10369   2.160   2.600   4.827
 3157SOL    HW110370   2.226   2.672   4.808
 3157SOL    HW210371   2.139   2.598   4.925
 3158SOL     OW10372   4.391   0.062   2.130
 3158SOL    HW110373   4.380   0.093   2.224
 3158SOL    HW210374   4.385   0.140   2.068
 3159SOL     OW10375   5.777   1.142   0.580
 3159SOL    HW110376   5.724   1.110   0.502
 3159SOL    HW210377   5.803   1.064   0.637
 3160SOL     OW10378   6.854   6.372   5.226
 3160SOL    HW110379   6.762   6.399   5.199
 3160SOL    HW210380   6.901   6.330   5.149
 3161SOL     OW10381   1.513   1.214   3.207
 3161SOL    HW110382   1.483   1.123   3.236
 3161SOL    HW210383   1.512   1.276   3.285
 3162SOL     OW10384   1.149   6.188   0.718
 3162SOL    HW110385   1.155   6.088   0.717
 3162SOL    HW210386   1.113   6.219   0.630
 3163SOL     OW10387   3.892   2.403   0.060
 3163SOL    HW110388   3.952   2.371   0.133
 3163SOL    HW210389   3.842   2.325   0.022
 3164SOL     OW10390   3.987   4.499   1.404
 3164SOL    HW110391   3.970   4.504   1.503
 3164SOL    HW210392   3.960   4.409   1.370
 3165SOL     OW10393   1.609   6.011   1.835
 3165SOL    HW110394   1.550   6.091   1.842
 3165SOL    HW210395   1.701   6.039   1.806
 3166SOL     OW10396   4.925   1.157   6.477
 3166SOL    HW110397   4.858   1.199   6.416
 3166SOL    HW210398   4.991   1.105   6.422
 3167SOL     OW10399   6.984   4.337   1.670
 3167SOL    HW110400   7.005   4.287   1.586
 3167SOL    HW210401   0.011   4.423   1.672
 3168SOL     OW10402   5.492   2.750   0.204
 3168SOL    HW110403   5.429   2.822   0.233
 3168SOL    HW210404   5.515   2.764   0.107
 3169SOL     OW10405   1.257   3.042   5.502
 3169SOL    HW110406   1.234   2.960   5.554
 3169SOL    HW210407   1.317   3.018   5.426
 3170SOL     OW10408   4.547   0.820   1.185
 3170SOL    HW110409   4.593   0.738   1.218
 3170SOL    HW210410   4.492   0.860   1.259
 3171SOL     OW10411   0.255   6.384   1.159
 3171SOL    HW110412   0.197   6.318   1.207
 3171SOL    HW210413   0.347   6.383   1.198
 3172SOL     OW10414   0.582   5.082   5.669
 3172SOL    HW110415   0.623   4.991   5.672
 3172SOL    HW210416   0.508   5.083   5.602
 3173SOL     OW10417   3.063   1.753   1.308
 3173SOL    HW110418   3.145   1.699   1.289
 3173SOL    HW210419   3.049   1.760   1.407
 3174SOL     OW10420   2.533   2.630   6.670
 3174SOL    HW110421   2.492   2.543   6.697
 3174SOL    HW210422   2.605   2.614   6.603
 3175SOL     OW10423   0.290   6.488   0.465
 3175SOL    HW110424   0.316   6.454   0.375
 3175SOL    HW210425   0.362   6.547   0.501
 3176SOL     OW10426   2.188   4.924   4.808
 3176SOL    HW110427   2.200   5.008   4.756
 3176SOL    HW210428   2.107   4.931   4.866
 3177SOL     OW10429   4.830   5.095   5.455
 3177SOL    HW110430   4.768   5.058   5.386
 3177SOL    HW210431   4.777   5.129   5.532
 3178SOL     OW10432   6.830   2.713   1.133
 3178SOL    HW110433   6.796   2.804   1.157
 3178SOL    HW210434   6.930   2.717   1.123
 3179SOL     OW10435   2.048   2.693   2.183
 3179SOL    HW110436   2.138   2.709   2.225
 3179SOL    HW210437   2.014   2.603   2.212
 3180SOL     OW10438   4.735   0.367   6.907
 3180SOL    HW110439   4.704   0.418   6.826
 3180SOL    HW210440   4.665   0.302   6.935
 3181SOL     OW10441   0.969   1.101   3.139
 3181SOL    HW110442   0.887   1.154   3.161
 3181SOL    HW210443   1.034   1.158   3.090
 3182SOL     OW10444   1.622   1.069   5.356
 3182SOL    HW110445   1.573   1.130   5.294
 3182SOL    HW210446   1.696   1.119   5.401
 3183SOL     OW10447   5.010   3.582   1.398
 3183SOL    HW110448   5.078   3.513   1.372
 3183SOL    HW210449   4.922   3.537   1.413
 3184SOL     OW10450   2.204   2.306   2.800
 3184SOL    HW110451   2.227   2.241   2.727
 3184SOL    HW210452   2.266   2.385   2.796
 3185SOL     OW10453   6.165   1.020   6.682
 3185SOL    HW110454   6.116   1.014   6.596
 3185SOL    HW210455   6.182   0.928   6.717
 3186SOL     OW10456   3.657   1.243   2.906
 3186SOL    HW110457   3.565   1.217   2.937
 3186SOL    HW210458   3.701   1.297   2.978
 3187SOL     OW10459   4.802   4.232   6.982
 3187SOL    HW110460   4.722   4.173   6.965
 3187SOL    HW210461   4.885   4.182   6.958
 3188SOL     OW10462   3.298   6.020   3.974
 3188SOL    HW110463   3.273   5.938   4.027
 3188SOL    HW210464   3.358   5.994   3.899
 3189SOL     OW10465   2.351   0.845   2.897
 3189SOL    HW110466   2.331   0.836   2.799
 3189SOL    HW210467   2.269   0.822   2.949
 3190SOL     OW10468   0.881   6.502   1.559
 3190SOL    HW110469   0.884   6.581   1.498
 3190SOL    HW210470   0.796   6.504   1.613
 3191SOL     OW10471   3.697   6.792   0.718
 3191SOL    HW110472   3.686   6.867   0.784
 3191SOL    HW210473   3.794   6.783   0.694
 3192SOL     OW10474   0.551   2.294   1.319
 3192SOL    HW110475   0.519   2.203   1.343
 3192SOL    HW210476   0.472   2.353   1.299
 3193SOL     OW10477   4.378   1.701   5.903
 3193SOL    HW110478   4.335   1.775   5.850
 3193SOL    HW210479   4.315   1.624   5.911
 3194SOL     OW10480   0.954   2.669   5.899
 3194SOL    HW110481   1.017   2.714   5.962
 3194SOL    HW210482   0.997   2.662   5.809
 3195SOL     OW10483   1.845   2.622   2.444
 3195SOL    HW110484   1.943   2.609   2.457
 3195SOL    HW210485   1.796   2.544   2.481
 3196SOL     OW10486   7.005   0.636   4.748
 3196SOL    HW110487   6.914   0.650   4.708
 3196SOL    HW210488   6.996   0.609   4.844
 3197SOL     OW10489   1.637   5.506   3.830
 3197SOL    HW110490   1.544   5.540   3.849
 3197SOL    HW210491   1.698   5.534   3.904
 3198SOL     OW10492   6.442   2.380   6.545
 3198SOL    HW110493   6.394   2.448   6.601
 3198SOL    HW210494   6.431   2.289   6.585
 3199SOL     OW10495   4.422   2.745   1.608
 3199SOL    HW110496   4.447   2.678   1.537
 3199SOL    HW210497   4.331   2.722   1.644
 3200SOL     OW10498   0.164   1.675   1.791
 3200SOL    HW110499   0.203   1.589   1.758
 3200SOL    HW210500   0.231   1.749   1.780
 3201SOL     OW10501   4.917   4.495   4.520
 3201SOL    HW110502   4.852   4.497   4.444
 3201SOL    HW210503   4.981   4.419   4.507
 3202SOL     OW10504   1.129   4.447   2.253
 3202SOL    HW110505   1.085   4.496   2.177
 3202SOL    HW210506   1.090   4.478   2.340
 3203SOL     OW10507   5.653   1.055   0.974
 3203SOL    HW110508   5.554   1.067   0.959
 3203SOL    HW210509   5.687   1.128   1.034
 3204SOL     OW10510   4.767   5.972   1.390
 3204SOL    HW110511   4.737   6.065   1.408
 3204SOL    HW210512   4.836   5.945   1.457
 3205SOL     OW10513   0.168   3.927   6.554
 3205SOL    HW110514   0.111   3.890   6.480
 3205SOL    HW210515   0.225   3.854   6.591
 3206SOL     OW10516   6.636   6.967   5.971
 3206SOL    HW110517   6.681   0.031   5.982
 3206SOL    HW210518   6.706   6.895   5.964
 3207SOL     OW10519   0.456   1.517   6.820
 3207SOL    HW110520   0.462   1.466   6.734
 3207SOL    HW210521   0.513   1.599   6.814
 3208SOL     OW10522   5.076   6.421   6.074
 3208SOL    HW110523   5.012   6.344   6.076
 3208SOL    HW210524   5.150   6.402   6.010
 3209SOL     OW10525   3.060   5.930   3.539
 3209SOL    HW110526   3.114   5.865   3.591
 3209SOL    HW210527   2.965   5.899   3.534
 3210SOL     OW10528   0.460   3.630   1.707
 3210SOL    HW110529   0.559   3.626   1.725
 3210SOL    HW210530   0.412   3.571   1.772
 3211SOL     OW10531   2.463   4.387   0.516
 3211SOL    HW110532   2.406   4.444   0.456
 3211SOL    HW210533   2.418   4.299   0.531
 3212SOL     OW10534   3.774   1.363   6.728
 3212SOL    HW110535   3.698   1.427   6.736
 3212SOL    HW210536   3.808   1.340   6.819
 3213SOL     OW10537   5.936   4.868   3.128
 3213SOL    HW110538   5.849   4.876   3.080
 3213SOL    HW210539   5.963   4.772   3.133
 3214SOL     OW10540   4.799   6.168   0.636
 3214SOL    HW110541   4.713   6.174   0.687
 3214SOL    HW210542   4.792   6.094   0.569
 3215SOL     OW10543   6.639   3.566   0.624
 3215SOL    HW110544   6.716   3.535   0.568
 3215SOL    HW210545   6.637   3.515   0.710
 3216SOL     OW10546   5.042   5.650   2.080
 3216SOL    HW110547   5.139   5.672   2.072
 3216SOL    HW210548   5.000   5.648   1.990
 3217SOL     OW10549   1.015   5.100   2.579
 3217SOL    HW110550   0.916   5.092   2.572
 3217SOL    HW210551   1.052   5.019   2.623
 3218SOL     OW10552   4.301   6.195   3.092
 3218SOL    HW110553   4.268   6.225   3.002
 3218SOL    HW210554   4.280   6.265   3.160
 3219SOL     OW10555   0.487   0.512   3.227
 3219SOL    HW110556   0.402   0.551   3.264
 3219SOL    HW210557   0.558   0.582   3.225
 3220SOL     OW10558   6.205   5.366   6.022
 3220SOL    HW110559   6.177   5.311   6.100
 3220SOL    HW210560   6.147   5.345   5.943
 3221SOL     OW10561   3.300   6.308   2.117
 3221SOL    HW110562   3.331   6.275   2.028
 3221SOL    HW210563   3.208   6.348   2.108
 3222SOL     OW10564   4.862   1.920   3.524
 3222SOL    HW110565   4.807   2.003   3.518
 3222SOL    HW210566   4.833   1.865   3.602
 3223SOL     OW10567   1.844   5.261   6.587
 3223SOL    HW110568   1.828   5.358   6.601
 3223SOL    HW210569   1.766   5.221   6.538
 3224SOL     OW10570   4.455   4.808   6.040
 3224SOL    HW110571   4.541   4.851   6.070
 3224SOL    HW210572   4.378   4.860   6.076
 3225SOL     OW10573   4.161   2.163   5.767
 3225SOL    HW110574   4.147   2.101   5.845
 3225SOL    HW210575   4.209   2.245   5.798
 3226SOL     OW10576   2.242   1.424   4.863
 3226SOL    HW110577   2.160   1.479   4.845
 3226SOL    HW210578   2.271   1.438   4.958
 3227SOL     OW10579   3.019   2.014   6.638
 3227SOL    HW110580   2.945   2.040   6.576
 3227SOL    HW210581   2.988   1.943   6.700
 3228SOL     OW10582   5.281   3.326   4.349
 3228SOL    HW110583   5.252   3.263   4.277
 3228SOL    HW210584   5.310   3.274   4.429
 3229SOL     OW10585   3.121   1.309   5.843
 3229SOL    HW110586   3.077   1.340   5.758
 3229SOL    HW210587   3.208   1.265   5.821
 3230SOL     OW10588   0.435   2.665   4.002
 3230SOL    HW110589   0.432   2.736   3.932
 3230SOL    HW210590   0.408   2.577   3.961
 3231SOL     OW10591   3.784   5.640   2.134
 3231SOL    HW110592   3.704   5.624   2.076
 3231SOL    HW210593   3.867   5.624   2.081
 3232SOL     OW10594   4.469   5.436   4.373
 3232SOL    HW110595   4.520   5.363   4.326
 3232SOL    HW210596   4.385   5.398   4.413
 3233SOL     OW10597   1.673   3.894   1.215
 3233SOL    HW110598   1.586   3.887   1.264
 3233SOL    HW210599   1.658   3.938   1.126
 3234SOL     OW10600   6.935   2.374   0.973
 3234SOL    HW110601   6.903   2.357   1.066
 3234SOL    HW210602   0.008   2.354   0.967
 3235SOL     OW10603   5.638   5.956   1.991
 3235SOL    HW110604   5.579   6.034   2.014
 3235SOL    HW210605   5.708   5.985   1.926
 3236SOL     OW10606   1.573   3.285   1.898
 3236SOL    HW110607   1.513   3.205   1.905
 3236SOL    HW210608   1.624   3.296   1.983
 3237SOL     OW10609   5.094   0.486   3.479
 3237SOL    HW110610   5.139   0.460   3.393
 3237SOL    HW210611   5.093   0.585   3.487
 3238SOL     OW10612   0.053   5.432   6.534
 3238SOL    HW110613   0.017   5.359   6.593
 3238SOL    HW210614   0.124   5.482   6.583
 3239SOL     OW10615   6.134   1.389   0.752
 3239SOL    HW110616   6.119   1.397   0.653
 3239SOL    HW210617   6.062   1.437   0.801
 3240SOL     OW10618   0.864   6.563   5.228
 3240SOL    HW110619   0.886   6.625   5.153
 3240SOL    HW210620   0.923   6.583   5.306
 3241SOL     OW10621   5.460   1.584   4.292
 3241SOL    HW110622   5.377   1.635   4.315
 3241SOL    HW210623   5.472   1.509   4.357
 3242SOL     OW10624   3.539   4.466   0.510
 3242SOL    HW110625   3.501   4.441   0.599
 3242SOL    HW210626   3.497   4.410   0.439
 3243SOL     OW10627   5.626   5.186   0.579
 3243SOL    HW110628   5.718   5.178   0.539
 3243SOL    HW210629   5.607   5.282   0.600
 3244SOL     OW10630   5.060   5.421   6.574
 3244SOL    HW110631   5.015   5.347   6.623
 3244SOL    HW210632   5.138   5.384   6.523
 3245SOL     OW10633   4.337   2.390   5.839
 3245SOL    HW110634   4.330   2.456   5.914
 3245SOL    HW210635   4.431   2.356   5.833
 3246SOL     OW10636   6.283   0.615   3.015
 3246SOL    HW110637   6.211   0.682   3.032
 3246SOL    HW210638   6.253   0.525   3.048
 3247SOL     OW10639   6.954   4.985   2.760
 3247SOL    HW110640   0.024   4.953   2.757
 3247SOL    HW210641   6.920   4.980   2.854
 3248SOL     OW10642   5.726   3.633   2.008
 3248SOL    HW110643   5.820   3.664   1.993
 3248SOL    HW210644   5.722   3.534   1.998
 3249SOL     OW10645   4.302   4.015   5.775
 3249SOL    HW110646   4.225   4.073   5.802
 3249SOL    HW210647   4.352   3.987   5.857
 3250SOL     OW10648   5.541   0.065   3.383
 3250SOL    HW110649   5.475   0.038   3.313
 3250SOL    HW210650   5.579   7.008   3.427
 3251SOL     OW10651   4.102   0.992   2.458
 3251SOL    HW110652   4.202   0.998   2.463
 3251SOL    HW210653   4.076   0.951   2.371
 3252SOL     OW10654   3.409   1.204   2.076
 3252SOL    HW110655   3.309   1.200   2.073
 3252SOL    HW210656   3.437   1.298   2.096
 3253SOL     OW10657   4.886   3.032   2.663
 3253SOL    HW110658   4.845   2.945   2.688
 3253SOL    HW210659   4.899   3.088   2.744
 3254SOL     OW10660   3.607   5.110   4.981
 3254SOL    HW110661   3.521   5.059   4.984
 3254SOL    HW210662   3.589   5.205   4.956
 3255SOL     OW10663   4.604   5.381   0.742
 3255SOL    HW110664   4.653   5.419   0.821
 3255SOL    HW210665   4.668   5.329   0.685
 3256SOL     OW10666   5.575   0.407   5.992
 3256SOL    HW110667   5.648   0.475   5.999
 3256SOL    HW210668   5.545   0.381   6.084
 3257SOL     OW10669   1.101   2.134   1.167
 3257SOL    HW110670   1.027   2.129   1.234
 3257SOL    HW210671   1.070   2.097   1.080
 3258SOL     OW10672   4.563   6.124   1.812
 3258SOL    HW110673   4.514   6.191   1.868
 3258SOL    HW210674   4.627   6.072   1.869
 3259SOL     OW10675   4.400   5.983   4.553
 3259SOL    HW110676   4.364   6.034   4.475
 3259SOL    HW210677   4.500   5.980   4.548
 3260SOL     OW10678   1.900   2.459   1.070
 3260SOL    HW110679   1.923   2.449   0.973
 3260SOL    HW210680   1.975   2.505   1.117
 3261SOL     OW10681   4.210   6.192   0.584
 3261SOL    HW110682   4.226   6.209   0.486
 3261SOL    HW210683   4.295   6.165   0.627
 3262SOL     OW10684   3.708   1.563   2.866
 3262SOL    HW110685   3.690   1.656   2.896
 3262SOL    HW210686   3.663   1.547   2.778
 3263SOL     OW10687   4.830   0.161   3.480
 3263SOL    HW110688   4.913   0.184   3.531
 3263SOL    HW210689   4.839   0.068   3.443
 3264SOL     OW10690   0.448   4.922   6.938
 3264SOL    HW110691   0.356   4.923   6.898
 3264SOL    HW210692   0.477   5.015   6.959
 3265SOL     OW10693   4.220   2.161   6.227
 3265SOL    HW110694   4.157   2.231   6.260
 3265SOL    HW210695   4.199   2.073   6.270
 3266SOL     OW10696   6.998   2.363   0.433
 3266SOL    HW110697   0.034   2.301   0.481
 3266SOL    HW210698   6.939   2.411   0.499
 3267SOL     OW10699   3.825   2.266   1.135
 3267SOL    HW110700   3.862   2.186   1.183
 3267SOL    HW210701   3.833   2.252   1.036
 3268SOL     OW10702   1.364   3.892   6.455
 3268SOL    HW110703   1.342   3.830   6.530
 3268SOL    HW210704   1.459   3.876   6.426
 3269SOL     OW10705   4.430   5.224   1.802
 3269SOL    HW110706   4.407   5.244   1.898
 3269SOL    HW210707   4.374   5.148   1.770
 3270SOL     OW10708   1.095   5.814   4.594
 3270SOL    HW110709   1.176   5.872   4.603
 3270SOL    HW210710   1.014   5.870   4.577
 3271SOL     OW10711   5.293   2.512   2.970
 3271SOL    HW110712   5.225   2.569   2.925
 3271SOL    HW210713   5.377   2.565   2.984
 3272SOL     OW10714   3.759   5.356   0.598
 3272SOL    HW110715   3.813   5.367   0.514
 3272SOL    HW210716   3.783   5.270   0.642
 3273SOL     OW10717   0.689   6.482   1.744
 3273SOL    HW110718   0.619   6.419   1.713
 3273SOL    HW210719   0.647   6.552   1.802
 3274SOL     OW10720   4.087   2.340   0.231
 3274SOL    HW110721   4.058   2.287   0.311
 3274SOL    HW210722   4.137   2.281   0.168
 3275SOL     OW10723   1.367   0.332   6.675
 3275SOL    HW110724   1.442   0.379   6.628
 3275SOL    HW210725   1.399   0.243   6.707
 3276SOL     OW10726   3.607   4.914   6.549
 3276SOL    HW110727   3.564   4.910   6.639
 3276SOL    HW210728   3.539   4.895   6.478
 3277SOL     OW10729   5.900   0.516   6.683
 3277SOL    HW110730   5.826   0.578   6.657
 3277SOL    HW210731   5.867   0.421   6.678
 3278SOL     OW10732   6.930   0.989   5.448
 3278SOL    HW110733   6.872   1.058   5.491
 3278SOL    HW210734   6.894   0.897   5.468
 3279SOL     OW10735   0.578   0.388   1.388
 3279SOL    HW110736   0.588   0.443   1.305
 3279SOL    HW210737   0.496   0.416   1.437
 3280SOL     OW10738   2.326   5.382   5.970
 3280SOL    HW110739   2.366   5.340   6.052
 3280SOL    HW210740   2.273   5.314   5.920
 3281SOL     OW10741   1.816   5.504   0.812
 3281SOL    HW110742   1.901   5.545   0.847
 3281SOL    HW210743   1.739   5.565   0.833
 3282SOL     OW10744   2.675   5.203   4.270
 3282SOL    HW110745   2.681   5.230   4.366
 3282SOL    HW210746   2.583   5.166   4.252
 3283SOL     OW10747   2.910   1.929   2.091
 3283SOL    HW110748   2.835   1.868   2.114
 3283SOL    HW210749   2.878   2.001   2.030
 3284SOL     OW10750   6.332   6.993   6.478
 3284SOL    HW110751   6.397   7.000   6.402
 3284SOL    HW210752   6.380   6.972   6.562
 3285SOL     OW10753   0.031   2.722   3.189
 3285SOL    HW110754   6.979   2.657   3.194
 3285SOL    HW210755   0.107   2.680   3.140
 3286SOL     OW10756   3.829   3.041   3.816
 3286SOL    HW110757   3.758   2.980   3.852
 3286SOL    HW210758   3.875   3.085   3.893
 3287SOL     OW10759   1.010   5.722   0.621
 3287SOL    HW110760   0.994   5.653   0.550
 3287SOL    HW210761   0.967   5.693   0.706
 3288SOL     OW10762   0.598   5.637   0.083
 3288SOL    HW110763   0.547   5.707   0.034
 3288SOL    HW210764   0.552   5.615   0.169
 3289SOL     OW10765   1.335   6.535   5.600
 3289SOL    HW110766   1.414   6.583   5.562
 3289SOL    HW210767   1.334   6.543   5.699
 3290SOL     OW10768   0.556   6.682   1.869
 3290SOL    HW110769   0.491   6.724   1.806
 3290SOL    HW210770   0.568   6.741   1.949
 3291SOL     OW10771   1.139   6.457   6.693
 3291SOL    HW110772   1.185   6.481   6.778
 3291SOL    HW210773   1.183   6.504   6.617
 3292SOL     OW10774   0.730   1.519   0.019
 3292SOL    HW110775   0.794   1.498   6.970
 3292SOL    HW210776   0.670   1.594   7.016
 3293SOL     OW10777   6.959   2.287   3.093
 3293SOL    HW110778   6.988   2.213   3.153
 3293SOL    HW210779   6.869   2.266   3.054
 3294SOL     OW10780   0.072   0.357   6.331
 3294SOL    HW110781   0.110   0.423   6.267
 3294SOL    HW210782   0.000   0.400   6.385
 3295SOL     OW10783   2.189   1.958   1.061
 3295SOL    HW110784   2.280   1.942   1.100
 3295SOL    HW210785   2.195   2.031   0.993
 3296SOL     OW10786   1.990   6.653   0.906
 3296SOL    HW110787   2.087   6.665   0.883
 3296SOL    HW210788   1.941   6.737   0.885
 3297SOL     OW10789   3.063   1.638   4.338
 3297SOL    HW110790   3.013   1.554   4.356
 3297SOL    HW210791   3.122   1.626   4.259
 3298SOL     OW10792   6.343   3.305   2.974
 3298SOL    HW110793   6.408   3.297   2.898
 3298SOL    HW210794   6.253   3.331   2.938
 3299SOL     OW10795   2.375   6.749   3.869
 3299SOL    HW110796   2.474   6.751   3.887
 3299SOL    HW210797   2.340   6.658   3.889
 3300SOL     OW10798   7.005   0.173   6.149
 3300SOL    HW110799   0.064   0.170   6.092
 3300SOL    HW210800   0.001   0.222   6.234
 3301SOL     OW10801   1.595   3.807   3.581
 3301SOL    HW110802   1.509   3.767   3.549
 3301SOL    HW210803   1.641   3.855   3.506
 3302SOL     OW10804   1.225   5.087   4.511
 3302SOL    HW110805   1.200   5.081   4.607
 3302SOL    HW210806   1.292   5.160   4.497
 3303SOL     OW10807   3.123   2.820   1.896
 3303SOL    HW110808   3.174   2.851   1.976
 3303SOL    HW210809   3.078   2.733   1.917
 3304SOL     OW10810   1.435   4.825   3.428
 3304SOL    HW110811   1.494   4.748   3.402
 3304SOL    HW210812   1.357   4.829   3.365
 3305SOL     OW10813   2.520   1.709   2.492
 3305SOL    HW110814   2.597   1.646   2.479
 3305SOL    HW210815   2.456   1.699   2.416
 3306SOL     OW10816   2.247   4.359   3.410
 3306SOL    HW110817   2.190   4.346   3.490
 3306SOL    HW210818   2.259   4.456   3.392
 3307SOL     OW10819   6.896   6.173   6.584
 3307SOL    HW110820   6.937   6.084   6.604
 3307SOL    HW210821   6.951   6.245   6.628
 3308SOL     OW10822   4.589   5.772   6.834
 3308SOL    HW110823   4.596   5.691   6.776
 3308SOL    HW210824   4.674   5.824   6.830
 3309SOL     OW10825   0.552   5.014   2.912
 3309SOL    HW110826   0.611   5.038   2.835
 3309SOL    HW210827   0.605   4.959   2.978
 3310SOL     OW10828   6.841   3.934   2.835
 3310SOL    HW110829   6.781   3.975   2.904
 3310SOL    HW210830   6.850   3.996   2.757
 3311SOL     OW10831   2.810   5.188   0.651
 3311SOL    HW110832   2.797   5.149   0.742
 3311SOL    HW210833   2.801   5.287   0.655
 3312SOL     OW10834   2.628   4.127   6.308
 3312SOL    HW110835   2.662   4.166   6.222
 3312SOL    HW210836   2.685   4.159   6.383
 3313SOL     OW10837   0.973   5.617   3.169
 3313SOL    HW110838   0.971   5.712   3.200
 3313SOL    HW210839   1.026   5.562   3.234
 3314SOL     OW10840   1.744   2.487   4.920
 3314SOL    HW110841   1.791   2.558   4.868
 3314SOL    HW210842   1.697   2.527   4.998
 3315SOL     OW10843   0.005   2.819   4.264
 3315SOL    HW110844   0.094   2.847   4.229
 3315SOL    HW210845   0.008   2.818   4.364
 3316SOL     OW10846   3.752   1.325   5.703
 3316SOL    HW110847   3.846   1.299   5.727
 3316SOL    HW210848   3.750   1.421   5.676
 3317SOL     OW10849   4.622   2.757   1.803
 3317SOL    HW110850   4.631   2.848   1.844
 3317SOL    HW210851   4.534   2.750   1.756
 3318SOL     OW10852   2.674   6.885   6.621
 3318SOL    HW110853   2.712   6.860   6.532
 3318SOL    HW210854   2.650   6.982   6.620
 3319SOL     OW10855   6.871   6.492   3.589
 3319SOL    HW110856   6.789   6.501   3.532
 3319SOL    HW210857   6.920   6.579   3.590
 3320SOL     OW10858   5.641   1.289   5.999
 3320SOL    HW110859   5.631   1.327   6.091
 3320SOL    HW210860   5.696   1.350   5.943
 3321SOL     OW10861   3.252   2.947   2.107
 3321SOL    HW110862   3.247   3.046   2.100
 3321SOL    HW210863   3.343   2.916   2.078
 3322SOL     OW10864   4.638   2.184   1.486
 3322SOL    HW110865   4.591   2.105   1.527
 3322SOL    HW210866   4.600   2.268   1.523
 3323SOL     OW10867   2.003   3.997   0.220
 3323SOL    HW110868   2.094   3.968   0.190
 3323SOL    HW210869   1.939   3.921   0.210
 3324SOL     OW10870   1.191   4.038   0.011
 3324SOL    HW110871   1.276   4.071   0.051
 3324SOL    HW210872   1.130   4.005   0.083
 3325SOL     OW10873   2.295   3.105   6.960
 3325SOL    HW110874   2.247   3.029   7.005
 3325SOL    HW210875   2.392   3.100   6.984
 3326SOL     OW10876   5.530   1.975   1.422
 3326SOL    HW110877   5.532   1.886   1.376
 3326SOL    HW210878   5.623   2.009   1.435
 3327SOL     OW10879   2.019   6.476   0.689
 3327SOL    HW110880   1.946   6.485   0.621
 3327SOL    HW210881   2.023   6.560   0.744
 3328SOL     OW10882   4.729   1.398   1.852
 3328SOL    HW110883   4.753   1.494   1.869
 3328SOL    HW210884   4.690   1.389   1.761
 3329SOL     OW10885   4.731   0.160   5.351
 3329SOL    HW110886   4.641   0.126   5.324
 3329SOL    HW210887   4.778   0.199   5.272
 3330SOL     OW10888   5.628   6.658   2.120
 3330SOL    HW110889   5.557   6.635   2.186
 3330SOL    HW210890   5.689   6.727   2.158
 3331SOL     OW10891   1.374   3.219   3.205
 3331SOL    HW110892   1.312   3.278   3.258
 3331SOL    HW210893   1.462   3.264   3.194
 3332SOL     OW10894   5.835   4.181   0.501
 3332SOL    HW110895   5.888   4.192   0.416
 3332SOL    HW210896   5.756   4.123   0.484
 3333SOL     OW10897   2.992   3.678   6.833
 3333SOL    HW110898   3.013   3.656   6.738
 3333SOL    HW210899   2.895   3.704   6.840
 3334SOL     OW10900   1.900   3.008   1.993
 3334SOL    HW110901   1.873   3.048   1.906
 3334SOL    HW210902   1.883   2.909   1.991
 3335SOL     OW10903   4.350   5.351   5.351
 3335SOL    HW110904   4.414   5.427   5.344
 3335SOL    HW210905   4.286   5.367   5.426
 3336SOL     OW10906   2.139   0.093   4.431
 3336SOL    HW110907   2.158   0.081   4.529
 3336SOL    HW210908   2.224   0.089   4.380
 3337SOL     OW10909   3.635   3.236   2.161
 3337SOL    HW110910   3.664   3.320   2.116
 3337SOL    HW210911   3.713   3.194   2.207
 3338SOL     OW10912   0.447   2.360   1.670
 3338SOL    HW110913   0.496   2.430   1.618
 3338SOL    HW210914   0.421   2.398   1.759
 3339SOL     OW10915   1.929   7.020   5.969
 3339SOL    HW110916   1.949   0.090   5.941
 3339SOL    HW210917   1.831   7.003   5.960
 3340SOL     OW10918   4.869   0.545   4.142
 3340SOL    HW110919   4.803   0.494   4.088
 3340SOL    HW210920   4.828   0.570   4.229
 3341SOL     OW10921   2.520   4.489   3.244
 3341SOL    HW110922   2.569   4.404   3.262
 3341SOL    HW210923   2.425   4.468   3.219
 3342SOL     OW10924   6.807   0.732   3.054
 3342SOL    HW110925   6.847   0.780   2.976
 3342SOL    HW210926   6.726   0.681   3.024
 3343SOL     OW10927   5.269   5.394   6.398
 3343SOL    HW110928   5.248   5.336   6.319
 3343SOL    HW210929   5.275   5.489   6.368
 3344SOL     OW10930   6.353   3.132   3.166
 3344SOL    HW110931   6.327   3.045   3.124
 3344SOL    HW210932   6.348   3.205   3.098
 3345SOL     OW10933   0.882   3.777   6.587
 3345SOL    HW110934   0.917   3.683   6.593
 3345SOL    HW210935   0.959   3.841   6.583
 3346SOL     OW10936   2.013   0.828   6.840
 3346SOL    HW110937   2.053   0.737   6.856
 3346SOL    HW210938   2.036   0.888   6.917
 3347SOL     OW10939   1.382   2.421   6.046
 3347SOL    HW110940   1.351   2.462   6.132
 3347SOL    HW210941   1.452   2.479   6.004
 3348SOL     OW10942   4.155   3.827   5.645
 3348SOL    HW110943   4.093   3.766   5.693
 3348SOL    HW210944   4.213   3.874   5.712
 3349SOL     OW10945   2.118   4.309   3.657
 3349SOL    HW110946   2.187   4.294   3.728
 3349SOL    HW210947   2.050   4.236   3.660
 3350SOL     OW10948   0.922   3.909   5.923
 3350SOL    HW110949   0.847   3.861   5.968
 3350SOL    HW210950   0.906   3.911   5.824
 3351SOL     OW10951   5.720   1.015   1.534
 3351SOL    HW110952   5.682   0.957   1.463
 3351SOL    HW210953   5.787   1.078   1.494
 3352SOL     OW10954   5.294   2.897   0.530
 3352SOL    HW110955   5.283   2.800   0.505
 3352SOL    HW210956   5.323   2.903   0.626
 3353SOL     OW10957   1.982   0.378   0.635
 3353SOL    HW110958   2.055   0.355   0.570
 3353SOL    HW210959   1.912   0.307   0.633
 3354SOL     OW10960   3.987   3.160   5.203
 3354SOL    HW110961   3.957   3.085   5.145
 3354SOL    HW210962   4.075   3.138   5.244
 3355SOL     OW10963   2.268   1.520   5.839
 3355SOL    HW110964   2.211   1.602   5.830
 3355SOL    HW210965   2.280   1.477   5.750
 3356SOL     OW10966   0.540   6.608   6.408
 3356SOL    HW110967   0.508   6.617   6.314
 3356SOL    HW210968   0.578   6.517   6.423
 3357SOL     OW10969   3.417   3.581   1.403
 3357SOL    HW110970   3.482   3.596   1.477
 3357SOL    HW210971   3.382   3.669   1.372
 3358SOL     OW10972   5.721   1.215   3.317
 3358SOL    HW110973   5.673   1.302   3.324
 3358SOL    HW210974   5.731   1.174   3.407
 3359SOL     OW10975   0.410   4.940   3.827
 3359SOL    HW110976   0.483   5.003   3.852
 3359SOL    HW210977   0.425   4.907   3.733
 3360SOL     OW10978   0.982   2.196   6.581
 3360SOL    HW110979   1.036   2.193   6.496
 3360SOL    HW210980   1.038   2.236   6.653
 3361SOL     OW10981   0.918   0.197   4.540
 3361SOL    HW110982   0.922   0.254   4.458
 3361SOL    HW210983   0.893   0.104   4.514
 3362SOL     OW10984   4.195   1.608   3.417
 3362SOL    HW110985   4.122   1.601   3.349
 3362SOL    HW210986   4.160   1.651   3.500
 3363SOL     OW10987   0.005   3.515   1.874
 3363SOL    HW110988   6.940   3.521   1.829
 3363SOL    HW210989   0.035   3.606   1.902
 3364SOL     OW10990   1.464   4.415   2.527
 3364SOL    HW110991   1.474   4.393   2.624
 3364SOL    HW210992   1.531   4.362   2.474
 3365SOL     OW10993   1.974   2.557   4.630
 3365SOL    HW110994   2.020   2.552   4.541
 3365SOL    HW210995   2.041   2.581   4.701
 3366SOL     OW10996   6.660   4.104   3.853
 3366SOL    HW110997   6.570   4.139   3.827
 3366SOL    HW210998   6.650   4.023   3.910
 3367SOL     OW10999   3.306   3.403   3.877
 3367SOL    HW111000   3.338   3.418   3.784
 3367SOL    HW211001   3.312   3.306   3.900
 3368SOL     OW11002   0.644   5.802   6.709
 3368SOL    HW111003   0.718   5.849   6.757
 3368SOL    HW211004   0.680   5.721   6.663
 3369SOL     OW11005   4.798   1.897   1.282
 3369SOL    HW111006   4.842   1.888   1.193
 3369SOL    HW211007   4.710   1.943   1.272
 3370SOL     OW11008   5.827   6.838   2.155
 3370SOL    HW111009   5.798   6.930   2.182
 3370SOL    HW211010   5.866   6.841   2.063
 3371SOL     OW11011   2.147   3.764   1.973
 3371SOL    HW111012   2.163   3.779   1.875
 3371SOL    HW211013   2.183   3.675   1.999
 3372SOL     OW11014   6.569   2.286   0.512
 3372SOL    HW111015   6.533   2.360   0.456
 3372SOL    HW211016   6.541   2.198   0.473
 3373SOL     OW11017   0.549   1.948   2.263
 3373SOL    HW111018   0.451   1.950   2.240
 3373SOL    HW211019   0.562   1.900   2.349
 3374SOL     OW11020   0.868   0.402   3.671
 3374SOL    HW111021   0.940   0.431   3.734
 3374SOL    HW211022   0.909   0.366   3.588
 3375SOL     OW11023   6.777   4.635   0.559
 3375SOL    HW111024   6.707   4.575   0.520
 3375SOL    HW211025   6.739   4.684   0.638
 3376SOL     OW11026   2.975   3.589   5.038
 3376SOL    HW111027   3.042   3.535   5.089
 3376SOL    HW211028   2.906   3.625   5.102
 3377SOL     OW11029   6.780   5.264   4.287
 3377SOL    HW111030   6.842   5.338   4.313
 3377SOL    HW211031   6.803   5.182   4.339
 3378SOL     OW11032   0.181   0.232   0.057
 3378SOL    HW111033   0.127   0.315   0.048
 3378SOL    HW211034   0.128   0.154   0.025
 3379SOL     OW11035   0.834   2.835   4.803
 3379SOL    HW111036   0.827   2.744   4.844
 3379SOL    HW211037   0.749   2.885   4.818
 3380SOL     OW11038   4.150   4.851   5.496
 3380SOL    HW111039   4.186   4.797   5.419
 3380SOL    HW211040   4.221   4.914   5.528
 3381SOL     OW11041   0.208   2.878   1.612
 3381SOL    HW111042   0.291   2.829   1.636
 3381SOL    HW211043   0.153   2.821   1.550
 3382SOL     OW11044   0.348   3.166   0.898
 3382SOL    HW111045   0.380   3.095   0.960
 3382SOL    HW211046   0.250   3.156   0.883
 3383SOL     OW11047   3.419   5.087   0.032
 3383SOL    HW111048   3.443   5.169   0.083
 3383SOL    HW211049   3.503   5.039   0.007
 3384SOL     OW11050   2.980   4.629   1.059
 3384SOL    HW111051   3.055   4.582   1.012
 3384SOL    HW211052   2.950   4.573   1.137
 3385SOL     OW11053   6.561   3.198   3.976
 3385SOL    HW111054   6.481   3.161   4.022
 3385SOL    HW211055   6.626   3.124   3.957
 3386SOL     OW11056   6.471   4.693   0.083
 3386SOL    HW111057   6.463   4.594   0.071
 3386SOL    HW211058   6.384   4.737   0.059
 3387SOL     OW11059   4.708   0.675   2.926
 3387SOL    HW111060   4.732   0.772   2.929
 3387SOL    HW211061   4.789   0.621   2.949
 3388SOL     OW11062   5.077   4.433   1.549
 3388SOL    HW111063   5.031   4.415   1.462
 3388SOL    HW211064   5.140   4.358   1.570
 3389SOL     OW11065   6.581   5.512   6.920
 3389SOL    HW111066   6.519   5.582   6.957
 3389SOL    HW211067   6.537   5.466   6.843
 3390SOL     OW11068   4.302   5.928   6.313
 3390SOL    HW111069   4.223   5.979   6.349
 3390SOL    HW211070   4.359   5.989   6.258
 3391SOL     OW11071   5.278   2.080   3.193
 3391SOL    HW111072   5.217   2.150   3.156
 3391SOL    HW211073   5.248   2.055   3.285
 3392SOL     OW11074   3.193   6.898   4.279
 3392SOL    HW111075   3.208   6.908   4.377
 3392SOL    HW211076   3.097   6.875   4.262
 3393SOL     OW11077   4.919   6.760   0.169
 3393SOL    HW111078   4.948   6.828   0.236
 3393SOL    HW211079   4.989   6.750   0.098
 3394SOL     OW11080   3.843   5.017   0.449
 3394SOL    HW111081   3.812   5.059   0.534
 3394SOL    HW211082   3.931   5.056   0.422
 3395SOL     OW11083   4.825   1.713   3.102
 3395SOL    HW111084   4.834   1.811   3.116
 3395SOL    HW211085   4.818   1.693   3.004
 3396SOL     OW11086   5.315   0.859   3.819
 3396SOL    HW111087   5.310   0.770   3.863
 3396SOL    HW211088   5.308   0.931   3.888
 3397SOL     OW11089   2.408   5.997   5.975
 3397SOL    HW111090   2.415   5.968   6.071
 3397SOL    HW211091   2.488   5.964   5.925
 3398SOL     OW11092   0.668   0.733   5.731
 3398SOL    HW111093   0.662   0.782   5.818
 3398SOL    HW211094   0.593   0.667   5.725
 3399SOL     OW11095   6.521   5.023   3.131
 3399SOL    HW111096   6.542   4.956   3.202
 3399SOL    HW211097   6.423   5.023   3.112
 3400SOL     OW11098   6.461   3.361   6.258
 3400SOL    HW111099   6.475   3.451   6.217
 3400SOL    HW211100   6.408   3.371   6.342
 3401SOL     OW11101   6.460   3.623   6.160
 3401SOL    HW111102   6.462   3.716   6.123
 3401SOL    HW211103   6.385   3.572   6.118
 3402SOL     OW11104   6.631   5.798   0.918
 3402SOL    HW111105   6.606   5.757   0.830
 3402SOL    HW211106   6.635   5.728   0.988
 3403SOL     OW11107   4.842   5.577   6.083
 3403SOL    HW111108   4.892   5.491   6.077
 3403SOL    HW211109   4.750   5.560   6.120
 3404SOL     OW11110   5.073   3.057   6.519
 3404SOL    HW111111   5.149   3.072   6.456
 3404SOL    HW211112   4.987   3.060   6.470
 3405SOL     OW11113   5.737   5.215   6.182
 3405SOL    HW111114   5.716   5.261   6.096
 3405SOL    HW211115   5.816   5.259   6.225
 3406SOL     OW11116   2.031   3.785   2.575
 3406SOL    HW111117   2.081   3.827   2.499
 3406SOL    HW211118   2.026   3.850   2.651
 3407SOL     OW11119   2.509   4.605   0.651
 3407SOL    HW111120   2.521   4.679   0.584
 3407SOL    HW211121   2.501   4.518   0.604
 3408SOL     OW11122   4.792   2.687   4.508
 3408SOL    HW111123   4.856   2.659   4.436
 3408SOL    HW211124   4.824   2.652   4.596
 3409SOL     OW11125   3.477   6.129   0.634
 3409SOL    HW111126   3.475   6.223   0.600
 3409SOL    HW211127   3.396   6.080   0.602
 3410SOL     OW11128   5.537   6.375   2.714
 3410SOL    HW111129   5.453   6.329   2.687
 3410SOL    HW211130   5.596   6.311   2.763
 3411SOL     OW11131   0.124   2.749   0.463
 3411SOL    HW111132   0.095   2.685   0.533
 3411SOL    HW211133   0.090   2.719   0.374
 3412SOL     OW11134   4.901   3.821   0.967
 3412SOL    HW111135   4.867   3.844   1.058
 3412SOL    HW211136   4.826   3.789   0.910
 3413SOL     OW11137   6.360   2.140   6.652
 3413SOL    HW111138   6.351   2.126   6.751
 3413SOL    HW211139   6.269   2.134   6.610
 3414SOL     OW11140   3.487   2.047   6.052
 3414SOL    HW111141   3.518   2.047   6.148
 3414SOL    HW211142   3.414   1.981   6.041
 3415SOL     OW11143   1.905   2.154   4.187
 3415SOL    HW111144   1.976   2.111   4.131
 3415SOL    HW211145   1.854   2.083   4.235
 3416SOL     OW11146   6.096   0.271   6.829
 3416SOL    HW111147   6.131   0.184   6.864
 3416SOL    HW211148   5.998   0.264   6.814
 3417SOL     OW11149   0.499   6.926   2.574
 3417SOL    HW111150   0.588   6.883   2.559
 3417SOL    HW211151   0.506   7.024   2.554
 3418SOL     OW11152   3.579   5.539   3.432
 3418SOL    HW111153   3.605   5.469   3.498
 3418SOL    HW211154   3.661   5.591   3.405
 3419SOL     OW11155   4.092   5.557   5.834
 3419SOL    HW111156   4.062   5.471   5.793
 3419SOL    HW211157   4.013   5.617   5.846
 3420SOL     OW11158   4.838   2.969   4.190
 3420SOL    HW111159   4.810   3.060   4.221
 3420SOL    HW211160   4.757   2.911   4.178
 3421SOL     OW11161   5.550   1.446   3.319
 3421SOL    HW111162   5.543   1.542   3.345
 3421SOL    HW211163   5.585   1.439   3.225
 3422SOL     OW11164   2.538   0.386   0.224
 3422SOL    HW111165   2.467   0.326   0.186
 3422SOL    HW211166   2.564   0.454   0.156
 3423SOL     OW11167   0.525   3.996   5.919
 3423SOL    HW111168   0.576   3.921   5.962
 3423SOL    HW211169   0.463   4.037   5.986
 3424SOL     OW11170   3.996   0.177   1.506
 3424SOL    HW111171   3.993   0.094   1.449
 3424SOL    HW211172   4.090   0.195   1.533
 3425SOL     OW11173   4.292   5.020   1.717
 3425SOL    HW111174   4.312   4.949   1.650
 3425SOL    HW211175   4.225   4.986   1.783
 3426SOL     OW11176   5.283   2.950   0.798
 3426SOL    HW111177   5.234   2.923   0.881
 3426SOL    HW211178   5.259   3.044   0.774
 3427SOL     OW11179   0.575   2.221   2.249
 3427SOL    HW111180   0.664   2.266   2.260
 3427SOL    HW211181   0.587   2.122   2.250
 3428SOL     OW11182   4.880   4.527   6.061
 3428SOL    HW111183   4.802   4.535   5.999
 3428SOL    HW211184   4.957   4.579   6.025
 3429SOL     OW11185   0.846   1.062   1.193
 3429SOL    HW111186   0.946   1.070   1.181
 3429SOL    HW211187   0.810   1.000   1.123
 3430SOL     OW11188   2.000   5.194   6.112
 3430SOL    HW111189   1.958   5.265   6.169
 3430SOL    HW211190   2.071   5.235   6.055
 3431SOL     OW11191   1.918   6.865   2.107
 3431SOL    HW111192   1.845   6.867   2.038
 3431SOL    HW211193   1.948   6.770   2.120
 3432SOL     OW11194   2.131   4.682   6.168
 3432SOL    HW111195   2.173   4.617   6.232
 3432SOL    HW211196   2.039   4.650   6.144
 3433SOL     OW11197   2.109   0.935   6.375
 3433SOL    HW111198   2.063   1.011   6.423
 3433SOL    HW211199   2.138   0.867   6.442
 3434SOL     OW11200   2.873   2.103   1.870
 3434SOL    HW111201   2.890   2.117   1.772
 3434SOL    HW211202   2.890   2.188   1.919
 3435SOL     OW11203   2.442   1.332   0.413
 3435SOL    HW111204   2.442   1.255   0.477
 3435SOL    HW211205   2.430   1.417   0.464
 3436SOL     OW11206   4.337   5.231   6.901
 3436SOL    HW111207   4.294   5.159   6.954
 3436SOL    HW211208   4.313   5.320   6.939
 3437SOL     OW11209   1.477   0.024   5.653
 3437SOL    HW111210   1.401   7.000   5.609
 3437SOL    HW211211   1.562   0.001   5.607
 3438SOL     OW11212   0.384   4.029   1.377
 3438SOL    HW111213   0.341   4.017   1.287
 3438SOL    HW211214   0.458   3.963   1.387
 3439SOL     OW11215   2.798   5.855   3.577
 3439SOL    HW111216   2.763   5.782   3.636
 3439SOL    HW211217   2.737   5.934   3.581
 3440SOL     OW11218   4.092   3.701   4.051
 3440SOL    HW111219   4.129   3.612   4.025
 3440SOL    HW211220   4.093   3.709   4.151
 3441SOL     OW11221   0.299   6.520   6.507
 3441SOL    HW111222   0.233   6.506   6.433
 3441SOL    HW211223   0.368   6.587   6.477
 3442SOL     OW11224   3.312   3.423   0.715
 3442SOL    HW111225   3.279   3.390   0.804
 3442SOL    HW211226   3.395   3.374   0.690
 3443SOL     OW11227   3.124   5.244   2.459
 3443SOL    HW111228   3.117   5.214   2.363
 3443SOL    HW211229   3.096   5.340   2.466
 3444SOL     OW11230   5.176   4.722   1.464
 3444SOL    HW111231   5.166   4.634   1.510
 3444SOL    HW211232   5.175   4.795   1.532
 3445SOL     OW11233   0.201   5.287   4.136
 3445SOL    HW111234   0.202   5.320   4.042
 3445SOL    HW211235   0.119   5.231   4.151
 3446SOL     OW11236   5.659   0.376   1.634
 3446SOL    HW111237   5.708   0.414   1.713
 3446SOL    HW211238   5.721   0.371   1.555
 3447SOL     OW11239   5.398   1.229   0.080
 3447SOL    HW111240   5.410   1.131   0.092
 3447SOL    HW211241   5.301   1.252   0.082
 3448SOL     OW11242   2.105   6.483   5.736
 3448SOL    HW111243   2.201   6.468   5.758
 3448SOL    HW211244   2.085   6.443   5.646
 3449SOL     OW11245   5.457   5.166   5.227
 3449SOL    HW111246   5.424   5.193   5.318
 3449SOL    HW211247   5.465   5.066   5.223
 3450SOL     OW11248   1.459   0.761   6.591
 3450SOL    HW111249   1.513   0.709   6.658
 3450SOL    HW211250   1.466   0.858   6.612
 3451SOL     OW11251   1.570   5.785   0.626
 3451SOL    HW111252   1.515   5.869   0.631
 3451SOL    HW211253   1.556   5.741   0.538
 3452SOL     OW11254   6.084   0.918   5.850
 3452SOL    HW111255   6.177   0.882   5.841
 3452SOL    HW211256   6.088   1.012   5.886
 3453SOL     OW11257   5.278   6.539   6.355
 3453SOL    HW111258   5.199   6.581   6.310
 3453SOL    HW211259   5.359   6.552   6.298
 3454SOL     OW11260   1.573   3.064   4.228
 3454SOL    HW111261   1.574   3.118   4.144
 3454SOL    HW211262   1.615   3.117   4.302
 3455SOL     OW11263   2.471   1.732   4.580
 3455SOL    HW111264   2.475   1.804   4.510
 3455SOL    HW211265   2.378   1.698   4.588
 3456SOL     OW11266   4.479   4.586   2.042
 3456SOL    HW111267   4.475   4.487   2.026
 3456SOL    HW211268   4.574   4.617   2.033
 3457SOL     OW11269   3.985   5.184   5.101
 3457SOL    HW111270   4.079   5.190   5.135
 3457SOL    HW211271   3.942   5.274   5.107
 3458SOL     OW11272   4.748   2.131   2.193
 3458SOL    HW111273   4.665   2.086   2.162
 3458SOL    HW211274   4.731   2.178   2.280
 3459SOL     OW11275   5.201   1.799   3.653
 3459SOL    HW111276   5.117   1.746   3.649
 3459SOL    HW211277   5.264   1.757   3.718
 3460SOL     OW11278   3.108   1.785   5.374
 3460SOL    HW111279   3.027   1.726   5.375
 3460SOL    HW211280   3.135   1.803   5.279
 3461SOL     OW11281   5.969   4.896   6.888
 3461SOL    HW111282   5.933   4.809   6.854
 3461SOL    HW211283   5.930   4.971   6.834
 3462SOL     OW11284   1.582   3.554   5.890
 3462SOL    HW111285   1.638   3.557   5.806
 3462SOL    HW211286   1.507   3.489   5.877
 3463SOL     OW11287   0.520   3.871   0.980
 3463SOL    HW111288   0.565   3.785   1.003
 3463SOL    HW211289   0.495   3.871   0.884
 3464SOL     OW11290   0.502   4.479   6.889
 3464SOL    HW111291   0.504   4.434   6.800
 3464SOL    HW211292   0.595   4.489   6.924
 3465SOL     OW11293   2.074   1.798   1.779
 3465SOL    HW111294   2.115   1.708   1.759
 3465SOL    HW211295   1.975   1.789   1.782
 3466SOL     OW11296   6.725   5.557   5.838
 3466SOL    HW111297   6.672   5.591   5.916
 3466SOL    HW211298   6.709   5.615   5.758
 3467SOL     OW11299   2.112   1.582   6.766
 3467SOL    HW111300   2.127   1.487   6.796
 3467SOL    HW211301   2.015   1.605   6.773
 3468SOL     OW11302   2.948   5.066   3.007
 3468SOL    HW111303   2.901   5.044   2.922
 3468SOL    HW211304   2.989   5.157   3.000
 3469SOL     OW11305   6.303   2.238   4.302
 3469SOL    HW111306   6.227   2.179   4.329
 3469SOL    HW211307   6.267   2.319   4.256
 3470SOL     OW11308   0.721   5.159   1.177
 3470SOL    HW111309   0.725   5.064   1.208
 3470SOL    HW211310   0.788   5.214   1.227
 3471SOL     OW11311   4.567   5.200   5.290
 3471SOL    HW111312   4.471   5.229   5.299
 3471SOL    HW211313   4.623   5.251   5.355
 3472SOL     OW11314   2.279   1.343   3.709
 3472SOL    HW111315   2.295   1.261   3.654
 3472SOL    HW211316   2.263   1.316   3.804
 3473SOL     OW11317   5.490   1.865   5.998
 3473SOL    HW111318   5.432   1.884   6.077
 3473SOL    HW211319   5.510   1.951   5.951
 3474SOL     OW11320   2.978   4.795   1.430
 3474SOL    HW111321   2.974   4.895   1.420
 3474SOL    HW211322   2.960   4.770   1.525
 3475SOL     OW11323   1.029   6.863   3.697
 3475SOL    HW111324   1.070   6.953   3.684
 3475SOL    HW211325   0.970   6.865   3.778
 3476SOL     OW11326   3.786   0.475   4.841
 3476SOL    HW111327   3.735   0.412   4.783
 3476SOL    HW211328   3.877   0.438   4.859
 3477SOL     OW11329   3.509   5.316   0.887
 3477SOL    HW111330   3.525   5.360   0.798
 3477SOL    HW211331   3.458   5.231   0.873
 3478SOL     OW11332   2.013   6.096   5.629
 3478SOL    HW111333   1.926   6.120   5.673
 3478SOL    HW211334   1.996   6.060   5.538
 3479SOL     OW11335   0.669   0.129   2.774
 3479SOL    HW111336   0.617   0.044   2.789
 3479SOL    HW211337   0.639   0.171   2.688
 3480SOL     OW11338   6.937   1.258   4.185
 3480SOL    HW111339   6.888   1.284   4.102
 3480SOL    HW211340   6.872   1.220   4.251
 3481SOL     OW11341   4.348   6.876   6.293
 3481SOL    HW111342   4.326   6.810   6.221
 3481SOL    HW211343   4.303   6.849   6.378
 3482SOL     OW11344   5.658   1.722   1.318
 3482SOL    HW111345   5.619   1.699   1.407
 3482SOL    HW211346   5.745   1.675   1.306
 3483SOL     OW11347   2.769   0.585   0.973
 3483SOL    HW111348   2.705   0.560   0.901
 3483SOL    HW211349   2.818   0.668   0.947
 3484SOL     OW11350   3.027   3.098   2.753
 3484SOL    HW111351   3.077   3.100   2.667
 3484SOL    HW211352   2.933   3.070   2.737
 3485SOL     OW11353   1.966   1.357   5.078
 3485SOL    HW111354   2.058   1.324   5.097
 3485SOL    HW211355   1.912   1.284   5.037
 3486SOL     OW11356   3.724   1.545   2.309
 3486SOL    HW111357   3.711   1.574   2.404
 3486SOL    HW211358   3.786   1.466   2.306
 3487SOL     OW11359   5.703   1.797   6.738
 3487SOL    HW111360   5.680   1.731   6.810
 3487SOL    HW211361   5.736   1.747   6.657
 3488SOL     OW11362   6.304   3.182   4.126
 3488SOL    HW111363   6.372   3.117   4.162
 3488SOL    HW211364   6.275   3.243   4.199
 3489SOL     OW11365   2.976   6.949   0.716
 3489SOL    HW111366   3.039   0.001   0.702
 3489SOL    HW211367   2.945   6.915   0.627
 3490SOL     OW11368   4.910   4.235   0.337
 3490SOL    HW111369   4.865   4.201   0.420
 3490SOL    HW211370   4.841   4.264   0.271
 3491SOL     OW11371   7.008   2.883   5.559
 3491SOL    HW111372   7.009   2.880   5.459
 3491SOL    HW211373   6.919   2.854   5.592
 3492SOL     OW11374   0.832   5.786   0.069
 3492SOL    HW111375   0.888   5.707   0.047
 3492SOL    HW211376   0.742   5.756   0.100
 3493SOL     OW11377   6.221   4.862   0.595
 3493SOL    HW111378   6.197   4.958   0.604
 3493SOL    HW211379   6.320   4.851   0.595
 3494SOL     OW11380   4.168   6.795   0.351
 3494SOL    HW111381   4.187   6.893   0.363
 3494SOL    HW211382   4.219   6.743   0.419
 3495SOL     OW11383   4.209   4.671   2.101
 3495SOL    HW111384   4.220   4.635   2.194
 3495SOL    HW211385   4.289   4.647   2.046
 3496SOL     OW11386   1.273   3.491   1.523
 3496SOL    HW111387   1.333   3.495   1.602
 3496SOL    HW211388   1.180   3.469   1.553
 3497SOL     OW11389   3.984   0.541   3.197
 3497SOL    HW111390   3.997   0.623   3.141
 3497SOL    HW211391   3.986   0.460   3.138
 3498SOL     OW11392   3.122   1.985   1.169
 3498SOL    HW111393   3.099   1.903   1.222
 3498SOL    HW211394   3.042   2.015   1.117
 3499SOL     OW11395   6.744   3.506   4.696
 3499SOL    HW111396   6.778   3.490   4.604
 3499SOL    HW211397   6.813   3.555   4.750
 3500SOL     OW11398   6.781   4.388   6.342
 3500SOL    HW111399   6.738   4.365   6.255
 3500SOL    HW211400   6.852   4.457   6.327
 3501SOL     OW11401   0.214   4.502   4.800
 3501SOL    HW111402   0.226   4.587   4.851
 3501SOL    HW211403   0.205   4.426   4.864
 3502SOL     OW11404   0.381   2.093   2.018
 3502SOL    HW111405   0.387   2.192   2.033
 3502SOL    HW211406   0.329   2.051   2.092
 3503SOL     OW11407   4.863   5.959   5.132
 3503SOL    HW111408   4.827   5.934   5.222
 3503SOL    HW211409   4.948   5.908   5.115
 3504SOL     OW11410   2.482   3.494   0.893
 3504SOL    HW111411   2.394   3.521   0.853
 3504SOL    HW211412   2.466   3.449   0.980
 3505SOL     OW11413   5.116   5.833   5.117
 3505SOL    HW111414   5.133   5.830   5.216
 3505SOL    HW211415   5.184   5.893   5.074
 3506SOL     OW11416   4.248   5.685   4.897
 3506SOL    HW111417   4.298   5.767   4.871
 3506SOL    HW211418   4.232   5.628   4.816
 3507SOL     OW11419   1.162   0.784   6.511
 3507SOL    HW111420   1.150   0.787   6.610
 3507SOL    HW211421   1.257   0.806   6.489
 3508SOL     OW11422   4.935   2.381   6.907
 3508SOL    HW111423   4.865   2.451   6.896
 3508SOL    HW211424   4.895   2.300   6.951
 3509SOL     OW11425   6.200   6.291   0.103
 3509SOL    HW111426   6.182   6.217   0.038
 3509SOL    HW211427   6.198   6.379   0.055
 3510SOL     OW11428   1.687   2.434   2.151
 3510SOL    HW111429   1.621   2.509   2.158
 3510SOL    HW211430   1.665   2.377   2.072
 3511SOL     OW11431   1.219   3.399   0.149
 3511SOL    HW111432   1.271   3.447   0.220
 3511SOL    HW211433   1.170   3.466   0.093
 3512SOL     OW11434   1.044   3.977   0.270
 3512SOL    HW111435   1.082   3.973   0.363
 3512SOL    HW211436   0.946   3.959   0.273
 3513SOL     OW11437   6.458   4.509   0.705
 3513SOL    HW111438   6.382   4.458   0.665
 3513SOL    HW211439   6.464   4.489   0.803
 3514SOL     OW11440   0.369   6.665   1.300
 3514SOL    HW111441   0.405   6.757   1.290
 3514SOL    HW211442   0.444   6.601   1.315
 3515SOL     OW11443   3.214   5.688   2.634
 3515SOL    HW111444   3.163   5.732   2.707
 3515SOL    HW211445   3.304   5.662   2.668
 3516SOL     OW11446   3.186   0.576   0.600
 3516SOL    HW111447   3.105   0.612   0.553
 3516SOL    HW211448   3.158   0.510   0.669
 3517SOL     OW11449   0.495   1.382   0.472
 3517SOL    HW111450   0.543   1.400   0.386
 3517SOL    HW211451   0.562   1.367   0.544
 3518SOL     OW11452   5.078   3.926   6.188
 3518SOL    HW111453   4.994   3.882   6.159
 3518SOL    HW211454   5.126   3.868   6.253
 3519SOL     OW11455   0.641   6.407   6.811
 3519SOL    HW111456   0.733   6.417   6.772
 3519SOL    HW211457   0.590   6.340   6.758
 3520SOL     OW11458   4.111   4.150   1.109
 3520SOL    HW111459   4.092   4.154   1.011
 3520SOL    HW211460   4.051   4.083   1.152
 3521SOL     OW11461   5.528   2.993   1.450
 3521SOL    HW111462   5.485   2.957   1.532
 3521SOL    HW211463   5.508   3.091   1.441
 3522SOL     OW11464   2.918   5.285   1.965
 3522SOL    HW111465   2.881   5.378   1.971
 3522SOL    HW211466   2.974   5.265   2.045
 3523SOL     OW11467   3.075   4.659   5.335
 3523SOL    HW111468   3.013   4.597   5.287
 3523SOL    HW211469   3.114   4.724   5.269
 3524SOL     OW11470   2.807   0.527   0.643
 3524SOL    HW111471   2.740   0.453   0.637
 3524SOL    HW211472   2.887   0.496   0.693
 3525SOL     OW11473   0.378   3.473   1.963
 3525SOL    HW111474   0.331   3.473   2.051
 3525SOL    HW211475   0.328   3.416   1.898
 3526SOL     OW11476   1.497   0.540   3.437
 3526SOL    HW111477   1.487   0.637   3.458
 3526SOL    HW211478   1.455   0.486   3.510
 3527SOL     OW11479   5.099   2.563   6.463
 3527SOL    HW111480   5.018   2.571   6.522
 3527SOL    HW211481   5.090   2.625   6.385
 3528SOL     OW11482   1.224   5.990   2.915
 3528SOL    HW111483   1.151   6.038   2.867
 3528SOL    HW211484   1.223   6.017   3.012
 3529SOL     OW11485   4.463   6.406   5.813
 3529SOL    HW111486   4.499   6.407   5.720
 3529SOL    HW211487   4.483   6.493   5.859
 3530SOL     OW11488   2.835   5.855   2.615
 3530SOL    HW111489   2.764   5.827   2.679
 3530SOL    HW211490   2.806   5.937   2.566
 3531SOL     OW11491   5.316   3.976   0.119
 3531SOL    HW111492   5.387   4.021   0.172
 3531SOL    HW211493   5.231   4.028   0.128
 3532SOL     OW11494   2.451   0.652   0.070
 3532SOL    HW111495   2.497   0.688   0.151
 3532SOL    HW211496   2.514   0.594   0.019
 3533SOL     OW11497   0.938   2.272   3.669
 3533SOL    HW111498   1.002   2.320   3.609
 3533SOL    HW211499   0.846   2.277   3.632
 3534SOL     OW11500   6.018   1.588   5.243
 3534SOL    HW111501   6.077   1.649   5.190
 3534SOL    HW211502   5.948   1.643   5.289
 3535SOL     OW11503   6.755   5.657   6.773
 3535SOL    HW111504   6.718   5.658   6.680
 3535SOL    HW211505   6.695   5.605   6.833
 3536SOL     OW11506   1.680   3.137   3.755
 3536SOL    HW111507   1.618   3.158   3.679
 3536SOL    HW211508   1.638   3.167   3.841
 3537SOL     OW11509   3.004   4.913   1.085
 3537SOL    HW111510   2.942   4.947   1.156
 3537SOL    HW211511   2.983   4.817   1.066
 3538SOL     OW11512   2.838   0.092   3.710
 3538SOL    HW111513   2.914   0.066   3.769
 3538SOL    HW211514   2.768   0.020   3.712
 3539SOL     OW11515   5.814   3.885   5.375
 3539SOL    HW111516   5.877   3.961   5.358
 3539SOL    HW211517   5.720   3.917   5.363
 3540SOL     OW11518   1.950   3.049   6.796
 3540SOL    HW111519   1.877   3.062   6.863
 3540SOL    HW211520   1.995   3.136   6.779
 3541SOL     OW11521   2.422   3.046   0.331
 3541SOL    HW111522   2.364   3.126   0.345
 3541SOL    HW211523   2.512   3.063   0.372
 3542SOL     OW11524   5.722   2.812   6.941
 3542SOL    HW111525   5.816   2.778   6.944
 3542SOL    HW211526   5.663   2.745   6.895
 3543SOL     OW11527   1.276   3.319   3.636
 3543SOL    HW111528   1.225   3.314   3.722
 3543SOL    HW211529   1.243   3.248   3.573
 3544SOL     OW11530   3.217   4.210   6.580
 3544SOL    HW111531   3.281   4.286   6.587
 3544SOL    HW211532   3.186   4.185   6.672
 3545SOL     OW11533   3.733   5.359   0.174
 3545SOL    HW111534   3.756   5.409   0.091
 3545SOL    HW211535   3.635   5.339   0.176
 3546SOL     OW11536   6.522   4.454   3.438
 3546SOL    HW111537   6.578   4.483   3.361
 3546SOL    HW211538   6.554   4.365   3.472
 3547SOL     OW11539   6.844   3.229   4.818
 3547SOL    HW111540   6.925   3.221   4.760
 3547SOL    HW211541   6.785   3.302   4.783
 3548SOL     OW11542   4.890   1.461   6.257
 3548SOL    HW111543   4.811   1.403   6.276
 3548SOL    HW211544   4.859   1.556   6.250
 3549SOL     OW11545   2.003   5.634   6.389
 3549SOL    HW111546   1.966   5.552   6.345
 3549SOL    HW211547   1.933   5.674   6.448
 3550SOL     OW11548   4.862   2.449   5.142
 3550SOL    HW111549   4.795   2.484   5.076
 3550SOL    HW211550   4.930   2.393   5.093
 3551SOL     OW11551   3.711   1.755   5.395
 3551SOL    HW111552   3.657   1.819   5.451
 3551SOL    HW211553   3.704   1.781   5.299
 3552SOL     OW11554   6.498   5.687   1.432
 3552SOL    HW111555   6.541   5.598   1.420
 3552SOL    HW211556   6.566   5.759   1.417
 3553SOL     OW11557   3.222   5.864   6.194
 3553SOL    HW111558   3.267   5.953   6.202
 3553SOL    HW211559   3.123   5.878   6.188
 3554SOL     OW11560   3.982   3.872   0.891
 3554SOL    HW111561   3.885   3.888   0.875
 3554SOL    HW211562   3.996   3.837   0.984
 3555SOL     OW11563   1.549   2.270   4.576
 3555SOL    HW111564   1.516   2.250   4.484
 3555SOL    HW211565   1.513   2.203   4.640
 3556SOL     OW11566   3.758   1.182   5.080
 3556SOL    HW111567   3.819   1.103   5.072
 3556SOL    HW211568   3.719   1.184   5.172
 3557SOL     OW11569   0.432   0.813   2.679
 3557SOL    HW111570   0.485   0.820   2.764
 3557SOL    HW211571   0.486   0.849   2.603
 3558SOL     OW11572   1.982   6.308   0.397
 3558SOL    HW111573   1.928   6.368   0.457
 3558SOL    HW211574   1.994   6.219   0.442
 3559SOL     OW11575   3.210   6.918   4.544
 3559SOL    HW111576   3.255   6.921   4.633
 3559SOL    HW211577   3.113   6.939   4.555
 3560SOL     OW11578   1.783   4.961   4.667
 3560SOL    HW111579   1.861   4.968   4.606
 3560SOL    HW211580   1.803   4.893   4.738
 3561SOL     OW11581   6.103   4.210   4.793
 3561SOL    HW111582   6.178   4.275   4.782
 3561SOL    HW211583   6.104   4.174   4.886
 3562SOL     OW11584   2.710   1.230   4.467
 3562SOL    HW111585   2.716   1.179   4.553
 3562SOL    HW211586   2.670   1.320   4.485
 3563SOL     OW11587   6.377   2.277   6.193
 3563SOL    HW111588   6.439   2.235   6.127
 3563SOL    HW211589   6.283   2.268   6.160
 3564SOL     OW11590   0.358   4.757   3.028
 3564SOL    HW111591   0.383   4.717   2.940
 3564SOL    HW211592   0.427   4.825   3.054
 3565SOL     OW11593   3.616   4.908   2.977
 3565SOL    HW111594   3.681   4.885   2.904
 3565SOL    HW211595   3.523   4.906   2.940
 3566SOL     OW11596   6.972   1.025   5.176
 3566SOL    HW111597   6.880   1.030   5.138
 3566SOL    HW211598   6.967   1.010   5.275
 3567SOL     OW11599   0.595   3.583   6.171
 3567SOL    HW111600   0.655   3.535   6.236
 3567SOL    HW211601   0.514   3.527   6.154
 3568SOL     OW11602   6.712   4.262   5.740
 3568SOL    HW111603   6.668   4.332   5.796
 3568SOL    HW211604   6.656   4.179   5.740
 3569SOL     OW11605   2.291   1.806   5.702
 3569SOL    HW111606   2.221   1.762   5.758
 3569SOL    HW211607   2.252   1.886   5.656
 3570SOL     OW11608   5.176   0.426   5.642
 3570SOL    HW111609   5.139   0.408   5.551
 3570SOL    HW211610   5.207   0.521   5.646
 3571SOL     OW11611   0.013   5.889   0.332
 3571SOL    HW111612   0.039   5.903   0.236
 3571SOL    HW211613   0.005   5.978   0.377
 3572SOL     OW11614   5.455   3.778   4.394
 3572SOL    HW111615   5.424   3.872   4.409
 3572SOL    HW211616   5.378   3.715   4.408
 3573SOL     OW11617   0.856   3.596   4.115
 3573SOL    HW111618   0.782   3.621   4.051
 3573SOL    HW211619   0.879   3.675   4.172
 3574SOL     OW11620   0.450   4.956   0.455
 3574SOL    HW111621   0.484   4.967   0.362
 3574SOL    HW211622   0.423   5.046   0.491
 3575SOL     OW11623   5.982   5.005   3.356
 3575SOL    HW111624   5.989   4.941   3.433
 3575SOL    HW211625   5.958   4.955   3.273
 3576SOL     OW11626   1.480   1.451   5.761
 3576SOL    HW111627   1.577   1.431   5.752
 3576SOL    HW211628   1.426   1.370   5.736
 3577SOL     OW11629   1.319   2.563   6.243
 3577SOL    HW111630   1.248   2.625   6.212
 3577SOL    HW211631   1.407   2.610   6.246
 3578SOL     OW11632   3.852   3.653   6.851
 3578SOL    HW111633   3.752   3.651   6.839
 3578SOL    HW211634   3.887   3.560   6.852
 3579SOL     OW11635   6.681   4.172   4.780
 3579SOL    HW111636   6.613   4.115   4.733
 3579SOL    HW211637   6.725   4.118   4.853
 3580SOL     OW11638   6.041   1.655   1.273
 3580SOL    HW111639   6.016   1.744   1.313
 3580SOL    HW211640   6.038   1.662   1.173
 3581SOL     OW11641   6.799   0.300   3.669
 3581SOL    HW111642   6.859   0.242   3.614
 3581SOL    HW211643   6.731   0.344   3.611
 3582SOL     OW11644   0.666   2.219   6.296
 3582SOL    HW111645   0.684   2.309   6.258
 3582SOL    HW211646   0.574   2.189   6.270
 3583SOL     OW11647   0.525   4.204   6.880
 3583SOL    HW111648   0.464   4.271   6.838
 3583SOL    HW211649   0.550   4.235   6.971
 3584SOL     OW11650   6.356   6.289   6.492
 3584SOL    HW111651   6.373   6.386   6.474
 3584SOL    HW211652   6.422   6.233   6.442
 3585SOL     OW11653   3.345   5.443   5.485
 3585SOL    HW111654   3.332   5.541   5.494
 3585SOL    HW211655   3.286   5.408   5.412
 3586SOL     OW11656   6.470   2.744   5.471
 3586SOL    HW111657   6.523   2.748   5.556
 3586SOL    HW211658   6.373   2.734   5.493
 3587SOL     OW11659   2.798   5.886   0.680
 3587SOL    HW111660   2.881   5.942   0.690
 3587SOL    HW211661   2.738   5.902   0.758
 3588SOL     OW11662   1.225   2.731   6.023
 3588SOL    HW111663   1.211   2.795   6.099
 3588SOL    HW211664   1.311   2.753   5.977
 3589SOL     OW11665   3.375   0.842   4.486
 3589SOL    HW111666   3.286   0.882   4.467
 3589SOL    HW211667   3.439   0.913   4.514
 3590SOL     OW11668   0.161   4.193   6.644
 3590SOL    HW111669   0.193   4.099   6.631
 3590SOL    HW211670   0.221   4.256   6.595
 3591SOL     OW11671   5.359   3.283   6.676
 3591SOL    HW111672   5.315   3.304   6.763
 3591SOL    HW211673   5.322   3.197   6.641
 3592SOL     OW11674   5.265   3.594   3.393
 3592SOL    HW111675   5.231   3.502   3.375
 3592SOL    HW211676   5.216   3.660   3.335
 3593SOL     OW11677   2.305   6.178   4.890
 3593SOL    HW111678   2.323   6.187   4.792
 3593SOL    HW211679   2.208   6.195   4.908
 3594SOL     OW11680   4.083   1.157   2.676
 3594SOL    HW111681   4.094   1.104   2.591
 3594SOL    HW211682   4.020   1.109   2.737
 3595SOL     OW11683   2.112   6.033   6.054
 3595SOL    HW111684   2.141   5.962   6.119
 3595SOL    HW211685   2.186   6.098   6.040
 3596SOL     OW11686   6.661   1.563   2.827
 3596SOL    HW111687   6.626   1.591   2.738
 3596SOL    HW211688   6.620   1.476   2.854
 3597SOL     OW11689   2.926   5.931   4.928
 3597SOL    HW111690   2.874   5.912   4.845
 3597SOL    HW211691   2.914   6.027   4.952
 3598SOL     OW11692   0.929   0.599   6.211
 3598SOL    HW111693   0.964   0.564   6.125
 3598SOL    HW211694   0.976   0.684   6.235
 3599SOL     OW11695   1.041   2.130   5.539
 3599SOL    HW111696   1.000   2.195   5.602
 3599SOL    HW211697   0.981   2.050   5.529
 3600SOL     OW11698   0.066   3.312   0.122
 3600SOL    HW111699   0.034   3.319   0.216
 3600SOL    HW211700   7.012   3.316   0.059
 3601SOL     OW11701   6.753   4.016   0.637
 3601SOL    HW111702   6.831   3.955   0.622
 3601SOL    HW211703   6.668   3.964   0.621
 3602SOL     OW11704   2.215   1.054   1.290
 3602SOL    HW111705   2.214   1.050   1.390
 3602SOL    HW211706   2.301   1.093   1.260
 3603SOL     OW11707   3.672   6.287   3.719
 3603SOL    HW111708   3.672   6.205   3.662
 3603SOL    HW211709   3.670   6.369   3.661
 3604SOL     OW11710   6.810   3.714   3.863
 3604SOL    HW111711   6.838   3.621   3.890
 3604SOL    HW211712   6.722   3.736   3.904
 3605SOL     OW11713   5.852   4.578   5.966
 3605SOL    HW111714   5.870   4.618   5.876
 3605SOL    HW211715   5.908   4.496   5.977
 3606SOL     OW11716   6.476   4.929   5.920
 3606SOL    HW111717   6.436   5.019   5.905
 3606SOL    HW211718   6.537   4.933   5.999
 3607SOL     OW11719   5.026   6.617   0.846
 3607SOL    HW111720   5.122   6.637   0.868
 3607SOL    HW211721   5.004   6.654   0.756
 3608SOL     OW11722   6.768   2.043   2.439
 3608SOL    HW111723   6.733   1.977   2.505
 3608SOL    HW211724   6.724   2.028   2.350
 3609SOL     OW11725   0.165   0.820   4.394
 3609SOL    HW111726   0.196   0.808   4.488
 3609SOL    HW211727   0.066   0.809   4.389
 3610SOL     OW11728   1.047   0.658   5.462
 3610SOL    HW111729   1.056   0.578   5.521
 3610SOL    HW211730   0.972   0.715   5.495
 3611SOL     OW11731   3.710   4.453   5.391
 3611SOL    HW111732   3.637   4.385   5.393
 3611SOL    HW211733   3.674   4.540   5.426
 3612SOL     OW11734   6.457   7.019   5.733
 3612SOL    HW111735   6.534   7.017   5.797
 3612SOL    HW211736   6.411   0.083   5.738
 3613SOL     OW11737   5.250   5.298   1.300
 3613SOL    HW111738   5.335   5.252   1.323
 3613SOL    HW211739   5.267   5.368   1.231
 3614SOL     OW11740   3.634   3.281   3.741
 3614SOL    HW111741   3.699   3.206   3.754
 3614SOL    HW211742   3.596   3.307   3.830
 3615SOL     OW11743   5.750   6.536   6.388
 3615SOL    HW111744   5.836   6.539   6.338
 3615SOL    HW211745   5.676   6.571   6.329
 3616SOL     OW11746   6.805   1.478   6.260
 3616SOL    HW111747   6.841   1.401   6.313
 3616SOL    HW211748   6.839   1.564   6.298
 3617SOL     OW11749   5.364   1.352   6.366
 3617SOL    HW111750   5.287   1.344   6.429
 3617SOL    HW211751   5.341   1.309   6.279
 3618SOL     OW11752   1.392   1.917   5.576
 3618SOL    HW111753   1.431   2.005   5.603
 3618SOL    HW211754   1.440   1.882   5.496
 3619SOL     OW11755   6.293   1.950   3.721
 3619SOL    HW111756   6.393   1.944   3.720
 3619SOL    HW211757   6.262   2.008   3.646
 3620SOL     OW11758   6.184   6.530   5.935
 3620SOL    HW111759   6.213   6.625   5.949
 3620SOL    HW211760   6.122   6.525   5.857
 3621SOL     OW11761   2.370   2.196   5.972
 3621SOL    HW111762   2.454   2.187   5.919
 3621SOL    HW211763   2.291   2.171   5.916
 3622SOL     OW11764   2.151   2.316   3.091
 3622SOL    HW111765   2.184   2.279   3.005
 3622SOL    HW211766   2.090   2.394   3.073
 3623SOL     OW11767   5.782   5.833   3.999
 3623SOL    HW111768   5.879   5.811   4.011
 3623SOL    HW211769   5.758   5.910   4.059
 3624SOL     OW11770   2.635   6.564   2.384
 3624SOL    HW111771   2.637   6.647   2.439
 3624SOL    HW211772   2.728   6.535   2.362
 3625SOL     OW11773   6.287   3.083   6.922
 3625SOL    HW111774   6.221   3.150   6.956
 3625SOL    HW211775   6.380   3.116   6.938
 3626SOL     OW11776   1.518   3.866   5.407
 3626SOL    HW111777   1.437   3.910   5.443
 3626SOL    HW211778   1.491   3.789   5.349
 3627SOL     OW11779   3.891   3.032   3.362
 3627SOL    HW111780   3.971   3.002   3.414
 3627SOL    HW211781   3.920   3.095   3.290
 3628SOL     OW11782   2.291   6.991   1.435
 3628SOL    HW111783   2.206   0.005   1.470
 3628SOL    HW211784   2.369   0.007   1.483
 3629SOL     OW11785   6.289   2.468   4.527
 3629SOL    HW111786   6.333   2.418   4.454
 3629SOL    HW211787   6.339   2.455   4.612
 3630SOL     OW11788   5.674   3.051   3.811
 3630SOL    HW111789   5.629   3.111   3.877
 3630SOL    HW211790   5.645   3.074   3.718
 3631SOL     OW11791   1.835   0.149   3.850
 3631SOL    HW111792   1.883   0.221   3.800
 3631SOL    HW211793   1.773   0.101   3.788
 3632SOL     OW11794   5.043   0.283   0.376
 3632SOL    HW111795   5.075   0.256   0.286
 3632SOL    HW211796   5.011   0.378   0.373
 3633SOL     OW11797   2.875   1.751   5.723
 3633SOL    HW111798   2.927   1.830   5.690
 3633SOL    HW211799   2.785   1.782   5.757
 3634SOL     OW11800   0.508   5.323   5.206
 3634SOL    HW111801   0.442   5.248   5.211
 3634SOL    HW211802   0.541   5.344   5.298
 3635SOL     OW11803   2.369   0.073   5.691
 3635SOL    HW111804   2.410   0.162   5.712
 3635SOL    HW211805   2.426   0.024   5.626
 3636SOL     OW11806   0.776   6.010   6.176
 3636SOL    HW111807   0.795   5.932   6.117
 3636SOL    HW211808   0.787   5.984   6.271
 3637SOL     OW11809   6.889   1.819   1.631
 3637SOL    HW111810   6.898   1.878   1.711
 3637SOL    HW211811   6.819   1.857   1.570
 3638SOL     OW11812   7.005   4.906   4.615
 3638SOL    HW111813   0.038   4.924   4.535
 3638SOL    HW211814   6.915   4.873   4.585
 3639SOL     OW11815   4.367   4.123   0.876
 3639SOL    HW111816   4.438   4.056   0.856
 3639SOL    HW211817   4.408   4.205   0.916
 3640SOL     OW11818   3.647   6.883   6.709
 3640SOL    HW111819   3.655   6.923   6.801
 3640SOL    HW211820   3.616   6.788   6.717
 3641SOL     OW11821   4.746   2.434   4.258
 3641SOL    HW111822   4.660   2.453   4.212
 3641SOL    HW211823   4.814   2.503   4.232
 3642SOL     OW11824   4.683   0.735   6.761
 3642SOL    HW111825   4.767   0.689   6.790
 3642SOL    HW211826   4.706   0.824   6.720
 3643SOL     OW11827   2.304   5.311   5.069
 3643SOL    HW111828   2.353   5.397   5.055
 3643SOL    HW211829   2.351   5.238   5.018
 3644SOL     OW11830   0.053   1.058   1.434
 3644SOL    HW111831   0.027   1.112   1.515
 3644SOL    HW211832   7.000   0.999   1.407
 3645SOL     OW11833   5.756   1.211   3.790
 3645SOL    HW111834   5.779   1.158   3.708
 3645SOL    HW211835   5.723   1.149   3.861
 3646SOL     OW11836   6.695   5.138   6.585
 3646SOL    HW111837   6.703   5.078   6.665
 3646SOL    HW211838   6.611   5.117   6.536
 3647SOL     OW11839   2.653   3.400   0.290
 3647SOL    HW111840   2.638   3.477   0.352
 3647SOL    HW211841   2.624   3.316   0.334
 3648SOL     OW11842   3.014   5.321   2.981
 3648SOL    HW111843   3.095   5.375   2.960
 3648SOL    HW211844   2.957   5.371   3.047
 3649SOL     OW11845   4.625   3.021   1.585
 3649SOL    HW111846   4.602   2.998   1.680
 3649SOL    HW211847   4.541   3.040   1.534
 3650SOL     OW11848   0.234   5.445   0.127
 3650SOL    HW111849   0.216   5.367   0.188
 3650SOL    HW211850   0.287   5.414   0.048
 3651SOL     OW11851   0.516   6.050   3.267
 3651SOL    HW111852   0.489   6.066   3.172
 3651SOL    HW211853   0.435   6.030   3.322
 3652SOL     OW11854   5.701   6.170   3.074
 3652SOL    HW111855   5.664   6.135   3.160
 3652SOL    HW211856   5.646   6.135   2.998
 3653SOL     OW11857   6.665   0.518   3.309
 3653SOL    HW111858   6.689   0.465   3.228
 3653SOL    HW211859   6.598   0.589   3.285
 3654SOL     OW11860   1.950   7.012   0.542
 3654SOL    HW111861   1.880   6.945   0.518
 3654SOL    HW211862   1.906   0.067   0.584
 3655SOL     OW11863   1.177   0.152   3.737
 3655SOL    HW111864   1.103   0.159   3.803
 3655SOL    HW211865   1.264   0.141   3.785
 3656SOL     OW11866   1.467   3.372   2.187
 3656SOL    HW111867   1.451   3.411   2.277
 3656SOL    HW211868   1.487   3.445   2.121
 3657SOL     OW11869   5.203   5.674   5.938
 3657SOL    HW111870   5.155   5.719   6.013
 3657SOL    HW211871   5.209   5.737   5.860
 3658SOL     OW11872   1.159   5.896   3.778
 3658SOL    HW111873   1.137   5.971   3.715
 3658SOL    HW211874   1.236   5.923   3.836
 3659SOL     OW11875   3.008   3.119   5.539
 3659SOL    HW111876   2.965   3.053   5.479
 3659SOL    HW211877   2.960   3.120   5.627
 3660SOL     OW11878   4.666   6.924   2.490
 3660SOL    HW111879   4.674   6.995   2.560
 3660SOL    HW211880   4.598   6.856   2.517
 3661SOL     OW11881   4.711   1.681   6.267
 3661SOL    HW111882   4.682   1.733   6.347
 3661SOL    HW211883   4.632   1.662   6.209
 3662SOL     OW11884   4.664   0.707   3.478
 3662SOL    HW111885   4.732   0.657   3.532
 3662SOL    HW211886   4.633   0.786   3.531
 3663SOL     OW11887   2.014   1.717   0.770
 3663SOL    HW111888   2.072   1.799   0.767
 3663SOL    HW211889   1.921   1.743   0.794
 3664SOL     OW11890   4.789   2.210   1.258
 3664SOL    HW111891   4.747   2.185   1.345
 3664SOL    HW211892   4.726   2.266   1.205
 3665SOL     OW11893   0.591   5.753   5.808
 3665SOL    HW111894   0.633   5.840   5.782
 3665SOL    HW211895   0.530   5.723   5.734
 3666SOL     OW11896   2.021   3.979   2.766
 3666SOL    HW111897   1.940   4.004   2.819
 3666SOL    HW211898   2.103   4.003   2.818
 3667SOL     OW11899   6.447   0.566   0.524
 3667SOL    HW111900   6.537   0.571   0.567
 3667SOL    HW211901   6.408   0.475   0.539
 3668SOL     OW11902   1.581   0.541   2.287
 3668SOL    HW111903   1.661   0.597   2.266
 3668SOL    HW211904   1.499   0.597   2.284
 3669SOL     OW11905   5.892   0.994   4.395
 3669SOL    HW111906   5.977   1.018   4.441
 3669SOL    HW211907   5.818   0.988   4.461
 3670SOL     OW11908   2.713   4.228   0.790
 3670SOL    HW111909   2.663   4.202   0.873
 3670SOL    HW211910   2.648   4.245   0.716
 3671SOL     OW11911   6.183   0.259   4.245
 3671SOL    HW111912   6.257   0.301   4.297
 3671SOL    HW211913   6.218   0.183   4.191
 3672SOL     OW11914   5.402   1.654   1.208
 3672SOL    HW111915   5.384   1.561   1.175
 3672SOL    HW211916   5.500   1.666   1.222
 3673SOL     OW11917   3.734   7.007   5.851
 3673SOL    HW111918   3.695   0.072   5.876
 3673SOL    HW211919   3.817   7.022   5.796
 3674SOL     OW11920   0.353   6.934   4.934
 3674SOL    HW111921   0.300   6.996   4.992
 3674SOL    HW211922   0.292   6.886   4.871
 3675SOL     OW11923   2.167   3.107   4.935
 3675SOL    HW111924   2.250   3.054   4.955
 3675SOL    HW211925   2.174   3.197   4.976
 3676SOL     OW11926   4.575   4.808   4.557
 3676SOL    HW111927   4.574   4.718   4.599
 3676SOL    HW211928   4.645   4.810   4.485
 3677SOL     OW11929   1.522   6.637   3.438
 3677SOL    HW111930   1.489   6.544   3.458
 3677SOL    HW211931   1.467   6.676   3.365
 3678SOL     OW11932   1.199   3.784   3.815
 3678SOL    HW111933   1.112   3.832   3.827
 3678SOL    HW211934   1.239   3.765   3.904
 3679SOL     OW11935   1.654   0.831   3.707
 3679SOL    HW111936   1.729   0.765   3.697
 3679SOL    HW211937   1.692   0.921   3.727
 3680SOL     OW11938   5.466   2.216   3.639
 3680SOL    HW111939   5.475   2.134   3.583
 3680SOL    HW211940   5.369   2.234   3.657
 3681SOL     OW11941   0.727   0.672   4.857
 3681SOL    HW111942   0.701   0.767   4.840
 3681SOL    HW211943   0.824   0.659   4.836
 3682SOL     OW11944   5.944   2.401   6.761
 3682SOL    HW111945   5.847   2.396   6.738
 3682SOL    HW211946   5.994   2.443   6.685
 3683SOL     OW11947   0.087   6.546   3.883
 3683SOL    HW111948   0.034   6.531   3.800
 3683SOL    HW211949   0.157   6.474   3.892
 3684SOL     OW11950   1.810   3.704   6.967
 3684SOL    HW111951   1.829   3.726   0.039
 3684SOL    HW211952   1.714   3.721   6.947
 3685SOL     OW11953   6.490   6.732   6.626
 3685SOL    HW111954   6.494   6.697   6.720
 3685SOL    HW211955   6.538   6.820   6.622
 3686SOL     OW11956   6.170   5.998   3.509
 3686SOL    HW111957   6.079   5.956   3.500
 3686SOL    HW211958   6.164   6.075   3.572
 3687SOL     OW11959   3.725   6.242   5.630
 3687SOL    HW111960   3.707   6.223   5.727
 3687SOL    HW211961   3.757   6.336   5.620
 3688SOL     OW11962   0.895   3.654   6.314
 3688SOL    HW111963   0.964   3.664   6.385
 3688SOL    HW211964   0.890   3.558   6.286
 3689SOL     OW11965   1.525   0.401   6.454
 3689SOL    HW111966   1.601   0.335   6.456
 3689SOL    HW211967   1.559   0.490   6.424
 3690SOL     OW11968   4.204   0.239   6.363
 3690SOL    HW111969   4.297   0.210   6.337
 3690SOL    HW211970   4.138   0.172   6.329
 3691SOL     OW11971   2.528   2.362   0.106
 3691SOL    HW111972   2.566   2.317   0.186
 3691SOL    HW211973   2.434   2.392   0.124
 3692SOL     OW11974   0.860   5.490   5.026
 3692SOL    HW111975   0.831   5.534   4.940
 3692SOL    HW211976   0.833   5.394   5.025
 3693SOL     OW11977   2.229   2.880   2.501
 3693SOL    HW111978   2.281   2.845   2.578
 3693SOL    HW211979   2.216   2.807   2.433
 3694SOL     OW11980   1.390   5.498   3.351
 3694SOL    HW111981   1.372   5.462   3.259
 3694SOL    HW211982   1.484   5.530   3.356
 3695SOL     OW11983   6.230   2.915   2.740
 3695SOL    HW111984   6.256   2.955   2.652
 3695SOL    HW211985   6.176   2.832   2.725
 3696SOL     OW11986   3.239   5.880   5.290
 3696SOL    HW111987   3.225   5.900   5.193
 3696SOL    HW211988   3.283   5.958   5.334
 3697SOL     OW11989   0.040   5.818   3.390
 3697SOL    HW111990   0.135   5.848   3.380
 3697SOL    HW211991   7.008   5.862   3.320
 3698SOL     OW11992   3.023   6.676   5.204
 3698SOL    HW111993   2.999   6.748   5.139
 3698SOL    HW211994   2.999   6.587   5.166
 3699SOL     OW11995   6.726   3.631   3.236
 3699SOL    HW111996   6.787   3.627   3.158
 3699SOL    HW211997   6.756   3.567   3.306
 3700SOL     OW11998   7.018   0.369   4.646
 3700SOL    HW111999   0.030   0.461   4.659
 3700SOL    HW212000   0.003   0.344   4.549
 3701SOL     OW12001   0.436   0.838   3.540
 3701SOL    HW112002   0.411   0.769   3.473
 3701SOL    HW212003   0.361   0.904   3.550
 3702SOL     OW12004   5.095   6.878   1.883
 3702SOL    HW112005   5.097   6.812   1.808
 3702SOL    HW212006   5.131   6.836   1.966
 3703SOL     OW12007   4.561   2.606   6.557
 3703SOL    HW112008   4.510   2.672   6.614
 3703SOL    HW212009   4.583   2.525   6.611
 3704SOL     OW12010   2.944   0.529   1.545
 3704SOL    HW112011   2.933   0.518   1.446
 3704SOL    HW212012   2.869   0.482   1.593
 3705SOL     OW12013   5.413   5.898   3.613
 3705SOL    HW112014   5.483   5.942   3.670
 3705SOL    HW212015   5.409   5.801   3.633
 3706SOL     OW12016   1.109   3.311   4.680
 3706SOL    HW112017   1.165   3.312   4.763
 3706SOL    HW212018   1.016   3.342   4.702
 3707SOL     OW12019   6.401   3.464   5.127
 3707SOL    HW112020   6.485   3.503   5.090
 3707SOL    HW212021   6.336   3.449   5.053
 3708SOL     OW12022   6.459   1.144   6.255
 3708SOL    HW112023   6.509   1.143   6.168
 3708SOL    HW212024   6.522   1.167   6.329
 3709SOL     OW12025   4.010   0.690   0.099
 3709SOL    HW112026   4.047   0.620   0.161
 3709SOL    HW212027   3.917   0.663   0.071
 3710SOL     OW12028   6.975   6.696   0.500
 3710SOL    HW112029   0.034   6.719   0.551
 3710SOL    HW212030   6.895   6.717   0.556
 3711SOL     OW12031   0.108   6.779   2.305
 3711SOL    HW112032   0.124   6.757   2.209
 3711SOL    HW212033   0.185   6.748   2.360
 3712SOL     OW12034   6.514   6.198   7.017
 3712SOL    HW112035   6.453   6.128   0.032
 3712SOL    HW212036   6.604   6.158   7.000
 3713SOL     OW12037   1.499   6.234   4.232
 3713SOL    HW112038   1.564   6.191   4.169
 3713SOL    HW212039   1.485   6.329   4.205
 3714SOL     OW12040   4.733   5.219   5.041
 3714SOL    HW112041   4.785   5.304   5.048
 3714SOL    HW212042   4.646   5.229   5.089
 3715SOL     OW12043   6.016   4.097   3.740
 3715SOL    HW112044   5.952   4.156   3.691
 3715SOL    HW212045   6.047   4.024   3.679
 3716SOL     OW12046   5.926   6.829   5.322
 3716SOL    HW112047   5.928   6.833   5.222
 3716SOL    HW212048   5.850   6.884   5.356
 3717SOL     OW12049   5.660   5.609   6.028
 3717SOL    HW112050   5.755   5.613   6.058
 3717SOL    HW212051   5.600   5.603   6.108
 3718SOL     OW12052   2.271   0.284   6.074
 3718SOL    HW112053   2.329   0.224   6.019
 3718SOL    HW212054   2.316   0.301   6.162
 3719SOL     OW12055   5.599   4.799   1.116
 3719SOL    HW112056   5.660   4.724   1.141
 3719SOL    HW212057   5.652   4.878   1.086
 3720SOL     OW12058   6.141   2.384   5.738
 3720SOL    HW112059   6.114   2.474   5.772
 3720SOL    HW212060   6.087   2.361   5.657
 3721SOL     OW12061   5.139   4.805   1.214
 3721SOL    HW112062   5.054   4.755   1.200
 3721SOL    HW212063   5.172   4.789   1.307
 3722SOL     OW12064   6.465   6.705   2.452
 3722SOL    HW112065   6.483   6.665   2.361
 3722SOL    HW212066   6.510   6.793   2.459
 3723SOL     OW12067   6.210   6.215   1.546
 3723SOL    HW112068   6.234   6.133   1.598
 3723SOL    HW212069   6.126   6.254   1.583
 3724SOL     OW12070   1.877   5.430   6.268
 3724SOL    HW112071   1.808   5.363   6.296
 3724SOL    HW212072   1.881   5.435   6.168
 3725SOL     OW12073   5.505   5.735   0.636
 3725SOL    HW112074   5.430   5.726   0.703
 3725SOL    HW212075   5.584   5.775   0.681
 3726SOL     OW12076   6.592   5.222   0.452
 3726SOL    HW112077   6.664   5.285   0.425
 3726SOL    HW212078   6.631   5.147   0.504
 3727SOL     OW12079   7.018   2.961   6.210
 3727SOL    HW112080   0.078   2.908   6.197
 3727SOL    HW212081   7.001   2.973   6.308
 3728SOL     OW12082   1.400   3.843   0.151
 3728SOL    HW112083   1.403   3.924   0.209
 3728SOL    HW212084   1.344   3.772   0.194
 3729SOL     OW12085   1.594   2.142   3.395
 3729SOL    HW112086   1.689   2.113   3.384
 3729SOL    HW212087   1.552   2.091   3.470
 3730SOL     OW12088   2.724   5.232   6.237
 3730SOL    HW112089   2.770   5.236   6.149
 3730SOL    HW212090   2.762   5.157   6.291
 3731SOL     OW12091   4.327   0.141   0.869
 3731SOL    HW112092   4.352   0.047   0.893
 3731SOL    HW212093   4.366   0.163   0.779
 3732SOL     OW12094   1.292   2.188   6.672
 3732SOL    HW112095   1.326   2.094   6.669
 3732SOL    HW212096   1.358   2.249   6.628
 3733SOL     OW12097   1.264   3.743   1.867
 3733SOL    HW112098   1.202   3.814   1.832
 3733SOL    HW212099   1.220   3.654   1.857
 3734SOL     OW12100   4.201   1.478   1.768
 3734SOL    HW112101   4.203   1.410   1.841
 3734SOL    HW212102   4.287   1.474   1.717
 3735SOL     OW12103   1.807   1.070   3.669
 3735SOL    HW112104   1.807   1.038   3.575
 3735SOL    HW212105   1.900   1.065   3.707
 3736SOL     OW12106   6.658   2.913   1.212
 3736SOL    HW112107   6.564   2.925   1.242
 3736SOL    HW212108   6.694   2.999   1.176
 3737SOL     OW12109   5.291   0.164   3.011
 3737SOL    HW112110   5.238   0.218   3.076
 3737SOL    HW212111   5.376   0.213   2.989
 3738SOL     OW12112   6.985   5.932   2.433
 3738SOL    HW112113   0.035   5.986   2.473
 3738SOL    HW212114   7.017   5.839   2.416
 3739SOL     OW12115   2.119   4.693   1.353
 3739SOL    HW112116   2.094   4.638   1.433
 3739SOL    HW212117   2.062   4.667   1.275
 3740SOL     OW12118   4.251   0.283   0.518
 3740SOL    HW112119   4.163   0.234   0.516
 3740SOL    HW212120   4.309   0.249   0.444
 3741SOL     OW12121   4.502   3.317   1.463
 3741SOL    HW112122   4.473   3.267   1.545
 3741SOL    HW212123   4.442   3.396   1.449
 3742SOL     OW12124   2.318   1.979   6.189
 3742SOL    HW112125   2.403   1.972   6.137
 3742SOL    HW212126   2.295   2.076   6.203
 3743SOL     OW12127   5.522   4.093   0.755
 3743SOL    HW112128   5.435   4.054   0.786
 3743SOL    HW212129   5.536   4.182   0.799
 3744SOL     OW12130   0.854   5.812   2.735
 3744SOL    HW112131   0.860   5.886   2.667
 3744SOL    HW212132   0.934   5.753   2.727
 3745SOL     OW12133   3.532   5.235   2.063
 3745SOL    HW112134   3.512   5.137   2.068
 3745SOL    HW212135   3.591   5.261   2.140
 3746SOL     OW12136   5.107   1.871   2.589
 3746SOL    HW112137   5.062   1.826   2.511
 3746SOL    HW212138   5.084   1.822   2.673
 3747SOL     OW12139   3.310   6.689   5.935
 3747SOL    HW112140   3.409   6.696   5.920
 3747SOL    HW212141   3.273   6.778   5.959
 3748SOL     OW12142   5.179   0.709   1.533
 3748SOL    HW112143   5.147   0.626   1.578
 3748SOL    HW212144   5.243   0.757   1.593
 3749SOL     OW12145   1.754   6.514   4.206
 3749SOL    HW112146   1.781   6.603   4.170
 3749SOL    HW212147   1.660   6.494   4.179
 3750SOL     OW12148   1.641   4.368   0.418
 3750SOL    HW112149   1.666   4.459   0.385
 3750SOL    HW212150   1.593   4.318   0.346
 3751SOL     OW12151   6.285   3.518   2.301
 3751SOL    HW112152   6.356   3.568   2.351
 3751SOL    HW212153   6.257   3.571   2.221
 3752SOL     OW12154   4.833   0.417   5.844
 3752SOL    HW112155   4.926   0.452   5.850
 3752SOL    HW212156   4.798   0.431   5.751
 3753SOL     OW12157   6.087   0.756   5.118
 3753SOL    HW112158   6.081   0.793   5.025
 3753SOL    HW212159   6.005   0.704   5.138
 3754SOL     OW12160   2.636   0.614   2.207
 3754SOL    HW112161   2.621   0.611   2.306
 3754SOL    HW212162   2.732   0.634   2.188
 3755SOL     OW12163   3.809   5.692   4.864
 3755SOL    HW112164   3.753   5.609   4.866
 3755SOL    HW212165   3.870   5.693   4.943
 3756SOL     OW12166   2.825   5.734   6.557
 3756SOL    HW112167   2.754   5.799   6.533
 3756SOL    HW212168   2.915   5.772   6.532
 3757SOL     OW12169   6.378   5.390   1.758
 3757SOL    HW112170   6.472   5.420   1.772
 3757SOL    HW212171   6.318   5.436   1.824
 3758SOL     OW12172   1.977   1.542   4.529
 3758SOL    HW112173   1.926   1.623   4.500
 3758SOL    HW212174   1.942   1.461   4.481
 3759SOL     OW12175   4.409   0.487   5.286
 3759SOL    HW112176   4.507   0.503   5.300
 3759SOL    HW212177   4.359   0.573   5.295
 3760SOL     OW12178   0.828   1.481   3.337
 3760SOL    HW112179   0.834   1.406   3.271
 3760SOL    HW212180   0.864   1.565   3.297
 3761SOL     OW12181   6.783   0.729   4.635
 3761SOL    HW112182   6.757   0.811   4.687
 3761SOL    HW212183   6.703   0.670   4.624
 3762SOL     OW12184   1.548   4.408   1.593
 3762SOL    HW112185   1.583   4.321   1.559
 3762SOL    HW212186   1.511   4.396   1.685
 3763SOL     OW12187   6.298   4.115   0.697
 3763SOL    HW112188   6.387   4.090   0.734
 3763SOL    HW212189   6.226   4.072   0.751
 3764SOL     OW12190   1.975   6.744   2.749
 3764SOL    HW112191   2.033   6.669   2.718
 3764SOL    HW212192   1.939   6.723   2.840
 3765SOL     OW12193   6.200   1.431   1.176
 3765SOL    HW112194   6.253   1.384   1.246
 3765SOL    HW212195   6.146   1.503   1.219
 3766SOL     OW12196   2.149   1.940   4.289
 3766SOL    HW112197   2.092   1.864   4.259
 3766SOL    HW212198   2.174   1.996   4.210
 3767SOL     OW12199   3.250   4.021   6.156
 3767SOL    HW112200   3.296   4.012   6.244
 3767SOL    HW212201   3.319   4.033   6.084
 3768SOL     OW12202   1.006   0.627   4.749
 3768SOL    HW112203   0.986   0.675   4.663
 3768SOL    HW212204   1.094   0.659   4.786
 3769SOL     OW12205   6.086   5.452   5.150
 3769SOL    HW112206   6.068   5.353   5.146
 3769SOL    HW212207   6.009   5.501   5.108
 3770SOL     OW12208   1.070   0.993   6.911
 3770SOL    HW112209   1.026   0.997   7.001
 3770SOL    HW212210   1.037   1.069   6.855
 3771SOL     OW12211   5.834   4.318   6.700
 3771SOL    HW112212   5.746   4.286   6.735
 3771SOL    HW212213   5.896   4.335   6.776
 3772SOL     OW12214   0.725   0.301   0.341
 3772SOL    HW112215   0.628   0.276   0.335
 3772SOL    HW212216   0.781   0.220   0.320
 3773SOL     OW12217   5.851   2.896   5.639
 3773SOL    HW112218   5.876   2.901   5.735
 3773SOL    HW212219   5.821   2.986   5.607
 3774SOL     OW12220   5.477   5.375   1.701
 3774SOL    HW112221   5.490   5.412   1.793
 3774SOL    HW212222   5.380   5.357   1.685
 3775SOL     OW12223   4.051   4.848   3.855
 3775SOL    HW112224   4.009   4.937   3.839
 3775SOL    HW212225   3.986   4.787   3.900
 3776SOL     OW12226   3.592   2.589   6.529
 3776SOL    HW112227   3.667   2.606   6.593
 3776SOL    HW212228   3.518   2.542   6.576
 3777SOL     OW12229   2.607   5.969   3.798
 3777SOL    HW112230   2.688   5.935   3.847
 3777SOL    HW212231   2.566   5.893   3.747
 3778SOL     OW12232   2.515   5.767   3.638
 3778SOL    HW112233   2.559   5.677   3.647
 3778SOL    HW212234   2.495   5.785   3.542
 3779SOL     OW12235   0.380   4.838   1.086
 3779SOL    HW112236   0.407   4.746   1.114
 3779SOL    HW212237   0.348   4.889   1.166
 3780SOL     OW12238   0.315   3.732   4.062
 3780SOL    HW112239   0.284   3.810   4.117
 3780SOL    HW212240   0.259   3.652   4.084
 3781SOL     OW12241   0.624   6.899   4.468
 3781SOL    HW112242   0.628   6.812   4.515
 3781SOL    HW212243   0.715   6.940   4.465
 3782SOL     OW12244   3.556   6.348   2.516
 3782SOL    HW112245   3.481   6.401   2.555
 3782SOL    HW212246   3.531   6.317   2.424
 3783SOL     OW12247   6.274   5.367   4.204
 3783SOL    HW112248   6.272   5.437   4.274
 3783SOL    HW212249   6.365   5.325   4.201
 3784SOL     OW12250   5.173   2.330   2.381
 3784SOL    HW112251   5.207   2.327   2.475
 3784SOL    HW212252   5.202   2.415   2.337
 3785SOL     OW12253   1.343   3.135   5.099
 3785SOL    HW112254   1.322   3.121   5.196
 3785SOL    HW212255   1.434   3.098   5.079
 3786SOL     OW12256   2.056   3.840   3.191
 3786SOL    HW112257   2.008   3.924   3.215
 3786SOL    HW212258   2.048   3.774   3.265
 3787SOL     OW12259   5.601   0.743   2.766
 3787SOL    HW112260   5.611   0.698   2.677
 3787SOL    HW212261   5.536   0.818   2.760
 3788SOL     OW12262   6.193   4.862   5.026
 3788SOL    HW112263   6.215   4.781   5.080
 3788SOL    HW212264   6.101   4.853   4.988
 3789SOL     OW12265   0.019   3.681   3.062
 3789SOL    HW112266   0.077   3.728   2.995
 3789SOL    HW212267   0.047   3.708   3.154
 3790SOL     OW12268   1.087   4.799   6.451
 3790SOL    HW112269   1.160   4.853   6.494
 3790SOL    HW212270   1.000   4.845   6.464
 3791SOL     OW12271   5.409   1.669   6.611
 3791SOL    HW112272   5.409   1.598   6.682
 3791SOL    HW212273   5.486   1.655   6.549
 3792SOL     OW12274   0.990   1.729   4.482
 3792SOL    HW112275   0.899   1.690   4.465
 3792SOL    HW212276   1.047   1.717   4.400
 3793SOL     OW12277   5.404   6.476   1.474
 3793SOL    HW112278   5.443   6.396   1.521
 3793SOL    HW212279   5.446   6.559   1.510
 3794SOL     OW12280   2.179   2.885   1.769
 3794SOL    HW112281   2.186   2.983   1.749
 3794SOL    HW212282   2.121   2.840   1.702
 3795SOL     OW12283   3.711   4.998   0.961
 3795SOL    HW112284   3.689   4.902   0.974
 3795SOL    HW212285   3.735   5.039   1.049
 3796SOL     OW12286   4.023   1.740   1.190
 3796SOL    HW112287   4.078   1.806   1.139
 3796SOL    HW212288   3.926   1.761   1.178
 3797SOL     OW12289   0.774   3.887   3.048
 3797SOL    HW112290   0.739   3.815   2.988
 3797SOL    HW212291   0.834   3.947   2.996
 3798SOL     OW12292   3.145   6.380   2.428
 3798SOL    HW112293   3.197   6.299   2.403
 3798SOL    HW212294   3.189   6.462   2.392
 3799SOL     OW12295   6.927   2.878   3.551
 3799SOL    HW112296   6.893   2.967   3.582
 3799SOL    HW212297   6.980   2.891   3.467
 3800SOL     OW12298   5.368   2.254   4.004
 3800SOL    HW112299   5.331   2.162   4.012
 3800SOL    HW212300   5.337   2.295   3.918
 3801SOL     OW12301   5.723   6.568   1.894
 3801SOL    HW112302   5.696   6.588   1.988
 3801SOL    HW212303   5.677   6.632   1.832
 3802SOL     OW12304   7.015   1.221   2.661
 3802SOL    HW112305   0.035   1.194   2.575
 3802SOL    HW212306   6.928   1.173   2.671
 3803SOL     OW12307   3.822   3.576   3.669
 3803SOL    HW112308   3.774   3.592   3.755
 3803SOL    HW212309   3.887   3.650   3.652
 3804SOL     OW12310   4.210   1.251   3.969
 3804SOL    HW112311   4.147   1.208   4.034
 3804SOL    HW212312   4.157   1.295   3.896
 3805SOL     OW12313   1.489   2.633   2.106
 3805SOL    HW112314   1.546   2.683   2.171
 3805SOL    HW212315   1.518   2.653   2.013
 3806SOL     OW12316   3.259   3.403   5.768
 3806SOL    HW112317   3.294   3.340   5.699
 3806SOL    HW212318   3.285   3.496   5.745
 3807SOL     OW12319   2.301   4.917   3.587
 3807SOL    HW112320   2.265   5.010   3.586
 3807SOL    HW212321   2.331   4.893   3.679
 3808SOL     OW12322   4.442   0.588   6.746
 3808SOL    HW112323   4.533   0.629   6.753
 3808SOL    HW212324   4.379   0.634   6.809
 3809SOL     OW12325   5.465   2.539   1.688
 3809SOL    HW112326   5.510   2.561   1.602
 3809SOL    HW212327   5.382   2.487   1.670
 3810SOL     OW12328   6.215   2.528   3.366
 3810SOL    HW112329   6.159   2.607   3.342
 3810SOL    HW212330   6.306   2.559   3.395
 3811SOL     OW12331   0.423   6.118   4.143
 3811SOL    HW112332   0.354   6.124   4.216
 3811SOL    HW212333   0.378   6.090   4.058
 3812SOL     OW12334   3.389   4.684   5.728
 3812SOL    HW112335   3.326   4.607   5.725
 3812SOL    HW212336   3.340   4.766   5.759
 3813SOL     OW12337   5.789   3.506   0.806
 3813SOL    HW112338   5.747   3.444   0.739
 3813SOL    HW212339   5.723   3.527   0.878
 3814SOL     OW12340   6.736   0.134   4.440
 3814SOL    HW112341   6.835   0.122   4.431
 3814SOL    HW212342   6.718   0.210   4.503
 3815SOL     OW12343   4.128   2.836   1.117
 3815SOL    HW112344   4.061   2.794   1.055
 3815SOL    HW212345   4.115   2.800   1.209
 3816SOL     OW12346   0.943   5.564   5.911
 3816SOL    HW112347   0.995   5.551   5.826
 3816SOL    HW212348   0.980   5.504   5.982
 3817SOL     OW12349   4.876   3.674   2.270
 3817SOL    HW112350   4.815   3.628   2.335
 3817SOL    HW212351   4.915   3.607   2.207
 3818SOL     OW12352   6.840   0.794   0.887
 3818SOL    HW112353   6.823   0.887   0.921
 3818SOL    HW212354   6.934   0.767   0.910
 3819SOL     OW12355   5.645   4.604   2.459
 3819SOL    HW112356   5.582   4.537   2.498
 3819SOL    HW212357   5.735   4.595   2.502
 3820SOL     OW12358   6.512   6.336   3.331
 3820SOL    HW112359   6.490   6.304   3.423
 3820SOL    HW212360   6.547   6.260   3.277
 3821SOL     OW12361   1.266   1.172   1.967
 3821SOL    HW112362   1.303   1.162   2.059
 3821SOL    HW212363   1.271   1.084   1.919
 3822SOL     OW12364   2.246   6.851   6.506
 3822SOL    HW112365   2.188   6.810   6.576
 3822SOL    HW212366   2.227   6.808   6.417
 3823SOL     OW12367   4.123   3.832   6.529
 3823SOL    HW112368   4.134   3.896   6.453
 3823SOL    HW212369   4.026   3.807   6.538
 3824SOL     OW12370   0.945   2.520   0.462
 3824SOL    HW112371   0.975   2.520   0.557
 3824SOL    HW212372   0.854   2.478   0.456
 3825SOL     OW12373   1.086   4.245   0.255
 3825SOL    HW112374   1.062   4.148   0.249
 3825SOL    HW212375   1.009   4.301   0.225
 3826SOL     OW12376   6.805   3.505   1.247
 3826SOL    HW112377   6.762   3.424   1.287
 3826SOL    HW212378   6.737   3.577   1.236
 3827SOL     OW12379   1.121   1.030   1.226
 3827SOL    HW112380   1.092   1.004   1.318
 3827SOL    HW212381   1.122   0.949   1.167
 3828SOL     OW12382   3.608   3.880   4.023
 3828SOL    HW112383   3.635   3.938   3.947
 3828SOL    HW212384   3.636   3.921   4.109
 3829SOL     OW12385   0.430   5.001   2.125
 3829SOL    HW112386   0.424   4.940   2.204
 3829SOL    HW212387   0.405   4.951   2.042
 3830SOL     OW12388   0.607   1.322   5.647
 3830SOL    HW112389   0.525   1.360   5.690
 3830SOL    HW212390   0.593   1.225   5.627
 3831SOL     OW12391   4.676   2.516   2.458
 3831SOL    HW112392   4.615   2.593   2.475
 3831SOL    HW212393   4.716   2.524   2.367
 3832SOL     OW12394   6.952   0.697   2.138
 3832SOL    HW112395   6.878   0.753   2.176
 3832SOL    HW212396   7.005   0.750   2.073
 3833SOL     OW12397   0.428   5.834   6.548
 3833SOL    HW112398   0.519   5.834   6.589
 3833SOL    HW212399   0.388   5.926   6.557
 3834SOL     OW12400   3.859   4.432   0.962
 3834SOL    HW112401   3.818   4.379   0.888
 3834SOL    HW212402   3.957   4.445   0.944
 3835SOL     OW12403   4.120   6.290   5.395
 3835SOL    HW112404   4.044   6.346   5.430
 3835SOL    HW212405   4.094   6.252   5.307
 3836SOL     OW12406   6.936   5.017   6.017
 3836SOL    HW112407   7.004   4.962   6.065
 3836SOL    HW212408   6.909   4.971   5.933
 3837SOL     OW12409   4.438   4.869   5.397
 3837SOL    HW112410   4.432   4.807   5.476
 3837SOL    HW212411   4.400   4.958   5.423
 3838SOL     OW12412   1.236   2.740   3.742
 3838SOL    HW112413   1.303   2.814   3.733
 3838SOL    HW212414   1.269   2.674   3.810
 3839SOL     OW12415   5.129   1.548   2.672
 3839SOL    HW112416   5.049   1.557   2.731
 3839SOL    HW212417   5.211   1.538   2.730
 3840SOL     OW12418   3.070   1.642   6.843
 3840SOL    HW112419   3.108   1.579   6.775
 3840SOL    HW212420   3.145   1.681   6.898
 3841SOL     OW12421   0.986   3.470   4.470
 3841SOL    HW112422   1.025   3.559   4.493
 3841SOL    HW212423   1.041   3.398   4.513
 3842SOL     OW12424   2.176   2.870   3.523
 3842SOL    HW112425   2.212   2.863   3.617
 3842SOL    HW212426   2.183   2.965   3.492
 3843SOL     OW12427   5.291   3.401   2.452
 3843SOL    HW112428   5.354   3.457   2.398
 3843SOL    HW212429   5.205   3.391   2.403
 3844SOL     OW12430   1.530   3.147   6.058
 3844SOL    HW112431   1.590   3.224   6.082
 3844SOL    HW212432   1.434   3.177   6.062
 3845SOL     OW12433   2.845   5.170   5.969
 3845SOL    HW112434   2.747   5.159   5.955
 3845SOL    HW212435   2.894   5.144   5.886
 3846SOL     OW12436   1.001   4.179   3.666
 3846SOL    HW112437   1.046   4.229   3.740
 3846SOL    HW212438   0.939   4.111   3.706
 3847SOL     OW12439   5.426   3.119   4.577
 3847SOL    HW112440   5.454   3.181   4.650
 3847SOL    HW212441   5.327   3.108   4.580
 3848SOL     OW12442   4.978   4.075   3.008
 3848SOL    HW112443   5.012   4.045   2.919
 3848SOL    HW212444   5.047   4.132   3.052
 3849SOL     OW12445   1.368   1.285   6.428
 3849SOL    HW112446   1.389   1.192   6.398
 3849SOL    HW212447   1.333   1.282   6.522
 3850SOL     OW12448   2.764   2.924   1.692
 3850SOL    HW112449   2.809   2.900   1.605
 3850SOL    HW212450   2.677   2.876   1.699
 3851SOL     OW12451   0.339   4.264   3.566
 3851SOL    HW112452   0.359   4.255   3.468
 3851SOL    HW212453   0.405   4.210   3.618
 3852SOL     OW12454   3.973   6.207   3.727
 3852SOL    HW112455   3.925   6.250   3.804
 3852SOL    HW212456   3.937   6.243   3.641
 3853SOL     OW12457   1.144   3.684   3.454
 3853SOL    HW112458   1.163   3.711   3.360
 3853SOL    HW212459   1.047   3.700   3.474
 3854SOL     OW12460   1.378   2.346   2.785
 3854SOL    HW112461   1.391   2.294   2.700
 3854SOL    HW212462   1.459   2.401   2.803
 3855SOL     OW12463   4.448   6.436   6.739
 3855SOL    HW112464   4.350   6.456   6.733
 3855SOL    HW212465   4.500   6.509   6.694
 3856SOL     OW12466   0.326   0.357   5.849
 3856SOL    HW112467   0.365   0.443   5.818
 3856SOL    HW212468   0.347   0.285   5.782
 3857SOL     OW12469   0.845   5.993   6.436
 3857SOL    HW112470   0.777   6.055   6.473
 3857SOL    HW212471   0.926   5.994   6.495
 3858SOL     OW12472   3.084   1.099   6.051
 3858SOL    HW112473   2.993   1.057   6.048
 3858SOL    HW212474   3.084   1.182   5.995
 3859SOL     OW12475   6.669   1.091   1.537
 3859SOL    HW112476   6.622   1.008   1.568
 3859SOL    HW212477   6.695   1.145   1.617
 3860SOL     OW12478   1.491   1.660   4.087
 3860SOL    HW112479   1.459   1.708   4.168
 3860SOL    HW212480   1.428   1.586   4.064
 3861SOL     OW12481   4.195   5.250   4.151
 3861SOL    HW112482   4.248   5.322   4.106
 3861SOL    HW212483   4.248   5.212   4.227
 3862SOL     OW12484   0.563   0.852   4.439
 3862SOL    HW112485   0.564   0.872   4.341
 3862SOL    HW212486   0.580   0.937   4.491
 3863SOL     OW12487   5.980   2.198   0.010
 3863SOL    HW112488   6.022   2.113   7.003
 3863SOL    HW212489   5.889   2.207   6.994
 3864SOL     OW12490   1.779   0.846   5.908
 3864SOL    HW112491   1.876   0.856   5.931
 3864SOL    HW212492   1.743   0.762   5.950
 3865SOL     OW12493   3.721   0.940   1.345
 3865SOL    HW112494   3.806   0.937   1.292
 3865SOL    HW212495   3.721   1.024   1.400
 3866SOL     OW12496   3.984   0.228   0.489
 3866SOL    HW112497   3.949   0.318   0.517
 3866SOL    HW212498   3.912   0.160   0.499
 3867SOL     OW12499   0.326   5.711   3.707
 3867SOL    HW112500   0.360   5.803   3.689
 3867SOL    HW212501   0.231   5.716   3.736
 3868SOL     OW12502   3.420   0.443   0.123
 3868SOL    HW112503   3.485   0.369   0.106
 3868SOL    HW212504   3.441   0.521   0.063
 3869SOL     OW12505   6.282   3.129   4.635
 3869SOL    HW112506   6.365   3.180   4.657
 3869SOL    HW212507   6.298   3.073   4.553
 3870SOL     OW12508   6.284   0.011   0.574
 3870SOL    HW112509   6.287   6.996   0.666
 3870SOL    HW212510   6.197   7.011   0.531
 3871SOL     OW12511   4.018   0.802   3.091
 3871SOL    HW112512   3.934   0.854   3.077
 3871SOL    HW212513   4.054   0.821   3.182
 3872SOL     OW12514   3.205   3.072   3.646
 3872SOL    HW112515   3.144   3.133   3.696
 3872SOL    HW212516   3.252   3.124   3.574
 3873SOL     OW12517   6.366   4.010   1.121
 3873SOL    HW112518   6.290   3.946   1.124
 3873SOL    HW212519   6.432   3.979   1.052
 3874SOL     OW12520   4.760   5.991   0.201
 3874SOL    HW112521   4.814   6.063   0.158
 3874SOL    HW212522   4.664   6.002   0.175
 3875SOL     OW12523   2.040   3.491   2.473
 3875SOL    HW112524   2.061   3.526   2.381
 3875SOL    HW212525   2.037   3.567   2.538
 3876SOL     OW12526   3.601   5.664   1.054
 3876SOL    HW112527   3.580   5.762   1.057
 3876SOL    HW212528   3.664   5.647   0.978
 3877SOL     OW12529   5.991   2.589   1.201
 3877SOL    HW112530   6.086   2.612   1.224
 3877SOL    HW212531   5.966   2.635   1.116
 3878SOL     OW12532   3.810   6.662   4.556
 3878SOL    HW112533   3.802   6.678   4.654
 3878SOL    HW212534   3.777   6.570   4.534
 3879SOL     OW12535   6.015   4.993   0.959
 3879SOL    HW112536   5.957   4.978   0.879
 3879SOL    HW212537   6.032   5.091   0.971
 3880SOL     OW12538   5.523   4.796   4.312
 3880SOL    HW112539   5.597   4.863   4.314
 3880SOL    HW212540   5.438   4.840   4.339
 3881SOL     OW12541   1.437   3.066   1.944
 3881SOL    HW112542   1.416   3.039   2.038
 3881SOL    HW212543   1.402   2.996   1.881
 3882SOL     OW12544   1.088   1.387   6.032
 3882SOL    HW112545   1.137   1.367   6.118
 3882SOL    HW212546   1.078   1.302   5.980
 3883SOL     OW12547   4.729   1.030   2.224
 3883SOL    HW112548   4.671   1.078   2.158
 3883SOL    HW212549   4.672   0.986   2.294
 3884SOL     OW12550   1.256   5.556   2.379
 3884SOL    HW112551   1.313   5.525   2.302
 3884SOL    HW212552   1.311   5.554   2.463
 3885SOL     OW12553   5.704   5.859   2.456
 3885SOL    HW112554   5.741   5.848   2.363
 3885SOL    HW212555   5.708   5.771   2.504
 3886SOL     OW12556   5.810   5.183   5.181
 3886SOL    HW112557   5.760   5.135   5.109
 3886SOL    HW212558   5.813   5.127   5.263
 3887SOL     OW12559   1.014   0.542   6.947
 3887SOL    HW112560   1.098   0.580   6.908
 3887SOL    HW212561   0.941   0.547   6.879
 3888SOL     OW12562   6.711   0.328   4.629
 3888SOL    HW112563   6.807   0.353   4.641
 3888SOL    HW212564   6.679   0.279   4.711
 3889SOL     OW12565   0.093   3.888   0.365
 3889SOL    HW112566   0.153   3.956   0.323
 3889SOL    HW212567   0.034   3.848   0.294
 3890SOL     OW12568   5.890   5.447   3.581
 3890SOL    HW112569   5.828   5.419   3.508
 3890SOL    HW212570   5.897   5.547   3.583
 3891SOL     OW12571   5.543   4.387   4.686
 3891SOL    HW112572   5.635   4.393   4.726
 3891SOL    HW212573   5.549   4.402   4.587
 3892SOL     OW12574   6.906   2.096   1.710
 3892SOL    HW112575   7.003   2.096   1.734
 3892SOL    HW212576   6.881   2.187   1.676
 3893SOL     OW12577   4.642   4.252   0.218
 3893SOL    HW112578   4.602   4.235   0.128
 3893SOL    HW212579   4.625   4.172   0.276
 3894SOL     OW12580   4.329   1.198   1.151
 3894SOL    HW112581   4.247   1.248   1.180
 3894SOL    HW212582   4.312   1.099   1.159
 3895SOL     OW12583   1.971   0.930   5.031
 3895SOL    HW112584   2.024   0.987   4.969
 3895SOL    HW212585   1.988   0.834   5.011
 3896SOL     OW12586   0.119   0.835   5.646
 3896SOL    HW112587   0.071   0.881   5.572
 3896SOL    HW212588   0.059   0.767   5.688
 3897SOL     OW12589   3.458   5.530   2.722
 3897SOL    HW112590   3.487   5.626   2.721
 3897SOL    HW212591   3.399   5.514   2.801
 3898SOL     OW12592   2.783   3.651   5.214
 3898SOL    HW112593   2.741   3.603   5.291
 3898SOL    HW212594   2.733   3.735   5.194
 3899SOL     OW12595   5.439   6.823   4.787
 3899SOL    HW112596   5.382   6.860   4.714
 3899SOL    HW212597   5.450   6.891   4.859
 3900SOL     OW12598   5.210   3.137   4.179
 3900SOL    HW112599   5.238   3.042   4.187
 3900SOL    HW212600   5.243   3.176   4.093
 3901SOL     OW12601   2.852   0.361   5.743
 3901SOL    HW112602   2.919   0.325   5.678
 3901SOL    HW212603   2.777   0.295   5.753
 3902SOL     OW12604   5.357   3.534   1.893
 3902SOL    HW112605   5.308   3.499   1.812
 3902SOL    HW212606   5.438   3.584   1.863
 3903SOL     OW12607   3.664   6.108   6.226
 3903SOL    HW112608   3.712   6.024   6.202
 3903SOL    HW212609   3.729   6.176   6.259
 3904SOL     OW12610   2.633   1.485   5.352
 3904SOL    HW112611   2.609   1.388   5.347
 3904SOL    HW212612   2.647   1.521   5.260
 3905SOL     OW12613   0.077   0.376   6.723
 3905SOL    HW112614   0.168   0.395   6.759
 3905SOL    HW212615   0.049   0.450   6.662
 3906SOL     OW12616   4.862   4.958   6.267
 3906SOL    HW112617   4.877   4.877   6.324
 3906SOL    HW212618   4.933   5.026   6.286
 3907SOL     OW12619   5.611   0.268   4.799
 3907SOL    HW112620   5.652   0.360   4.804
 3907SOL    HW212621   5.538   0.267   4.731
 3908SOL     OW12622   1.454   2.581   0.711
 3908SOL    HW112623   1.413   2.671   0.695
 3908SOL    HW212624   1.480   2.574   0.808
 3909SOL     OW12625   0.351   5.156   5.518
 3909SOL    HW112626   0.310   5.243   5.545
 3909SOL    HW212627   0.279   5.086   5.511
 3910SOL     OW12628   3.446   3.141   1.604
 3910SOL    HW112629   3.380   3.125   1.532
 3910SOL    HW212630   3.406   3.201   1.674
 3911SOL     OW12631   4.715   0.783   0.040
 3911SOL    HW112632   4.757   0.712   0.096
 3911SOL    HW212633   4.626   0.808   0.079
 3912SOL     OW12634   4.610   7.016   5.811
 3912SOL    HW112635   4.602   0.059   5.738
 3912SOL    HW212636   4.543   6.943   5.798
 3913SOL     OW12637   1.661   6.934   5.958
 3913SOL    HW112638   1.585   6.986   5.999
 3913SOL    HW212639   1.640   6.837   5.963
 3914SOL     OW12640   4.038   1.256   1.054
 3914SOL    HW112641   4.019   1.352   1.073
 3914SOL    HW212642   4.079   1.248   0.963
 3915SOL     OW12643   3.717   5.227   2.303
 3915SOL    HW112644   3.721   5.281   2.387
 3915SOL    HW212645   3.801   5.174   2.294
 3916SOL     OW12646   1.719   6.069   3.740
 3916SOL    HW112647   1.669   6.112   3.665
 3916SOL    HW212648   1.817   6.088   3.730
 3917SOL     OW12649   0.327   5.457   0.751
 3917SOL    HW112650   0.249   5.423   0.699
 3917SOL    HW212651   0.305   5.457   0.848
 3918SOL     OW12652   4.879   6.929   2.137
 3918SOL    HW112653   4.906   6.940   2.042
 3918SOL    HW212654   4.952   6.884   2.188
 3919SOL     OW12655   2.162   5.823   6.229
 3919SOL    HW112656   2.104   5.762   6.285
 3919SOL    HW212657   2.197   5.772   6.151
 3920SOL     OW12658   2.757   2.783   0.410
 3920SOL    HW112659   2.809   2.747   0.333
 3920SOL    HW212660   2.817   2.838   0.468
 3921SOL     OW12661   6.778   3.151   1.100
 3921SOL    HW112662   6.860   3.208   1.110
 3921SOL    HW212663   6.793   3.084   1.027
 3922SOL     OW12664   5.786   4.286   2.105
 3922SOL    HW112665   5.802   4.364   2.166
 3922SOL    HW212666   5.742   4.212   2.157
 3923SOL     OW12667   0.030   2.205   6.731
 3923SOL    HW112668   0.061   2.147   6.807
 3923SOL    HW212669   0.080   2.291   6.734
 3924SOL     OW12670   0.690   5.403   3.486
 3924SOL    HW112671   0.651   5.393   3.395
 3924SOL    HW212672   0.759   5.333   3.501
 3925SOL     OW12673   3.457   5.002   0.399
 3925SOL    HW112674   3.444   4.903   0.391
 3925SOL    HW212675   3.534   5.030   0.342
 3926SOL     OW12676   6.604   5.654   3.200
 3926SOL    HW112677   6.608   5.580   3.133
 3926SOL    HW212678   6.654   5.627   3.282
 3927SOL     OW12679   6.616   3.336   3.509
 3927SOL    HW112680   6.604   3.305   3.415
 3927SOL    HW212681   6.584   3.430   3.518
 3928SOL     OW12682   2.778   6.345   5.768
 3928SOL    HW112683   2.735   6.435   5.756
 3928SOL    HW212684   2.825   6.319   5.684
 3929SOL     OW12685   0.258   1.737   5.751
 3929SOL    HW112686   0.331   1.805   5.754
 3929SOL    HW212687   0.209   1.736   5.839
 3930SOL     OW12688   2.072   1.841   3.894
 3930SOL    HW112689   2.085   1.744   3.874
 3930SOL    HW212690   2.055   1.890   3.808
 3931SOL     OW12691   1.791   1.737   2.292
 3931SOL    HW112692   1.842   1.681   2.226
 3931SOL    HW212693   1.850   1.758   2.370
 3932SOL     OW12694   1.450   4.261   2.819
 3932SOL    HW112695   1.480   4.317   2.896
 3932SOL    HW212696   1.530   4.228   2.768
 3933SOL     OW12697   1.750   6.627   0.233
 3933SOL    HW112698   1.741   6.717   0.275
 3933SOL    HW212699   1.812   6.633   0.155
 3934SOL     OW12700   0.103   0.733   0.969
 3934SOL    HW112701   0.126   0.638   0.991
 3934SOL    HW212702   0.128   0.752   0.874
 3935SOL     OW12703   2.415   0.156   0.071
 3935SOL    HW112704   2.407   0.184   7.000
 3935SOL    HW212705   2.408   0.056   0.077
 3936SOL     OW12706   6.469   5.181   5.610
 3936SOL    HW112707   6.468   5.280   5.621
 3936SOL    HW212708   6.564   5.148   5.607
 3937SOL     OW12709   6.631   0.624   2.576
 3937SOL    HW112710   6.667   0.654   2.664
 3937SOL    HW212711   6.625   0.524   2.575
 3938SOL     OW12712   6.792   1.532   3.823
 3938SOL    HW112713   6.886   1.522   3.790
 3938SOL    HW212714   6.730   1.534   3.744
 3939SOL     OW12715   2.496   1.932   2.220
 3939SOL    HW112716   2.494   2.019   2.171
 3939SOL    HW212717   2.452   1.862   2.164
 3940SOL     OW12718   4.306   5.273   2.052
 3940SOL    HW112719   4.236   5.238   2.114
 3940SOL    HW212720   4.355   5.349   2.094
 3941SOL     OW12721   4.913   1.838   6.709
 3941SOL    HW112722   4.907   1.871   6.615
 3941SOL    HW212723   4.932   1.740   6.708
 3942SOL     OW12724   0.422   0.453   6.577
 3942SOL    HW112725   0.395   0.366   6.535
 3942SOL    HW212726   0.393   0.454   6.673
 3943SOL     OW12727   0.935   4.062   2.921
 3943SOL    HW112728   0.887   4.149   2.921
 3943SOL    HW212729   1.033   4.078   2.930
 3944SOL     OW12730   5.478   3.257   5.377
 3944SOL    HW112731   5.382   3.286   5.378
 3944SOL    HW212732   5.534   3.327   5.422
 3945SOL     OW12733   0.928   2.213   1.963
 3945SOL    HW112734   0.855   2.146   1.953
 3945SOL    HW212735   1.014   2.174   1.930
 3946SOL     OW12736   5.657   6.003   6.113
 3946SOL    HW112737   5.664   6.099   6.142
 3946SOL    HW212738   5.739   5.954   6.143
 3947SOL     OW12739   6.070   5.258   0.964
 3947SOL    HW112740   6.082   5.303   1.053
 3947SOL    HW212741   6.040   5.326   0.896
 3948SOL     OW12742   0.906   5.693   1.737
 3948SOL    HW112743   0.845   5.622   1.702
 3948SOL    HW212744   0.945   5.664   1.825
 3949SOL     OW12745   5.959   0.525   2.946
 3949SOL    HW112746   5.920   0.591   3.010
 3949SOL    HW212747   5.984   0.572   2.861
 3950SOL     OW12748   2.130   4.141   1.513
 3950SOL    HW112749   2.065   4.180   1.447
 3950SOL    HW212750   2.149   4.046   1.488
 3951SOL     OW12751   6.099   0.165   1.078
 3951SOL    HW112752   6.167   0.225   1.121
 3951SOL    HW212753   6.129   0.141   0.986
 3952SOL     OW12754   6.218   3.860   2.603
 3952SOL    HW112755   6.279   3.822   2.672
 3952SOL    HW212756   6.272   3.896   2.526
 3953SOL     OW12757   4.098   4.113   0.850
 3953SOL    HW112758   4.059   4.022   0.859
 3953SOL    HW212759   4.198   4.107   0.850
 3954SOL     OW12760   5.623   5.768   5.122
 3954SOL    HW112761   5.590   5.801   5.034
 3954SOL    HW212762   5.546   5.747   5.181
 3955SOL     OW12763   3.025   5.279   6.150
 3955SOL    HW112764   2.983   5.220   6.081
 3955SOL    HW212765   2.997   5.374   6.133
 3956SOL     OW12766   0.236   0.748   2.843
 3956SOL    HW112767   0.299   0.759   2.766
 3956SOL    HW212768   0.288   0.739   2.928
 3957SOL     OW12769   4.759   6.482   3.845
 3957SOL    HW112770   4.838   6.540   3.868
 3957SOL    HW212771   4.675   6.527   3.875
 3958SOL     OW12772   5.694   0.677   6.009
 3958SOL    HW112773   5.759   0.750   5.986
 3958SOL    HW212774   5.662   0.689   6.102
 3959SOL     OW12775   3.579   5.923   1.079
 3959SOL    HW112776   3.487   5.913   1.119
 3959SOL    HW212777   3.578   5.995   1.010
 3960SOL     OW12778   4.472   1.324   6.745
 3960SOL    HW112779   4.531   1.307   6.666
 3960SOL    HW212780   4.393   1.378   6.716
 3961SOL     OW12781   5.760   2.363   2.348
 3961SOL    HW112782   5.758   2.265   2.329
 3961SOL    HW212783   5.837   2.405   2.301
 3962SOL     OW12784   2.585   4.939   6.844
 3962SOL    HW112785   2.607   4.882   6.765
 3962SOL    HW212786   2.667   4.988   6.873
 3963SOL     OW12787   4.670   4.296   4.103
 3963SOL    HW112788   4.644   4.379   4.054
 3963SOL    HW212789   4.691   4.223   4.038
 3964SOL     OW12790   3.821   5.105   3.714
 3964SOL    HW112791   3.884   5.119   3.638
 3964SOL    HW212792   3.734   5.071   3.680
 3965SOL     OW12793   4.632   3.107   6.134
 3965SOL    HW112794   4.646   3.202   6.161
 3965SOL    HW212795   4.534   3.089   6.126
 3966SOL     OW12796   5.213   6.017   0.762
 3966SOL    HW112797   5.116   6.043   0.766
 3966SOL    HW212798   5.221   5.918   0.770
 3967SOL     OW12799   1.451   3.982   2.015
 3967SOL    HW112800   1.434   3.956   1.920
 3967SOL    HW212801   1.546   4.012   2.025
 3968SOL     OW12802   4.955   0.434   1.076
 3968SOL    HW112803   4.863   0.429   1.037
 3968SOL    HW212804   4.987   0.529   1.071
 3969SOL     OW12805   1.709   3.975   2.383
 3969SOL    HW112806   1.665   3.909   2.321
 3969SOL    HW212807   1.685   4.068   2.355
 3970SOL     OW12808   5.334   5.921   3.930
 3970SOL    HW112809   5.327   5.832   3.974
 3970SOL    HW212810   5.395   5.915   3.852
 3971SOL     OW12811   2.570   4.901   1.705
 3971SOL    HW112812   2.653   4.927   1.753
 3971SOL    HW212813   2.551   4.966   1.632
 3972SOL     OW12814   0.965   5.312   0.695
 3972SOL    HW112815   1.039   5.255   0.660
 3972SOL    HW212816   0.973   5.319   0.795
 3973SOL     OW12817   0.995   4.693   5.779
 3973SOL    HW112818   1.063   4.623   5.802
 3973SOL    HW212819   0.957   4.674   5.688
 3974SOL     OW12820   1.330   0.673   4.553
 3974SOL    HW112821   1.240   0.638   4.529
 3974SOL    HW212822   1.364   0.625   4.634
 3975SOL     OW12823   5.986   0.716   5.647
 3975SOL    HW112824   6.033   0.749   5.728
 3975SOL    HW212825   5.896   0.760   5.640
 3976SOL     OW12826   1.611   6.417   1.770
 3976SOL    HW112827   1.562   6.491   1.724
 3976SOL    HW212828   1.650   6.355   1.702
 3977SOL     OW12829   3.124   4.159   5.699
 3977SOL    HW112830   3.150   4.071   5.739
 3977SOL    HW212831   3.184   4.230   5.736
 3978SOL     OW12832   5.264   6.378   5.201
 3978SOL    HW112833   5.343   6.417   5.153
 3978SOL    HW212834   5.189   6.364   5.137
 3979SOL     OW12835   3.041   5.818   0.379
 3979SOL    HW112836   3.103   5.879   0.328
 3979SOL    HW212837   3.092   5.738   0.410
 3980SOL     OW12838   0.396   5.630   0.282
 3980SOL    HW112839   0.346   5.715   0.299
 3980SOL    HW212840   0.336   5.566   0.234
 3981SOL     OW12841   2.003   1.239   0.578
 3981SOL    HW112842   1.961   1.324   0.610
 3981SOL    HW212843   2.039   1.252   0.486
 3982SOL     OW12844   1.849   0.205   4.331
 3982SOL    HW112845   1.794   0.200   4.248
 3982SOL    HW212846   1.812   0.141   4.399
 3983SOL     OW12847   5.201   5.413   4.713
 3983SOL    HW112848   5.161   5.339   4.766
 3983SOL    HW212849   5.222   5.490   4.773
 3984SOL     OW12850   7.009   0.843   2.857
 3984SOL    HW112851   0.080   0.814   2.860
 3984SOL    HW212852   6.963   0.799   2.780
 3985SOL     OW12853   3.819   4.536   6.676
 3985SOL    HW112854   3.829   4.451   6.623
 3985SOL    HW212855   3.867   4.610   6.629
 3986SOL     OW12856   6.544   1.745   3.056
 3986SOL    HW112857   6.473   1.763   2.989
 3986SOL    HW212858   6.623   1.702   3.012
 3987SOL     OW12859   2.868   5.098   3.712
 3987SOL    HW112860   2.915   5.061   3.792
 3987SOL    HW212861   2.901   5.190   3.693
 3988SOL     OW12862   4.132   4.012   6.757
 3988SOL    HW112863   4.104   3.961   6.675
 3988SOL    HW212864   4.078   3.981   6.835
 3989SOL     OW12865   6.779   2.540   6.675
 3989SOL    HW112866   6.709   2.514   6.742
 3989SOL    HW212867   6.738   2.594   6.602
 3990SOL     OW12868   5.190   2.342   3.140
 3990SOL    HW112869   5.237   2.397   3.071
 3990SOL    HW212870   5.233   2.357   3.229
 3991SOL     OW12871   6.010   0.935   2.221
 3991SOL    HW112872   6.041   1.006   2.284
 3991SOL    HW212873   6.013   0.969   2.127
 3992SOL     OW12874   3.827   2.149   6.884
 3992SOL    HW112875   3.789   2.068   6.929
 3992SOL    HW212876   3.752   2.201   6.842
 3993SOL     OW12877   0.946   1.600   3.019
 3993SOL    HW112878   0.847   1.607   3.001
 3993SOL    HW212879   0.983   1.692   3.037
 3994SOL     OW12880   0.767   0.878   6.195
 3994SOL    HW112881   0.734   0.938   6.268
 3994SOL    HW212882   0.861   0.850   6.215
 3995SOL     OW12883   2.108   3.832   5.552
 3995SOL    HW112884   2.039   3.767   5.521
 3995SOL    HW212885   2.153   3.873   5.473
 3996SOL     OW12886   0.924   1.364   4.388
 3996SOL    HW112887   0.953   1.352   4.293
 3996SOL    HW212888   1.003   1.356   4.448
 3997SOL     OW12889   5.135   1.162   3.546
 3997SOL    HW112890   5.083   1.116   3.474
 3997SOL    HW212891   5.096   1.138   3.635
 3998SOL     OW12892   4.589   1.009   3.545
 3998SOL    HW112893   4.522   1.052   3.484
 3998SOL    HW212894   4.543   0.974   3.626
 3999SOL     OW12895   5.932   3.475   3.841
 3999SOL    HW112896   5.937   3.378   3.816
 3999SOL    HW212897   6.002   3.495   3.909
 4000SOL     OW12898   2.878   5.510   3.125
 4000SOL    HW112899   2.874   5.563   3.210
 4000SOL    HW212900   2.869   5.572   3.047
 4001SOL     OW12901   2.651   2.154   4.183
 4001SOL    HW112902   2.737   2.111   4.155
 4001SOL    HW212903   2.670   2.233   4.241
 4002SOL     OW12904   2.844   3.214   0.813
 4002SOL    HW112905   2.849   3.306   0.774
 4002SOL    HW212906   2.765   3.166   0.775
 4003SOL     OW12907   3.024   6.118   3.985
 4003SOL    HW112908   3.018   6.136   3.886
 4003SOL    HW212909   3.116   6.085   4.007
 4004SOL     OW12910   5.523   2.203   4.369
 4004SOL    HW112911   5.561   2.241   4.285
 4004SOL    HW212912   5.428   2.175   4.353
 4005SOL     OW12913   4.517   5.916   0.496
 4005SOL    HW112914   4.487   5.985   0.563
 4005SOL    HW212915   4.501   5.824   0.533
 4006SOL     OW12916   3.334   5.456   3.277
 4006SOL    HW112917   3.350   5.384   3.345
 4006SOL    HW212918   3.399   5.530   3.292
 4007SOL     OW12919   0.776   2.759   1.483
 4007SOL    HW112920   0.801   2.855   1.493
 4007SOL    HW212921   0.858   2.705   1.464
 4008SOL     OW12922   3.009   1.937   3.499
 4008SOL    HW112923   3.056   1.886   3.571
 4008SOL    HW212924   2.923   1.891   3.476
 4009SOL     OW12925   5.097   3.343   1.182
 4009SOL    HW112926   5.003   3.308   1.182
 4009SOL    HW212927   5.139   3.323   1.093
 4010SOL     OW12928   2.296   2.553   2.007
 4010SOL    HW112929   2.264   2.458   2.013
 4010SOL    HW212930   2.219   2.614   1.991
 4011SOL     OW12931   0.314   0.841   2.220
 4011SOL    HW112932   0.276   0.825   2.129
 4011SOL    HW212933   0.403   0.796   2.227
 4012SOL     OW12934   4.097   5.466   1.461
 4012SOL    HW112935   4.142   5.409   1.530
 4012SOL    HW212936   4.164   5.526   1.418
 4013SOL     OW12937   2.731   6.804   6.341
 4013SOL    HW112938   2.647   6.795   6.287
 4013SOL    HW212939   2.762   6.713   6.369
 4014SOL     OW12940   4.529   5.948   3.114
 4014SOL    HW112941   4.470   6.028   3.103
 4014SOL    HW212942   4.546   5.907   3.024
 4015SOL     OW12943   4.950   5.343   6.156
 4015SOL    HW112944   5.026   5.291   6.195
 4015SOL    HW212945   4.889   5.373   6.229
 4016SOL     OW12946   2.380   5.523   6.301
 4016SOL    HW112947   2.391   5.425   6.281
 4016SOL    HW212948   2.340   5.534   6.392
 4017SOL     OW12949   0.477   5.903   1.150
 4017SOL    HW112950   0.421   5.839   1.203
 4017SOL    HW212951   0.557   5.929   1.204
 4018SOL     OW12952   4.894   6.099   3.467
 4018SOL    HW112953   4.993   6.110   3.467
 4018SOL    HW212954   4.852   6.179   3.422
 4019SOL     OW12955   5.818   4.002   2.888
 4019SOL    HW112956   5.882   3.978   2.961
 4019SOL    HW212957   5.858   3.978   2.799
 4020SOL     OW12958   4.953   2.014   5.838
 4020SOL    HW112959   5.040   2.007   5.886
 4020SOL    HW212960   4.882   2.045   5.901
 4021SOL     OW12961   3.556   3.965   6.262
 4021SOL    HW112962   3.539   3.887   6.202
 4021SOL    HW212963   3.480   3.975   6.327
 4022SOL     OW12964   4.073   0.348   6.849
 4022SOL    HW112965   4.034   0.272   6.901
 4022SOL    HW212966   4.075   0.324   6.752
 4023SOL     OW12967   6.427   1.902   4.725
 4023SOL    HW112968   6.330   1.882   4.718
 4023SOL    HW212969   6.471   1.885   4.637
 4024SOL     OW12970   3.781   5.906   3.204
 4024SOL    HW112971   3.716   5.834   3.182
 4024SOL    HW212972   3.796   5.963   3.123
 4025SOL     OW12973   1.064   5.863   4.213
 4025SOL    HW112974   0.993   5.795   4.194
 4025SOL    HW212975   1.143   5.818   4.255
 4026SOL     OW12976   6.037   6.220   4.129
 4026SOL    HW112977   5.993   6.287   4.070
 4026SOL    HW212978   6.135   6.239   4.134
 4027SOL     OW12979   3.758   3.916   1.895
 4027SOL    HW112980   3.818   3.924   1.974
 4027SOL    HW212981   3.678   3.861   1.920
 4028SOL     OW12982   1.190   2.122   3.961
 4028SOL    HW112983   1.099   2.148   3.994
 4028SOL    HW212984   1.188   2.115   3.861
 4029SOL     OW12985   1.694   4.241   6.609
 4029SOL    HW112986   1.794   4.234   6.610
 4029SOL    HW212987   1.655   4.158   6.569
 4030SOL     OW12988   1.448   2.165   5.874
 4030SOL    HW112989   1.372   2.148   5.937
 4030SOL    HW212990   1.525   2.205   5.924
 4031SOL     OW12991   4.868   5.823   3.225
 4031SOL    HW112992   4.888   5.774   3.140
 4031SOL    HW212993   4.783   5.787   3.264
 4032SOL     OW12994   5.784   7.014   2.876
 4032SOL    HW112995   5.731   0.059   2.826
 4032SOL    HW212996   5.828   0.033   2.955
 4033SOL     OW12997   3.389   2.932   3.447
 4033SOL    HW112998   3.477   2.909   3.488
 4033SOL    HW212999   3.401   2.953   3.350
 4034SOL     OW13000   5.188   1.322   5.382
 4034SOL    HW113001   5.280   1.336   5.417
 4034SOL    HW213002   5.148   1.241   5.423
 4035SOL     OW13003   6.658   4.280   1.163
 4035SOL    HW113004   6.566   4.265   1.198
 4035SOL    HW213005   6.652   4.323   1.072
 4036SOL     OW13006   5.457   6.558   2.345
 4036SOL    HW113007   5.372   6.533   2.391
 4036SOL    HW213008   5.506   6.627   2.399
 4037SOL     OW13009   1.941   2.876   0.658
 4037SOL    HW113010   2.017   2.811   0.662
 4037SOL    HW213011   1.957   2.949   0.725
 4038SOL     OW13012   4.629   4.894   1.963
 4038SOL    HW113013   4.611   4.924   1.869
 4038SOL    HW213014   4.576   4.950   2.027
 4039SOL     OW13015   4.691   5.066   1.072
 4039SOL    HW113016   4.690   5.007   1.152
 4039SOL    HW213017   4.707   5.011   0.990
 4040SOL     OW13018   2.772   6.493   0.226
 4040SOL    HW113019   2.680   6.469   0.195
 4040SOL    HW213020   2.771   6.506   0.325
 4041SOL     OW13021   1.723   6.048   2.318
 4041SOL    HW113022   1.669   6.133   2.317
 4041SOL    HW213023   1.781   6.045   2.236
 4042SOL     OW13024   6.090   4.666   2.306
 4042SOL    HW113025   6.126   4.648   2.397
 4042SOL    HW213026   6.165   4.682   2.242
 4043SOL     OW13027   5.818   1.964   3.903
 4043SOL    HW113028   5.794   2.054   3.867
 4043SOL    HW213029   5.879   1.975   3.981
 4044SOL     OW13030   5.999   0.700   4.525
 4044SOL    HW113031   5.907   0.737   4.531
 4044SOL    HW213032   5.996   0.605   4.492
 4045SOL     OW13033   2.730   4.208   6.054
 4045SOL    HW113034   2.799   4.280   6.048
 4045SOL    HW213035   2.644   4.242   6.016
 4046SOL     OW13036   0.789   2.190   3.187
 4046SOL    HW113037   0.828   2.145   3.267
 4046SOL    HW213038   0.820   2.285   3.185
 4047SOL     OW13039   2.431   3.574   0.610
 4047SOL    HW113040   2.365   3.607   0.678
 4047SOL    HW213041   2.406   3.608   0.520
 4048SOL     OW13042   5.871   0.907   1.762
 4048SOL    HW113043   5.808   0.955   1.700
 4048SOL    HW213044   5.893   0.818   1.723
 4049SOL     OW13045   6.317   6.251   6.770
 4049SOL    HW113046   6.370   6.316   6.825
 4049SOL    HW213047   6.353   6.251   6.677
 4050SOL     OW13048   1.814   6.895   7.015
 4050SOL    HW113049   1.838   6.992   7.011
 4050SOL    HW213050   1.895   6.841   0.014
 4051SOL     OW13051   2.908   4.055   6.985
 4051SOL    HW113052   2.952   3.968   7.009
 4051SOL    HW213053   2.856   4.044   6.900
 4052SOL     OW13054   1.270   6.990   1.232
 4052SOL    HW113055   1.261   0.031   1.307
 4052SOL    HW213056   1.181   6.948   1.213
 4053SOL     OW13057   3.285   4.925   3.855
 4053SOL    HW113058   3.328   4.891   3.938
 4053SOL    HW213059   3.313   5.020   3.839
 4054SOL     OW13060   2.410   3.279   0.655
 4054SOL    HW113061   2.493   3.224   0.664
 4054SOL    HW213062   2.429   3.373   0.682
 4055SOL     OW13063   3.072   3.187   5.884
 4055SOL    HW113064   2.989   3.228   5.845
 4055SOL    HW213065   3.153   3.232   5.847
 4056SOL     OW13066   4.622   3.210   6.437
 4056SOL    HW113067   4.590   3.299   6.403
 4056SOL    HW213068   4.722   3.208   6.435
 4057SOL     OW13069   4.991   3.634   0.672
 4057SOL    HW113070   5.066   3.690   0.706
 4057SOL    HW213071   5.022   3.583   0.592
 4058SOL     OW13072   1.987   1.259   4.753
 4058SOL    HW113073   2.034   1.346   4.739
 4058SOL    HW213074   2.037   1.205   4.822
 4059SOL     OW13075   2.143   2.354   3.511
 4059SOL    HW113076   2.090   2.423   3.460
 4059SOL    HW213077   2.203   2.305   3.448
 4060SOL     OW13078   3.619   4.870   5.167
 4060SOL    HW113079   3.698   4.814   5.192
 4060SOL    HW213080   3.647   4.939   5.100
 4061SOL     OW13081   3.553   4.336   1.698
 4061SOL    HW113082   3.469   4.303   1.740
 4061SOL    HW213083   3.573   4.429   1.729
 4062SOL     OW13084   4.445   1.642   3.217
 4062SOL    HW113085   4.405   1.654   3.308
 4062SOL    HW213086   4.536   1.601   3.225
 4063SOL     OW13087   4.454   6.087   6.163
 4063SOL    HW113088   4.406   6.152   6.105
 4063SOL    HW213089   4.546   6.070   6.127
 4064SOL     OW13090   2.323   6.410   2.596
 4064SOL    HW113091   2.353   6.505   2.609
 4064SOL    HW213092   2.343   6.382   2.502
 4065SOL     OW13093   0.488   0.140   0.570
 4065SOL    HW113094   0.549   0.080   0.518
 4065SOL    HW213095   0.527   0.232   0.573
 4066SOL     OW13096   5.348   4.820   1.899
 4066SOL    HW113097   5.432   4.788   1.856
 4066SOL    HW213098   5.315   4.902   1.852
 4067SOL     OW13099   5.601   1.719   3.021
 4067SOL    HW113100   5.606   1.779   3.101
 4067SOL    HW213101   5.538   1.757   2.954
 4068SOL     OW13102   4.790   0.328   5.113
 4068SOL    HW113103   4.867   0.283   5.068
 4068SOL    HW213104   4.728   0.365   5.044
 4069SOL     OW13105   4.537   3.777   0.157
 4069SOL    HW113106   4.496   3.798   0.246
 4069SOL    HW213107   4.545   3.862   0.104
 4070SOL     OW13108   1.716   3.483   2.658
 4070SOL    HW113109   1.717   3.542   2.577
 4070SOL    HW213110   1.788   3.415   2.651
 4071SOL     OW13111   1.480   0.858   5.020
 4071SOL    HW113112   1.418   0.906   4.957
 4071SOL    HW213113   1.570   0.849   4.978
 4072SOL     OW13114   1.668   6.362   4.433
 4072SOL    HW113115   1.712   6.407   4.355
 4072SOL    HW213116   1.610   6.288   4.400
 4073SOL     OW13117   2.004   5.552   5.816
 4073SOL    HW113118   2.028   5.472   5.760
 4073SOL    HW213119   2.050   5.633   5.778
 4074SOL     OW13120   0.548   3.029   2.148
 4074SOL    HW113121   0.574   2.995   2.239
 4074SOL    HW213122   0.596   2.975   2.078
 4075SOL     OW13123   4.691   2.043   2.678
 4075SOL    HW113124   4.722   2.096   2.599
 4075SOL    HW213125   4.706   1.946   2.662
 4076SOL     OW13126   2.407   4.075   5.426
 4076SOL    HW113127   2.481   4.130   5.463
 4076SOL    HW213128   2.444   3.999   5.373
 4077SOL     OW13129   2.350   6.187   0.729
 4077SOL    HW113130   2.442   6.206   0.762
 4077SOL    HW213131   2.310   6.270   0.691
 4078SOL     OW13132   6.053   5.089   1.881
 4078SOL    HW113133   6.122   5.018   1.895
 4078SOL    HW213134   6.000   5.101   1.964
 4079SOL     OW13135   1.714   0.409   3.381
 4079SOL    HW113136   1.733   0.419   3.283
 4079SOL    HW213137   1.634   0.465   3.405
 4080SOL     OW13138   3.244   3.966   0.163
 4080SOL    HW113139   3.305   3.888   0.150
 4080SOL    HW213140   3.153   3.943   0.130
 4081SOL     OW13141   2.177   1.107   4.861
 4081SOL    HW113142   2.247   1.038   4.841
 4081SOL    HW213143   2.206   1.162   4.939
 4082SOL     OW13144   1.708   1.558   6.315
 4082SOL    HW113145   1.693   1.656   6.300
 4082SOL    HW213146   1.635   1.506   6.270
 4083SOL     OW13147   5.870   4.632   3.286
 4083SOL    HW113148   5.937   4.573   3.241
 4083SOL    HW213149   5.899   4.651   3.380
 4084SOL     OW13150   4.702   2.735   3.393
 4084SOL    HW113151   4.743   2.750   3.483
 4084SOL    HW213152   4.732   2.807   3.330
 4085SOL     OW13153   2.750   5.127   1.403
 4085SOL    HW113154   2.735   5.184   1.484
 4085SOL    HW213155   2.676   5.141   1.338
 4086SOL     OW13156   0.104   5.395   0.607
 4086SOL    HW113157   0.114   5.473   0.545
 4086SOL    HW213158   0.010   5.392   0.641
 4087SOL     OW13159   2.989   0.568   3.029
 4087SOL    HW113160   3.083   0.596   3.047
 4087SOL    HW213161   2.973   0.477   3.068
 4088SOL     OW13162   6.583   1.193   5.733
 4088SOL    HW113163   6.486   1.176   5.717
 4088SOL    HW213164   6.612   1.149   5.817
 4089SOL     OW13165   0.268   5.655   4.262
 4089SOL    HW113166   0.334   5.711   4.311
 4089SOL    HW213167   0.313   5.571   4.230
 4090SOL     OW13168   2.071   6.330   5.211
 4090SOL    HW113169   2.139   6.369   5.150
 4090SOL    HW213170   2.090   6.358   5.305
 4091SOL     OW13171   1.133   5.155   0.560
 4091SOL    HW113172   1.170   5.230   0.504
 4091SOL    HW213173   1.206   5.089   0.578
 4092SOL     OW13174   4.974   3.428   4.868
 4092SOL    HW113175   4.928   3.340   4.858
 4092SOL    HW213176   4.917   3.489   4.923
 4093SOL     OW13177   6.229   5.989   1.666
 4093SOL    HW113178   6.224   6.007   1.765
 4093SOL    HW213179   6.140   5.958   1.633
 4094SOL     OW13180   0.749   4.394   0.039
 4094SOL    HW113181   0.809   4.453   0.093
 4094SOL    HW213182   0.800   4.315   0.006
 4095SOL     OW13183   0.417   3.566   0.020
 4095SOL    HW113184   0.361   3.627   6.987
 4095SOL    HW213185   0.370   3.479   0.032
 4096SOL     OW13186   2.260   1.107   6.671
 4096SOL    HW113187   2.278   1.056   6.755
 4096SOL    HW213188   2.308   1.195   6.675
 4097SOL     OW13189   6.193   4.257   5.333
 4097SOL    HW113190   6.253   4.297   5.263
 4097SOL    HW213191   6.175   4.325   5.403
 4098SOL     OW13192   1.974   3.325   1.631
 4098SOL    HW113193   2.043   3.311   1.703
 4098SOL    HW213194   1.988   3.414   1.588
 4099SOL     OW13195   4.084   4.902   6.777
 4099SOL    HW113196   4.170   4.944   6.750
 4099SOL    HW213197   4.079   4.895   6.877
 4100SOL     OW13198   0.888   0.954   3.894
 4100SOL    HW113199   0.860   0.860   3.873
 4100SOL    HW213200   0.812   1.016   3.876
 4101SOL     OW13201   6.660   1.198   6.424
 4101SOL    HW113202   6.757   1.213   6.405
 4101SOL    HW213203   6.627   1.269   6.487
 4102SOL     OW13204   2.007   0.675   0.611
 4102SOL    HW113205   2.054   0.730   0.680
 4102SOL    HW213206   1.992   0.583   0.647
 4103SOL     OW13207   7.003   0.019   2.320
 4103SOL    HW113208   0.012   6.950   2.331
 4103SOL    HW213209   0.051   0.076   2.280
 4104SOL     OW13210   0.164   5.630   2.999
 4104SOL    HW113211   0.073   5.659   2.970
 4104SOL    HW213212   0.203   5.570   2.929
 4105SOL     OW13213   4.955   1.160   1.668
 4105SOL    HW113214   4.999   1.090   1.613
 4105SOL    HW213215   5.024   1.214   1.717
 4106SOL     OW13216   6.726   2.612   4.259
 4106SOL    HW113217   6.642   2.560   4.244
 4106SOL    HW213218   6.795   2.583   4.193
 4107SOL     OW13219   0.381   6.306   6.675
 4107SOL    HW113220   0.357   6.385   6.617
 4107SOL    HW213221   0.395   6.337   6.769
 4108SOL     OW13222   1.039   5.644   3.913
 4108SOL    HW113223   1.126   5.693   3.922
 4108SOL    HW213224   1.016   5.633   3.817
 4109SOL     OW13225   5.812   5.570   3.898
 4109SOL    HW113226   5.783   5.666   3.895
 4109SOL    HW213227   5.912   5.565   3.895
 4110SOL     OW13228   4.465   2.998   6.913
 4110SOL    HW113229   4.503   2.911   6.943
 4110SOL    HW213230   4.495   3.018   6.820
 4111SOL     OW13231   5.998   5.323   6.320
 4111SOL    HW113232   6.090   5.324   6.360
 4111SOL    HW213233   5.930   5.311   6.392
 4112SOL     OW13234   4.975   6.906   4.690
 4112SOL    HW113235   4.910   6.975   4.659
 4112SOL    HW213236   4.977   6.904   4.790
 4113SOL     OW13237   4.360   5.276   4.879
 4113SOL    HW113238   4.278   5.259   4.824
 4113SOL    HW213239   4.338   5.338   4.954
 4114SOL     OW13240   6.098   1.521   3.219
 4114SOL    HW113241   6.122   1.578   3.140
 4114SOL    HW213242   6.081   1.580   3.298
 4115SOL     OW13243   3.134   4.911   3.283
 4115SOL    HW113244   3.042   4.873   3.296
 4115SOL    HW213245   3.188   4.896   3.366
 4116SOL     OW13246   5.332   2.408   3.405
 4116SOL    HW113247   5.403   2.354   3.450
 4116SOL    HW213248   5.365   2.501   3.388
 4117SOL     OW13249   1.276   2.023   2.466
 4117SOL    HW113250   1.339   1.947   2.449
 4117SOL    HW213251   1.309   2.105   2.420
 4118SOL     OW13252   6.091   6.835   6.582
 4118SOL    HW113253   6.166   6.893   6.549
 4118SOL    HW213254   6.005   6.887   6.580
 4119SOL     OW13255   3.142   0.764   3.441
 4119SOL    HW113256   3.107   0.812   3.520
 4119SOL    HW213257   3.165   0.670   3.466
 4120SOL     OW13258   4.313   1.612   6.419
 4120SOL    HW113259   4.226   1.661   6.411
 4120SOL    HW213260   4.366   1.624   6.335
 4121SOL     OW13261   6.768   6.234   2.331
 4121SOL    HW113262   6.827   6.306   2.367
 4121SOL    HW213263   6.761   6.243   2.231
 4122SOL     OW13264   0.286   5.868   4.858
 4122SOL    HW113265   0.190   5.865   4.883
 4122SOL    HW213266   0.296   5.852   4.760
 4123SOL     OW13267   4.231   5.590   4.637
 4123SOL    HW113268   4.281   5.508   4.610
 4123SOL    HW213269   4.204   5.641   4.556
 4124SOL     OW13270   6.685   6.799   1.274
 4124SOL    HW113271   6.610   6.829   1.333
 4124SOL    HW213272   6.667   6.829   1.180
 4125SOL     OW13273   4.906   2.676   3.021
 4125SOL    HW113274   4.819   2.638   3.053
 4125SOL    HW213275   4.895   2.707   2.926
 4126SOL     OW13276   1.658   3.073   2.168
 4126SOL    HW113277   1.636   3.048   2.074
 4126SOL    HW213278   1.577   3.115   2.210
 4127SOL     OW13279   4.352   2.372   4.642
 4127SOL    HW113280   4.273   2.346   4.586
 4127SOL    HW213281   4.417   2.423   4.587
 4128SOL     OW13282   0.301   3.140   2.053
 4128SOL    HW113283   0.249   3.170   2.133
 4128SOL    HW213284   0.373   3.077   2.082
 4129SOL     OW13285   3.292   2.264   0.848
 4129SOL    HW113286   3.230   2.293   0.775
 4129SOL    HW213287   3.242   2.261   0.935
 4130SOL     OW13288   6.292   2.527   0.606
 4130SOL    HW113289   6.243   2.579   0.536
 4130SOL    HW213290   6.238   2.527   0.691
 4131SOL     OW13291   6.261   0.485   2.763
 4131SOL    HW113292   6.257   0.574   2.717
 4131SOL    HW213293   6.284   0.497   2.859
 4132SOL     OW13294   6.228   4.389   3.976
 4132SOL    HW113295   6.215   4.371   4.074
 4132SOL    HW213296   6.325   4.378   3.953
 4133SOL     OW13297   5.079   6.310   0.943
 4133SOL    HW113298   5.157   6.310   1.006
 4133SOL    HW213299   5.088   6.387   0.880
 4134SOL     OW13300   2.228   3.579   0.835
 4134SOL    HW113301   2.204   3.645   0.906
 4134SOL    HW213302   2.147   3.525   0.811
 4135SOL     OW13303   0.445   1.981   2.620
 4135SOL    HW113304   0.495   2.065   2.595
 4135SOL    HW213305   0.471   1.907   2.558
 4136SOL     OW13306   0.912   3.647   1.465
 4136SOL    HW113307   0.981   3.664   1.395
 4136SOL    HW213308   0.878   3.734   1.501
 4137SOL     OW13309   1.138   2.858   6.925
 4137SOL    HW113310   1.136   2.912   7.009
 4137SOL    HW213311   1.051   2.867   6.877
 4138SOL     OW13312   4.235   5.017   1.008
 4138SOL    HW113313   4.170   5.001   1.082
 4138SOL    HW213314   4.321   5.053   1.045
 4139SOL     OW13315   1.474   2.138   3.980
 4139SOL    HW113316   1.375   2.149   3.968
 4139SOL    HW213317   1.518   2.227   3.975
 4140SOL     OW13318   2.956   2.200   3.769
 4140SOL    HW113319   3.052   2.174   3.757
 4140SOL    HW213320   2.944   2.242   3.858
 4141SOL     OW13321   4.628   0.077   6.727
 4141SOL    HW113322   4.555   0.145   6.733
 4141SOL    HW213323   4.694   0.092   6.800
 4142SOL     OW13324   6.768   3.919   1.938
 4142SOL    HW113325   6.803   3.968   1.858
 4142SOL    HW213326   6.692   3.970   1.978
 4143SOL     OW13327   5.624   3.505   1.045
 4143SOL    HW113328   5.557   3.575   1.019
 4143SOL    HW213329   5.576   3.419   1.065
 4144SOL     OW13330   5.094   1.785   0.558
 4144SOL    HW113331   5.118   1.708   0.617
 4144SOL    HW213332   5.178   1.826   0.523
 4145SOL     OW13333   1.002   6.315   0.520
 4145SOL    HW113334   0.990   6.413   0.505
 4145SOL    HW213335   0.921   6.266   0.489
 4146SOL     OW13336   6.132   0.008   3.842
 4146SOL    HW113337   6.160   6.969   3.770
 4146SOL    HW213338   6.208   0.020   3.906
 4147SOL     OW13339   5.431   4.758   6.152
 4147SOL    HW113340   5.346   4.811   6.157
 4147SOL    HW213341   5.454   4.723   6.243
 4148SOL     OW13342   2.822   0.204   5.481
 4148SOL    HW113343   2.818   0.187   5.383
 4148SOL    HW213344   2.745   0.263   5.508
 4149SOL     OW13345   0.572   3.151   1.449
 4149SOL    HW113346   0.646   3.115   1.392
 4149SOL    HW213347   0.545   3.242   1.415
 4150SOL     OW13348   6.440   2.401   5.422
 4150SOL    HW113349   6.420   2.414   5.519
 4150SOL    HW213350   6.525   2.349   5.412
 4151SOL     OW13351   1.808   0.144   5.169
 4151SOL    HW113352   1.902   0.169   5.190
 4151SOL    HW213353   1.784   0.060   5.217
 4152SOL     OW13354   4.020   5.598   1.987
 4152SOL    HW113355   4.043   5.665   1.916
 4152SOL    HW213356   4.030   5.506   1.950
 4153SOL     OW13357   6.493   5.254   1.516
 4153SOL    HW113358   6.477   5.196   1.436
 4153SOL    HW213359   6.408   5.298   1.543
 4154SOL     OW13360   0.406   5.777   3.043
 4154SOL    HW113361   0.441   5.711   3.109
 4154SOL    HW213362   0.310   5.757   3.024
 4155SOL     OW13363   6.635   2.127   1.373
 4155SOL    HW113364   6.632   2.124   1.273
 4155SOL    HW213365   6.542   2.134   1.409
 4156SOL     OW13366   6.382   5.390   4.874
 4156SOL    HW113367   6.317   5.345   4.813
 4156SOL    HW213368   6.341   5.474   4.910
 4157SOL     OW13369   6.306   6.047   2.396
 4157SOL    HW113370   6.249   6.027   2.475
 4157SOL    HW213371   6.384   6.103   2.424
 4158SOL     OW13372   1.786   2.692   1.720
 4158SOL    HW113373   1.857   2.668   1.786
 4158SOL    HW213374   1.807   2.781   1.678
 4159SOL     OW13375   2.695   2.285   3.046
 4159SOL    HW113376   2.670   2.202   3.096
 4159SOL    HW213377   2.656   2.364   3.093
 4160SOL     OW13378   5.601   0.412   0.049
 4160SOL    HW113379   5.580   0.353   0.127
 4160SOL    HW213380   5.569   0.505   0.067
 4161SOL     OW13381   1.873   2.206   1.568
 4161SOL    HW113382   1.956   2.227   1.619
 4161SOL    HW213383   1.860   2.275   1.496
 4162SOL     OW13384   6.254   5.927   1.045
 4162SOL    HW113385   6.277   5.861   1.117
 4162SOL    HW213386   6.337   5.972   1.012
 4163SOL     OW13387   5.733   1.307   2.520
 4163SOL    HW113388   5.719   1.216   2.559
 4163SOL    HW213389   5.653   1.364   2.537
 4164SOL     OW13390   0.513   0.019   5.636
 4164SOL    HW113391   0.442   6.982   5.600
 4164SOL    HW213392   0.578   0.041   5.563
 4165SOL     OW13393   4.468   6.767   5.901
 4165SOL    HW113394   4.554   6.782   5.950
 4165SOL    HW213395   4.394   6.754   5.967
 4166SOL     OW13396   6.149   1.113   1.597
 4166SOL    HW113397   6.187   1.206   1.593
 4166SOL    HW213398   6.172   1.064   1.513
 4167SOL     OW13399   2.620   4.872   5.840
 4167SOL    HW113400   2.578   4.810   5.773
 4167SOL    HW213401   2.719   4.859   5.840
 4168SOL     OW13402   0.058   4.121   0.624
 4168SOL    HW113403   0.040   4.065   0.544
 4168SOL    HW213404   0.149   4.099   0.661
 4169SOL     OW13405   6.002   3.695   5.366
 4169SOL    HW113406   5.973   3.627   5.433
 4169SOL    HW213407   5.934   3.768   5.362
 4170SOL     OW13408   4.930   3.100   5.130
 4170SOL    HW113409   4.986   3.183   5.137
 4170SOL    HW213410   4.853   3.106   5.194
 4171SOL     OW13411   1.440   5.083   0.891
 4171SOL    HW113412   1.462   5.178   0.914
 4171SOL    HW213413   1.417   5.076   0.794
 4172SOL     OW13414   2.937   3.085   0.320
 4172SOL    HW113415   2.999   3.142   0.375
 4172SOL    HW213416   2.991   3.027   0.259
 4173SOL     OW13417   4.739   2.880   5.630
 4173SOL    HW113418   4.664   2.936   5.594
 4173SOL    HW213419   4.748   2.895   5.729
 4174SOL     OW13420   4.802   1.658   2.816
 4174SOL    HW113421   4.767   1.564   2.816
 4174SOL    HW213422   4.756   1.711   2.744
 4175SOL     OW13423   1.542   4.649   5.097
 4175SOL    HW113424   1.579   4.633   5.006
 4175SOL    HW213425   1.611   4.693   5.154
 4176SOL     OW13426   4.024   6.647   1.055
 4176SOL    HW113427   4.072   6.594   0.985
 4176SOL    HW213428   4.091   6.685   1.118
 4177SOL     OW13429   5.389   4.570   4.866
 4177SOL    HW113430   5.436   4.491   4.826
 4177SOL    HW213431   5.290   4.555   4.862
 4178SOL     OW13432   4.775   0.341   2.748
 4178SOL    HW113433   4.758   0.395   2.665
 4178SOL    HW213434   4.863   0.367   2.787
 4179SOL     OW13435   5.289   4.038   3.492
 4179SOL    HW113436   5.357   4.068   3.424
 4179SOL    HW213437   5.331   3.971   3.553
 4180SOL     OW13438   5.123   2.575   0.719
 4180SOL    HW113439   5.125   2.564   0.818
 4180SOL    HW213440   5.101   2.670   0.697
 4181SOL     OW13441   5.233   1.278   6.644
 4181SOL    HW113442   5.223   1.179   6.647
 4181SOL    HW213443   5.142   1.321   6.641
 4182SOL     OW13444   0.522   5.272   3.647
 4182SOL    HW113445   0.429   5.262   3.611
 4182SOL    HW213446   0.577   5.325   3.583
 4183SOL     OW13447   2.761   1.053   0.486
 4183SOL    HW113448   2.806   1.004   0.411
 4183SOL    HW213449   2.744   0.989   0.561
 4184SOL     OW13450   3.503   0.306   2.132
 4184SOL    HW113451   3.449   0.289   2.214
 4184SOL    HW213452   3.498   0.226   2.072
 4185SOL     OW13453   0.703   3.918   2.756
 4185SOL    HW113454   0.797   3.887   2.741
 4185SOL    HW213455   0.687   4.003   2.705
 4186SOL     OW13456   2.382   5.781   6.621
 4186SOL    HW113457   2.350   5.874   6.603
 4186SOL    HW213458   2.336   5.717   6.559
 4187SOL     OW13459   2.735   3.327   6.636
 4187SOL    HW113460   2.821   3.336   6.686
 4187SOL    HW213461   2.668   3.280   6.694
 4188SOL     OW13462   5.307   0.978   5.162
 4188SOL    HW113463   5.255   1.060   5.140
 4188SOL    HW213464   5.342   0.937   5.078
 4189SOL     OW13465   3.446   5.345   4.151
 4189SOL    HW113466   3.400   5.257   4.150
 4189SOL    HW213467   3.496   5.355   4.237
 4190SOL     OW13468   0.546   6.856   0.481
 4190SOL    HW113469   0.585   6.847   0.390
 4190SOL    HW213470   0.614   6.894   0.543
 4191SOL     OW13471   5.213   3.634   5.242
 4191SOL    HW113472   5.276   3.708   5.265
 4191SOL    HW213473   5.227   3.558   5.304
 4192SOL     OW13474   1.449   2.019   1.996
 4192SOL    HW113475   1.387   1.942   2.016
 4192SOL    HW213476   1.478   2.014   1.900
 4193SOL     OW13477   5.304   0.789   0.487
 4193SOL    HW113478   5.279   0.692   0.479
 4193SOL    HW213479   5.404   0.798   0.489
 4194SOL     OW13480   5.086   0.018   4.263
 4194SOL    HW113481   5.127   0.068   4.187
 4194SOL    HW213482   5.156   7.021   4.331
 4195SOL     OW13483   4.040   5.023   1.428
 4195SOL    HW113484   4.117   5.040   1.367
 4195SOL    HW213485   4.073   4.977   1.511
 4196SOL     OW13486   0.015   2.442   2.855
 4196SOL    HW113487   0.111   2.436   2.825
 4196SOL    HW213488   0.009   2.418   2.952
 4197SOL     OW13489   4.309   5.080   5.505
 4197SOL    HW113490   4.366   5.132   5.569
 4197SOL    HW213491   4.270   5.143   5.438
 4198SOL     OW13492   6.847   1.371   1.433
 4198SOL    HW113493   6.836   1.276   1.405
 4198SOL    HW213494   6.823   1.379   1.530
 4199SOL     OW13495   0.959   2.455   5.217
 4199SOL    HW113496   1.000   2.369   5.185
 4199SOL    HW213497   0.967   2.461   5.317
 4200SOL     OW13498   2.714   0.452   6.120
 4200SOL    HW113499   2.809   0.423   6.110
 4200SOL    HW213500   2.711   0.545   6.158
 4201SOL     OW13501   6.305   0.249   3.553
 4201SOL    HW113502   6.290   0.232   3.650
 4201SOL    HW213503   6.256   0.331   3.525
 4202SOL     OW13504   2.424   5.280   6.202
 4202SOL    HW113505   2.513   5.234   6.197
 4202SOL    HW213506   2.369   5.239   6.274
 4203SOL     OW13507   5.290   4.211   0.537
 4203SOL    HW113508   5.253   4.199   0.629
 4203SOL    HW213509   5.241   4.286   0.491
 4204SOL     OW13510   3.901   3.564   4.742
 4204SOL    HW113511   3.970   3.634   4.723
 4204SOL    HW213512   3.886   3.509   4.659
 4205SOL     OW13513   4.049   6.128   5.176
 4205SOL    HW113514   3.975   6.061   5.167
 4205SOL    HW213515   4.048   6.189   5.097
 4206SOL     OW13516   6.381   1.888   5.196
 4206SOL    HW113517   6.457   1.859   5.137
 4206SOL    HW213518   6.318   1.813   5.209
 4207SOL     OW13519   1.990   2.687   1.903
 4207SOL    HW113520   2.057   2.748   1.860
 4207SOL    HW213521   2.012   2.676   2.000
 4208SOL     OW13522   6.968   3.599   5.811
 4208SOL    HW113523   6.955   3.698   5.815
 4208SOL    HW213524   0.041   3.579   5.797
 4209SOL     OW13525   0.230   6.408   3.313
 4209SOL    HW113526   0.195   6.370   3.227
 4209SOL    HW213527   0.177   6.372   3.390
 4210SOL     OW13528   3.656   2.931   2.759
 4210SOL    HW113529   3.730   2.998   2.762
 4210SOL    HW213530   3.634   2.901   2.851
 4211SOL     OW13531   3.268   0.863   5.075
 4211SOL    HW113532   3.351   0.833   5.029
 4211SOL    HW213533   3.240   0.952   5.038
 4212SOL     OW13534   6.336   2.020   3.263
 4212SOL    HW113535   6.401   2.000   3.336
 4212SOL    HW213536   6.309   2.116   3.268
 4213SOL     OW13537   2.909   0.053   2.649
 4213SOL    HW113538   2.973   0.045   2.726
 4213SOL    HW213539   2.869   0.145   2.649
 4214SOL     OW13540   0.341   5.548   5.444
 4214SOL    HW113541   0.293   5.492   5.511
 4214SOL    HW213542   0.417   5.595   5.488
 4215SOL     OW13543   5.047   6.998   5.223
 4215SOL    HW113544   5.144   6.996   5.197
 4215SOL    HW213545   5.026   6.920   5.281
 4216SOL     OW13546   1.375   1.136   2.616
 4216SOL    HW113547   1.420   1.173   2.534
 4216SOL    HW213548   1.435   1.070   2.660
 4217SOL     OW13549   0.916   0.878   2.772
 4217SOL    HW113550   0.950   0.972   2.781
 4217SOL    HW213551   0.911   0.836   2.862
 4218SOL     OW13552   3.324   0.453   1.521
 4218SOL    HW113553   3.357   0.502   1.601
 4218SOL    HW213554   3.263   0.512   1.468
 4219SOL     OW13555   4.229   5.779   4.444
 4219SOL    HW113556   4.288   5.826   4.509
 4219SOL    HW213557   4.144   5.831   4.431
 4220SOL     OW13558   6.247   3.610   2.030
 4220SOL    HW113559   6.244   3.513   2.004
 4220SOL    HW213560   6.326   3.654   1.987
 4221SOL     OW13561   5.972   4.094   5.350
 4221SOL    HW113562   6.005   4.088   5.444
 4221SOL    HW213563   6.045   4.131   5.292
 4222SOL     OW13564   6.603   0.818   2.801
 4222SOL    HW113565   6.589   0.890   2.869
 4222SOL    HW213566   6.596   0.729   2.845
 4223SOL     OW13567   3.982   3.783   0.618
 4223SOL    HW113568   4.000   3.806   0.714
 4223SOL    HW213569   3.901   3.725   0.612
 4224SOL     OW13570   5.482   5.188   4.608
 4224SOL    HW113571   5.546   5.264   4.602
 4224SOL    HW213572   5.457   5.173   4.703
 4225SOL     OW13573   2.009   2.567   5.082
 4225SOL    HW113574   2.089   2.592   5.138
 4225SOL    HW213575   1.963   2.489   5.123
 4226SOL     OW13576   1.005   6.166   2.832
 4226SOL    HW113577   0.929   6.196   2.890
 4226SOL    HW213578   0.971   6.145   2.740
 4227SOL     OW13579   3.509   5.607   1.884
 4227SOL    HW113580   3.513   5.692   1.831
 4227SOL    HW213581   3.577   5.543   1.850
 4228SOL     OW13582   0.182   6.463   5.676
 4228SOL    HW113583   0.082   6.473   5.682
 4228SOL    HW213584   0.225   6.551   5.695
 4229SOL     OW13585   4.958   5.865   5.776
 4229SOL    HW113586   5.014   5.796   5.731
 4229SOL    HW213587   5.014   5.916   5.842
 4230SOL     OW13588   2.066   6.616   3.158
 4230SOL    HW113589   2.025   6.634   3.069
 4230SOL    HW213590   2.119   6.695   3.188
 4231SOL     OW13591   5.101   6.776   5.930
 4231SOL    HW113592   5.033   6.707   5.902
 4231SOL    HW213593   5.116   6.840   5.856
 4232SOL     OW13594   1.197   4.165   3.491
 4232SOL    HW113595   1.181   4.100   3.418
 4232SOL    HW213596   1.116   4.170   3.550
 4233SOL     OW13597   6.556   0.799   5.244
 4233SOL    HW113598   6.509   0.814   5.331
 4233SOL    HW213599   6.593   0.706   5.241
 4234SOL     OW13600   2.035   5.269   5.098
 4234SOL    HW113601   2.013   5.190   5.155
 4234SOL    HW213602   2.133   5.289   5.104
 4235SOL     OW13603   6.595   4.432   5.902
 4235SOL    HW113604   6.608   4.412   5.999
 4235SOL    HW213605   6.519   4.496   5.891
 4236SOL     OW13606   6.180   4.071   2.215
 4236SOL    HW113607   6.120   4.047   2.138
 4236SOL    HW213608   6.129   4.127   2.281
 4237SOL     OW13609   5.874   5.289   4.061
 4237SOL    HW113610   5.815   5.208   4.067
 4237SOL    HW213611   5.920   5.290   3.972
 4238SOL     OW13612   1.399   6.784   3.232
 4238SOL    HW113613   1.417   6.844   3.154
 4238SOL    HW213614   1.306   6.749   3.226
 4239SOL     OW13615   4.899   1.692   3.371
 4239SOL    HW113616   4.899   1.665   3.275
 4239SOL    HW213617   4.847   1.776   3.382
 4240SOL     OW13618   2.387   5.666   0.379
 4240SOL    HW113619   2.458   5.635   0.441
 4240SOL    HW213620   2.305   5.691   0.431
 4241SOL     OW13621   5.613   1.282   1.215
 4241SOL    HW113622   5.627   1.365   1.160
 4241SOL    HW213623   5.519   1.281   1.249
 4242SOL     OW13624   3.169   2.054   3.821
 4242SOL    HW113625   3.149   1.964   3.781
 4242SOL    HW213626   3.129   2.060   3.912
 4243SOL     OW13627   5.576   2.382   3.219
 4243SOL    HW113628   5.541   2.461   3.268
 4243SOL    HW213629   5.626   2.323   3.283
 4244SOL     OW13630   4.322   4.318   1.207
 4244SOL    HW113631   4.238   4.274   1.178
 4244SOL    HW213632   4.321   4.332   1.306
 4245SOL     OW13633   6.298   1.871   6.199
 4245SOL    HW113634   6.369   1.933   6.232
 4245SOL    HW213635   6.280   1.801   6.269
 4246SOL     OW13636   6.506   3.775   2.723
 4246SOL    HW113637   6.590   3.731   2.755
 4246SOL    HW213638   6.522   3.874   2.714
 4247SOL     OW13639   2.177   5.867   3.805
 4247SOL    HW113640   2.164   5.880   3.903
 4247SOL    HW213641   2.272   5.840   3.788
 4248SOL     OW13642   3.243   1.622   4.110
 4248SOL    HW113643   3.277   1.710   4.074
 4248SOL    HW213644   3.196   1.572   4.037
 4249SOL     OW13645   6.597   2.566   5.210
 4249SOL    HW113646   6.607   2.503   5.133
 4249SOL    HW213647   6.681   2.619   5.221
 4250SOL     OW13648   6.679   4.326   2.755
 4250SOL    HW113649   6.765   4.307   2.803
 4250SOL    HW213650   6.675   4.271   2.671
 4251SOL     OW13651   6.077   4.582   0.939
 4251SOL    HW113652   6.047   4.644   1.012
 4251SOL    HW213653   6.062   4.487   0.968
 4252SOL     OW13654   5.731   6.645   5.042
 4252SOL    HW113655   5.739   6.641   4.942
 4252SOL    HW213656   5.763   6.734   5.074
 4253SOL     OW13657   3.443   6.902   1.068
 4253SOL    HW113658   3.416   6.806   1.066
 4253SOL    HW213659   3.407   6.945   1.151
 4254SOL     OW13660   1.206   2.753   2.556
 4254SOL    HW113661   1.294   2.778   2.595
 4254SOL    HW213662   1.211   2.758   2.456
 4255SOL     OW13663   5.500   3.638   3.502
 4255SOL    HW113664   5.478   3.701   3.576
 4255SOL    HW213665   5.418   3.619   3.449
 4256SOL     OW13666   1.590   6.953   0.742
 4256SOL    HW113667   1.515   6.928   0.681
 4256SOL    HW213668   1.570   6.921   0.835
 4257SOL     OW13669   3.388   0.534   4.174
 4257SOL    HW113670   3.467   0.576   4.219
 4257SOL    HW213671   3.419   0.469   4.105
 4258SOL     OW13672   5.371   6.134   1.532
 4258SOL    HW113673   5.426   6.188   1.596
 4258SOL    HW213674   5.290   6.185   1.506
 4259SOL     OW13675   2.813   1.112   0.055
 4259SOL    HW113676   2.791   1.027   0.008
 4259SOL    HW213677   2.909   1.135   0.037
 4260SOL     OW13678   4.858   0.034   6.290
 4260SOL    HW113679   4.839   0.106   6.357
 4260SOL    HW213680   4.826   0.062   6.200
 4261SOL     OW13681   2.295   0.237   1.795
 4261SOL    HW113682   2.212   0.245   1.740
 4261SOL    HW213683   2.288   0.297   1.875
 4262SOL     OW13684   0.186   4.551   5.537
 4262SOL    HW113685   0.120   4.559   5.611
 4262SOL    HW213686   0.241   4.468   5.549
 4263SOL     OW13687   3.037   6.700   3.495
 4263SOL    HW113688   3.076   6.623   3.546
 4263SOL    HW213689   2.981   6.666   3.420
 4264SOL     OW13690   0.266   2.300   2.799
 4264SOL    HW113691   0.232   2.246   2.722
 4264SOL    HW213692   0.356   2.336   2.778
 4265SOL     OW13693   5.443   1.551   0.833
 4265SOL    HW113694   5.528   1.598   0.857
 4265SOL    HW213695   5.462   1.480   0.765
 4266SOL     OW13696   2.059   5.140   0.223
 4266SOL    HW113697   2.096   5.232   0.216
 4266SOL    HW213698   1.988   5.127   0.154
 4267SOL     OW13699   1.960   3.426   4.982
 4267SOL    HW113700   1.954   3.485   4.901
 4267SOL    HW213701   2.051   3.435   5.023
 4268SOL     OW13702   0.696   6.400   6.450
 4268SOL    HW113703   0.764   6.411   6.523
 4268SOL    HW213704   0.677   6.303   6.436
 4269SOL     OW13705   2.376   1.235   1.752
 4269SOL    HW113706   2.342   1.185   1.831
 4269SOL    HW213707   2.416   1.170   1.686
 4270SOL     OW13708   3.839   3.672   3.975
 4270SOL    HW113709   3.807   3.766   3.990
 4270SOL    HW213710   3.936   3.665   3.997
 4271SOL     OW13711   0.290   1.031   6.742
 4271SOL    HW113712   0.339   1.104   6.788
 4271SOL    HW213713   0.224   1.070   6.677
 4272SOL     OW13714   0.500   3.839   5.074
 4272SOL    HW113715   0.568   3.831   5.001
 4272SOL    HW213716   0.499   3.754   5.127
 4273SOL     OW13717   4.647   5.893   5.337
 4273SOL    HW113718   4.686   5.860   5.423
 4273SOL    HW213719   4.620   5.815   5.281
 4274SOL     OW13720   1.959   0.084   2.220
 4274SOL    HW113721   1.873   0.103   2.172
 4274SOL    HW213722   1.990   7.016   2.196
 4275SOL     OW13723   6.342   1.258   4.917
 4275SOL    HW113724   6.417   1.260   4.982
 4275SOL    HW213725   6.260   1.299   4.958
 4276SOL     OW13726   1.749   4.412   3.967
 4276SOL    HW113727   1.803   4.415   3.883
 4276SOL    HW213728   1.806   4.378   4.042
 4277SOL     OW13729   6.091   5.158   4.223
 4277SOL    HW113730   6.021   5.195   4.285
 4277SOL    HW213731   6.158   5.229   4.203
 4278SOL     OW13732   0.427   0.631   4.542
 4278SOL    HW113733   0.491   0.573   4.591
 4278SOL    HW213734   0.478   0.698   4.487
 4279SOL     OW13735   3.445   0.337   5.048
 4279SOL    HW113736   3.516   0.393   5.090
 4279SOL    HW213737   3.485   0.253   5.013
 4280SOL     OW13738   5.271   0.715   5.610
 4280SOL    HW113739   5.350   0.743   5.666
 4280SOL    HW213740   5.289   0.738   5.515
 4281SOL     OW13741   1.526   5.211   3.976
 4281SOL    HW113742   1.612   5.262   3.979
 4281SOL    HW213743   1.532   5.132   4.037
 4282SOL     OW13744   3.559   3.352   6.542
 4282SOL    HW113745   3.643   3.404   6.527
 4282SOL    HW213746   3.525   3.318   6.454
 4283SOL     OW13747   2.360   1.098   3.587
 4283SOL    HW113748   2.400   1.018   3.632
 4283SOL    HW213749   2.395   1.104   3.493
 4284SOL     OW13750   4.440   5.609   1.518
 4284SOL    HW113751   4.493   5.546   1.461
 4284SOL    HW213752   4.485   5.698   1.519
 4285SOL     OW13753   1.041   0.731   5.868
 4285SOL    HW113754   0.983   0.725   5.787
 4285SOL    HW213755   1.095   0.815   5.864
 4286SOL     OW13756   4.851   5.895   6.787
 4286SOL    HW113757   4.928   5.958   6.795
 4286SOL    HW213758   4.864   5.838   6.706
 4287SOL     OW13759   5.727   1.613   6.516
 4287SOL    HW113760   5.729   1.663   6.430
 4287SOL    HW213761   5.689   1.521   6.501
 4288SOL     OW13762   1.183   5.967   3.190
 4288SOL    HW113763   1.086   5.991   3.189
 4288SOL    HW213764   1.195   5.884   3.244
 4289SOL     OW13765   6.718   2.917   0.683
 4289SOL    HW113766   6.800   2.913   0.625
 4289SOL    HW213767   6.660   2.838   0.665
 4290SOL     OW13768   2.700   6.905   2.786
 4290SOL    HW113769   2.746   6.884   2.873
 4290SOL    HW213770   2.732   6.993   2.752
 4291SOL     OW13771   4.207   3.632   0.888
 4291SOL    HW113772   4.216   3.615   0.986
 4291SOL    HW213773   4.113   3.615   0.860
 4292SOL     OW13774   6.184   4.236   6.367
 4292SOL    HW113775   6.130   4.198   6.442
 4292SOL    HW213776   6.162   4.333   6.357
 4293SOL     OW13777   0.717   3.182   0.661
 4293SOL    HW113778   0.715   3.124   0.580
 4293SOL    HW213779   0.624   3.207   0.687
 4294SOL     OW13780   3.086   2.438   0.172
 4294SOL    HW113781   3.118   2.415   0.081
 4294SOL    HW213782   3.056   2.533   0.174
 4295SOL     OW13783   4.109   6.020   4.818
 4295SOL    HW113784   4.133   5.954   4.889
 4295SOL    HW213785   4.167   6.101   4.827
 4296SOL     OW13786   4.052   0.624   0.802
 4296SOL    HW113787   4.120   0.587   0.739
 4296SOL    HW213788   4.074   0.596   0.895
 4297SOL     OW13789   5.529   1.147   6.696
 4297SOL    HW113790   5.436   1.169   6.727
 4297SOL    HW213791   5.589   1.135   6.775
 4298SOL     OW13792   3.074   5.769   7.018
 4298SOL    HW113793   2.985   5.794   6.980
 4298SOL    HW213794   3.066   5.760   0.093
 4299SOL     OW13795   0.812   2.772   0.434
 4299SOL    HW113796   0.870   2.690   0.438
 4299SOL    HW213797   0.737   2.756   0.370
 4300SOL     OW13798   3.769   0.594   0.084
 4300SOL    HW113799   3.766   0.498   0.055
 4300SOL    HW213800   3.767   0.599   0.184
 4301SOL     OW13801   3.229   1.516   0.783
 4301SOL    HW113802   3.296   1.572   0.735
 4301SOL    HW213803   3.243   1.420   0.760
 4302SOL     OW13804   1.180   6.922   5.672
 4302SOL    HW113805   1.205   6.942   5.767
 4302SOL    HW213806   1.081   6.909   5.666
 4303SOL     OW13807   5.878   4.759   3.962
 4303SOL    HW113808   5.785   4.798   3.961
 4303SOL    HW213809   5.944   4.832   3.977
 4304SOL     OW13810   3.169   4.016   3.428
 4304SOL    HW113811   3.249   4.075   3.429
 4304SOL    HW213812   3.134   4.008   3.335
 4305SOL     OW13813   6.497   0.873   4.305
 4305SOL    HW113814   6.555   0.837   4.233
 4305SOL    HW213815   6.465   0.799   4.363
 4306SOL     OW13816   6.312   3.541   6.756
 4306SOL    HW113817   6.348   3.628   6.790
 4306SOL    HW213818   6.369   3.508   6.681
 4307SOL     OW13819   4.714   3.382   6.164
 4307SOL    HW113820   4.746   3.441   6.238
 4307SOL    HW213821   4.717   3.433   6.077
 4308SOL     OW13822   5.540   5.690   6.474
 4308SOL    HW113823   5.463   5.703   6.537
 4308SOL    HW213824   5.606   5.764   6.488
 4309SOL     OW13825   1.542   1.730   0.435
 4309SOL    HW113826   1.472   1.738   0.506
 4309SOL    HW213827   1.541   1.811   0.377
 4310SOL     OW13828   1.412   2.445   3.454
 4310SOL    HW113829   1.392   2.469   3.549
 4310SOL    HW213830   1.335   2.394   3.416
 4311SOL     OW13831   1.525   6.118   3.529
 4311SOL    HW113832   1.495   6.113   3.434
 4311SOL    HW213833   1.477   6.193   3.576
 4312SOL     OW13834   1.386   5.013   0.603
 4312SOL    HW113835   1.478   5.016   0.565
 4312SOL    HW213836   1.351   4.919   0.597
 4313SOL     OW13837   4.853   1.349   1.283
 4313SOL    HW113838   4.799   1.303   1.213
 4313SOL    HW213839   4.808   1.340   1.372
 4314SOL     OW13840   5.800   1.568   4.073
 4314SOL    HW113841   5.810   1.608   3.982
 4314SOL    HW213842   5.706   1.536   4.085
 4315SOL     OW13843   2.648   6.984   1.794
 4315SOL    HW113844   2.731   0.013   1.809
 4315SOL    HW213845   2.623   6.988   1.697
 4316SOL     OW13846   4.992   6.932   1.493
 4316SOL    HW113847   4.994   7.022   1.537
 4316SOL    HW213848   4.988   6.943   1.394
 4317SOL     OW13849   4.392   1.927   4.713
 4317SOL    HW113850   4.473   1.898   4.663
 4317SOL    HW213851   4.381   1.870   4.795
 4318SOL     OW13852   1.123   3.253   3.858
 4318SOL    HW113853   1.081   3.283   3.943
 4318SOL    HW213854   1.133   3.153   3.859
 4319SOL     OW13855   2.330   2.729   6.998
 4319SOL    HW113856   2.267   2.660   6.961
 4319SOL    HW213857   2.306   2.746   0.070
 4320SOL     OW13858   0.252   6.079   2.492
 4320SOL    HW113859   0.267   6.057   2.588
 4320SOL    HW213860   0.209   6.170   2.485
 4321SOL     OW13861   6.568   6.987   4.260
 4321SOL    HW113862   6.639   6.919   4.244
 4321SOL    HW213863   6.608   0.042   4.306
 4322SOL     OW13864   5.845   1.953   6.920
 4322SOL    HW113865   5.811   2.047   6.920
 4322SOL    HW213866   5.790   1.899   6.855
 4323SOL     OW13867   4.931   3.801   1.269
 4323SOL    HW113868   4.974   3.717   1.301
 4323SOL    HW213869   4.934   3.870   1.342
 4324SOL     OW13870   5.836   3.896   6.595
 4324SOL    HW113871   5.929   3.870   6.570
 4324SOL    HW213872   5.802   3.965   6.532
 4325SOL     OW13873   2.057   0.921   0.923
 4325SOL    HW113874   2.062   0.889   1.018
 4325SOL    HW213875   1.965   0.902   0.887
 4326SOL     OW13876   5.757   3.503   4.903
 4326SOL    HW113877   5.669   3.542   4.877
 4326SOL    HW213878   5.750   3.403   4.901
 4327SOL     OW13879   6.302   5.444   2.243
 4327SOL    HW113880   6.290   5.435   2.144
 4327SOL    HW213881   6.287   5.539   2.270
 4328SOL     OW13882   3.967   3.604   6.082
 4328SOL    HW113883   3.902   3.677   6.107
 4328SOL    HW213884   4.048   3.611   6.140
 4329SOL     OW13885   4.117   1.664   6.150
 4329SOL    HW113886   4.035   1.696   6.103
 4329SOL    HW213887   4.153   1.738   6.207
 4330SOL     OW13888   2.785   0.594   4.784
 4330SOL    HW113889   2.828   0.656   4.849
 4330SOL    HW213890   2.834   0.507   4.781
 4331SOL     OW13891   5.036   2.977   0.912
 4331SOL    HW113892   4.998   2.908   0.850
 4331SOL    HW213893   4.977   3.057   0.914
 4332SOL     OW13894   5.220   4.869   2.520
 4332SOL    HW113895   5.294   4.895   2.459
 4332SOL    HW213896   5.146   4.826   2.467
 4333SOL     OW13897   4.153   0.631   5.308
 4333SOL    HW113898   4.120   0.537   5.306
 4333SOL    HW213899   4.178   0.656   5.401
 4334SOL     OW13900   1.925   1.775   2.588
 4334SOL    HW113901   1.973   1.858   2.617
 4334SOL    HW213902   1.860   1.747   2.658
 4335SOL     OW13903   3.601   4.010   3.266
 4335SOL    HW113904   3.557   3.933   3.220
 4335SOL    HW213905   3.696   3.988   3.286
 4336SOL     OW13906   0.715   6.275   6.166
 4336SOL    HW113907   0.749   6.332   6.241
 4336SOL    HW213908   0.735   6.179   6.185
 4337SOL     OW13909   0.919   4.255   0.672
 4337SOL    HW113910   0.851   4.251   0.745
 4337SOL    HW213911   0.872   4.254   0.583
 4338SOL     OW13912   4.711   5.820   4.301
 4338SOL    HW113913   4.738   5.725   4.313
 4338SOL    HW213914   4.667   5.832   4.212
 4339SOL     OW13915   6.471   3.507   5.405
 4339SOL    HW113916   6.455   3.497   5.307
 4339SOL    HW213917   6.542   3.444   5.434
 4340SOL     OW13918   6.378   4.531   1.491
 4340SOL    HW113919   6.325   4.610   1.460
 4340SOL    HW213920   6.427   4.556   1.575
 4341SOL     OW13921   0.735   5.579   2.377
 4341SOL    HW113922   0.703   5.526   2.299
 4341SOL    HW213923   0.690   5.669   2.378
 4342SOL     OW13924   6.498   3.645   4.262
 4342SOL    HW113925   6.442   3.709   4.208
 4342SOL    HW213926   6.512   3.561   4.210
 4343SOL     OW13927   2.312   6.235   6.055
 4343SOL    HW113928   2.322   6.224   6.154
 4343SOL    HW213929   2.346   6.153   6.009
 4344SOL     OW13930   1.540   5.102   3.260
 4344SOL    HW113931   1.604   5.144   3.196
 4344SOL    HW213932   1.565   5.006   3.273
 4345SOL     OW13933   2.194   2.909   5.211
 4345SOL    HW113934   2.278   2.946   5.171
 4345SOL    HW213935   2.214   2.822   5.256
 4346SOL     OW13936   1.806   3.352   2.096
 4346SOL    HW113937   1.841   3.403   2.018
 4346SOL    HW213938   1.777   3.416   2.168
 4347SOL     OW13939   5.911   6.759   2.818
 4347SOL    HW113940   5.908   6.855   2.846
 4347SOL    HW213941   5.818   6.726   2.802
 4348SOL     OW13942   6.955   4.066   3.098
 4348SOL    HW113943   6.922   3.995   3.160
 4348SOL    HW213944   0.029   4.055   3.082
 4349SOL     OW13945   6.817   2.487   2.251
 4349SOL    HW113946   6.883   2.458   2.321
 4349SOL    HW213947   6.757   2.410   2.229
 4350SOL     OW13948   5.185   2.049   4.014
 4350SOL    HW113949   5.206   2.018   3.922
 4350SOL    HW213950   5.160   1.971   4.071
 4351SOL     OW13951   2.055   6.770   1.490
 4351SOL    HW113952   2.124   6.781   1.418
 4351SOL    HW213953   2.006   6.684   1.475
 4352SOL     OW13954   0.594   2.950   2.402
 4352SOL    HW113955   0.511   2.935   2.456
 4352SOL    HW213956   0.674   2.927   2.457
 4353SOL     OW13957   3.361   3.715   0.147
 4353SOL    HW113958   3.450   3.668   0.145
 4353SOL    HW213959   3.300   3.674   0.080
 4354SOL     OW13960   2.292   6.718   6.045
 4354SOL    HW113961   2.362   6.653   6.015
 4354SOL    HW213962   2.247   6.757   5.966
 4355SOL     OW13963   3.496   0.406   2.653
 4355SOL    HW113964   3.454   0.416   2.563
 4355SOL    HW213965   3.431   0.361   2.715
 4356SOL     OW13966   5.234   4.249   1.163
 4356SOL    HW113967   5.175   4.327   1.181
 4356SOL    HW213968   5.187   4.186   1.101
 4357SOL     OW13969   5.775   0.672   0.112
 4357SOL    HW113970   5.829   0.597   0.075
 4357SOL    HW213971   5.798   0.757   0.065
 4358SOL     OW13972   6.852   5.929   0.120
 4358SOL    HW113973   6.811   5.918   0.211
 4358SOL    HW213974   6.805   6.002   0.071
 4359SOL     OW13975   1.924   1.975   5.838
 4359SOL    HW113976   1.852   1.915   5.805
 4359SOL    HW213977   1.972   1.932   5.915
 4360SOL     OW13978   1.080   2.387   3.880
 4360SOL    HW113979   1.051   2.310   3.823
 4360SOL    HW213980   1.045   2.472   3.842
 4361SOL     OW13981   2.474   3.117   1.321
 4361SOL    HW113982   2.472   3.093   1.224
 4361SOL    HW213983   2.559   3.166   1.341
 4362SOL     OW13984   6.472   4.624   2.986
 4362SOL    HW113985   6.416   4.678   3.049
 4362SOL    HW213986   6.568   4.631   3.012
 4363SOL     OW13987   5.251   2.708   6.990
 4363SOL    HW113988   5.217   2.639   6.925
 4363SOL    HW213989   5.294   2.783   6.940
 4364SOL     OW13990   3.762   3.364   5.101
 4364SOL    HW113991   3.662   3.370   5.101
 4364SOL    HW213992   3.790   3.269   5.117
 4365SOL     OW13993   2.188   2.290   1.985
 4365SOL    HW113994   2.155   2.266   1.894
 4365SOL    HW213995   2.112   2.323   2.041
 4366SOL     OW13996   5.869   6.146   0.389
 4366SOL    HW113997   5.785   6.168   0.440
 4366SOL    HW213998   5.903   6.228   0.344
 4367SOL     OW13999   2.078   4.704   4.655
 4367SOL    HW114000   2.118   4.795   4.668
 4367SOL    HW214001   2.078   4.655   4.742
 4368SOL     OW14002   4.115   4.568   0.956
 4368SOL    HW114003   4.190   4.511   0.923
 4368SOL    HW214004   4.151   4.642   1.012
 4369SOL     OW14005   3.439   5.658   3.931
 4369SOL    HW114006   3.425   5.716   4.012
 4369SOL    HW214007   3.503   5.703   3.869
 4370SOL     OW14008   4.668   5.112   2.896
 4370SOL    HW114009   4.733   5.037   2.908
 4370SOL    HW214010   4.587   5.096   2.953
 4371SOL     OW14011   0.385   1.129   1.324
 4371SOL    HW114012   0.306   1.130   1.262
 4371SOL    HW214013   0.447   1.055   1.297
 4372SOL     OW14014   4.286   1.213   2.926
 4372SOL    HW114015   4.192   1.184   2.944
 4372SOL    HW214016   4.287   1.310   2.904
 4373SOL     OW14017   0.401   2.240   6.931
 4373SOL    HW114018   0.310   2.231   6.891
 4373SOL    HW214019   0.464   2.274   6.861
 4374SOL     OW14020   1.073   1.982   2.239
 4374SOL    HW114021   1.126   1.970   2.324
 4374SOL    HW214022   1.130   2.027   2.171
 4375SOL     OW14023   3.802   1.016   3.081
 4375SOL    HW114024   3.748   0.962   3.017
 4375SOL    HW214025   3.743   1.044   3.157
 4376SOL     OW14026   6.329   6.588   2.746
 4376SOL    HW114027   6.349   6.654   2.819
 4376SOL    HW214028   6.396   6.599   2.672
 4377SOL     OW14029   5.377   4.322   0.170
 4377SOL    HW114030   5.432   4.240   0.188
 4377SOL    HW214031   5.419   4.401   0.214
 4378SOL     OW14032   2.063   1.361   2.743
 4378SOL    HW114033   1.973   1.405   2.736
 4378SOL    HW214034   2.123   1.399   2.673
 4379SOL     OW14035   1.776   1.010   2.526
 4379SOL    HW114036   1.838   1.057   2.589
 4379SOL    HW214037   1.728   0.937   2.575
 4380SOL     OW14038   1.885   0.084   2.808
 4380SOL    HW114039   1.935   0.063   2.724
 4380SOL    HW214040   1.900   0.179   2.833
 4381SOL     OW14041   0.359   6.330   5.339
 4381SOL    HW114042   0.420   6.256   5.311
 4381SOL    HW214043   0.264   6.303   5.321
 4382SOL     OW14044   1.142   3.648   5.368
 4382SOL    HW114045   1.124   3.734   5.319
 4382SOL    HW214046   1.154   3.667   5.465
 4383SOL     OW14047   0.610   3.098   6.605
 4383SOL    HW114048   0.655   3.186   6.621
 4383SOL    HW214049   0.568   3.065   6.689
 4384SOL     OW14050   6.105   0.504   4.824
 4384SOL    HW114051   6.146   0.564   4.756
 4384SOL    HW214052   6.172   0.436   4.855
 4385SOL     OW14053   4.678   2.794   5.184
 4385SOL    HW114054   4.722   2.796   5.094
 4385SOL    HW214055   4.592   2.845   5.180
 4386SOL     OW14056   1.970   3.595   5.973
 4386SOL    HW114057   1.977   3.520   5.908
 4386SOL    HW214058   2.052   3.597   6.031
 4387SOL     OW14059   6.616   2.770   1.486
 4387SOL    HW114060   6.660   2.714   1.556
 4387SOL    HW214061   6.595   2.860   1.524
 4388SOL     OW14062   3.935   2.054   5.671
 4388SOL    HW114063   3.881   2.008   5.741
 4388SOL    HW214064   4.021   2.087   5.712
 4389SOL     OW14065   6.510   3.463   0.865
 4389SOL    HW114066   6.503   3.549   0.916
 4389SOL    HW214067   6.570   3.400   0.915
 4390SOL     OW14068   4.052   6.793   1.558
 4390SOL    HW114069   4.121   6.722   1.573
 4390SOL    HW214070   3.982   6.787   1.629
 4391SOL     OW14071   2.610   5.390   6.959
 4391SOL    HW114072   2.690   5.449   6.945
 4391SOL    HW214073   2.555   5.387   6.876
 4392SOL     OW14074   1.161   2.622   5.144
 4392SOL    HW114075   1.074   2.574   5.153
 4392SOL    HW214076   1.231   2.559   5.111
 4393SOL     OW14077   6.264   0.904   1.745
 4393SOL    HW114078   6.209   0.980   1.710
 4393SOL    HW214079   6.237   0.885   1.839
 4394SOL     OW14080   6.709   5.582   2.361
 4394SOL    HW114081   6.661   5.645   2.423
 4394SOL    HW214082   6.664   5.492   2.364
 4395SOL     OW14083   1.836   0.839   1.899
 4395SOL    HW114084   1.826   0.745   1.866
 4395SOL    HW214085   1.917   0.846   1.956
 4396SOL     OW14086   1.758   1.586   4.125
 4396SOL    HW114087   1.675   1.615   4.076
 4396SOL    HW214088   1.750   1.490   4.149
 4397SOL     OW14089   1.651   2.488   4.467
 4397SOL    HW114090   1.618   2.408   4.517
 4397SOL    HW214091   1.732   2.463   4.414
 4398SOL     OW14092   1.715   3.399   6.087
 4398SOL    HW114093   1.667   3.456   6.020
 4398SOL    HW214094   1.785   3.345   6.040
 4399SOL     OW14095   3.604   5.956   2.475
 4399SOL    HW114096   3.533   5.892   2.446
 4399SOL    HW214097   3.694   5.913   2.466
 4400SOL     OW14098   2.498   6.847   4.514
 4400SOL    HW114099   2.590   6.887   4.509
 4400SOL    HW214100   2.438   6.890   4.447
 4401SOL     OW14101   3.143   6.888   5.478
 4401SOL    HW114102   3.120   6.977   5.517
 4401SOL    HW214103   3.113   6.816   5.539
 4402SOL     OW14104   1.645   6.968   2.919
 4402SOL    HW114105   1.616   6.891   2.862
 4402SOL    HW214106   1.709   0.001   2.868
 4403SOL     OW14107   0.880   6.653   7.000
 4403SOL    HW114108   0.878   6.738   6.949
 4403SOL    HW214109   0.793   6.605   6.989
 4404SOL     OW14110   1.355   6.264   5.519
 4404SOL    HW114111   1.328   6.233   5.428
 4404SOL    HW214112   1.317   6.355   5.536
 4405SOL     OW14113   1.927   4.754   1.984
 4405SOL    HW114114   1.860   4.788   1.918
 4405SOL    HW214115   1.983   4.684   1.940
 4406SOL     OW14116   0.494   2.761   0.666
 4406SOL    HW114117   0.432   2.824   0.618
 4406SOL    HW214118   0.582   2.807   0.682
 4407SOL     OW14119   6.797   5.217   1.571
 4407SOL    HW114120   6.700   5.230   1.548
 4407SOL    HW214121   6.822   5.122   1.555
 4408SOL     OW14122   2.260   0.139   0.350
 4408SOL    HW114123   2.316   0.124   0.269
 4408SOL    HW214124   2.171   0.093   0.338
 4409SOL     OW14125   4.406   1.360   1.589
 4409SOL    HW114126   4.487   1.417   1.602
 4409SOL    HW214127   4.425   1.267   1.622
 4410SOL     OW14128   0.582   4.999   0.207
 4410SOL    HW114129   0.668   4.982   0.159
 4410SOL    HW214130   0.538   5.080   0.169
 4411SOL     OW14131   3.396   4.039   4.926
 4411SOL    HW114132   3.409   3.943   4.904
 4411SOL    HW214133   3.481   4.089   4.909
 4412SOL     OW14134   4.678   6.439   4.138
 4412SOL    HW114135   4.731   6.524   4.140
 4412SOL    HW214136   4.741   6.362   4.126
 4413SOL     OW14137   5.358   5.355   3.781
 4413SOL    HW114138   5.317   5.347   3.690
 4413SOL    HW214139   5.458   5.357   3.772
 4414SOL     OW14140   3.329   5.927   1.191
 4414SOL    HW114141   3.280   5.877   1.263
 4414SOL    HW214142   3.275   5.926   1.107
 4415SOL     OW14143   4.821   3.156   0.019
 4415SOL    HW114144   4.735   3.153   0.070
 4415SOL    HW214145   4.880   3.228   0.056
 4416SOL     OW14146   4.258   1.953   4.163
 4416SOL    HW114147   4.168   1.977   4.126
 4416SOL    HW214148   4.293   1.872   4.116
 4417SOL     OW14149   5.751   3.961   4.041
 4417SOL    HW114150   5.701   3.989   4.123
 4417SOL    HW214151   5.821   4.029   4.018
 4418SOL     OW14152   6.154   1.939   2.747
 4418SOL    HW114153   6.138   2.034   2.773
 4418SOL    HW214154   6.069   1.887   2.755
 4419SOL     OW14155   6.352   0.192   5.548
 4419SOL    HW114156   6.383   0.261   5.614
 4419SOL    HW214157   6.261   0.160   5.575
 4420SOL     OW14158   3.885   1.696   2.120
 4420SOL    HW114159   3.803   1.742   2.085
 4420SOL    HW214160   3.861   1.640   2.199
 4421SOL     OW14161   1.956   1.641   5.155
 4421SOL    HW114162   1.971   1.547   5.122
 4421SOL    HW214163   2.040   1.675   5.198
 4422SOL     OW14164   1.136   4.512   6.911
 4422SOL    HW114165   1.073   4.448   6.867
 4422SOL    HW214166   1.172   4.470   6.994
 4423SOL     OW14167   0.086   4.151   5.604
 4423SOL    HW114168   0.045   4.060   5.603
 4423SOL    HW214169   0.169   4.151   5.549
 4424SOL     OW14170   5.471   0.077   4.470
 4424SOL    HW114171   5.408   0.083   4.547
 4424SOL    HW214172   5.488   7.005   4.449
 4425SOL     OW14173   3.157   4.938   0.485
 4425SOL    HW114174   3.245   4.972   0.453
 4425SOL    HW214175   3.097   4.922   0.407
 4426SOL     OW14176   0.363   1.317   3.948
 4426SOL    HW114177   0.314   1.400   3.973
 4426SOL    HW214178   0.301   1.239   3.953
 4427SOL     OW14179   5.557   6.886   2.931
 4427SOL    HW114180   5.577   6.795   2.893
 4427SOL    HW214181   5.638   6.943   2.926
 4428SOL     OW14182   4.492   0.727   4.073
 4428SOL    HW114183   4.465   0.653   4.135
 4428SOL    HW214184   4.580   0.704   4.030
 4429SOL     OW14185   3.223   6.825   2.467
 4429SOL    HW114186   3.242   6.861   2.558
 4429SOL    HW214187   3.201   6.901   2.406
 4430SOL     OW14188   5.146   4.783   5.018
 4430SOL    HW114189   5.073   4.844   5.049
 4430SOL    HW214190   5.166   4.715   5.089
 4431SOL     OW14191   2.906   0.714   3.286
 4431SOL    HW114192   2.922   0.678   3.194
 4431SOL    HW214193   2.992   0.752   3.322
 4432SOL     OW14194   2.676   3.387   6.134
 4432SOL    HW114195   2.731   3.331   6.071
 4432SOL    HW214196   2.580   3.363   6.124
 4433SOL     OW14197   6.674   2.628   4.518
 4433SOL    HW114198   6.683   2.635   4.419
 4433SOL    HW214199   6.604   2.692   4.550
 4434SOL     OW14200   5.579   1.430   3.035
 4434SOL    HW114201   5.604   1.525   3.015
 4434SOL    HW214202   5.598   1.374   2.954
 4435SOL     OW14203   4.465   3.559   0.741
 4435SOL    HW114204   4.452   3.480   0.800
 4435SOL    HW214205   4.396   3.629   0.763
 4436SOL     OW14206   4.467   1.097   1.733
 4436SOL    HW114207   4.427   1.113   1.823
 4436SOL    HW214208   4.560   1.061   1.744
 4437SOL     OW14209   1.316   3.090   2.693
 4437SOL    HW114210   1.396   3.031   2.695
 4437SOL    HW214211   1.307   3.131   2.603
 4438SOL     OW14212   4.746   6.801   6.336
 4438SOL    HW114213   4.817   6.871   6.345
 4438SOL    HW214214   4.674   6.818   6.403
 4439SOL     OW14215   6.962   4.627   1.739
 4439SOL    HW114216   6.921   4.658   1.654
 4439SOL    HW214217   6.895   4.635   1.813
 4440SOL     OW14218   3.179   4.652   0.572
 4440SOL    HW114219   3.260   4.649   0.631
 4440SOL    HW214220   3.136   4.742   0.579
 4441SOL     OW14221   0.178   1.497   1.314
 4441SOL    HW114222   0.157   1.405   1.283
 4441SOL    HW214223   0.124   1.518   1.396
 4442SOL     OW14224   1.312   5.256   4.875
 4442SOL    HW114225   1.369   5.214   4.946
 4442SOL    HW214226   1.254   5.187   4.833
 4443SOL     OW14227   1.862   3.399   5.772
 4443SOL    HW114228   1.813   3.445   5.698
 4443SOL    HW214229   1.842   3.301   5.770
 4444SOL     OW14230   3.985   3.882   6.962
 4444SOL    HW114231   3.973   3.893   0.036
 4444SOL    HW214232   3.925   3.809   6.929
 4445SOL     OW14233   1.175   6.170   0.334
 4445SOL    HW114234   1.132   6.083   0.310
 4445SOL    HW214235   1.116   6.220   0.398
 4446SOL     OW14236   5.476   2.128   0.512
 4446SOL    HW114237   5.480   2.206   0.574
 4446SOL    HW214238   5.548   2.137   0.443
 4447SOL     OW14239   6.431   4.062   4.989
 4447SOL    HW114240   6.436   4.011   4.904
 4447SOL    HW214241   6.481   4.148   4.980
 4448SOL     OW14242   2.345   5.655   0.974
 4448SOL    HW114243   2.386   5.594   1.043
 4448SOL    HW214244   2.345   5.749   1.008
 4449SOL     OW14245   5.154   0.978   6.388
 4449SOL    HW114246   5.189   1.004   6.298
 4449SOL    HW214247   5.223   0.925   6.437
 4450SOL     OW14248   2.863   1.835   6.806
 4450SOL    HW114249   2.926   1.758   6.818
 4450SOL    HW214250   2.815   1.827   6.719
 4451SOL     OW14251   4.571   5.224   4.618
 4451SOL    HW114252   4.625   5.291   4.668
 4451SOL    HW214253   4.544   5.150   4.679
 4452SOL     OW14254   5.539   5.546   4.006
 4452SOL    HW114255   5.495   5.549   3.916
 4452SOL    HW214256   5.638   5.549   3.994
 4453SOL     OW14257   1.307   2.804   1.803
 4453SOL    HW114258   1.387   2.749   1.827
 4453SOL    HW214259   1.232   2.743   1.775
 4454SOL     OW14260   1.696   1.782   6.955
 4454SOL    HW114261   1.610   1.789   6.905
 4454SOL    HW214262   1.697   1.697   7.008
 4455SOL     OW14263   5.572   6.044   5.485
 4455SOL    HW114264   5.639   5.978   5.516
 4455SOL    HW214265   5.595   6.135   5.521
 4456SOL     OW14266   2.503   6.364   2.984
 4456SOL    HW114267   2.454   6.312   2.914
 4456SOL    HW214268   2.579   6.310   3.020
 4457SOL     OW14269   3.588   1.618   3.449
 4457SOL    HW114270   3.605   1.524   3.480
 4457SOL    HW214271   3.640   1.634   3.365
 4458SOL     OW14272   2.224   3.279   1.226
 4458SOL    HW114273   2.242   3.372   1.259
 4458SOL    HW214274   2.291   3.216   1.264
 4459SOL     OW14275   4.170   2.254   4.473
 4459SOL    HW114276   4.222   2.169   4.476
 4459SOL    HW214277   4.076   2.235   4.447
 4460SOL     OW14278   0.630   2.691   0.186
 4460SOL    HW114279   0.565   2.669   0.259
 4460SOL    HW214280   0.584   2.682   0.097
 4461SOL     OW14281   1.633   1.266   1.329
 4461SOL    HW114282   1.656   1.169   1.317
 4461SOL    HW214283   1.589   1.279   1.418
 4462SOL     OW14284   6.201   4.706   1.600
 4462SOL    HW114285   6.258   4.685   1.680
 4462SOL    HW214286   6.105   4.689   1.623
 4463SOL     OW14287   4.744   1.250   1.071
 4463SOL    HW114288   4.674   1.280   1.006
 4463SOL    HW214289   4.770   1.155   1.052
 4464SOL     OW14290   0.305   5.975   0.884
 4464SOL    HW114291   0.359   5.953   0.966
 4464SOL    HW214292   0.223   5.919   0.881
 4465SOL     OW14293   3.459   5.320   0.171
 4465SOL    HW114294   3.431   5.302   0.266
 4465SOL    HW214295   3.406   5.397   0.135
 4466SOL     OW14296   1.229   1.782   2.695
 4466SOL    HW114297   1.179   1.844   2.636
 4466SOL    HW214298   1.327   1.790   2.678
 4467SOL     OW14299   2.417   5.040   3.298
 4467SOL    HW114300   2.486   5.061   3.367
 4467SOL    HW214301   2.429   5.101   3.220
 4468SOL     OW14302   2.307   4.236   0.798
 4468SOL    HW114303   2.370   4.246   0.875
 4468SOL    HW214304   2.355   4.191   0.722
 4469SOL     OW14305   2.958   0.711   1.151
 4469SOL    HW114306   3.031   0.653   1.187
 4469SOL    HW214307   2.874   0.657   1.141
 4470SOL     OW14308   0.848   2.074   2.461
 4470SOL    HW114309   0.758   2.083   2.505
 4470SOL    HW214310   0.874   1.978   2.458
 4471SOL     OW14311   0.896   3.075   6.800
 4471SOL    HW114312   0.904   3.127   6.885
 4471SOL    HW214313   0.931   3.129   6.724
 4472SOL     OW14314   0.381   2.051   1.340
 4472SOL    HW114315   0.328   2.009   1.266
 4472SOL    HW214316   0.420   1.979   1.397
 4473SOL     OW14317   5.659   2.926   4.205
 4473SOL    HW114318   5.584   2.890   4.150
 4473SOL    HW214319   5.627   3.003   4.260
 4474SOL     OW14320   3.138   6.738   1.396
 4474SOL    HW114321   3.231   6.702   1.391
 4474SOL    HW214322   3.127   6.790   1.480
 4475SOL     OW14323   1.042   3.886   1.826
 4475SOL    HW114324   0.957   3.833   1.821
 4475SOL    HW214325   1.063   3.925   1.736
 4476SOL     OW14326   6.327   1.032   3.758
 4476SOL    HW114327   6.348   0.946   3.805
 4476SOL    HW214328   6.239   1.025   3.712
 4477SOL     OW14329   1.638   0.519   5.258
 4477SOL    HW114330   1.570   0.447   5.244
 4477SOL    HW214331   1.604   0.605   5.219
 4478SOL     OW14332   2.670   6.837   2.483
 4478SOL    HW114333   2.597   6.872   2.424
 4478SOL    HW214334   2.672   6.890   2.568
 4479SOL     OW14335   0.630   2.156   1.637
 4479SOL    HW114336   0.560   2.221   1.665
 4479SOL    HW214337   0.661   2.105   1.718
 4480SOL     OW14338   0.189   4.260   4.955
 4480SOL    HW114339   0.117   4.292   5.017
 4480SOL    HW214340   0.195   4.161   4.959
 4481SOL     OW14341   2.421   5.086   4.977
 4481SOL    HW114342   2.441   5.006   4.921
 4481SOL    HW214343   2.338   5.070   5.030
 4482SOL     OW14344   2.516   2.695   5.599
 4482SOL    HW114345   2.537   2.608   5.554
 4482SOL    HW214346   2.497   2.678   5.696
 4483SOL     OW14347   6.983   2.833   2.193
 4483SOL    HW114348   7.002   2.858   2.098
 4483SOL    HW214349   0.003   2.746   2.214
 4484SOL     OW14350   2.963   2.341   6.546
 4484SOL    HW114351   2.968   2.434   6.582
 4484SOL    HW214352   2.871   2.304   6.561
 4485SOL     OW14353   5.533   2.559   5.030
 4485SOL    HW114354   5.464   2.626   5.002
 4485SOL    HW214355   5.555   2.499   4.953
 4486SOL     OW14356   6.125   5.368   4.694
 4486SOL    HW114357   6.120   5.464   4.722
 4486SOL    HW214358   6.037   5.324   4.712
 4487SOL     OW14359   2.797   2.676   6.820
 4487SOL    HW114360   2.823   2.601   6.881
 4487SOL    HW214361   2.751   2.640   6.739
 4488SOL     OW14362   1.287   3.348   4.895
 4488SOL    HW114363   1.290   3.274   4.963
 4488SOL    HW214364   1.259   3.433   4.940
 4489SOL     OW14365   4.837   5.390   4.748
 4489SOL    HW114366   4.789   5.411   4.833
 4489SOL    HW214367   4.913   5.328   4.768
 4490SOL     OW14368   5.435   1.785   1.740
 4490SOL    HW114369   5.454   1.733   1.657
 4490SOL    HW214370   5.511   1.848   1.758
 4491SOL     OW14371   0.208   3.485   3.618
 4491SOL    HW114372   0.121   3.442   3.594
 4491SOL    HW214373   0.199   3.584   3.609
 4492SOL     OW14374   5.742   3.361   1.511
 4492SOL    HW114375   5.790   3.302   1.575
 4492SOL    HW214376   5.784   3.452   1.511
 4493SOL     OW14377   4.703   6.510   5.121
 4493SOL    HW114378   4.724   6.436   5.184
 4493SOL    HW214379   4.610   6.499   5.086
 4494SOL     OW14380   0.614   0.887   5.987
 4494SOL    HW114381   0.619   0.986   5.972
 4494SOL    HW214382   0.656   0.865   6.075
 4495SOL     OW14383   4.843   7.012   3.825
 4495SOL    HW114384   4.905   6.972   3.892
 4495SOL    HW214385   4.777   6.943   3.796
 4496SOL     OW14386   5.384   6.407   0.822
 4496SOL    HW114387   5.381   6.406   0.722
 4496SOL    HW214388   5.460   6.351   0.854
 4497SOL     OW14389   4.367   2.221   6.539
 4497SOL    HW114390   4.387   2.302   6.484
 4497SOL    HW214391   4.432   2.214   6.614
 4498SOL     OW14392   6.956   4.797   6.702
 4498SOL    HW114393   6.890   4.867   6.729
 4498SOL    HW214394   6.911   4.707   6.702
 4499SOL     OW14395   6.283   3.143   3.438
 4499SOL    HW114396   6.312   3.130   3.343
 4499SOL    HW214397   6.307   3.061   3.491
 4500SOL     OW14398   3.815   4.253   6.617
 4500SOL    HW114399   3.795   4.226   6.523
 4500SOL    HW214400   3.770   4.190   6.680
 4501SOL     OW14401   6.470   3.525   3.166
 4501SOL    HW114402   6.549   3.579   3.196
 4501SOL    HW214403   6.496   3.429   3.157
 4502SOL     OW14404   1.152   3.707   0.183
 4502SOL    HW114405   1.124   3.800   0.159
 4502SOL    HW214406   1.075   3.644   0.170
 4503SOL     OW14407   3.724   6.532   2.016
 4503SOL    HW114408   3.822   6.529   2.036
 4503SOL    HW214409   3.705   6.472   1.938
 4504SOL     OW14410   6.763   1.694   4.380
 4504SOL    HW114411   6.793   1.686   4.475
 4504SOL    HW214412   6.785   1.611   4.330
 4505SOL     OW14413   6.500   4.669   1.704
 4505SOL    HW114414   6.536   4.751   1.746
 4505SOL    HW214415   6.453   4.614   1.773
 4506SOL     OW14416   4.858   2.521   3.965
 4506SOL    HW114417   4.902   2.431   3.973
 4506SOL    HW214418   4.910   2.578   3.901
 4507SOL     OW14419   7.010   3.397   4.017
 4507SOL    HW114420   6.944   3.445   4.075
 4507SOL    HW214421   6.962   3.346   3.946
 4508SOL     OW14422   1.239   4.810   0.146
 4508SOL    HW114423   1.195   4.881   0.200
 4508SOL    HW214424   1.235   4.834   0.049
 4509SOL     OW14425   5.050   1.985   3.324
 4509SOL    HW114426   5.018   1.963   3.416
 4509SOL    HW214427   4.971   2.000   3.264
 4510SOL     OW14428   4.694   1.199   4.272
 4510SOL    HW114429   4.750   1.225   4.193
 4510SOL    HW214430   4.722   1.254   4.351
 4511SOL     OW14431   5.944   3.045   0.163
 4511SOL    HW114432   6.040   3.070   0.171
 4511SOL    HW214433   5.908   3.076   0.075
 4512SOL     OW14434   3.310   1.231   6.307
 4512SOL    HW114435   3.315   1.327   6.281
 4512SOL    HW214436   3.353   1.175   6.237
 4513SOL     OW14437   1.022   5.557   6.641
 4513SOL    HW114438   1.029   5.457   6.642
 4513SOL    HW214439   0.930   5.584   6.613
 4514SOL     OW14440   3.328   2.410   6.331
 4514SOL    HW114441   3.259   2.337   6.322
 4514SOL    HW214442   3.353   2.443   6.241
 4515SOL     OW14443   5.822   1.715   5.361
 4515SOL    HW114444   5.858   1.761   5.442
 4515SOL    HW214445   5.722   1.718   5.362
 4516SOL     OW14446   2.625   0.115   6.530
 4516SOL    HW114447   2.631   0.114   6.430
 4516SOL    HW214448   2.530   0.126   6.558
 4517SOL     OW14449   4.489   6.712   6.952
 4517SOL    HW114450   4.449   6.623   6.974
 4517SOL    HW214451   4.577   6.698   6.906
 4518SOL     OW14452   0.698   6.855   1.627
 4518SOL    HW114453   0.796   6.874   1.621
 4518SOL    HW214454   0.664   6.824   1.539
 4519SOL     OW14455   5.140   6.952   0.605
 4519SOL    HW114456   5.192   0.013   0.611
 4519SOL    HW214457   5.200   6.874   0.623
 4520SOL     OW14458   4.316   5.665   6.181
 4520SOL    HW114459   4.405   5.664   6.225
 4520SOL    HW214460   4.262   5.742   6.217
 4521SOL     OW14461   5.050   2.220   5.126
 4521SOL    HW114462   5.106   2.138   5.140
 4521SOL    HW214463   4.989   2.206   5.048
 4522SOL     OW14464   5.737   4.332   3.232
 4522SOL    HW114465   5.791   4.267   3.285
 4522SOL    HW214466   5.720   4.296   3.141
 4523SOL     OW14467   0.660   4.121   0.236
 4523SOL    HW114468   0.561   4.130   0.226
 4523SOL    HW214469   0.697   4.066   0.161
 4524SOL     OW14470   5.934   3.638   2.902
 4524SOL    HW114471   6.021   3.647   2.854
 4524SOL    HW214472   5.937   3.690   2.987
 4525SOL     OW14473   3.957   1.820   6.011
 4525SOL    HW114474   3.886   1.886   6.033
 4525SOL    HW214475   3.916   1.739   5.968
 4526SOL     OW14476   6.664   0.513   0.003
 4526SOL    HW114477   6.580   0.558   6.999
 4526SOL    HW214478   6.682   0.532   0.099
 4527SOL     OW14479   6.061   6.604   2.659
 4527SOL    HW114480   6.011   6.677   2.705
 4527SOL    HW214481   6.150   6.592   2.703
 4528SOL     OW14482   4.200   0.754   6.502
 4528SOL    HW114483   4.163   0.767   6.593
 4528SOL    HW214484   4.178   0.661   6.470
 4529SOL     OW14485   2.283   1.169   5.584
 4529SOL    HW114486   2.381   1.155   5.599
 4529SOL    HW214487   2.235   1.163   5.672
 4530SOL     OW14488   2.488   5.490   2.964
 4530SOL    HW114489   2.391   5.515   2.973
 4530SOL    HW214490   2.510   5.475   2.868
 4531SOL     OW14491   0.893   3.377   6.241
 4531SOL    HW114492   0.874   3.325   6.158
 4531SOL    HW214493   0.984   3.352   6.276
 4532SOL     OW14494   5.905   1.067   2.704
 4532SOL    HW114495   5.945   1.104   2.620
 4532SOL    HW214496   5.905   0.967   2.700
 4533SOL     OW14497   2.035   1.196   3.187
 4533SOL    HW114498   2.049   1.104   3.224
 4533SOL    HW214499   2.086   1.205   3.101
 4534SOL     OW14500   4.944   2.815   5.245
 4534SOL    HW114501   4.968   2.753   5.319
 4534SOL    HW214502   4.847   2.841   5.253
 4535SOL     OW14503   3.802   1.536   1.813
 4535SOL    HW114504   3.854   1.574   1.889
 4535SOL    HW214505   3.707   1.521   1.841
 4536SOL     OW14506   3.426   2.137   4.599
 4536SOL    HW114507   3.511   2.142   4.652
 4536SOL    HW214508   3.348   2.153   4.659
 4537SOL     OW14509   4.102   3.481   1.426
 4537SOL    HW114510   4.081   3.384   1.415
 4537SOL    HW214511   4.150   3.496   1.512
 4538SOL     OW14512   2.578   0.594   2.482
 4538SOL    HW114513   2.567   0.496   2.497
 4538SOL    HW214514   2.571   0.642   2.569
 4539SOL     OW14515   2.370   5.434   4.767
 4539SOL    HW114516   2.468   5.440   4.747
 4539SOL    HW214517   2.355   5.455   4.864
 4540SOL     OW14518   2.389   1.134   0.607
 4540SOL    HW114519   2.481   1.101   0.627
 4540SOL    HW214520   2.331   1.124   0.688
 4541SOL     OW14521   5.651   1.452   6.901
 4541SOL    HW114522   5.716   1.527   6.914
 4541SOL    HW214523   5.695   1.365   6.927
 4542SOL     OW14524   0.089   2.446   1.602
 4542SOL    HW114525   0.106   2.475   1.697
 4542SOL    HW214526   0.159   2.380   1.575
 4543SOL     OW14527   4.974   1.851   1.082
 4543SOL    HW114528   4.945   1.768   1.131
 4543SOL    HW214529   5.072   1.866   1.096
 4544SOL     OW14530   3.994   4.758   0.042
 4544SOL    HW114531   4.054   4.812   0.102
 4544SOL    HW214532   3.927   4.709   0.097
 4545SOL     OW14533   7.005   3.689   5.446
 4545SOL    HW114534   6.931   3.656   5.387
 4545SOL    HW214535   6.984   3.783   5.475
 4546SOL     OW14536   2.913   6.764   4.289
 4546SOL    HW114537   2.906   6.694   4.360
 4546SOL    HW214538   2.891   6.724   4.200
 4547SOL     OW14539   6.586   1.548   0.563
 4547SOL    HW114540   6.577   1.631   0.618
 4547SOL    HW214541   6.650   1.485   0.607
 4548SOL     OW14542   2.555   2.566   3.543
 4548SOL    HW114543   2.617   2.495   3.509
 4548SOL    HW214544   2.547   2.559   3.643
 4549SOL     OW14545   5.176   3.740   2.269
 4549SOL    HW114546   5.097   3.696   2.312
 4549SOL    HW214547   5.174   3.724   2.170
 4550SOL     OW14548   1.179   4.399   3.027
 4550SOL    HW114549   1.197   4.300   3.027
 4550SOL    HW214550   1.265   4.449   3.016
 4551SOL     OW14551   0.805   3.841   5.112
 4551SOL    HW114552   0.890   3.862   5.159
 4551SOL    HW214553   0.789   3.908   5.039
 4552SOL     OW14554   5.429   2.401   0.913
 4552SOL    HW114555   5.365   2.406   0.990
 4552SOL    HW214556   5.522   2.414   0.946
 4553SOL     OW14557   5.298   4.057   6.574
 4553SOL    HW114558   5.276   4.150   6.603
 4553SOL    HW214559   5.385   4.028   6.616
 4554SOL     OW14560   6.828   0.038   1.835
 4554SOL    HW114561   6.804   0.113   1.896
 4554SOL    HW214562   6.748   7.005   1.820
 4555SOL     OW14563   1.428   0.843   5.889
 4555SOL    HW114564   1.498   0.906   5.922
 4555SOL    HW214565   1.387   0.879   5.806
 4556SOL     OW14566   6.590   3.126   4.834
 4556SOL    HW114567   6.686   3.117   4.806
 4556SOL    HW214568   6.550   3.206   4.791
 4557SOL     OW14569   5.066   4.978   4.261
 4557SOL    HW114570   5.103   5.040   4.330
 4557SOL    HW214571   5.079   4.883   4.291
 4558SOL     OW14572   6.582   3.938   4.690
 4558SOL    HW114573   6.547   3.902   4.604
 4558SOL    HW214574   6.663   3.886   4.718
 4559SOL     OW14575   6.936   3.214   2.798
 4559SOL    HW114576   6.901   3.139   2.855
 4559SOL    HW214577   6.882   3.220   2.714
 4560SOL     OW14578   5.519   3.938   1.712
 4560SOL    HW114579   5.493   3.992   1.632
 4560SOL    HW214580   5.482   3.982   1.794
 4561SOL     OW14581   3.788   1.908   3.116
 4561SOL    HW114582   3.833   1.995   3.095
 4561SOL    HW214583   3.689   1.921   3.111
 4562SOL     OW14584   1.230   0.153   0.323
 4562SOL    HW114585   1.214   0.058   0.349
 4562SOL    HW214586   1.319   0.161   0.279
 4563SOL     OW14587   0.308   3.407   0.730
 4563SOL    HW114588   0.254   3.476   0.779
 4563SOL    HW214589   0.340   3.338   0.795
 4564SOL     OW14590   6.354   6.287   2.012
 4564SOL    HW114591   6.342   6.282   2.111
 4564SOL    HW214592   6.268   6.312   1.968
 4565SOL     OW14593   1.496   1.326   4.255
 4565SOL    HW114594   1.532   1.236   4.281
 4565SOL    HW214595   1.477   1.327   4.157
 4566SOL     OW14596   6.926   3.639   1.043
 4566SOL    HW114597   6.873   3.591   1.113
 4566SOL    HW214598   6.942   3.578   0.966
 4567SOL     OW14599   0.001   1.453   6.576
 4567SOL    HW114600   6.982   1.527   6.526
 4567SOL    HW214601   0.036   1.487   6.663
 4568SOL     OW14602   1.929   3.614   5.387
 4568SOL    HW114603   1.865   3.592   5.313
 4568SOL    HW214604   1.878   3.650   5.465
 4569SOL     OW14605   3.044   0.210   3.432
 4569SOL    HW114606   3.006   0.299   3.408
 4569SOL    HW214607   2.971   0.142   3.440
 4570SOL     OW14608   6.250   6.325   2.292
 4570SOL    HW114609   6.272   6.420   2.313
 4570SOL    HW214610   6.311   6.264   2.343
 4571SOL     OW14611   4.425   2.703   6.790
 4571SOL    HW114612   4.397   2.619   6.836
 4571SOL    HW214613   4.346   2.762   6.777
 4572SOL     OW14614   2.181   0.700   6.541
 4572SOL    HW114615   2.089   0.667   6.561
 4572SOL    HW214616   2.235   0.702   6.626
 4573SOL     OW14617   6.930   0.033   0.193
 4573SOL    HW114618   6.967   0.022   0.100
 4573SOL    HW214619   7.005   0.035   0.258
 4574SOL     OW14620   5.479   4.501   0.367
 4574SOL    HW114621   5.538   4.460   0.436
 4574SOL    HW214622   5.413   4.562   0.412
 4575SOL     OW14623   5.645   0.504   5.347
 4575SOL    HW114624   5.552   0.482   5.317
 4575SOL    HW214625   5.643   0.578   5.413
 4576SOL     OW14626   3.036   5.148   5.314
 4576SOL    HW114627   2.986   5.158   5.400
 4576SOL    HW214628   2.996   5.073   5.261
 4577SOL     OW14629   1.539   2.741   3.943
 4577SOL    HW114630   1.631   2.718   3.910
 4577SOL    HW214631   1.542   2.753   4.042
 4578SOL     OW14632   0.796   1.596   4.321
 4578SOL    HW114633   0.800   1.603   4.221
 4578SOL    HW214634   0.858   1.523   4.352
 4579SOL     OW14635   4.795   0.835   2.011
 4579SOL    HW114636   4.775   0.892   2.091
 4579SOL    HW214637   4.717   0.776   1.992
 4580SOL     OW14638   5.492   3.799   0.721
 4580SOL    HW114639   5.491   3.890   0.764
 4580SOL    HW214640   5.571   3.791   0.661
 4581SOL     OW14641   2.581   5.966   2.646
 4581SOL    HW114642   2.599   5.954   2.548
 4581SOL    HW214643   2.488   6.001   2.659
 4582SOL     OW14644   4.841   0.535   3.625
 4582SOL    HW114645   4.919   0.486   3.586
 4582SOL    HW214646   4.780   0.470   3.669
 4583SOL     OW14647   2.963   1.368   6.600
 4583SOL    HW114648   3.000   1.350   6.691
 4583SOL    HW214649   2.991   1.460   6.571
 4584SOL     OW14650   1.824   5.824   4.995
 4584SOL    HW114651   1.773   5.796   5.077
 4584SOL    HW214652   1.818   5.753   4.926
 4585SOL     OW14653   2.248   4.611   3.349
 4585SOL    HW114654   2.192   4.685   3.312
 4585SOL    HW214655   2.320   4.649   3.407
 4586SOL     OW14656   4.243   3.756   0.106
 4586SOL    HW114657   4.170   3.752   0.174
 4586SOL    HW214658   4.215   3.707   0.024
 4587SOL     OW14659   3.417   3.902   3.806
 4587SOL    HW114660   3.322   3.884   3.778
 4587SOL    HW214661   3.473   3.917   3.725
 4588SOL     OW14662   3.386   2.932   5.562
 4588SOL    HW114663   3.458   2.891   5.618
 4588SOL    HW214664   3.301   2.882   5.576
 4589SOL     OW14665   5.275   0.299   1.877
 4589SOL    HW114666   5.366   0.260   1.864
 4589SOL    HW214667   5.251   0.294   1.974
 4590SOL     OW14668   3.930   5.128   1.168
 4590SOL    HW114669   3.922   5.030   1.149
 4590SOL    HW214670   3.965   5.142   1.261
 4591SOL     OW14671   2.050   0.261   5.203
 4591SOL    HW114672   2.004   0.341   5.163
 4591SOL    HW214673   2.131   0.291   5.253
 4592SOL     OW14674   3.682   0.847   2.903
 4592SOL    HW114675   3.653   0.751   2.900
 4592SOL    HW214676   3.643   0.896   2.825
 4593SOL     OW14677   6.085   6.248   1.863
 4593SOL    HW114678   6.039   6.236   1.775
 4593SOL    HW214679   6.054   6.334   1.905
 4594SOL     OW14680   3.503   0.511   3.168
 4594SOL    HW114681   3.531   0.431   3.116
 4594SOL    HW214682   3.574   0.535   3.234
 4595SOL     OW14683   4.756   3.077   5.848
 4595SOL    HW114684   4.705   3.119   5.773
 4595SOL    HW214685   4.707   3.090   5.933
 4596SOL     OW14686   6.592   0.362   2.570
 4596SOL    HW114687   6.501   0.322   2.557
 4596SOL    HW214688   6.636   0.317   2.648
 4597SOL     OW14689   2.677   5.509   6.246
 4597SOL    HW114690   2.696   5.412   6.260
 4597SOL    HW214691   2.579   5.527   6.256
 4598SOL     OW14692   1.576   5.542   1.269
 4598SOL    HW114693   1.636   5.617   1.295
 4598SOL    HW214694   1.533   5.505   1.351
 4599SOL     OW14695   1.376   4.484   1.239
 4599SOL    HW114696   1.283   4.512   1.217
 4599SOL    HW214697   1.430   4.564   1.266
 4600SOL     OW14698   0.371   6.520   5.131
 4600SOL    HW114699   0.339   6.460   5.203
 4600SOL    HW214700   0.370   6.615   5.163
 4601SOL     OW14701   0.793   1.672   5.529
 4601SOL    HW114702   0.810   1.634   5.620
 4601SOL    HW214703   0.755   1.601   5.469
 4602SOL     OW14704   2.372   6.403   0.282
 4602SOL    HW114705   2.284   6.423   0.238
 4602SOL    HW214706   2.444   6.402   0.213
 4603SOL     OW14707   3.501   5.800   0.451
 4603SOL    HW114708   3.428   5.775   0.387
 4603SOL    HW214709   3.582   5.744   0.432
 4604SOL     OW14710   5.101   0.342   6.616
 4604SOL    HW114711   5.159   0.289   6.554
 4604SOL    HW214712   5.043   0.404   6.563
 4605SOL     OW14713   2.175   6.923   1.196
 4605SOL    HW114714   2.226   6.935   1.281
 4605SOL    HW214715   2.237   6.931   1.118
 4606SOL     OW14716   0.249   6.968   2.633
 4606SOL    HW114717   0.344   6.960   2.605
 4606SOL    HW214718   0.227   6.894   2.697
 4607SOL     OW14719   1.669   3.343   3.339
 4607SOL    HW114720   1.732   3.279   3.293
 4607SOL    HW214721   1.623   3.399   3.270
 4608SOL     OW14722   6.990   4.068   3.739
 4608SOL    HW114723   0.036   4.044   3.671
 4608SOL    HW214724   6.983   4.168   3.745
 4609SOL     OW14725   5.003   4.827   0.154
 4609SOL    HW114726   4.924   4.795   0.102
 4609SOL    HW214727   5.039   4.751   0.209
 4610SOL     OW14728   4.475   1.639   6.851
 4610SOL    HW114729   4.416   1.585   6.790
 4610SOL    HW214730   4.497   1.585   6.932
 4611SOL     OW14731   0.433   0.187   6.230
 4611SOL    HW114732   0.389   0.198   6.319
 4611SOL    HW214733   0.415   0.267   6.173
 4612SOL     OW14734   2.518   0.245   1.036
 4612SOL    HW114735   2.537   0.309   0.962
 4612SOL    HW214736   2.504   0.153   0.998
 4613SOL     OW14737   1.582   5.671   2.896
 4613SOL    HW114738   1.579   5.710   2.988
 4613SOL    HW214739   1.510   5.712   2.840
 4614SOL     OW14740   6.063   2.941   3.611
 4614SOL    HW114741   6.157   2.960   3.640
 4614SOL    HW214742   6.041   2.996   3.530
 4615SOL     OW14743   1.480   1.487   0.782
 4615SOL    HW114744   1.467   1.583   0.810
 4615SOL    HW214745   1.433   1.472   0.695
 4616SOL     OW14746   5.867   1.801   4.539
 4616SOL    HW114747   5.844   1.839   4.449
 4616SOL    HW214748   5.939   1.733   4.529
 4617SOL     OW14749   1.521   2.260   2.542
 4617SOL    HW114750   1.588   2.207   2.489
 4617SOL    HW214751   1.438   2.272   2.489
 4618SOL     OW14752   2.180   3.468   5.798
 4618SOL    HW114753   2.249   3.525   5.754
 4618SOL    HW214754   2.098   3.464   5.741
 4619SOL     OW14755   2.892   6.492   3.899
 4619SOL    HW114756   2.825   6.444   3.955
 4619SOL    HW214757   2.888   6.456   3.805
 4620SOL     OW14758   0.867   4.423   1.291
 4620SOL    HW114759   0.946   4.475   1.259
 4620SOL    HW214760   0.795   4.486   1.321
 4621SOL     OW14761   5.214   0.961   2.255
 4621SOL    HW114762   5.301   0.971   2.207
 4621SOL    HW214763   5.138   0.984   2.194
 4622SOL     OW14764   3.791   5.104   0.709
 4622SOL    HW114765   3.886   5.130   0.726
 4622SOL    HW214766   3.744   5.089   0.795
 4623SOL     OW14767   4.369   5.378   0.869
 4623SOL    HW114768   4.457   5.382   0.822
 4623SOL    HW214769   4.303   5.328   0.813
 4624SOL     OW14770   3.573   0.587   2.841
 4624SOL    HW114771   3.564   0.514   2.909
 4624SOL    HW214772   3.545   0.552   2.752
 4625SOL     OW14773   2.147   5.492   1.967
 4625SOL    HW114774   2.235   5.450   1.945
 4625SOL    HW214775   2.073   5.433   1.934
 4626SOL     OW14776   4.299   4.311   1.500
 4626SOL    HW114777   4.323   4.382   1.566
 4626SOL    HW214778   4.312   4.221   1.541
 4627SOL     OW14779   1.274   5.613   5.676
 4627SOL    HW114780   1.229   5.671   5.609
 4627SOL    HW214781   1.349   5.663   5.719
 4628SOL     OW14782   4.534   4.476   4.695
 4628SOL    HW114783   4.451   4.492   4.749
 4628SOL    HW214784   4.605   4.438   4.753
 4629SOL     OW14785   2.032   4.693   5.447
 4629SOL    HW114786   2.101   4.621   5.441
 4629SOL    HW214787   2.040   4.754   5.368
 4630SOL     OW14788   2.324   5.467   2.278
 4630SOL    HW114789   2.362   5.559   2.285
 4630SOL    HW214790   2.341   5.431   2.186
 4631SOL     OW14791   0.729   6.603   4.215
 4631SOL    HW114792   0.687   6.516   4.240
 4631SOL    HW214793   0.827   6.590   4.199
 4632SOL     OW14794   2.533   4.614   2.918
 4632SOL    HW114795   2.629   4.637   2.931
 4632SOL    HW214796   2.516   4.590   2.823
 4633SOL     OW14797   5.623   1.212   4.788
 4633SOL    HW114798   5.707   1.256   4.756
 4633SOL    HW214799   5.621   1.117   4.757
 4634SOL     OW14800   2.690   3.917   5.316
 4634SOL    HW114801   2.660   3.878   5.404
 4634SOL    HW214802   2.612   3.957   5.269
 4635SOL     OW14803   4.358   4.476   1.732
 4635SOL    HW114804   4.386   4.383   1.756
 4635SOL    HW214805   4.422   4.541   1.773
 4636SOL     OW14806   2.175   4.548   0.237
 4636SOL    HW114807   2.184   4.639   0.276
 4636SOL    HW214808   2.264   4.516   0.205
 4637SOL     OW14809   0.815   6.739   0.834
 4637SOL    HW114810   0.860   6.696   0.912
 4637SOL    HW214811   0.795   6.670   0.765
 4638SOL     OW14812   3.728   5.731   6.778
 4638SOL    HW114813   3.642   5.782   6.773
 4638SOL    HW214814   3.787   5.758   6.701
 4639SOL     OW14815   2.703   3.009   6.096
 4639SOL    HW114816   2.690   3.047   6.188
 4639SOL    HW214817   2.749   2.921   6.102
 4640SOL     OW14818   6.211   3.352   4.298
 4640SOL    HW114819   6.114   3.360   4.275
 4640SOL    HW214820   6.231   3.407   4.380
 4641SOL     OW14821   2.112   0.262   4.168
 4641SOL    HW114822   2.212   0.271   4.166
 4641SOL    HW214823   2.082   0.200   4.095
 4642SOL     OW14824   1.615   6.459   2.777
 4642SOL    HW114825   1.571   6.524   2.839
 4642SOL    HW214826   1.666   6.510   2.707
 4643SOL     OW14827   6.764   2.388   0.075
 4643SOL    HW114828   6.786   2.455   0.146
 4643SOL    HW214829   6.668   2.360   0.084
 4644SOL     OW14830   6.965   0.317   5.649
 4644SOL    HW114831   7.013   0.387   5.596
 4644SOL    HW214832   6.944   0.238   5.590
 4645SOL     OW14833   2.237   1.303   3.972
 4645SOL    HW114834   2.280   1.310   4.062
 4645SOL    HW214835   2.156   1.245   3.978
 4646SOL     OW14836   2.515   5.239   3.750
 4646SOL    HW114837   2.593   5.298   3.729
 4646SOL    HW214838   2.508   5.227   3.849
 4647SOL     OW14839   1.907   0.321   3.104
 4647SOL    HW114840   1.911   0.371   3.017
 4647SOL    HW214841   1.817   0.281   3.116
 4648SOL     OW14842   2.806   1.062   4.180
 4648SOL    HW114843   2.810   1.064   4.280
 4648SOL    HW214844   2.855   0.981   4.147
 4649SOL     OW14845   6.242   1.034   0.510
 4649SOL    HW114846   6.244   1.103   0.583
 4649SOL    HW214847   6.264   0.945   0.549
 4650SOL     OW14848   4.801   5.319   2.025
 4650SOL    HW114849   4.736   5.322   1.949
 4650SOL    HW214850   4.758   5.278   2.105
 4651SOL     OW14851   6.049   3.537   6.852
 4651SOL    HW114852   6.143   3.540   6.816
 4651SOL    HW214853   6.052   3.543   6.951
 4652SOL     OW14854   6.235   6.459   5.006
 4652SOL    HW114855   6.282   6.431   5.089
 4652SOL    HW214856   6.189   6.546   5.021
 4653SOL     OW14857   5.023   5.808   0.863
 4653SOL    HW114858   4.983   5.748   0.795
 4653SOL    HW214859   4.982   5.899   0.856
 4654SOL     OW14860   0.279   5.974   5.974
 4654SOL    HW114861   0.331   6.058   5.992
 4654SOL    HW214862   0.264   5.965   5.875
 4655SOL     OW14863   5.324   4.080   1.418
 4655SOL    HW114864   5.339   4.133   1.334
 4655SOL    HW214865   5.334   3.982   1.398
 4656SOL     OW14866   1.200   0.760   1.660
 4656SOL    HW114867   1.170   0.669   1.633
 4656SOL    HW214868   1.267   0.753   1.734
 4657SOL     OW14869   4.526   5.566   1.855
 4657SOL    HW114870   4.560   5.484   1.808
 4657SOL    HW214871   4.442   5.545   1.904
 4658SOL     OW14872   3.166   1.776   4.846
 4658SOL    HW114873   3.089   1.838   4.832
 4658SOL    HW214874   3.194   1.777   4.942
 4659SOL     OW14875   2.609   4.292   6.960
 4659SOL    HW114876   2.648   4.322   0.023
 4659SOL    HW214877   2.538   4.225   6.978
 4660SOL     OW14878   1.480   6.492   4.188
 4660SOL    HW114879   1.427   6.484   4.104
 4660SOL    HW214880   1.426   6.538   4.258
 4661SOL     OW14881   2.443   4.765   5.634
 4661SOL    HW114882   2.454   4.789   5.537
 4661SOL    HW214883   2.385   4.833   5.679
 4662SOL     OW14884   3.231   0.255   5.490
 4662SOL    HW114885   3.153   0.205   5.528
 4662SOL    HW214886   3.202   0.347   5.463
 4663SOL     OW14887   0.357   0.617   0.849
 4663SOL    HW114888   0.325   0.570   0.767
 4663SOL    HW214889   0.383   0.711   0.826
 4664SOL     OW14890   0.669   0.803   0.480
 4664SOL    HW114891   0.584   0.804   0.533
 4664SOL    HW214892   0.735   0.742   0.525
 4665SOL     OW14893   2.681   0.234   5.949
 4665SOL    HW114894   2.698   0.324   5.990
 4665SOL    HW214895   2.715   0.163   6.010
 4666SOL     OW14896   2.345   2.227   6.784
 4666SOL    HW114897   2.301   2.146   6.821
 4666SOL    HW214898   2.303   2.309   6.823
 4667SOL     OW14899   6.249   3.925   1.794
 4667SOL    HW114900   6.190   3.886   1.723
 4667SOL    HW214901   6.345   3.916   1.767
 4668SOL     OW14902   5.223   1.688   4.406
 4668SOL    HW114903   5.216   1.629   4.487
 4668SOL    HW214904   5.265   1.775   4.432
 4669SOL     OW14905   5.345   7.006   6.514
 4669SOL    HW114906   5.432   0.031   6.502
 4669SOL    HW214907   5.269   0.043   6.495
 4670SOL     OW14908   1.030   2.983   6.449
 4670SOL    HW114909   1.058   3.069   6.492
 4670SOL    HW214910   0.932   2.970   6.461
 4671SOL     OW14911   0.883   3.570   6.871
 4671SOL    HW114912   0.930   3.563   6.959
 4671SOL    HW214913   0.796   3.522   6.877
 4672SOL     OW14914   3.971   4.722   5.963
 4672SOL    HW114915   3.907   4.797   5.978
 4672SOL    HW214916   3.925   4.635   5.981
 4673SOL     OW14917   4.934   0.140   0.741
 4673SOL    HW114918   4.990   0.097   0.671
 4673SOL    HW214919   4.948   0.094   0.829
 4674SOL     OW14920   5.521   1.627   0.495
 4674SOL    HW114921   5.553   1.543   0.453
 4674SOL    HW214922   5.569   1.705   0.455
 4675SOL     OW14923   3.584   0.235   0.066
 4675SOL    HW114924   3.526   0.213   7.011
 4675SOL    HW214925   3.628   0.152   0.100
 4676SOL     OW14926   0.183   6.584   4.648
 4676SOL    HW114927   0.261   6.603   4.708
 4676SOL    HW214928   0.213   6.590   4.552
 4677SOL     OW14929   2.973   0.280   6.941
 4677SOL    HW114930   2.896   0.253   6.998
 4677SOL    HW214931   3.053   0.298   6.999
 4678SOL     OW14932   2.304   4.806   2.398
 4678SOL    HW114933   2.382   4.791   2.338
 4678SOL    HW214934   2.325   4.881   2.461
 4679SOL     OW14935   3.840   1.309   6.993
 4679SOL    HW114936   3.867   1.324   0.065
 4679SOL    HW214937   3.740   1.306   6.987
 4680SOL     OW14938   2.219   0.175   2.187
 4680SOL    HW114939   2.274   0.092   2.176
 4680SOL    HW214940   2.124   0.150   2.205
 4681SOL     OW14941   6.071   5.820   5.543
 4681SOL    HW114942   6.053   5.736   5.595
 4681SOL    HW214943   6.155   5.810   5.490
 4682SOL     OW14944   5.000   4.724   6.760
 4682SOL    HW114945   5.069   4.658   6.789
 4682SOL    HW214946   4.946   4.752   6.839
 4683SOL     OW14947   5.184   4.207   2.731
 4683SOL    HW114948   5.171   4.225   2.634
 4683SOL    HW214949   5.254   4.137   2.744
 4684SOL     OW14950   6.832   2.002   4.321
 4684SOL    HW114951   6.753   2.060   4.344
 4684SOL    HW214952   6.802   1.906   4.316
 4685SOL     OW14953   0.560   6.014   4.435
 4685SOL    HW114954   0.512   5.942   4.385
 4685SOL    HW214955   0.659   6.001   4.426
 4686SOL     OW14956   5.048   5.926   0.368
 4686SOL    HW114957   4.959   5.899   0.408
 4686SOL    HW214958   5.067   5.870   0.288
 4687SOL     OW14959   6.374   5.049   5.176
 4687SOL    HW114960   6.376   4.986   5.098
 4687SOL    HW214961   6.303   5.118   5.161
 4688SOL     OW14962   6.965   3.171   6.019
 4688SOL    HW114963   6.977   3.089   6.075
 4688SOL    HW214964   6.949   3.144   5.924
 4689SOL     OW14965   5.472   0.824   6.876
 4689SOL    HW114966   5.442   0.768   6.800
 4689SOL    HW214967   5.549   0.881   6.847
 4690SOL     OW14968   1.408   1.778   0.174
 4690SOL    HW114969   1.363   1.739   0.254
 4690SOL    HW214970   1.415   1.877   0.185
 4691SOL     OW14971   3.103   4.150   1.767
 4691SOL    HW114972   3.097   4.116   1.673
 4691SOL    HW214973   3.037   4.224   1.780
 4692SOL     OW14974   6.873   5.345   2.415
 4692SOL    HW114975   6.901   5.272   2.354
 4692SOL    HW214976   6.811   5.408   2.367
 4693SOL     OW14977   0.908   0.366   4.319
 4693SOL    HW114978   0.969   0.390   4.244
 4693SOL    HW214979   0.815   0.353   4.284
 4694SOL     OW14980   2.918   0.502   0.149
 4694SOL    HW114981   2.982   0.425   0.147
 4694SOL    HW214982   2.861   0.500   0.067
 4695SOL     OW14983   2.690   3.244   1.446
 4695SOL    HW114984   2.671   3.342   1.432
 4695SOL    HW214985   2.778   3.221   1.405
 4696SOL     OW14986   0.681   4.403   5.703
 4696SOL    HW114987   0.631   4.454   5.773
 4696SOL    HW214988   0.749   4.464   5.660
 4697SOL     OW14989   1.485   3.316   0.822
 4697SOL    HW114990   1.407   3.332   0.882
 4697SOL    HW214991   1.459   3.338   0.728
 4698SOL     OW14992   4.405   5.686   3.152
 4698SOL    HW114993   4.465   5.638   3.216
 4698SOL    HW214994   4.447   5.773   3.125
 4699SOL     OW14995   1.101   6.852   2.268
 4699SOL    HW114996   1.167   6.921   2.238
 4699SOL    HW214997   1.025   6.849   2.202
 4700SOL     OW14998   6.057   1.941   2.106
 4700SOL    HW114999   6.106   1.855   2.092
 4700SOL    HW215000   5.960   1.922   2.119
 4701SOL     OW15001   1.162   2.178   0.478
 4701SOL    HW115002   1.201   2.257   0.430
 4701SOL    HW215003   1.175   2.189   0.576
 4702SOL     OW15004   5.814   5.497   6.888
 4702SOL    HW115005   5.870   5.448   6.955
 4702SOL    HW215006   5.853   5.485   6.796
 4703SOL     OW15007   1.275   2.766   2.277
 4703SOL    HW115008   1.355   2.716   2.312
 4703SOL    HW215009   1.231   2.712   2.206
 4704SOL     OW15010   6.886   6.657   6.861
 4704SOL    HW115011   6.923   6.695   6.946
 4704SOL    HW215012   6.915   6.713   6.784
 4705SOL     OW15013   3.789   3.549   2.712
 4705SOL    HW115014   3.788   3.507   2.803
 4705SOL    HW215015   3.697   3.545   2.672
 4706SOL     OW15016   4.035   6.203   6.620
 4706SOL    HW115017   3.950   6.155   6.640
 4706SOL    HW215018   4.066   6.180   6.528
 4707SOL     OW15019   1.939   6.232   0.745
 4707SOL    HW115020   1.991   6.317   0.736
 4707SOL    HW215021   1.963   6.170   0.671
 4708SOL     OW15022   1.432   2.503   6.949
 4708SOL    HW115023   1.473   2.547   0.005
 4708SOL    HW215024   1.424   2.404   6.966
 4709SOL     OW15025   3.482   4.951   5.430
 4709SOL    HW115026   3.524   4.936   5.341
 4709SOL    HW215027   3.382   4.948   5.422
 4710SOL     OW15028   3.987   1.184   5.807
 4710SOL    HW115029   3.979   1.280   5.833
 4710SOL    HW215030   3.919   1.130   5.858
 4711SOL     OW15031   4.901   0.276   2.220
 4711SOL    HW115032   4.982   0.229   2.256
 4711SOL    HW215033   4.819   0.233   2.258
 4712SOL     OW15034   3.015   4.438   0.604
 4712SOL    HW115035   2.959   4.480   0.675
 4712SOL    HW215036   3.082   4.505   0.570
 4713SOL     OW15037   2.701   3.663   0.896
 4713SOL    HW115038   2.611   3.618   0.892
 4713SOL    HW215039   2.696   3.750   0.848
 4714SOL     OW15040   2.171   1.818   0.044
 4714SOL    HW115041   2.080   1.859   0.039
 4714SOL    HW215042   2.228   1.853   6.994
 4715SOL     OW15043   6.766   3.925   1.618
 4715SOL    HW115044   6.832   3.857   1.584
 4715SOL    HW215045   6.797   4.017   1.592
 4716SOL     OW15046   3.986   5.528   6.891
 4716SOL    HW115047   4.052   5.555   6.822
 4716SOL    HW215048   3.992   5.429   6.906
 4717SOL     OW15049   1.012   6.317   3.292
 4717SOL    HW115050   0.971   6.233   3.255
 4717SOL    HW215051   1.032   6.380   3.217
 4718SOL     OW15052   5.346   1.897   6.222
 4718SOL    HW115053   5.350   1.949   6.307
 4718SOL    HW215054   5.276   1.825   6.230
 4719SOL     OW15055   4.892   3.296   2.890
 4719SOL    HW115056   4.958   3.309   2.964
 4719SOL    HW215057   4.847   3.207   2.900
 4720SOL     OW15058   2.525   5.822   5.602
 4720SOL    HW115059   2.616   5.791   5.630
 4720SOL    HW215060   2.526   5.921   5.589
 4721SOL     OW15061   6.401   2.166   1.529
 4721SOL    HW115062   6.450   2.238   1.578
 4721SOL    HW215063   6.366   2.098   1.595
 4722SOL     OW15064   1.537   6.479   0.348
 4722SOL    HW115065   1.517   6.396   0.296
 4722SOL    HW215066   1.600   6.537   0.296
 4723SOL     OW15067   1.594   5.303   5.573
 4723SOL    HW115068   1.507   5.337   5.538
 4723SOL    HW215069   1.600   5.204   5.559
 4724SOL     OW15070   4.646   5.873   2.859
 4724SOL    HW115071   4.616   5.785   2.820
 4724SOL    HW215072   4.744   5.869   2.878
 4725SOL     OW15073   5.673   6.365   2.387
 4725SOL    HW115074   5.745   6.422   2.427
 4725SOL    HW215075   5.593   6.422   2.368
 4726SOL     OW15076   1.632   3.319   6.342
 4726SOL    HW115077   1.710   3.258   6.352
 4726SOL    HW215078   1.653   3.388   6.273
 4727SOL     OW15079   6.793   6.125   6.948
 4727SOL    HW115080   6.888   6.157   6.953
 4727SOL    HW215081   6.785   6.059   6.874
 4728SOL     OW15082   4.521   1.495   1.213
 4728SOL    HW115083   4.567   1.488   1.301
 4728SOL    HW215084   4.563   1.432   1.147
 4729SOL     OW15085   2.963   1.457   2.569
 4729SOL    HW115086   2.866   1.478   2.558
 4729SOL    HW215087   2.974   1.374   2.623
 4730SOL     OW15088   2.188   5.582   5.249
 4730SOL    HW115089   2.093   5.577   5.280
 4730SOL    HW215090   2.244   5.518   5.302
 4731SOL     OW15091   4.580   0.285   6.454
 4731SOL    HW115092   4.543   0.251   6.368
 4731SOL    HW215093   4.672   0.247   6.469
 4732SOL     OW15094   0.047   3.437   6.345
 4732SOL    HW115095   0.067   3.339   6.343
 4732SOL    HW215096   6.992   3.456   6.287
 4733SOL     OW15097   0.794   4.286   2.966
 4733SOL    HW115098   0.716   4.239   3.008
 4733SOL    HW215099   0.781   4.385   2.974
 4734SOL     OW15100   4.971   3.388   6.699
 4734SOL    HW115101   4.939   3.299   6.731
 4734SOL    HW215102   4.896   3.455   6.705
 4735SOL     OW15103   1.032   5.299   4.177
 4735SOL    HW115104   0.940   5.293   4.216
 4735SOL    HW215105   1.025   5.316   4.079
 4736SOL     OW15106   0.631   1.628   6.441
 4736SOL    HW115107   0.584   1.599   6.525
 4736SOL    HW215108   0.570   1.689   6.389
 4737SOL     OW15109   1.401   5.359   2.241
 4737SOL    HW115110   1.421   5.432   2.176
 4737SOL    HW215111   1.373   5.276   2.192
 4738SOL     OW15112   0.001   5.846   2.807
 4738SOL    HW115113   0.061   5.806   2.738
 4738SOL    HW215114   6.930   5.835   2.778
 4739SOL     OW15115   4.447   6.424   2.897
 4739SOL    HW115116   4.455   6.421   2.996
 4739SOL    HW215117   4.438   6.519   2.867
 4740SOL     OW15118   0.338   1.144   1.604
 4740SOL    HW115119   0.241   1.119   1.600
 4740SOL    HW215120   0.372   1.158   1.511
 4741SOL     OW15121   3.384   2.230   1.557
 4741SOL    HW115122   3.462   2.287   1.581
 4741SOL    HW215123   3.354   2.178   1.637
 4742SOL     OW15124   1.637   6.661   6.014
 4742SOL    HW115125   1.582   6.589   6.055
 4742SOL    HW215126   1.710   6.620   5.959
 4743SOL     OW15127   2.051   3.447   2.918
 4743SOL    HW115128   2.026   3.420   2.825
 4743SOL    HW215129   2.016   3.539   2.936
 4744SOL     OW15130   1.817   4.888   1.247
 4744SOL    HW115131   1.727   4.855   1.218
 4744SOL    HW215132   1.805   4.960   1.316
 4745SOL     OW15133   3.329   3.809   6.862
 4745SOL    HW115134   3.283   3.875   6.920
 4745SOL    HW215135   3.424   3.837   6.847
 4746SOL     OW15136   4.402   6.235   3.594
 4746SOL    HW115137   4.342   6.256   3.672
 4746SOL    HW215138   4.400   6.137   3.576
 4747SOL     OW15139   1.157   3.681   0.652
 4747SOL    HW115140   1.178   3.634   0.738
 4747SOL    HW215141   1.108   3.620   0.590
 4748SOL     OW15142   1.360   6.540   1.577
 4748SOL    HW115143   1.397   6.621   1.622
 4748SOL    HW215144   1.294   6.568   1.507
 4749SOL     OW15145   1.792   6.865   6.506
 4749SOL    HW115146   1.790   6.816   6.419
 4749SOL    HW215147   1.714   6.838   6.561
 4750SOL     OW15148   6.211   3.502   5.544
 4750SOL    HW115149   6.302   3.517   5.506
 4750SOL    HW215150   6.172   3.417   5.508
 4751SOL     OW15151   4.671   2.341   3.304
 4751SOL    HW115152   4.764   2.363   3.276
 4751SOL    HW215153   4.607   2.361   3.230
 4752SOL     OW15154   4.543   0.323   0.418
 4752SOL    HW115155   4.522   0.278   0.505
 4752SOL    HW215156   4.634   0.295   0.387
 4753SOL     OW15157   0.741   6.866   4.165
 4753SOL    HW115158   0.717   6.773   4.193
 4753SOL    HW215159   0.737   6.927   4.245
 4754SOL     OW15160   5.004   3.793   5.107
 4754SOL    HW115161   4.932   3.731   5.077
 4754SOL    HW215162   5.061   3.747   5.175
 4755SOL     OW15163   2.480   0.776   0.526
 4755SOL    HW115164   2.419   0.826   0.588
 4755SOL    HW215165   2.571   0.770   0.567
 4756SOL     OW15166   6.514   3.952   5.801
 4756SOL    HW115167   6.469   3.929   5.887
 4756SOL    HW215168   6.491   3.883   5.732
 4757SOL     OW15169   1.429   2.690   1.392
 4757SOL    HW115170   1.524   2.664   1.379
 4757SOL    HW215171   1.422   2.753   1.470
 4758SOL     OW15172   1.281   0.015   3.315
 4758SOL    HW115173   1.325   0.040   3.229
 4758SOL    HW215174   1.325   6.957   3.352
 4759SOL     OW15175   0.429   5.873   6.883
 4759SOL    HW115176   0.496   5.839   6.817
 4759SOL    HW215177   0.337   5.852   6.851
 4760SOL     OW15178   1.695   1.085   0.868
 4760SOL    HW115179   1.697   1.126   0.959
 4760SOL    HW215180   1.671   1.155   0.800
 4761SOL     OW15181   1.652   0.623   0.762
 4761SOL    HW115182   1.633   0.693   0.693
 4761SOL    HW215183   1.597   0.641   0.844
 4762SOL     OW15184   1.492   5.970   2.069
 4762SOL    HW115185   1.497   5.873   2.096
 4762SOL    HW215186   1.543   5.983   1.983
 4763SOL     OW15187   4.435   0.448   2.514
 4763SOL    HW115188   4.478   0.494   2.592
 4763SOL    HW215189   4.411   0.515   2.444
 4764SOL     OW15190   4.651   3.433   5.314
 4764SOL    HW115191   4.641   3.517   5.262
 4764SOL    HW215192   4.702   3.451   5.398
 4765SOL     OW15193   3.897   1.014   6.107
 4765SOL    HW115194   3.801   1.003   6.079
 4765SOL    HW215195   3.952   0.943   6.065
 4766SOL     OW15196   5.668   6.117   4.050
 4766SOL    HW115197   5.659   6.122   4.150
 4766SOL    HW215198   5.582   6.145   4.008
 4767SOL     OW15199   2.648   5.077   5.452
 4767SOL    HW115200   2.738   5.086   5.495
 4767SOL    HW215201   2.582   5.044   5.520
 4768SOL     OW15202   4.039   3.315   6.032
 4768SOL    HW115203   4.000   3.288   6.120
 4768SOL    HW215204   4.006   3.406   6.008
 4769SOL     OW15205   3.204   5.984   0.245
 4769SOL    HW115206   3.126   6.041   0.219
 4769SOL    HW215207   3.282   6.042   0.269
 4770SOL     OW15208   6.593   1.850   4.962
 4770SOL    HW115209   6.628   1.943   4.952
 4770SOL    HW215210   6.523   1.833   4.893
 4771SOL     OW15211   2.470   6.446   5.985
 4771SOL    HW115212   2.405   6.380   6.021
 4771SOL    HW215213   2.544   6.461   6.051
 4772SOL     OW15214   3.355   4.761   1.250
 4772SOL    HW115215   3.313   4.852   1.252
 4772SOL    HW215216   3.454   4.770   1.254
 4773SOL     OW15217   1.089   6.418   4.502
 4773SOL    HW115218   0.999   6.406   4.545
 4773SOL    HW215219   1.077   6.436   4.405
 4774SOL     OW15220   1.301   4.162   1.466
 4774SOL    HW115221   1.369   4.192   1.399
 4774SOL    HW215222   1.219   4.219   1.458
 4775SOL     OW15223   5.017   0.215   4.475
 4775SOL    HW115224   4.924   0.203   4.510
 4775SOL    HW215225   5.033   0.151   4.400
 4776SOL     OW15226   0.957   1.012   4.857
 4776SOL    HW115227   0.925   0.959   4.778
 4776SOL    HW215228   0.894   1.088   4.872
 4777SOL     OW15229   1.582   5.361   0.872
 4777SOL    HW115230   1.682   5.371   0.871
 4777SOL    HW215231   1.539   5.451   0.877
 4778SOL     OW15232   0.253   2.988   4.894
 4778SOL    HW115233   0.342   2.942   4.900
 4778SOL    HW215234   0.210   2.988   4.984
 4779SOL     OW15235   5.630   6.420   4.072
 4779SOL    HW115236   5.601   6.337   4.121
 4779SOL    HW215237   5.601   6.501   4.123
 4780SOL     OW15238   6.005   2.371   6.406
 4780SOL    HW115239   5.987   2.352   6.309
 4780SOL    HW215240   5.940   2.438   6.439
 4781SOL     OW15241   2.616   5.226   2.235
 4781SOL    HW115242   2.691   5.281   2.270
 4781SOL    HW215243   2.625   5.132   2.269
 4782SOL     OW15244   6.742   5.906   6.059
 4782SOL    HW115245   6.701   5.816   6.070
 4782SOL    HW215246   6.808   5.922   6.132
 4783SOL     OW15247   5.812   3.516   0.045
 4783SOL    HW115248   5.751   3.495   6.993
 4783SOL    HW215249   5.798   3.449   0.118
 4784SOL     OW15250   6.091   2.282   6.136
 4784SOL    HW115251   6.068   2.363   6.083
 4784SOL    HW215252   6.115   2.207   6.075
 4785SOL     OW15253   0.155   6.784   2.810
 4785SOL    HW115254   0.218   6.713   2.843
 4785SOL    HW215255   0.133   6.846   2.885
 4786SOL     OW15256   2.582   6.943   0.008
 4786SOL    HW115257   2.660   6.883   0.026
 4786SOL    HW215258   2.497   6.890   0.013
 4787SOL     OW15259   3.953   1.714   3.285
 4787SOL    HW115260   3.897   1.747   3.209
 4787SOL    HW215261   3.914   1.745   3.371
 4788SOL     OW15262   6.406   6.230   0.285
 4788SOL    HW115263   6.324   6.198   0.238
 4788SOL    HW215264   6.423   6.326   0.261
 4789SOL     OW15265   5.008   1.762   1.682
 4789SOL    HW115266   4.918   1.732   1.715
 4789SOL    HW215267   5.075   1.752   1.756
 4790SOL     OW15268   5.468   1.855   5.579
 4790SOL    HW115269   5.407   1.776   5.579
 4790SOL    HW215270   5.428   1.928   5.634
 4791SOL     OW15271   0.065   3.107   1.725
 4791SOL    HW115272   0.111   3.181   1.773
 4791SOL    HW215273   0.131   3.036   1.701
 4792SOL     OW15274   2.273   4.434   4.563
 4792SOL    HW115275   2.224   4.402   4.644
 4792SOL    HW215276   2.335   4.508   4.588
 4793SOL     OW15277   1.710   3.520   5.223
 4793SOL    HW115278   1.759   3.484   5.143
 4793SOL    HW215279   1.654   3.448   5.263
 4794SOL     OW15280   4.458   6.808   4.151
 4794SOL    HW115281   4.407   6.728   4.183
 4794SOL    HW215282   4.530   6.830   4.217
 4795SOL     OW15283   6.806   1.636   4.655
 4795SOL    HW115284   6.810   1.541   4.627
 4795SOL    HW215285   6.730   1.650   4.718
 4796SOL     OW15286   3.644   6.951   6.191
 4796SOL    HW115287   3.679   6.977   6.281
 4796SOL    HW215288   3.720   6.946   6.126
 4797SOL     OW15289   0.868   5.584   4.789
 4797SOL    HW115290   0.781   5.633   4.785
 4797SOL    HW215291   0.932   5.625   4.724
 4798SOL     OW15292   6.035   5.303   5.846
 4798SOL    HW115293   5.979   5.337   5.770
 4798SOL    HW215294   6.010   5.209   5.867
 4799SOL     OW15295   4.258   1.402   0.063
 4799SOL    HW115296   4.193   1.394   7.012
 4799SOL    HW215297   4.229   1.345   0.139
 4800SOL     OW15298   1.485   4.156   6.811
 4800SOL    HW115299   1.433   4.071   6.798
 4800SOL    HW215300   1.561   4.159   6.746
 4801SOL     OW15301   4.068   2.805   7.007
 4801SOL    HW115302   4.030   2.889   0.020
 4801SOL    HW215303   4.016   2.727   0.018
 4802SOL     OW15304   6.794   6.591   1.845
 4802SOL    HW115305   6.864   6.611   1.777
 4802SOL    HW215306   6.707   6.571   1.799
 4803SOL     OW15307   6.332   4.987   1.088
 4803SOL    HW115308   6.329   4.897   1.043
 4803SOL    HW215309   6.420   5.031   1.070
 4804SOL     OW15310   5.605   0.579   1.293
 4804SOL    HW115311   5.639   0.485   1.294
 4804SOL    HW215312   5.548   0.594   1.375
 4805SOL     OW15313   6.362   0.719   2.465
 4805SOL    HW115314   6.454   0.682   2.478
 4805SOL    HW215315   6.322   0.741   2.554
 4806SOL     OW15316   1.042   3.491   2.834
 4806SOL    HW115317   1.106   3.416   2.848
 4806SOL    HW215318   1.056   3.531   2.743
 4807SOL     OW15319   1.735   3.562   6.729
 4807SOL    HW115320   1.803   3.573   6.802
 4807SOL    HW215321   1.748   3.474   6.684
 4808SOL     OW15322   4.383   5.321   0.483
 4808SOL    HW115323   4.411   5.406   0.526
 4808SOL    HW215324   4.388   5.330   0.383
 4809SOL     OW15325   3.819   4.255   1.604
 4809SOL    HW115326   3.846   4.349   1.628
 4809SOL    HW215327   3.719   4.250   1.599
 4810SOL     OW15328   1.568   4.441   3.632
 4810SOL    HW115329   1.636   4.369   3.618
 4810SOL    HW215330   1.615   4.528   3.648
 4811SOL     OW15331   3.977   3.886   3.872
 4811SOL    HW115332   4.031   3.833   3.937
 4811SOL    HW215333   3.972   3.837   3.785
 4812SOL     OW15334   0.802   7.015   2.255
 4812SOL    HW115335   0.764   0.083   2.252
 4812SOL    HW215336   0.789   6.976   2.347
 4813SOL     OW15337   5.881   2.101   6.000
 4813SOL    HW115338   5.824   2.181   6.018
 4813SOL    HW215339   5.976   2.121   6.027
 4814SOL     OW15340   6.980   3.193   2.427
 4814SOL    HW115341   6.953   3.101   2.453
 4814SOL    HW215342   0.043   3.190   2.377
 4815SOL     OW15343   5.121   4.479   2.764
 4815SOL    HW115344   5.039   4.507   2.714
 4815SOL    HW215345   5.137   4.381   2.749
 4816SOL     OW15346   2.413   5.891   1.108
 4816SOL    HW115347   2.379   5.985   1.114
 4816SOL    HW215348   2.409   5.849   1.198
 4817SOL     OW15349   3.178   1.339   1.929
 4817SOL    HW115350   3.106   1.388   1.880
 4817SOL    HW215351   3.266   1.353   1.882
 4818SOL     OW15352   1.304   1.454   4.019
 4818SOL    HW115353   1.338   1.385   3.955
 4818SOL    HW215354   1.212   1.430   4.048
 4819SOL     OW15355   3.048   1.722   1.891
 4819SOL    HW115356   3.088   1.641   1.932
 4819SOL    HW215357   3.031   1.791   1.961
 4820SOL     OW15358   6.237   2.245   1.019
 4820SOL    HW115359   6.300   2.220   0.946
 4820SOL    HW215360   6.287   2.257   1.104
 4821SOL     OW15361   6.499   6.325   1.506
 4821SOL    HW115362   6.511   6.351   1.411
 4821SOL    HW215363   6.415   6.270   1.516
 4822SOL     OW15364   1.852   2.985   4.143
 4822SOL    HW115365   1.761   3.021   4.165
 4822SOL    HW215366   1.862   2.894   4.182
 4823SOL     OW15367   6.843   0.708   3.663
 4823SOL    HW115368   6.915   0.681   3.727
 4823SOL    HW215369   6.850   0.654   3.579
 4824SOL     OW15370   5.953   1.408   3.821
 4824SOL    HW115371   5.884   1.335   3.823
 4824SOL    HW215372   5.914   1.489   3.777
 4825SOL     OW15373   2.366   2.728   4.433
 4825SOL    HW115374   2.366   2.653   4.499
 4825SOL    HW215375   2.299   2.797   4.462
 4826SOL     OW15376   0.950   0.204   0.664
 4826SOL    HW115377   0.871   0.250   0.624
 4826SOL    HW215378   1.034   0.245   0.630
 4827SOL     OW15379   6.168   0.686   1.590
 4827SOL    HW115380   6.077   0.658   1.561
 4827SOL    HW215381   6.161   0.763   1.654
 4828SOL     OW15382   6.007   3.656   1.291
 4828SOL    HW115383   6.006   3.636   1.389
 4828SOL    HW215384   5.973   3.576   1.241
 4829SOL     OW15385   3.908   6.565   6.522
 4829SOL    HW115386   3.889   6.644   6.581
 4829SOL    HW215387   3.848   6.489   6.548
 4830SOL     OW15388   5.106   5.910   3.684
 4830SOL    HW115389   5.052   5.868   3.612
 4830SOL    HW215390   5.180   5.848   3.712
 4831SOL     OW15391   6.498   5.392   5.857
 4831SOL    HW115392   6.586   5.433   5.834
 4831SOL    HW215393   6.479   5.404   5.954
 4832SOL     OW15394   2.926   2.807   6.095
 4832SOL    HW115395   2.976   2.894   6.097
 4832SOL    HW215396   2.992   2.732   6.090
 4833SOL     OW15397   5.176   1.821   3.084
 4833SOL    HW115398   5.189   1.734   3.131
 4833SOL    HW215399   5.150   1.891   3.150
 4834SOL     OW15400   3.391   0.104   0.297
 4834SOL    HW115401   3.339   0.180   0.334
 4834SOL    HW215402   3.466   0.082   0.359
 4835SOL     OW15403   1.646   0.636   6.743
 4835SOL    HW115404   1.657   0.537   6.736
 4835SOL    HW215405   1.584   0.658   6.818
 4836SOL     OW15406   4.634   2.626   3.858
 4836SOL    HW115407   4.550   2.572   3.855
 4836SOL    HW215408   4.708   2.571   3.896
 4837SOL     OW15409   3.857   3.077   1.606
 4837SOL    HW115410   3.824   3.096   1.698
 4837SOL    HW215411   3.790   3.112   1.540
 4838SOL     OW15412   2.329   5.148   1.891
 4838SOL    HW115413   2.236   5.113   1.895
 4838SOL    HW215414   2.393   5.075   1.914
 4839SOL     OW15415   1.755   3.786   5.554
 4839SOL    HW115416   1.660   3.802   5.526
 4839SOL    HW215417   1.777   3.844   5.632
 4840SOL     OW15418   0.060   6.979   5.845
 4840SOL    HW115419   0.093   0.039   5.887
 4840SOL    HW215420   6.996   6.997   5.801
 4841SOL     OW15421   3.114   5.831   1.713
 4841SOL    HW115422   3.173   5.906   1.683
 4841SOL    HW215423   3.129   5.751   1.654
 4842SOL     OW15424   3.363   4.692   1.548
 4842SOL    HW115425   3.358   4.717   1.452
 4842SOL    HW215426   3.281   4.641   1.574
 4843SOL     OW15427   6.305   3.959   0.436
 4843SOL    HW115428   6.375   3.918   0.495
 4843SOL    HW215429   6.276   4.046   0.474
 4844SOL     OW15430   6.883   4.058   6.050
 4844SOL    HW115431   6.795   4.019   6.078
 4844SOL    HW215432   6.913   4.125   6.118
 4845SOL     OW15433   6.608   5.792   4.468
 4845SOL    HW115434   6.599   5.759   4.562
 4845SOL    HW215435   6.525   5.842   4.441
 4846SOL     OW15436   6.574   3.506   2.370
 4846SOL    HW115437   6.626   3.486   2.287
 4846SOL    HW215438   6.638   3.526   2.445
 4847SOL     OW15439   3.581   1.782   5.753
 4847SOL    HW115440   3.496   1.756   5.800
 4847SOL    HW215441   3.560   1.852   5.684
 4848SOL     OW15442   1.833   1.258   4.046
 4848SOL    HW115443   1.871   1.285   4.135
 4848SOL    HW215444   1.905   1.215   3.992
 4849SOL     OW15445   0.978   6.875   6.857
 4849SOL    HW115446   1.074   6.884   6.885
 4849SOL    HW215447   0.947   6.962   6.817
 4850SOL     OW15448   4.290   1.251   2.268
 4850SOL    HW115449   4.304   1.171   2.326
 4850SOL    HW215450   4.305   1.334   2.321
 4851SOL     OW15451   3.504   5.724   4.895
 4851SOL    HW115452   3.523   5.752   4.800
 4851SOL    HW215453   3.406   5.704   4.904
 4852SOL     OW15454   0.964   0.161   6.813
 4852SOL    HW115455   1.035   0.190   6.748
 4852SOL    HW215456   0.875   0.162   6.768
 4853SOL     OW15457   2.963   0.965   2.304
 4853SOL    HW115458   2.945   0.932   2.396
 4853SOL    HW215459   2.964   0.889   2.240
 4854SOL     OW15460   5.074   6.482   2.183
 4854SOL    HW115461   5.022   6.401   2.209
 4854SOL    HW215462   5.038   6.562   2.230
 4855SOL     OW15463   5.743   2.550   2.599
 4855SOL    HW115464   5.740   2.650   2.592
 4855SOL    HW215465   5.727   2.510   2.509
 4856SOL     OW15466   1.570   4.130   2.583
 4856SOL    HW115467   1.558   4.166   2.490
 4856SOL    HW215468   1.499   4.061   2.601
 4857SOL     OW15469   1.785   2.362   5.506
 4857SOL    HW115470   1.880   2.332   5.500
 4857SOL    HW215471   1.771   2.412   5.591
 4858SOL     OW15472   1.946   0.886   4.591
 4858SOL    HW115473   1.933   0.982   4.566
 4858SOL    HW215474   1.867   0.833   4.561
 4859SOL     OW15475   1.097   0.699   4.183
 4859SOL    HW115476   1.014   0.749   4.210
 4859SOL    HW215477   1.082   0.656   4.094
 4860SOL     OW15478   3.320   4.891   1.817
 4860SOL    HW115479   3.332   4.879   1.915
 4860SOL    HW215480   3.228   4.926   1.798
 4861SOL     OW15481   5.419   5.318   0.113
 4861SOL    HW115482   5.497   5.260   0.088
 4861SOL    HW215483   5.453   5.401   0.158
 4862SOL     OW15484   2.893   4.859   4.914
 4862SOL    HW115485   2.885   4.784   4.979
 4862SOL    HW215486   2.823   4.850   4.844
 4863SOL     OW15487   6.008   4.307   0.941
 4863SOL    HW115488   5.975   4.317   0.847
 4863SOL    HW215489   6.029   4.211   0.958
 4864SOL     OW15490   3.824   1.226   3.977
 4864SOL    HW115491   3.881   1.286   3.922
 4864SOL    HW215492   3.738   1.273   3.999
 4865SOL     OW15493   1.764   0.705   5.673
 4865SOL    HW115494   1.728   0.623   5.719
 4865SOL    HW215495   1.778   0.777   5.741
 4866SOL     OW15496   6.869   2.937   0.912
 4866SOL    HW115497   6.895   2.846   0.943
 4866SOL    HW215498   6.817   2.930   0.827
 4867SOL     OW15499   4.094   5.331   3.251
 4867SOL    HW115500   4.002   5.337   3.212
 4867SOL    HW215501   4.159   5.303   3.180
 4868SOL     OW15502   6.354   5.099   2.826
 4868SOL    HW115503   6.447   5.064   2.839
 4868SOL    HW215504   6.301   5.085   2.910
 4869SOL     OW15505   1.886   1.701   1.493
 4869SOL    HW115506   1.830   1.670   1.417
 4869SOL    HW215507   1.840   1.775   1.541
 4870SOL     OW15508   0.874   6.308   1.861
 4870SOL    HW115509   0.827   6.362   1.792
 4870SOL    HW215510   0.969   6.339   1.870
 4871SOL     OW15511   0.628   1.230   3.646
 4871SOL    HW115512   0.673   1.313   3.613
 4871SOL    HW215513   0.655   1.152   3.589
 4872SOL     OW15514   6.076   0.132   3.280
 4872SOL    HW115515   5.990   0.121   3.331
 4872SOL    HW215516   6.146   0.074   3.321
 4873SOL     OW15517   6.944   5.506   4.316
 4873SOL    HW115518   6.923   5.552   4.230
 4873SOL    HW215519   6.914   5.562   4.393
 4874SOL     OW15520   5.241   3.965   2.412
 4874SOL    HW115521   5.223   3.899   2.338
 4874SOL    HW215522   5.340   3.979   2.420
 4875SOL     OW15523   6.332   1.329   0.223
 4875SOL    HW115524   6.375   1.347   0.312
 4875SOL    HW215525   6.389   1.367   0.150
 4876SOL     OW15526   0.132   1.791   3.647
 4876SOL    HW115527   0.157   1.790   3.550
 4876SOL    HW215528   0.088   1.704   3.671
 4877SOL     OW15529   0.457   1.490   5.381
 4877SOL    HW115530   0.544   1.461   5.420
 4877SOL    HW215531   0.474   1.551   5.303
 4878SOL     OW15532   6.685   1.160   1.857
 4878SOL    HW115533   6.711   1.069   1.824
 4878SOL    HW215534   6.641   1.152   1.946
 4879SOL     OW15535   4.432   1.694   2.005
 4879SOL    HW115536   4.350   1.746   2.027
 4879SOL    HW215537   4.437   1.679   1.906
 4880SOL     OW15538   5.805   3.168   6.978
 4880SOL    HW115539   5.721   3.143   0.002
 4880SOL    HW215540   5.783   3.197   6.885
 4881SOL     OW15541   1.823   1.389   6.980
 4881SOL    HW115542   1.840   1.356   0.049
 4881SOL    HW215543   1.747   1.338   6.941
 4882SOL     OW15544   4.529   1.001   5.154
 4882SOL    HW115545   4.537   1.070   5.226
 4882SOL    HW215546   4.452   0.940   5.174
 4883SOL     OW15547   4.797   4.195   1.263
 4883SOL    HW115548   4.824   4.135   1.188
 4883SOL    HW215549   4.732   4.148   1.322
 4884SOL     OW15550   3.061   5.376   1.448
 4884SOL    HW115551   3.085   5.298   1.506
 4884SOL    HW215552   3.090   5.357   1.354
 4885SOL     OW15553   2.227   5.349   1.150
 4885SOL    HW115554   2.324   5.356   1.125
 4885SOL    HW215555   2.185   5.272   1.102
 4886SOL     OW15556   2.716   6.392   1.520
 4886SOL    HW115557   2.656   6.436   1.454
 4886SOL    HW215558   2.811   6.410   1.496
 4887SOL     OW15559   6.995   6.395   1.395
 4887SOL    HW115560   6.900   6.372   1.416
 4887SOL    HW215561   7.014   6.489   1.425
 4888SOL     OW15562   2.696   0.095   4.044
 4888SOL    HW115563   2.668   0.047   4.126
 4888SOL    HW215564   2.661   0.188   4.046
 4889SOL     OW15565   0.239   1.674   5.145
 4889SOL    HW115566   0.219   1.680   5.047
 4889SOL    HW215567   0.214   1.760   5.189
 4890SOL     OW15568   0.132   1.359   5.520
 4890SOL    HW115569   0.046   1.401   5.493
 4890SOL    HW215570   0.165   1.401   5.604
 4891SOL     OW15571   2.155   5.368   6.995
 4891SOL    HW115572   2.147   5.417   0.058
 4891SOL    HW215573   2.149   5.269   7.012
 4892SOL     OW15574   4.434   5.489   2.143
 4892SOL    HW115575   4.352   5.545   2.133
 4892SOL    HW215576   4.514   5.548   2.153
 4893SOL     OW15577   5.863   3.174   2.262
 4893SOL    HW115578   5.785   3.172   2.324
 4893SOL    HW215579   5.941   3.217   2.308
 4894SOL     OW15580   3.881   1.021   2.785
 4894SOL    HW115581   3.846   0.961   2.713
 4894SOL    HW215582   3.808   1.043   2.850
 4895SOL     OW15583   0.601   4.692   4.230
 4895SOL    HW115584   0.643   4.766   4.177
 4895SOL    HW215585   0.505   4.713   4.245
 4896SOL     OW15586   2.502   4.532   2.332
 4896SOL    HW115587   2.545   4.621   2.339
 4896SOL    HW215588   2.512   4.497   2.239
 4897SOL     OW15589   1.569   5.204   5.275
 4897SOL    HW115590   1.577   5.275   5.345
 4897SOL    HW215591   1.484   5.217   5.223
 4898SOL     OW15592   4.181   1.142   4.862
 4898SOL    HW115593   4.209   1.164   4.956
 4898SOL    HW215594   4.087   1.108   4.863
 4899SOL     OW15595   5.850   4.968   2.740
 4899SOL    HW115596   5.870   4.871   2.754
 4899SOL    HW215597   5.808   4.981   2.650
 4900SOL     OW15598   3.584   5.982   5.016
 4900SOL    HW115599   3.573   6.067   4.965
 4900SOL    HW215600   3.560   5.905   4.956
 4901SOL     OW15601   2.375   1.658   5.411
 4901SOL    HW115602   2.471   1.636   5.391
 4901SOL    HW215603   2.337   1.590   5.473
 4902SOL     OW15604   1.139   1.340   4.542
 4902SOL    HW115605   1.146   1.376   4.635
 4902SOL    HW215606   1.132   1.240   4.545
 4903SOL     OW15607   4.362   5.608   0.310
 4903SOL    HW115608   4.325   5.668   0.381
 4903SOL    HW215609   4.415   5.663   0.245
 4904SOL     OW15610   1.764   6.732   5.696
 4904SOL    HW115611   1.752   6.825   5.732
 4904SOL    HW215612   1.792   6.671   5.770
 4905SOL     OW15613   3.602   0.841   3.592
 4905SOL    HW115614   3.618   0.898   3.673
 4905SOL    HW215615   3.516   0.868   3.549
 4906SOL     OW15616   4.959   1.828   6.397
 4906SOL    HW115617   4.959   1.923   6.367
 4906SOL    HW215618   4.900   1.773   6.338
 4907SOL     OW15619   4.921   0.056   1.728
 4907SOL    HW115620   4.900   6.984   1.711
 4907SOL    HW215621   4.872   0.087   1.809
 4908SOL     OW15622   5.603   6.673   6.843
 4908SOL    HW115623   5.573   6.603   6.909
 4908SOL    HW215624   5.609   6.633   6.752
 4909SOL     OW15625   0.056   5.558   3.473
 4909SOL    HW115626   0.039   5.575   3.570
 4909SOL    HW215627   0.063   5.646   3.425
 4910SOL     OW15628   5.475   0.844   4.539
 4910SOL    HW115629   5.431   0.927   4.504
 4910SOL    HW215630   5.418   0.765   4.519
 4911SOL     OW15631   1.825   3.649   3.377
 4911SOL    HW115632   1.787   3.741   3.380
 4911SOL    HW215633   1.753   3.582   3.396
 4912SOL     OW15634   5.766   1.855   6.013
 4912SOL    HW115635   5.819   1.940   6.017
 4912SOL    HW215636   5.675   1.871   6.051
 4913SOL     OW15637   4.070   3.414   5.051
 4913SOL    HW115638   3.999   3.482   5.072
 4913SOL    HW215639   4.040   3.324   5.083
 4914SOL     OW15640   4.777   6.760   5.169
 4914SOL    HW115641   4.822   6.769   5.080
 4914SOL    HW215642   4.760   6.664   5.189
 4915SOL     OW15643   2.110   6.313   5.495
 4915SOL    HW115644   2.057   6.253   5.555
 4915SOL    HW215645   2.182   6.261   5.450
 4916SOL     OW15646   0.669   1.137   3.918
 4916SOL    HW115647   0.642   1.216   3.863
 4916SOL    HW215648   0.695   1.167   4.010
 4917SOL     OW15649   2.914   5.689   1.351
 4917SOL    HW115650   2.920   5.593   1.323
 4917SOL    HW215651   2.832   5.731   1.312
 4918SOL     OW15652   5.390   6.174   1.967
 4918SOL    HW115653   5.305   6.197   1.919
 4918SOL    HW215654   5.416   6.250   2.026
 4919SOL     OW15655   2.863   3.273   1.088
 4919SOL    HW115656   2.840   3.370   1.093
 4919SOL    HW215657   2.869   3.245   0.992
 4920SOL     OW15658   5.387   0.557   4.781
 4920SOL    HW115659   5.483   0.533   4.763
 4920SOL    HW215660   5.346   0.594   4.697
 4921SOL     OW15661   1.375   5.698   6.865
 4921SOL    HW115662   1.340   5.697   6.772
 4921SOL    HW215663   1.336   5.622   6.917
 4922SOL     OW15664   3.083   2.196   4.100
 4922SOL    HW115665   3.141   2.277   4.106
 4922SOL    HW215666   2.988   2.224   4.089
 4923SOL     OW15667   3.267   1.168   2.671
 4923SOL    HW115668   3.270   1.267   2.656
 4923SOL    HW215669   3.185   1.131   2.627
 4924SOL     OW15670   3.447   1.506   4.261
 4924SOL    HW115671   3.478   1.581   4.321
 4924SOL    HW215672   3.369   1.538   4.206
 4925SOL     OW15673   5.646   0.952   2.076
 4925SOL    HW115674   5.635   0.952   2.176
 4925SOL    HW215675   5.735   0.991   2.053
 4926SOL     OW15676   5.949   1.775   1.717
 4926SOL    HW115677   5.897   1.714   1.777
 4926SOL    HW215678   5.892   1.852   1.690
 4927SOL     OW15679   3.088   3.479   4.740
 4927SOL    HW115680   3.038   3.532   4.809
 4927SOL    HW215681   3.068   3.382   4.751
 4928SOL     OW15682   1.441   0.979   0.381
 4928SOL    HW115683   1.438   1.079   0.391
 4928SOL    HW215684   1.354   0.947   0.343
 4929SOL     OW15685   6.422   0.302   4.383
 4929SOL    HW115686   6.426   0.258   4.472
 4929SOL    HW215687   6.500   0.272   4.327
 4930SOL     OW15688   5.813   0.313   2.864
 4930SOL    HW115689   5.857   0.395   2.900
 4930SOL    HW215690   5.869   0.276   2.790
 4931SOL     OW15691   6.334   6.597   1.481
 4931SOL    HW115692   6.385   6.644   1.410
 4931SOL    HW215693   6.265   6.538   1.439
 4932SOL     OW15694   3.881   3.012   2.950
 4932SOL    HW115695   3.903   2.995   2.854
 4932SOL    HW215696   3.819   2.941   2.983
 4933SOL     OW15697   2.612   6.959   2.089
 4933SOL    HW115698   2.616   6.918   1.998
 4933SOL    HW215699   2.652   0.026   2.086
 4934SOL     OW15700   3.643   5.691   3.083
 4934SOL    HW115701   3.612   5.597   3.098
 4934SOL    HW215702   3.696   5.696   2.998
 4935SOL     OW15703   1.837   2.068   6.278
 4935SOL    HW115704   1.915   2.096   6.223
 4935SOL    HW215705   1.812   2.141   6.341
 4936SOL     OW15706   3.465   5.045   1.334
 4936SOL    HW115707   3.512   5.133   1.328
 4936SOL    HW215708   3.406   5.033   1.254
 4937SOL     OW15709   5.899   3.038   5.890
 4937SOL    HW115710   5.810   3.065   5.927
 4937SOL    HW215711   5.959   3.117   5.889
 4938SOL     OW15712   1.904   5.706   5.470
 4938SOL    HW115713   1.810   5.730   5.494
 4938SOL    HW215714   1.964   5.726   5.548
 4939SOL     OW15715   5.418   1.966   5.086
 4939SOL    HW115716   5.325   1.966   5.122
 4939SOL    HW215717   5.451   2.061   5.079
 4940SOL     OW15718   0.899   1.058   4.368
 4940SOL    HW115719   0.978   1.014   4.411
 4940SOL    HW215720   0.833   1.084   4.439
 4941SOL     OW15721   4.489   2.180   6.226
 4941SOL    HW115722   4.513   2.083   6.232
 4941SOL    HW215723   4.391   2.189   6.211
 4942SOL     OW15724   5.268   2.908   5.639
 4942SOL    HW115725   5.312   2.968   5.572
 4942SOL    HW215726   5.169   2.923   5.636
 4943SOL     OW15727   3.951   3.351   0.442
 4943SOL    HW115728   3.997   3.266   0.418
 4943SOL    HW215729   4.018   3.416   0.478
 4944SOL     OW15730   2.228   4.228   2.916
 4944SOL    HW115731   2.241   4.129   2.927
 4944SOL    HW215732   2.140   4.245   2.871
 4945SOL     OW15733   1.046   1.157   3.817
 4945SOL    HW115734   1.144   1.137   3.811
 4945SOL    HW215735   1.000   1.084   3.867
 4946SOL     OW15736   0.128   2.976   1.301
 4946SOL    HW115737   0.060   2.974   1.374
 4946SOL    HW215738   0.219   2.961   1.340
 4947SOL     OW15739   1.500   0.684   0.973
 4947SOL    HW115740   1.519   0.606   1.033
 4947SOL    HW215741   1.472   0.762   1.029
 4948SOL     OW15742   2.524   0.307   2.544
 4948SOL    HW115743   2.542   0.248   2.465
 4948SOL    HW215744   2.425   0.321   2.552
 4949SOL     OW15745   4.439   0.028   5.191
 4949SOL    HW115746   4.390   0.084   5.258
 4949SOL    HW215747   4.461   6.963   5.231
 4950SOL     OW15748   3.039   5.479   3.783
 4950SOL    HW115749   2.977   5.533   3.841
 4950SOL    HW215750   2.992   5.454   3.699
 4951SOL     OW15751   5.480   1.398   4.940
 4951SOL    HW115752   5.487   1.364   5.034
 4951SOL    HW215753   5.529   1.335   4.878
 4952SOL     OW15754   0.609   0.949   4.768
 4952SOL    HW115755   0.623   1.032   4.822
 4952SOL    HW215756   0.515   0.947   4.734
 4953SOL     OW15757   2.236   6.443   1.860
 4953SOL    HW115758   2.311   6.398   1.909
 4953SOL    HW215759   2.269   6.527   1.818
 4954SOL     OW15760   4.690   4.590   6.546
 4954SOL    HW115761   4.729   4.674   6.584
 4954SOL    HW215762   4.722   4.579   6.452
 4955SOL     OW15763   1.306   6.739   6.098
 4955SOL    HW115764   1.325   6.748   6.195
 4955SOL    HW215765   1.230   6.798   6.073
 4956SOL     OW15766   3.001   6.877   5.020
 4956SOL    HW115767   3.020   6.967   5.060
 4956SOL    HW215768   2.966   6.889   4.927
 4957SOL     OW15769   0.152   0.900   3.269
 4957SOL    HW115770   0.156   0.930   3.364
 4957SOL    HW215771   0.178   0.976   3.209
 4958SOL     OW15772   6.833   6.271   5.933
 4958SOL    HW115773   6.899   6.199   5.910
 4958SOL    HW215774   6.759   6.231   5.988
 4959SOL     OW15775   6.459   1.450   6.361
 4959SOL    HW115776   6.376   1.404   6.391
 4959SOL    HW215777   6.489   1.411   6.274
 4960SOL     OW15778   3.156   6.154   3.407
 4960SOL    HW115779   3.109   6.068   3.428
 4960SOL    HW215780   3.219   6.176   3.482
 4961SOL     OW15781   5.077   1.779   5.365
 4961SOL    HW115782   4.977   1.775   5.369
 4961SOL    HW215783   5.112   1.697   5.320
 4962SOL     OW15784   6.084   2.950   1.415
 4962SOL    HW115785   6.125   3.031   1.373
 4962SOL    HW215786   5.988   2.966   1.433
 4963SOL     OW15787   5.938   5.955   0.693
 4963SOL    HW115788   6.029   5.995   0.691
 4963SOL    HW215789   5.911   5.926   0.601
 4964SOL     OW15790   3.587   6.428   3.285
 4964SOL    HW115791   3.622   6.420   3.191
 4964SOL    HW215792   3.489   6.443   3.282
 4965SOL     OW15793   0.419   0.041   3.906
 4965SOL    HW115794   0.505   0.032   3.956
 4965SOL    HW215795   0.343   0.026   3.969
 4966SOL     OW15796   2.316   6.640   4.956
 4966SOL    HW115797   2.374   6.670   4.881
 4966SOL    HW215798   2.355   6.669   5.043
 4967SOL     OW15799   3.993   3.350   6.488
 4967SOL    HW115800   3.975   3.447   6.470
 4967SOL    HW215801   3.977   3.330   6.585
 4968SOL     OW15802   5.403   2.863   3.466
 4968SOL    HW115803   5.442   2.953   3.485
 4968SOL    HW215804   5.303   2.869   3.467
 4969SOL     OW15805   2.168   1.080   2.240
 4969SOL    HW115806   2.083   1.131   2.258
 4969SOL    HW215807   2.213   1.059   2.326
 4970SOL     OW15808   1.501   2.432   4.778
 4970SOL    HW115809   1.510   2.394   4.686
 4970SOL    HW215810   1.590   2.431   4.823
 4971SOL     OW15811   6.493   6.063   3.219
 4971SOL    HW115812   6.398   6.066   3.185
 4971SOL    HW215813   6.545   5.997   3.165
 4972SOL     OW15814   2.176   3.485   0.277
 4972SOL    HW115815   2.095   3.523   0.321
 4972SOL    HW215816   2.155   3.464   0.181
 4973SOL     OW15817   0.203   7.021   1.572
 4973SOL    HW115818   0.120   6.979   1.608
 4973SOL    HW215819   0.202   0.095   1.591
 4974SOL     OW15820   6.249   4.368   0.598
 4974SOL    HW115821   6.196   4.362   0.513
 4974SOL    HW215822   6.278   4.276   0.625
 4975SOL     OW15823   5.954   6.016   0.081
 4975SOL    HW115824   6.022   6.025   0.008
 4975SOL    HW215825   5.872   6.068   0.057
 4976SOL     OW15826   3.336   0.487   4.469
 4976SOL    HW115827   3.349   0.531   4.380
 4976SOL    HW215828   3.399   0.528   4.535
 4977SOL     OW15829   4.894   4.098   0.935
 4977SOL    HW115830   4.954   4.174   0.911
 4977SOL    HW215831   4.947   4.029   0.985
 4978SOL     OW15832   6.635   3.295   5.518
 4978SOL    HW115833   6.687   3.303   5.603
 4978SOL    HW215834   6.551   3.245   5.535
 4979SOL     OW15835   6.807   1.652   5.326
 4979SOL    HW115836   6.810   1.656   5.226
 4979SOL    HW215837   6.738   1.718   5.359
 4980SOL     OW15838   4.563   0.190   3.343
 4980SOL    HW115839   4.526   0.097   3.340
 4980SOL    HW215840   4.650   0.189   3.393
 4981SOL     OW15841   4.783   5.689   5.824
 4981SOL    HW115842   4.806   5.645   5.910
 4981SOL    HW215843   4.846   5.766   5.809
 4982SOL     OW15844   2.418   1.460   6.908
 4982SOL    HW115845   2.381   1.478   6.999
 4982SOL    HW215846   2.502   1.407   6.915
 4983SOL     OW15847   5.172   3.064   4.625
 4983SOL    HW115848   5.122   3.045   4.710
 4983SOL    HW215849   5.107   3.076   4.550
 4984SOL     OW15850   5.632   3.624   4.241
 4984SOL    HW115851   5.578   3.678   4.306
 4984SOL    HW215852   5.729   3.632   4.263
 4985SOL     OW15853   6.402   5.827   3.438
 4985SOL    HW115854   6.332   5.885   3.479
 4985SOL    HW215855   6.391   5.826   3.339
 4986SOL     OW15856   6.717   4.516   3.264
 4986SOL    HW115857   6.725   4.520   3.164
 4986SOL    HW215858   6.800   4.477   3.303
 4987SOL     OW15859   0.682   1.837   1.361
 4987SOL    HW115860   0.730   1.756   1.394
 4987SOL    HW215861   0.609   1.860   1.424
 4988SOL     OW15862   6.818   1.764   3.463
 4988SOL    HW115863   6.878   1.746   3.384
 4988SOL    HW215864   6.804   1.678   3.513
 4989SOL     OW15865   6.221   1.023   1.256
 4989SOL    HW115866   6.266   0.948   1.208
 4989SOL    HW215867   6.282   1.103   1.258
 4990SOL     OW15868   1.338   1.496   6.232
 4990SOL    HW115869   1.305   1.588   6.256
 4990SOL    HW215870   1.340   1.439   6.315
 4991SOL     OW15871   0.747   4.188   3.388
 4991SOL    HW115872   0.755   4.288   3.388
 4991SOL    HW215873   0.689   4.159   3.463
 4992SOL     OW15874   5.147   0.443   4.067
 4992SOL    HW115875   5.133   0.390   3.983
 4992SOL    HW215876   5.060   0.459   4.112
 4993SOL     OW15877   2.567   4.568   3.945
 4993SOL    HW115878   2.620   4.653   3.951
 4993SOL    HW215879   2.571   4.533   3.851
 4994SOL     OW15880   1.588   0.444   2.549
 4994SOL    HW115881   1.596   0.348   2.576
 4994SOL    HW215882   1.594   0.451   2.449
 4995SOL     OW15883   6.828   2.849   5.978
 4995SOL    HW115884   6.833   2.919   5.907
 4995SOL    HW215885   6.885   2.876   6.056
 4996SOL     OW15886   1.509   0.635   2.723
 4996SOL    HW115887   1.527   0.562   2.657
 4996SOL    HW215888   1.422   0.678   2.702
 4997SOL     OW15889   6.190   2.462   2.936
 4997SOL    HW115890   6.241   2.384   2.901
 4997SOL    HW215891   6.123   2.491   2.868
 4998SOL     OW15892   2.155   3.870   4.953
 4998SOL    HW115893   2.212   3.939   4.999
 4998SOL    HW215894   2.177   3.869   4.856
 4999SOL     OW15895   5.172   5.791   1.091
 4999SOL    HW115896   5.167   5.880   1.135
 4999SOL    HW215897   5.143   5.799   0.995
 5000SOL     OW15898   1.320   0.464   4.126
 5000SOL    HW115899   1.330   0.557   4.162
 5000SOL    HW215900   1.358   0.399   4.191
 5001SOL     OW15901   1.718   4.247   5.997
 5001SOL    HW115902   1.680   4.330   5.958
 5001SOL    HW215903   1.788   4.271   6.065
 5002SOL     OW15904   1.359   2.917   3.177
 5002SOL    HW115905   1.297   2.980   3.131
 5002SOL    HW215906   1.439   2.966   3.209
 5003SOL     OW15907   0.944   6.444   3.517
 5003SOL    HW115908   0.980   6.384   3.446
 5003SOL    HW215909   0.897   6.521   3.474
 5004SOL     OW15910   2.301   5.485   5.645
 5004SOL    HW115911   2.319   5.583   5.653
 5004SOL    HW215912   2.358   5.435   5.710
 5005SOL     OW15913   3.364   2.012   0.729
 5005SOL    HW115914   3.407   2.010   0.639
 5005SOL    HW215915   3.315   2.099   0.740
 5006SOL     OW15916   5.472   6.851   6.172
 5006SOL    HW115917   5.464   6.860   6.073
 5006SOL    HW215918   5.400   6.904   6.216
 5007SOL     OW15919   2.351   0.319   6.327
 5007SOL    HW115920   2.352   0.418   6.324
 5007SOL    HW215921   2.269   0.288   6.376
 5008SOL     OW15922   6.942   6.918   4.086
 5008SOL    HW115923   6.941   7.017   4.071
 5008SOL    HW215924   6.851   6.887   4.114
 5009SOL     OW15925   2.222   6.770   1.705
 5009SOL    HW115926   2.152   6.754   1.635
 5009SOL    HW215927   2.192   6.844   1.766
 5010SOL     OW15928   3.373   3.428   3.631
 5010SOL    HW115929   3.355   3.357   3.563
 5010SOL    HW215930   3.460   3.474   3.609
 5011SOL     OW15931   2.080   3.597   2.232
 5011SOL    HW115932   2.111   3.686   2.267
 5011SOL    HW215933   2.134   3.571   2.153
 5012SOL     OW15934   5.618   2.560   6.884
 5012SOL    HW115935   5.612   2.503   6.966
 5012SOL    HW215936   5.530   2.559   6.837
 5013SOL     OW15937   5.026   1.133   6.900
 5013SOL    HW115938   4.934   1.120   6.939
 5013SOL    HW215939   5.066   1.217   6.937
 5014SOL     OW15940   5.718   5.424   0.756
 5014SOL    HW115941   5.690   5.481   0.679
 5014SOL    HW215942   5.817   5.429   0.767
 5015SOL     OW15943   4.225   1.837   3.844
 5015SOL    HW115944   4.256   1.782   3.921
 5015SOL    HW215945   4.279   1.813   3.763
 5016SOL     OW15946   2.193   1.893   2.075
 5016SOL    HW115947   2.104   1.935   2.095
 5016SOL    HW215948   2.235   1.939   1.997
 5017SOL     OW15949   2.036   2.377   0.849
 5017SOL    HW115950   2.063   2.288   0.813
 5017SOL    HW215951   2.109   2.443   0.834
 5018SOL     OW15952   0.578   4.720   1.384
 5018SOL    HW115953   0.627   4.761   1.307
 5018SOL    HW215954   0.563   4.788   1.455
 5019SOL     OW15955   2.880   4.550   0.290
 5019SOL    HW115956   2.964   4.503   0.318
 5019SOL    HW215957   2.841   4.598   0.369
 5020SOL     OW15958   5.468   6.632   5.336
 5020SOL    HW115959   5.483   6.714   5.391
 5020SOL    HW215960   5.371   6.626   5.311
 5021SOL     OW15961   1.380   3.365   5.856
 5021SOL    HW115962   1.437   3.289   5.826
 5021SOL    HW215963   1.306   3.330   5.914
 5022SOL     OW15964   1.598   0.469   1.138
 5022SOL    HW115965   1.659   0.506   1.208
 5022SOL    HW215966   1.633   0.380   1.107
 5023SOL     OW15967   6.488   3.407   0.452
 5023SOL    HW115968   6.491   3.319   0.497
 5023SOL    HW215969   6.540   3.474   0.505
 5024SOL     OW15970   6.932   4.238   2.897
 5024SOL    HW115971   6.924   4.169   2.970
 5024SOL    HW215972   6.970   4.322   2.936
 5025SOL     OW15973   4.720   2.020   1.897
 5025SOL    HW115974   4.794   2.079   1.866
 5025SOL    HW215975   4.714   2.024   1.997
 5026SOL     OW15976   5.983   6.058   6.543
 5026SOL    HW115977   6.039   6.107   6.476
 5026SOL    HW215978   5.886   6.081   6.528
 5027SOL     OW15979   1.031   6.987   2.987
 5027SOL    HW115980   0.961   6.952   3.050
 5027SOL    HW215981   1.007   6.963   2.893
 5028SOL     OW15982   0.364   6.528   1.993
 5028SOL    HW115983   0.439   6.580   1.952
 5028SOL    HW215984   0.330   6.461   1.928
 5029SOL     OW15985   6.928   3.183   3.358
 5029SOL    HW115986   6.934   3.085   3.338
 5029SOL    HW215987   6.849   3.222   3.310
 5030SOL     OW15988   6.531   0.896   6.801
 5030SOL    HW115989   6.501   0.804   6.826
 5030SOL    HW215990   6.474   0.964   6.848
 5031SOL     OW15991   5.822   1.316   4.631
 5031SOL    HW115992   5.896   1.250   4.644
 5031SOL    HW215993   5.795   1.317   4.534
 5032SOL     OW15994   1.711   4.024   0.961
 5032SOL    HW115995   1.670   4.098   0.908
 5032SOL    HW215996   1.741   3.952   0.899
 5033SOL     OW15997   2.015   4.902   6.463
 5033SOL    HW115998   1.952   4.931   6.391
 5033SOL    HW215999   2.018   4.803   6.466
 5034SOL     OW16000   0.208   3.781   2.288
 5034SOL    HW116001   0.135   3.849   2.299
 5034SOL    HW216002   0.192   3.705   2.352
 5035SOL     OW16003   5.989   4.765   1.090
 5035SOL    HW116004   5.996   4.781   1.188
 5035SOL    HW216005   6.020   4.847   1.041
 5036SOL     OW16006   0.296   5.600   6.657
 5036SOL    HW116007   0.345   5.669   6.603
 5036SOL    HW216008   0.251   5.644   6.734
 5037SOL     OW16009   4.604   2.651   2.789
 5037SOL    HW116010   4.521   2.618   2.744
 5037SOL    HW216011   4.595   2.639   2.888
 5038SOL     OW16012   1.376   5.402   5.835
 5038SOL    HW116013   1.374   5.309   5.799
 5038SOL    HW216014   1.344   5.466   5.765
 5039SOL     OW16015   2.218   3.572   5.328
 5039SOL    HW116016   2.241   3.512   5.405
 5039SOL    HW216017   2.120   3.591   5.329
 5040SOL     OW16018   2.414   3.783   6.504
 5040SOL    HW116019   2.491   3.775   6.441
 5040SOL    HW216020   2.349   3.708   6.486
 5041SOL     OW16021   0.584   3.612   1.047
 5041SOL    HW116022   0.550   3.642   1.136
 5041SOL    HW216023   0.539   3.525   1.022
 5042SOL     OW16024   0.308   3.076   6.933
 5042SOL    HW116025   0.259   2.996   6.899
 5042SOL    HW216026   0.406   3.064   6.918
 5043SOL     OW16027   3.346   0.975   5.573
 5043SOL    HW116028   3.443   0.966   5.552
 5043SOL    HW216029   3.292   0.927   5.503
 5044SOL     OW16030   6.358   6.541   3.228
 5044SOL    HW116031   6.262   6.532   3.200
 5044SOL    HW216032   6.387   6.457   3.274
 5045SOL     OW16033   4.986   3.533   0.418
 5045SOL    HW116034   4.898   3.580   0.417
 5045SOL    HW216035   5.048   3.575   0.352
 5046SOL     OW16036   3.854   2.979   4.472
 5046SOL    HW116037   3.907   3.058   4.504
 5046SOL    HW216038   3.815   2.931   4.551
 5047SOL     OW16039   6.346   2.267   2.676
 5047SOL    HW116040   6.258   2.234   2.711
 5047SOL    HW216041   6.420   2.233   2.733
 5048SOL     OW16042   6.333   2.712   1.516
 5048SOL    HW116043   6.304   2.739   1.608
 5048SOL    HW216044   6.427   2.741   1.501
 5049SOL     OW16045   6.357   1.026   3.081
 5049SOL    HW116046   6.344   1.125   3.078
 5049SOL    HW216047   6.295   0.986   3.149
 5050SOL     OW16048   0.216   1.748   2.084
 5050SOL    HW116049   0.285   1.688   2.044
 5050SOL    HW216050   0.125   1.718   2.056
 5051SOL     OW16051   3.959   3.035   0.079
 5051SOL    HW116052   4.026   3.096   0.036
 5051SOL    HW216053   3.873   3.085   0.093
 5052SOL     OW16054   2.598   5.002   6.491
 5052SOL    HW116055   2.574   5.003   6.394
 5052SOL    HW216056   2.619   4.908   6.519
 5053SOL     OW16057   1.997   3.707   2.970
 5053SOL    HW116058   2.028   3.743   3.058
 5053SOL    HW216059   1.972   3.783   2.910
 5054SOL     OW16060   3.893   5.430   5.189
 5054SOL    HW116061   3.953   5.486   5.247
 5054SOL    HW216062   3.801   5.469   5.189
 5055SOL     OW16063   6.836   1.410   4.522
 5055SOL    HW116064   6.791   1.362   4.447
 5055SOL    HW216065   6.930   1.377   4.531
 5056SOL     OW16066   6.675   3.971   6.206
 5056SOL    HW116067   6.670   4.033   6.284
 5056SOL    HW216068   6.694   3.879   6.239
 5057SOL     OW16069   1.601   5.261   3.498
 5057SOL    HW116070   1.528   5.328   3.486
 5057SOL    HW216071   1.607   5.202   3.417
 5058SOL     OW16072   3.644   3.809   6.501
 5058SOL    HW116073   3.559   3.758   6.489
 5058SOL    HW216074   3.665   3.860   6.418
 5059SOL     OW16075   5.237   3.395   4.783
 5059SOL    HW116076   5.143   3.407   4.815
 5059SOL    HW216077   5.277   3.314   4.827
 5060SOL     OW16078   6.876   2.600   5.070
 5060SOL    HW116079   6.964   2.644   5.051
 5060SOL    HW216080   6.809   2.627   5.000
 5061SOL     OW16081   2.879   3.529   3.655
 5061SOL    HW116082   2.853   3.496   3.565
 5061SOL    HW216083   2.930   3.459   3.704
 5062SOL     OW16084   5.758   1.840   2.121
 5062SOL    HW116085   5.701   1.767   2.084
 5062SOL    HW216086   5.804   1.808   2.204
 5063SOL     OW16087   1.315   6.296   1.645
 5063SOL    HW116088   1.217   6.287   1.627
 5063SOL    HW216089   1.352   6.374   1.596
 5064SOL     OW16090   4.984   5.580   0.706
 5064SOL    HW116091   4.932   5.497   0.723
 5064SOL    HW216092   5.034   5.572   0.620
 5065SOL     OW16093   1.813   0.357   2.846
 5065SOL    HW116094   1.720   0.321   2.855
 5065SOL    HW216095   1.810   0.457   2.841
 5066SOL     OW16096   2.488   4.038   1.750
 5066SOL    HW116097   2.516   4.075   1.662
 5066SOL    HW216098   2.400   3.991   1.740
 5067SOL     OW16099   4.517   1.998   2.137
 5067SOL    HW116100   4.466   1.936   2.078
 5067SOL    HW216101   4.456   2.039   2.204
 5068SOL     OW16102   2.953   5.518   0.100
 5068SOL    HW116103   2.909   5.481   0.018
 5068SOL    HW216104   2.883   5.556   0.161
 5069SOL     OW16105   2.303   2.888   5.542
 5069SOL    HW116106   2.383   2.874   5.601
 5069SOL    HW216107   2.234   2.940   5.591
 5070SOL     OW16108   5.920   4.319   4.368
 5070SOL    HW116109   5.985   4.264   4.316
 5070SOL    HW216110   5.920   4.413   4.334
 5071SOL     OW16111   3.818   2.169   3.670
 5071SOL    HW116112   3.911   2.180   3.706
 5071SOL    HW216113   3.822   2.126   3.580
 5072SOL     OW16114   2.251   1.500   1.686
 5072SOL    HW116115   2.294   1.409   1.684
 5072SOL    HW216116   2.320   1.568   1.713
 5073SOL     OW16117   1.329   5.693   1.473
 5073SOL    HW116118   1.243   5.729   1.510
 5073SOL    HW216119   1.401   5.698   1.542
 5074SOL     OW16120   3.642   1.856   1.864
 5074SOL    HW116121   3.661   1.848   1.961
 5074SOL    HW216122   3.614   1.767   1.827
 5075SOL     OW16123   1.087   2.270   0.049
 5075SOL    HW116124   1.036   2.272   0.135
 5075SOL    HW216125   1.185   2.271   0.070
 5076SOL     OW16126   5.146   0.204   0.115
 5076SOL    HW116127   5.232   0.177   0.071
 5076SOL    HW216128   5.111   0.287   0.071
 5077SOL     OW16129   1.072   3.658   5.980
 5077SOL    HW116130   0.990   3.604   5.959
 5077SOL    HW216131   1.047   3.753   5.996
 5078SOL     OW16132   0.496   0.864   4.150
 5078SOL    HW116133   0.550   0.836   4.071
 5078SOL    HW216134   0.473   0.961   4.143
 5079SOL     OW16135   2.453   2.663   5.860
 5079SOL    HW116136   2.428   2.754   5.891
 5079SOL    HW216137   2.515   2.621   5.926
 5080SOL     OW16138   5.850   5.814   5.295
 5080SOL    HW116139   5.769   5.798   5.240
 5080SOL    HW216140   5.846   5.906   5.334
 5081SOL     OW16141   2.942   4.771   5.549
 5081SOL    HW116142   2.982   4.743   5.462
 5081SOL    HW216143   2.855   4.723   5.562
 5082SOL     OW16144   4.428   0.015   0.158
 5082SOL    HW116145   4.446   6.990   0.073
 5082SOL    HW216146   4.441   6.976   0.235
 5083SOL     OW16147   3.596   0.180   0.836
 5083SOL    HW116148   3.637   0.097   0.874
 5083SOL    HW216149   3.657   0.258   0.851
 5084SOL     OW16150   0.359   4.914   4.631
 5084SOL    HW116151   0.445   4.941   4.586
 5084SOL    HW216152   0.310   4.851   4.572
 5085SOL     OW16153   1.459   3.151   5.651
 5085SOL    HW116154   1.380   3.121   5.597
 5085SOL    HW216155   1.543   3.128   5.602
 5086SOL     OW16156   0.081   4.228   2.301
 5086SOL    HW116157   7.017   4.275   2.294
 5086SOL    HW216158   0.148   4.275   2.244
 5087SOL     OW16159   6.971   5.535   2.592
 5087SOL    HW116160   6.910   5.487   2.530
 5087SOL    HW216161   6.950   5.509   2.686
 5088SOL     OW16162   4.513   6.696   3.537
 5088SOL    HW116163   4.490   6.787   3.503
 5088SOL    HW216164   4.611   6.679   3.523
 5089SOL     OW16165   5.527   4.432   4.407
 5089SOL    HW116166   5.446   4.474   4.367
 5089SOL    HW216167   5.586   4.397   4.335
 5090SOL     OW16168   2.405   1.084   2.995
 5090SOL    HW116169   2.386   1.000   2.943
 5090SOL    HW216170   2.321   1.135   3.008
 5091SOL     OW16171   6.308   0.674   0.979
 5091SOL    HW116172   6.318   0.772   0.966
 5091SOL    HW216173   6.225   0.655   1.031
 5092SOL     OW16174   3.438   2.973   3.746
 5092SOL    HW116175   3.511   3.003   3.684
 5092SOL    HW216176   3.349   2.991   3.704
 5093SOL     OW16177   2.789   1.760   1.489
 5093SOL    HW116178   2.809   1.706   1.407
 5093SOL    HW216179   2.866   1.753   1.552
 5094SOL     OW16180   1.759   5.734   6.516
 5094SOL    HW116181   1.781   5.830   6.500
 5094SOL    HW216182   1.672   5.712   6.472
 5095SOL     OW16183   0.767   1.743   2.697
 5095SOL    HW116184   0.817   1.815   2.745
 5095SOL    HW216185   0.730   1.678   2.763
 5096SOL     OW16186   5.006   4.760   6.398
 5096SOL    HW116187   5.024   4.662   6.400
 5096SOL    HW216188   5.077   4.808   6.450
 5097SOL     OW16189   6.958   0.320   0.203
 5097SOL    HW116190   6.906   0.242   0.169
 5097SOL    HW216191   6.987   0.378   0.127
 5098SOL     OW16192   3.360   2.268   1.204
 5098SOL    HW116193   3.433   2.323   1.245
 5098SOL    HW216194   3.395   2.176   1.185
 5099SOL     OW16195   0.016   6.183   1.631
 5099SOL    HW116196   7.014   6.208   1.538
 5099SOL    HW216197   7.020   6.258   1.693
 5100SOL     OW16198   2.982   5.401   3.534
 5100SOL    HW116199   3.032   5.316   3.522
 5100SOL    HW216200   3.034   5.477   3.495
 5101SOL     OW16201   4.936   6.928   4.975
 5101SOL    HW116202   4.852   6.977   4.951
 5101SOL    HW216203   4.968   6.960   5.065
 5102SOL     OW16204   5.115   6.021   4.525
 5102SOL    HW116205   5.158   5.960   4.591
 5102SOL    HW216206   5.104   6.112   4.566
 5103SOL     OW16207   0.814   1.411   4.668
 5103SOL    HW116208   0.730   1.464   4.669
 5103SOL    HW216209   0.839   1.389   4.574
 5104SOL     OW16210   2.968   6.120   1.532
 5104SOL    HW116211   2.989   6.183   1.607
 5104SOL    HW216212   2.881   6.074   1.550
 5105SOL     OW16213   3.094   2.579   6.138
 5105SOL    HW116214   3.077   2.540   6.229
 5105SOL    HW216215   3.177   2.538   6.099
 5106SOL     OW16216   4.040   1.524   1.018
 5106SOL    HW116217   4.052   1.587   1.095
 5106SOL    HW216218   3.957   1.548   0.968
 5107SOL     OW16219   5.012   2.183   0.915
 5107SOL    HW116220   4.956   2.263   0.898
 5107SOL    HW216221   4.956   2.100   0.905
 5108SOL     OW16222   3.966   3.949   4.900
 5108SOL    HW116223   3.915   4.031   4.928
 5108SOL    HW216224   4.022   3.916   4.975
 5109SOL     OW16225   1.252   2.548   0.355
 5109SOL    HW116226   1.293   2.487   0.424
 5109SOL    HW216227   1.155   2.526   0.346
 5110SOL     OW16228   0.341   0.683   6.405
 5110SOL    HW116229   0.409   0.661   6.335
 5110SOL    HW216230   0.361   0.630   6.488
 5111SOL     OW16231   0.933   0.084   4.209
 5111SOL    HW116232   0.883   0.169   4.192
 5111SOL    HW216233   1.031   0.101   4.201
 5112SOL     OW16234   0.761   0.682   2.911
 5112SOL    HW116235   0.808   0.730   2.985
 5112SOL    HW216236   0.785   0.585   2.913
 5113SOL     OW16237   1.079   6.046   1.382
 5113SOL    HW116238   1.160   6.064   1.438
 5113SOL    HW216239   1.102   6.054   1.285
 5114SOL     OW16240   3.727   6.476   6.785
 5114SOL    HW116241   3.704   6.414   6.860
 5114SOL    HW216242   3.734   6.425   6.700
 5115SOL     OW16243   1.820   4.445   2.264
 5115SOL    HW116244   1.889   4.429   2.193
 5115SOL    HW216245   1.861   4.498   2.338
 5116SOL     OW16246   2.072   6.701   0.313
 5116SOL    HW116247   2.042   6.716   0.407
 5116SOL    HW216248   2.008   6.744   0.250
 5117SOL     OW16249   0.969   3.942   3.869
 5117SOL    HW116250   0.882   3.961   3.914
 5117SOL    HW216251   1.041   3.997   3.911
 5118SOL     OW16252   5.842   1.202   0.216
 5118SOL    HW116253   5.890   1.120   0.249
 5118SOL    HW216254   5.902   1.281   0.224
 5119SOL     OW16255   4.634   1.518   1.618
 5119SOL    HW116256   4.669   1.448   1.555
 5119SOL    HW216257   4.654   1.609   1.581
 5120SOL     OW16258   5.001   6.448   5.391
 5120SOL    HW116259   5.013   6.369   5.331
 5120SOL    HW216260   5.036   6.530   5.344
 5121SOL     OW16261   2.964   3.360   6.769
 5121SOL    HW116262   3.002   3.404   6.851
 5121SOL    HW216263   3.031   3.366   6.695
 5122SOL     OW16264   3.059   6.002   3.010
 5122SOL    HW116265   3.128   6.041   3.070
 5122SOL    HW216266   3.104   5.948   2.938
 5123SOL     OW16267   5.794   1.873   4.280
 5123SOL    HW116268   5.792   1.969   4.310
 5123SOL    HW216269   5.885   1.851   4.245
 5124SOL     OW16270   2.331   6.236   4.193
 5124SOL    HW116271   2.267   6.166   4.223
 5124SOL    HW216272   2.362   6.216   4.100
 5125SOL     OW16273   0.307   1.968   3.209
 5125SOL    HW116274   0.384   1.908   3.231
 5125SOL    HW216275   0.341   2.057   3.181
 5126SOL     OW16276   0.589   6.131   6.791
 5126SOL    HW116277   0.501   6.088   6.814
 5126SOL    HW216278   0.664   6.072   6.822
 5127SOL     OW16279   0.234   5.316   6.862
 5127SOL    HW116280   0.149   5.360   6.833
 5127SOL    HW216281   0.293   5.301   6.783
 5128SOL     OW16282   6.773   6.688   0.880
 5128SOL    HW116283   6.769   6.764   0.945
 5128SOL    HW216284   6.744   6.604   0.926
 5129SOL     OW16285   4.854   6.693   2.777
 5129SOL    HW116286   4.902   6.607   2.763
 5129SOL    HW216287   4.907   6.752   2.838
 5130SOL     OW16288   6.976   5.356   2.873
 5130SOL    HW116289   0.035   5.401   2.840
 5130SOL    HW216290   6.994   5.313   2.961
 5131SOL     OW16291   2.150   3.607   4.381
 5131SOL    HW116292   2.183   3.527   4.431
 5131SOL    HW216293   2.122   3.677   4.445
 5132SOL     OW16294   4.451   2.987   5.854
 5132SOL    HW116295   4.419   3.005   5.947
 5132SOL    HW216296   4.522   2.918   5.856
 5133SOL     OW16297   2.735   5.051   0.152
 5133SOL    HW116298   2.663   5.116   0.175
 5133SOL    HW216299   2.803   5.048   0.225
 5134SOL     OW16300   6.756   2.559   1.979
 5134SOL    HW116301   6.789   2.484   1.922
 5134SOL    HW216302   6.771   2.538   2.075
 5135SOL     OW16303   6.304   2.146   4.803
 5135SOL    HW116304   6.279   2.137   4.899
 5135SOL    HW216305   6.352   2.063   4.774
 5136SOL     OW16306   4.893   0.122   5.795
 5136SOL    HW116307   4.854   0.208   5.762
 5136SOL    HW216308   4.819   0.058   5.815
 5137SOL     OW16309   5.648   3.276   6.693
 5137SOL    HW116310   5.553   3.251   6.676
 5137SOL    HW216311   5.708   3.206   6.653
 5138SOL     OW16312   3.301   2.659   5.740
 5138SOL    HW116313   3.242   2.739   5.751
 5138SOL    HW216314   3.394   2.689   5.720
 5139SOL     OW16315   1.504   6.829   3.644
 5139SOL    HW116316   1.430   6.783   3.692
 5139SOL    HW216317   1.540   6.770   3.572
 5140SOL     OW16318   3.594   1.296   0.350
 5140SOL    HW116319   3.647   1.380   0.366
 5140SOL    HW216320   3.506   1.319   0.310
 5141SOL     OW16321   6.957   3.835   0.594
 5141SOL    HW116322   6.998   3.858   0.683
 5141SOL    HW216323   0.004   3.831   0.525
 5142SOL     OW16324   6.273   1.266   3.982
 5142SOL    HW116325   6.276   1.177   3.935
 5142SOL    HW216326   6.192   1.270   4.040
 5143SOL     OW16327   0.569   4.460   4.126
 5143SOL    HW116328   0.587   4.541   4.182
 5143SOL    HW216329   0.489   4.476   4.069
 5144SOL     OW16330   0.740   5.561   6.581
 5144SOL    HW116331   0.732   5.558   6.482
 5144SOL    HW216332   0.736   5.468   6.618
 5145SOL     OW16333   1.490   4.769   6.085
 5145SOL    HW116334   1.579   4.757   6.129
 5145SOL    HW216335   1.418   4.743   6.149
 5146SOL     OW16336   4.155   3.602   5.363
 5146SOL    HW116337   4.088   3.591   5.290
 5146SOL    HW216338   4.167   3.514   5.411
 5147SOL     OW16339   6.768   4.671   2.333
 5147SOL    HW116340   6.847   4.724   2.362
 5147SOL    HW216341   6.686   4.707   2.377
 5148SOL     OW16342   0.951   6.625   1.052
 5148SOL    HW116343   1.041   6.591   1.024
 5148SOL    HW216344   0.885   6.551   1.047
 5149SOL     OW16345   5.964   6.005   4.321
 5149SOL    HW116346   5.991   6.063   4.244
 5149SOL    HW216347   5.921   5.921   4.286
 5150SOL     OW16348   2.210   5.236   2.948
 5150SOL    HW116349   2.298   5.191   2.931
 5150SOL    HW216350   2.169   5.197   3.030
 5151SOL     OW16351   5.350   1.874   0.490
 5151SOL    HW116352   5.413   1.813   0.537
 5151SOL    HW216353   5.392   1.965   0.482
 5152SOL     OW16354   2.177   4.489   6.615
 5152SOL    HW116355   2.260   4.545   6.605
 5152SOL    HW216356   2.120   4.528   6.687
 5153SOL     OW16357   2.407   0.772   6.700
 5153SOL    HW116358   2.463   0.852   6.721
 5153SOL    HW216359   2.439   0.730   6.615
 5154SOL     OW16360   1.850   2.944   6.516
 5154SOL    HW116361   1.821   2.862   6.468
 5154SOL    HW216362   1.821   2.939   6.612
 5155SOL     OW16363   3.536   6.642   2.341
 5155SOL    HW116364   3.584   6.566   2.298
 5155SOL    HW216365   3.577   6.661   2.431
 5156SOL     OW16366   6.888   3.280   5.682
 5156SOL    HW116367   6.918   3.362   5.730
 5156SOL    HW216368   6.946   3.266   5.601
 5157SOL     OW16369   4.454   2.400   3.686
 5157SOL    HW116370   4.377   2.342   3.658
 5157SOL    HW216371   4.489   2.450   3.606
 5158SOL     OW16372   3.151   1.220   1.590
 5158SOL    HW116373   3.233   1.163   1.581
 5158SOL    HW216374   3.079   1.169   1.636
 5159SOL     OW16375   0.407   3.346   4.444
 5159SOL    HW116376   0.505   3.341   4.424
 5159SOL    HW216377   0.366   3.255   4.435
 5160SOL     OW16378   0.566   4.415   3.324
 5160SOL    HW116379   0.650   4.470   3.332
 5160SOL    HW216380   0.487   4.477   3.320
 5161SOL     OW16381   1.912   3.505   4.299
 5161SOL    HW116382   1.980   3.571   4.331
 5161SOL    HW216383   1.877   3.533   4.210
 5162SOL     OW16384   1.222   4.771   4.135
 5162SOL    HW116385   1.278   4.825   4.071
 5162SOL    HW216386   1.253   4.788   4.229
 5163SOL     OW16387   3.467   5.054   0.849
 5163SOL    HW116388   3.465   4.983   0.779
 5163SOL    HW216389   3.541   5.035   0.914
 5164SOL     OW16390   5.262   2.521   0.193
 5164SOL    HW116391   5.259   2.581   0.113
 5164SOL    HW216392   5.231   2.429   0.167
 5165SOL     OW16393   6.119   3.768   5.102
 5165SOL    HW116394   6.085   3.701   5.036
 5165SOL    HW216395   6.079   3.749   5.191
 5166SOL     OW16396   0.929   5.922   2.192
 5166SOL    HW116397   0.951   5.830   2.225
 5166SOL    HW216398   0.927   5.985   2.270
 5167SOL     OW16399   5.909   0.091   5.952
 5167SOL    HW116400   5.923   0.024   6.025
 5167SOL    HW216401   5.987   0.090   5.890
 5168SOL     OW16402   5.116   2.954   3.430
 5168SOL    HW116403   5.067   2.970   3.516
 5168SOL    HW216404   5.054   2.915   3.363
 5169SOL     OW16405   3.487   2.126   5.790
 5169SOL    HW116406   3.501   2.074   5.874
 5169SOL    HW216407   3.424   2.076   5.730
 5170SOL     OW16408   6.853   3.394   6.131
 5170SOL    HW116409   6.808   3.463   6.075
 5170SOL    HW216410   6.880   3.316   6.074
 5171SOL     OW16411   2.222   5.029   3.876
 5171SOL    HW116412   2.149   5.096   3.864
 5171SOL    HW216413   2.185   4.945   3.916
 5172SOL     OW16414   6.871   3.098   2.075
 5172SOL    HW116415   6.939   3.150   2.127
 5172SOL    HW216416   6.864   3.006   2.112
 5173SOL     OW16417   5.986   4.849   6.054
 5173SOL    HW116418   5.931   4.789   5.996
 5173SOL    HW216419   5.926   4.903   6.113
 5174SOL     OW16420   2.043   4.620   3.591
 5174SOL    HW116421   2.029   4.521   3.585
 5174SOL    HW216422   2.086   4.653   3.507
 5175SOL     OW16423   2.590   4.558   6.791
 5175SOL    HW116424   2.528   4.585   6.864
 5175SOL    HW216425   2.612   4.460   6.799
 5176SOL     OW16426   4.437   3.475   0.436
 5176SOL    HW116427   4.457   3.418   0.515
 5176SOL    HW216428   4.482   3.436   0.355
 5177SOL     OW16429   4.669   0.104   6.069
 5177SOL    HW116430   4.663   0.203   6.081
 5177SOL    HW216431   4.640   0.079   5.977
 5178SOL     OW16432   1.885   3.088   1.307
 5178SOL    HW116433   1.942   3.115   1.229
 5178SOL    HW216434   1.939   3.093   1.391
 5179SOL     OW16435   4.224   5.945   5.257
 5179SOL    HW116436   4.191   5.920   5.348
 5179SOL    HW216437   4.161   6.010   5.215
 5180SOL     OW16438   3.325   3.023   6.173
 5180SOL    HW116439   3.343   3.016   6.272
 5180SOL    HW216440   3.402   2.986   6.122
 5181SOL     OW16441   5.378   1.617   2.348
 5181SOL    HW116442   5.359   1.527   2.309
 5181SOL    HW216443   5.318   1.685   2.305
 5182SOL     OW16444   4.532   4.795   1.333
 5182SOL    HW116445   4.623   4.835   1.343
 5182SOL    HW216446   4.525   4.754   1.242
 5183SOL     OW16447   3.996   0.648   2.524
 5183SOL    HW116448   4.092   0.657   2.549
 5183SOL    HW216449   3.951   0.737   2.536
 5184SOL     OW16450   0.599   2.200   4.117
 5184SOL    HW116451   0.585   2.258   4.197
 5184SOL    HW216452   0.599   2.257   4.034
 5185SOL     OW16453   4.852   6.962   3.321
 5185SOL    HW116454   4.881   6.869   3.301
 5185SOL    HW216455   4.853   7.016   3.237
 5186SOL     OW16456   5.403   3.653   0.959
 5186SOL    HW116457   5.308   3.624   0.968
 5186SOL    HW216458   5.417   3.692   0.868
 5187SOL     OW16459   6.404   0.642   3.715
 5187SOL    HW116460   6.355   0.661   3.800
 5187SOL    HW216461   6.471   0.714   3.698
 5188SOL     OW16462   0.878   5.063   0.511
 5188SOL    HW116463   0.835   5.141   0.465
 5188SOL    HW216464   0.977   5.079   0.517
 5189SOL     OW16465   4.892   4.683   1.214
 5189SOL    HW116466   4.814   4.662   1.156
 5189SOL    HW216467   4.915   4.603   1.270
 5190SOL     OW16468   0.659   2.355   4.342
 5190SOL    HW116469   0.722   2.382   4.269
 5190SOL    HW216470   0.627   2.437   4.390
 5191SOL     OW16471   4.453   0.340   2.031
 5191SOL    HW116472   4.542   0.341   2.076
 5191SOL    HW216473   4.383   0.378   2.092
 5192SOL     OW16474   3.695   5.627   2.401
 5192SOL    HW116475   3.595   5.622   2.394
 5192SOL    HW216476   3.734   5.634   2.310
 5193SOL     OW16477   4.981   5.099   4.023
 5193SOL    HW116478   4.884   5.104   4.045
 5193SOL    HW216479   5.028   5.043   4.091
 5194SOL     OW16480   4.489   0.324   6.710
 5194SOL    HW116481   4.477   0.421   6.730
 5194SOL    HW216482   4.517   0.312   6.615
 5195SOL     OW16483   6.621   5.920   3.935
 5195SOL    HW116484   6.694   5.968   3.985
 5195SOL    HW216485   6.599   5.836   3.983
 5196SOL     OW16486   1.249   3.552   0.883
 5196SOL    HW116487   1.183   3.516   0.949
 5196SOL    HW216488   1.311   3.615   0.929
 5197SOL     OW16489   1.863   5.873   4.370
 5197SOL    HW116490   1.944   5.821   4.397
 5197SOL    HW216491   1.839   5.937   4.442
 5198SOL     OW16492   3.954   0.317   4.038
 5198SOL    HW116493   4.026   0.358   4.094
 5198SOL    HW216494   3.994   0.245   3.982
 5199SOL     OW16495   1.807   5.941   0.295
 5199SOL    HW116496   1.878   5.989   0.245
 5199SOL    HW216497   1.773   5.864   0.241
 5200SOL     OW16498   1.166   1.911   5.272
 5200SOL    HW116499   1.231   1.836   5.264
 5200SOL    HW216500   1.215   1.996   5.292
 5201SOL     OW16501   5.093   5.757   4.235
 5201SOL    HW116502   5.144   5.731   4.316
 5201SOL    HW216503   5.037   5.838   4.255
 5202SOL     OW16504   5.994   3.609   6.203
 5202SOL    HW116505   5.990   3.632   6.300
 5202SOL    HW216506   6.089   3.611   6.172
 5203SOL     OW16507   2.019   0.350   0.056
 5203SOL    HW116508   2.075   0.378   7.002
 5203SOL    HW216509   2.036   0.412   0.133
 5204SOL     OW16510   3.335   6.256   0.118
 5204SOL    HW116511   3.298   6.332   0.171
 5204SOL    HW216512   3.275   6.236   0.041
 5205SOL     OW16513   6.966   5.535   0.299
 5205SOL    HW116514   6.945   5.581   0.213
 5205SOL    HW216515   7.022   5.594   0.356
 5206SOL     OW16516   0.942   4.953   5.621
 5206SOL    HW116517   0.852   4.939   5.661
 5206SOL    HW216518   0.945   4.913   5.530
 5207SOL     OW16519   0.700   0.956   3.546
 5207SOL    HW116520   0.608   0.917   3.536
 5207SOL    HW216521   0.768   0.882   3.540
 5208SOL     OW16522   4.297   2.447   0.425
 5208SOL    HW116523   4.395   2.467   0.426
 5208SOL    HW216524   4.273   2.405   0.337
 5209SOL     OW16525   5.426   0.507   1.683
 5209SOL    HW116526   5.456   0.583   1.626
 5209SOL    HW216527   5.500   0.441   1.693
 5210SOL     OW16528   5.118   4.000   1.081
 5210SOL    HW116529   5.213   3.976   1.102
 5210SOL    HW216530   5.059   3.921   1.100
 5211SOL     OW16531   5.160   1.751   4.906
 5211SOL    HW116532   5.096   1.676   4.922
 5211SOL    HW216533   5.254   1.715   4.909
 5212SOL     OW16534   1.208   2.882   1.028
 5212SOL    HW116535   1.240   2.825   1.104
 5212SOL    HW216536   1.142   2.831   0.974
 5213SOL     OW16537   4.248   3.497   1.146
 5213SOL    HW116538   4.335   3.466   1.184
 5213SOL    HW216539   4.188   3.528   1.220
 5214SOL     OW16540   5.048   3.562   5.550
 5214SOL    HW116541   5.088   3.648   5.585
 5214SOL    HW216542   4.999   3.580   5.465
 5215SOL     OW16543   6.990   4.294   4.323
 5215SOL    HW116544   7.009   4.382   4.367
 5215SOL    HW216545   6.928   4.241   4.380
 5216SOL     OW16546   4.852   5.718   1.083
 5216SOL    HW116547   4.904   5.768   1.015
 5216SOL    HW216548   4.911   5.696   1.161
 5217SOL     OW16549   3.986   5.984   4.578
 5217SOL    HW116550   4.035   5.992   4.665
 5217SOL    HW216551   3.912   5.918   4.587
 5218SOL     OW16552   0.440   0.942   1.107
 5218SOL    HW116553   0.342   0.923   1.110
 5218SOL    HW216554   0.490   0.856   1.096
 5219SOL     OW16555   3.584   1.794   3.988
 5219SOL    HW116556   3.648   1.805   4.064
 5219SOL    HW216557   3.600   1.866   3.921
 5220SOL     OW16558   1.900   4.841   2.647
 5220SOL    HW116559   1.821   4.784   2.626
 5220SOL    HW216560   1.881   4.895   2.729
 5221SOL     OW16561   7.018   0.451   2.238
 5221SOL    HW116562   6.997   0.547   2.223
 5221SOL    HW216563   6.966   0.417   2.316
 5222SOL     OW16564   3.441   5.613   2.311
 5222SOL    HW116565   3.458   5.702   2.269
 5222SOL    HW216566   3.412   5.548   2.241
 5223SOL     OW16567   0.602   2.537   0.807
 5223SOL    HW116568   0.584   2.620   0.754
 5223SOL    HW216569   0.529   2.471   0.790
 5224SOL     OW16570   0.090   1.973   4.334
 5224SOL    HW116571   0.092   1.874   4.354
 5224SOL    HW216572   7.020   2.003   4.321
 5225SOL     OW16573   0.087   0.498   4.155
 5225SOL    HW116574   0.102   0.460   4.064
 5225SOL    HW216575   0.153   0.571   4.171
 5226SOL     OW16576   0.729   6.286   3.477
 5226SOL    HW116577   0.795   6.341   3.527
 5226SOL    HW216578   0.643   6.337   3.468
 5227SOL     OW16579   6.780   3.929   5.827
 5227SOL    HW116580   6.683   3.954   5.833
 5227SOL    HW216581   6.833   3.988   5.887
 5228SOL     OW16582   0.532   2.418   0.285
 5228SOL    HW116583   0.495   2.498   0.332
 5228SOL    HW216584   0.457   2.365   0.245
 5229SOL     OW16585   3.159   6.235   6.925
 5229SOL    HW116586   3.122   6.151   6.885
 5229SOL    HW216587   3.087   6.283   6.975
 5230SOL     OW16588   6.393   0.089   2.772
 5230SOL    HW116589   6.305   0.106   2.816
 5230SOL    HW216590   6.463   0.075   2.843
 5231SOL     OW16591   4.567   2.361   3.936
 5231SOL    HW116592   4.525   2.354   3.845
 5231SOL    HW216593   4.666   2.347   3.927
 5232SOL     OW16594   1.192   4.005   5.817
 5232SOL    HW116595   1.282   3.971   5.792
 5232SOL    HW216596   1.135   3.930   5.850
 5233SOL     OW16597   3.291   0.976   1.642
 5233SOL    HW116598   3.285   0.946   1.737
 5233SOL    HW216599   3.284   0.897   1.581
 5234SOL     OW16600   2.960   3.127   6.382
 5234SOL    HW116601   3.017   3.083   6.312
 5234SOL    HW216602   3.008   3.207   6.419
 5235SOL     OW16603   1.739   2.428   0.765
 5235SOL    HW116604   1.838   2.435   0.773
 5235SOL    HW216605   1.703   2.512   0.724
 5236SOL     OW16606   3.580   5.337   1.802
 5236SOL    HW116607   3.581   5.292   1.891
 5236SOL    HW216608   3.514   5.292   1.743
 5237SOL     OW16609   2.439   1.036   4.443
 5237SOL    HW116610   2.418   1.063   4.537
 5237SOL    HW216611   2.487   1.111   4.397
 5238SOL     OW16612   1.124   5.774   1.598
 5238SOL    HW116613   1.120   5.869   1.570
 5238SOL    HW216614   1.048   5.753   1.659
 5239SOL     OW16615   3.239   3.112   0.323
 5239SOL    HW116616   3.199   3.086   0.235
 5239SOL    HW216617   3.260   3.210   0.322
 5240SOL     OW16618   3.003   2.301   5.353
 5240SOL    HW116619   2.922   2.335   5.306
 5240SOL    HW216620   3.085   2.327   5.301
 5241SOL     OW16621   0.643   5.451   2.622
 5241SOL    HW116622   0.671   5.501   2.540
 5241SOL    HW216623   0.711   5.466   2.694
 5242SOL     OW16624   5.267   0.247   2.162
 5242SOL    HW116625   5.288   0.343   2.180
 5242SOL    HW216626   5.214   0.210   2.239
 5243SOL     OW16627   2.560   6.159   1.507
 5243SOL    HW116628   2.466   6.187   1.487
 5243SOL    HW216629   2.617   6.240   1.519
 5244SOL     OW16630   5.013   3.808   0.057
 5244SOL    HW116631   5.110   3.784   0.063
 5244SOL    HW216632   4.985   3.856   0.141
 5245SOL     OW16633   3.627   4.522   0.803
 5245SOL    HW116634   3.596   4.443   0.856
 5245SOL    HW216635   3.708   4.497   0.751
 5246SOL     OW16636   6.328   2.673   2.273
 5246SOL    HW116637   6.283   2.591   2.236
 5246SOL    HW216638   6.302   2.753   2.218
 5247SOL     OW16639   3.377   0.768   6.184
 5247SOL    HW116640   3.337   0.840   6.127
 5247SOL    HW216641   3.372   0.681   6.135
 5248SOL     OW16642   0.151   1.864   3.025
 5248SOL    HW116643   0.209   1.899   3.099
 5248SOL    HW216644   0.136   1.937   2.958
 5249SOL     OW16645   1.557   6.113   6.744
 5249SOL    HW116646   1.495   6.185   6.775
 5249SOL    HW216647   1.511   6.058   6.673
 5250SOL     OW16648   0.799   5.574   0.814
 5250SOL    HW116649   0.713   5.525   0.799
 5250SOL    HW216650   0.866   5.512   0.855
 5251SOL     OW16651   1.362   4.341   0.680
 5251SOL    HW116652   1.371   4.347   0.581
 5251SOL    HW216653   1.291   4.273   0.703
 5252SOL     OW16654   2.382   6.517   1.357
 5252SOL    HW116655   2.315   6.579   1.316
 5252SOL    HW216656   2.463   6.512   1.300
 5253SOL     OW16657   6.897   3.830   4.657
 5253SOL    HW116658   6.935   3.741   4.681
 5253SOL    HW216659   6.954   3.902   4.696
 5254SOL     OW16660   5.979   0.267   3.607
 5254SOL    HW116661   5.978   0.367   3.608
 5254SOL    HW216662   6.063   0.234   3.652
 5255SOL     OW16663   5.523   2.897   4.810
 5255SOL    HW116664   5.478   2.847   4.884
 5255SOL    HW216665   5.621   2.879   4.812
 5256SOL     OW16666   4.943   1.727   4.338
 5256SOL    HW116667   4.908   1.816   4.370
 5256SOL    HW216668   5.039   1.719   4.362
 5257SOL     OW16669   4.507   0.063   1.369
 5257SOL    HW116670   4.591   0.113   1.392
 5257SOL    HW216671   4.531   7.000   1.325
 5258SOL     OW16672   5.391   2.458   2.672
 5258SOL    HW116673   5.410   2.535   2.734
 5258SOL    HW216674   5.442   2.471   2.587
 5259SOL     OW16675   4.927   5.979   2.816
 5259SOL    HW116676   4.876   6.024   2.889
 5259SOL    HW216677   4.989   6.045   2.773
 5260SOL     OW16678   4.382   4.915   0.538
 5260SOL    HW116679   4.401   4.819   0.518
 5260SOL    HW216680   4.444   4.973   0.484
 5261SOL     OW16681   6.970   4.147   6.297
 5261SOL    HW116682   6.898   4.182   6.356
 5261SOL    HW216683   0.027   4.127   6.351
 5262SOL     OW16684   3.302   1.193   3.627
 5262SOL    HW116685   3.217   1.209   3.577
 5262SOL    HW216686   3.345   1.281   3.649
 5263SOL     OW16687   1.658   1.222   2.770
 5263SOL    HW116688   1.593   1.208   2.695
 5263SOL    HW216689   1.619   1.288   2.835
 5264SOL     OW16690   6.268   2.981   1.726
 5264SOL    HW116691   6.320   2.990   1.641
 5264SOL    HW216692   6.278   3.064   1.781
 5265SOL     OW16693   6.500   2.931   4.564
 5265SOL    HW116694   6.574   2.933   4.630
 5265SOL    HW216695   6.527   2.980   4.481
 5266SOL     OW16696   2.699   5.865   0.114
 5266SOL    HW116697   2.745   5.915   0.188
 5266SOL    HW216698   2.670   5.776   0.147
 5267SOL     OW16699   5.231   2.369   4.558
 5267SOL    HW116700   5.185   2.450   4.595
 5267SOL    HW216701   5.218   2.366   4.459
 5268SOL     OW16702   5.144   0.779   0.213
 5268SOL    HW116703   5.177   0.685   0.223
 5268SOL    HW216704   5.050   0.778   0.179
 5269SOL     OW16705   0.777   6.793   2.435
 5269SOL    HW116706   0.861   6.782   2.487
 5269SOL    HW216707   0.764   6.713   2.375
 5270SOL     OW16708   6.063   1.505   1.819
 5270SOL    HW116709   6.123   1.570   1.866
 5270SOL    HW216710   5.971   1.544   1.811
 5271SOL     OW16711   5.425   4.898   5.252
 5271SOL    HW116712   5.485   4.826   5.218
 5271SOL    HW216713   5.364   4.861   5.322
 5272SOL     OW16714   3.371   5.544   1.021
 5272SOL    HW116715   3.445   5.602   1.056
 5272SOL    HW216716   3.410   5.462   0.980
 5273SOL     OW16717   0.291   3.533   2.825
 5273SOL    HW116718   0.244   3.446   2.807
 5273SOL    HW216719   0.310   3.579   2.738
 5274SOL     OW16720   5.418   6.984   3.148
 5274SOL    HW116721   5.365   0.035   3.108
 5274SOL    HW216722   5.469   6.937   3.076
 5275SOL     OW16723   3.848   0.755   1.129
 5275SOL    HW116724   3.799   0.694   1.191
 5275SOL    HW216725   3.932   0.711   1.098
 5276SOL     OW16726   2.133   0.450   1.450
 5276SOL    HW116727   2.122   0.379   1.519
 5276SOL    HW216728   2.068   0.436   1.376
 5277SOL     OW16729   2.673   1.200   3.088
 5277SOL    HW116730   2.661   1.296   3.112
 5277SOL    HW216731   2.590   1.166   3.044
 5278SOL     OW16732   4.823   5.554   4.280
 5278SOL    HW116733   4.917   5.562   4.314
 5278SOL    HW216734   4.778   5.476   4.323
 5279SOL     OW16735   2.975   5.650   0.599
 5279SOL    HW116736   2.901   5.707   0.564
 5279SOL    HW216737   2.951   5.617   0.691
 5280SOL     OW16738   3.189   6.157   5.137
 5280SOL    HW116739   3.099   6.132   5.171
 5280SOL    HW216740   3.227   6.081   5.084
 5281SOL     OW16741   6.373   1.865   2.308
 5281SOL    HW116742   6.311   1.944   2.307
 5281SOL    HW216743   6.392   1.839   2.402
 5282SOL     OW16744   3.701   1.394   3.597
 5282SOL    HW116745   3.760   1.359   3.669
 5282SOL    HW216746   3.643   1.321   3.563
 5283SOL     OW16747   4.801   6.665   1.902
 5283SOL    HW116748   4.870   6.593   1.902
 5283SOL    HW216749   4.806   6.716   1.817
 5284SOL     OW16750   5.785   4.422   3.574
 5284SOL    HW116751   5.756   4.496   3.636
 5284SOL    HW216752   5.753   4.442   3.481
 5285SOL     OW16753   3.107   4.884   4.294
 5285SOL    HW116754   3.141   4.906   4.385
 5285SOL    HW216755   3.030   4.943   4.272
 5286SOL     OW16756   2.587   4.584   1.037
 5286SOL    HW116757   2.551   4.669   0.997
 5286SOL    HW216758   2.625   4.604   1.127
 5287SOL     OW16759   2.805   1.356   0.678
 5287SOL    HW116760   2.860   1.362   0.761
 5287SOL    HW216761   2.828   1.271   0.629
 5288SOL     OW16762   3.477   0.236   1.537
 5288SOL    HW116763   3.415   0.159   1.524
 5288SOL    HW216764   3.431   0.321   1.510
 5289SOL     OW16765   1.633   4.952   7.019
 5289SOL    HW116766   1.684   4.993   6.943
 5289SOL    HW216767   1.623   4.854   7.003
 5290SOL     OW16768   2.532   4.877   6.220
 5290SOL    HW116769   2.521   4.797   6.278
 5290SOL    HW216770   2.442   4.912   6.194
 5291SOL     OW16771   2.741   5.494   5.411
 5291SOL    HW116772   2.681   5.419   5.381
 5291SOL    HW216773   2.828   5.488   5.363
 5292SOL     OW16774   6.175   2.773   0.511
 5292SOL    HW116775   6.151   2.793   0.416
 5292SOL    HW216776   6.092   2.754   0.563
 5293SOL     OW16777   0.859   0.843   4.618
 5293SOL    HW116778   0.836   0.750   4.592
 5293SOL    HW216779   0.777   0.899   4.619
 5294SOL     OW16780   5.214   3.748   6.374
 5294SOL    HW116781   5.314   3.745   6.385
 5294SOL    HW216782   5.174   3.793   6.454
 5295SOL     OW16783   5.396   0.942   2.775
 5295SOL    HW116784   5.371   0.978   2.865
 5295SOL    HW216785   5.342   0.987   2.704
 5296SOL     OW16786   1.529   5.313   6.751
 5296SOL    HW116787   1.497   5.350   6.664
 5296SOL    HW216788   1.570   5.386   6.806
 5297SOL     OW16789   1.703   2.807   1.099
 5297SOL    HW116790   1.635   2.755   1.047
 5297SOL    HW216791   1.746   2.747   1.166
 5298SOL     OW16792   6.372   5.802   2.132
 5298SOL    HW116793   6.444   5.871   2.144
 5298SOL    HW216794   6.307   5.832   2.063
 5299SOL     OW16795   2.408   0.803   1.565
 5299SOL    HW116796   2.356   0.734   1.515
 5299SOL    HW216797   2.387   0.796   1.662
 5300SOL     OW16798   0.433   5.685   3.318
 5300SOL    HW116799   0.361   5.618   3.302
 5300SOL    HW216800   0.521   5.648   3.288
 5301SOL     OW16801   3.865   1.396   0.233
 5301SOL    HW116802   3.817   1.465   0.286
 5301SOL    HW216803   3.939   1.357   0.289
 5302SOL     OW16804   6.368   4.182   2.045
 5302SOL    HW116805   6.304   4.124   2.095
 5302SOL    HW216806   6.319   4.261   2.008
 5303SOL     OW16807   6.042   5.738   3.949
 5303SOL    HW116808   6.130   5.691   3.960
 5303SOL    HW216809   6.051   5.810   3.881
 5304SOL     OW16810   4.965   2.146   6.257
 5304SOL    HW116811   4.883   2.203   6.266
 5304SOL    HW216812   5.046   2.200   6.279
 5305SOL     OW16813   1.712   0.749   4.513
 5305SOL    HW116814   1.645   0.676   4.503
 5305SOL    HW216815   1.675   0.820   4.574
 5306SOL     OW16816   2.745   6.020   5.487
 5306SOL    HW116817   2.736   5.963   5.405
 5306SOL    HW216818   2.756   5.962   5.567
 5307SOL     OW16819   4.416   6.197   6.431
 5307SOL    HW116820   4.421   6.158   6.339
 5307SOL    HW216821   4.395   6.294   6.424
 5308SOL     OW16822   0.250   0.519   3.794
 5308SOL    HW116823   0.208   0.453   3.732
 5308SOL    HW216824   0.310   0.471   3.858
 5309SOL     OW16825   4.076   3.538   3.275
 5309SOL    HW116826   4.067   3.489   3.362
 5309SOL    HW216827   4.005   3.507   3.212
 5310SOL     OW16828   4.781   2.608   1.646
 5310SOL    HW116829   4.784   2.643   1.552
 5310SOL    HW216830   4.730   2.672   1.704
 5311SOL     OW16831   0.979   5.807   6.763
 5311SOL    HW116832   1.000   5.715   6.729
 5311SOL    HW216833   1.023   5.875   6.703
 5312SOL     OW16834   0.920   4.857   2.271
 5312SOL    HW116835   0.884   4.788   2.334
 5312SOL    HW216836   0.896   4.948   2.304
 5313SOL     OW16837   0.756   5.303   6.669
 5313SOL    HW116838   0.727   5.207   6.658
 5313SOL    HW216839   0.851   5.306   6.698
 5314SOL     OW16840   4.296   5.076   0.253
 5314SOL    HW116841   4.371   5.018   0.285
 5314SOL    HW216842   4.330   5.168   0.237
 5315SOL     OW16843   4.744   4.263   1.953
 5315SOL    HW116844   4.650   4.282   1.982
 5315SOL    HW216845   4.769   4.328   1.881
 5316SOL     OW16846   0.076   5.542   4.604
 5316SOL    HW116847   0.017   5.491   4.667
 5316SOL    HW216848   0.110   5.482   4.532
 5317SOL     OW16849   5.536   0.965   3.442
 5317SOL    HW116850   5.485   0.891   3.396
 5317SOL    HW216851   5.550   0.940   3.538
 5318SOL     OW16852   6.953   2.258   4.825
 5318SOL    HW116853   6.953   2.250   4.726
 5318SOL    HW216854   0.021   2.276   4.857
 5319SOL     OW16855   5.604   0.080   6.523
 5319SOL    HW116856   5.630   0.038   6.437
 5319SOL    HW216857   5.622   0.178   6.519
 5320SOL     OW16858   6.013   4.420   6.904
 5320SOL    HW116859   6.105   4.454   6.884
 5320SOL    HW216860   6.012   4.378   6.995
 5321SOL     OW16861   1.548   4.959   4.122
 5321SOL    HW116862   1.550   4.921   4.214
 5321SOL    HW216863   1.499   4.896   4.061
 5322SOL     OW16864   3.594   6.412   0.035
 5322SOL    HW116865   3.514   6.387   0.089
 5322SOL    HW216866   3.612   6.510   0.044
 5323SOL     OW16867   4.073   2.199   1.034
 5323SOL    HW116868   4.167   2.168   1.050
 5323SOL    HW216869   4.033   2.145   0.960
 5324SOL     OW16870   3.891   2.066   1.956
 5324SOL    HW116871   3.849   1.988   1.910
 5324SOL    HW216872   3.823   2.139   1.967
 5325SOL     OW16873   4.591   6.681   2.802
 5325SOL    HW116874   4.603   6.737   2.884
 5325SOL    HW216875   4.681   6.663   2.761
 5326SOL     OW16876   0.095   5.638   1.735
 5326SOL    HW116877   0.095   5.737   1.748
 5326SOL    HW216878   0.055   5.594   1.815
 5327SOL     OW16879   0.226   6.230   4.420
 5327SOL    HW116880   0.185   6.259   4.507
 5327SOL    HW216881   0.195   6.290   4.347
 5328SOL     OW16882   3.663   3.202   6.038
 5328SOL    HW116883   3.741   3.194   6.100
 5328SOL    HW216884   3.623   3.293   6.048
 5329SOL     OW16885   0.257   4.494   0.540
 5329SOL    HW116886   0.354   4.500   0.519
 5329SOL    HW216887   0.209   4.452   0.462
 5330SOL     OW16888   3.972   3.415   0.078
 5330SOL    HW116889   4.025   3.367   0.148
 5330SOL    HW216890   4.034   3.466   0.019
 5331SOL     OW16891   4.510   2.351   0.848
 5331SOL    HW116892   4.609   2.349   0.834
 5331SOL    HW216893   4.486   2.423   0.912
 5332SOL     OW16894   6.291   5.208   0.448
 5332SOL    HW116895   6.388   5.224   0.463
 5332SOL    HW216896   6.277   5.161   0.361
 5333SOL     OW16897   2.030   0.747   3.453
 5333SOL    HW116898   2.047   0.730   3.550
 5333SOL    HW216899   2.009   0.660   3.408
 5334SOL     OW16900   4.522   4.938   3.743
 5334SOL    HW116901   4.549   4.936   3.839
 5334SOL    HW216902   4.437   4.886   3.731
 5335SOL     OW16903   6.506   4.448   2.378
 5335SOL    HW116904   6.525   4.540   2.412
 5335SOL    HW216905   6.431   4.408   2.431
 5336SOL     OW16906   2.001   1.766   4.149
 5336SOL    HW116907   1.924   1.707   4.125
 5336SOL    HW216908   2.030   1.817   4.068
 5337SOL     OW16909   6.124   4.376   1.273
 5337SOL    HW116910   6.157   4.465   1.304
 5337SOL    HW216911   6.196   4.331   1.220
 5338SOL     OW16912   5.981   2.755   6.906
 5338SOL    HW116913   6.014   2.818   6.976
 5338SOL    HW216914   6.001   2.661   6.934
 5339SOL     OW16915   6.001   2.197   2.080
 5339SOL    HW116916   6.048   2.109   2.092
 5339SOL    HW216917   5.902   2.184   2.089
 5340SOL     OW16918   5.172   3.148   2.009
 5340SOL    HW116919   5.213   3.237   2.031
 5340SOL    HW216920   5.179   3.088   2.089
 5341SOL     OW16921   4.712   4.648   3.253
 5341SOL    HW116922   4.642   4.714   3.228
 5341SOL    HW216923   4.669   4.569   3.299
 5342SOL     OW16924   6.009   6.815   5.913
 5342SOL    HW116925   5.950   6.798   5.834
 5342SOL    HW216926   6.105   6.809   5.886
 5343SOL     OW16927   3.678   3.612   4.934
 5343SOL    HW116928   3.766   3.604   4.886
 5343SOL    HW216929   3.615   3.542   4.900
 5344SOL     OW16930   0.655   1.446   0.272
 5344SOL    HW116931   0.690   1.475   0.183
 5344SOL    HW216932   0.727   1.400   0.323
 5345SOL     OW16933   4.563   1.253   6.976
 5345SOL    HW116934   4.529   1.284   6.888
 5345SOL    HW216935   4.590   1.332   0.007
 5346SOL     OW16936   2.458   4.875   3.835
 5346SOL    HW116937   2.428   4.803   3.898
 5346SOL    HW216938   2.400   4.956   3.846
 5347SOL     OW16939   6.918   2.603   3.428
 5347SOL    HW116940   6.904   2.697   3.462
 5347SOL    HW216941   6.869   2.591   3.342
 5348SOL     OW16942   6.081   1.419   5.026
 5348SOL    HW116943   6.029   1.479   5.087
 5348SOL    HW216944   6.108   1.470   4.945
 5349SOL     OW16945   0.322   2.776   1.938
 5349SOL    HW116946   0.368   2.796   1.852
 5349SOL    HW216947   0.388   2.779   2.013
 5350SOL     OW16948   1.680   0.158   5.802
 5350SOL    HW116949   1.603   0.101   5.776
 5350SOL    HW216950   1.694   0.151   5.901
 5351SOL     OW16951   0.289   5.573   1.526
 5351SOL    HW116952   0.223   5.587   1.599
 5351SOL    HW216953   0.284   5.478   1.493
 5352SOL     OW16954   1.760   4.109   2.885
 5352SOL    HW116955   1.748   4.203   2.917
 5352SOL    HW216956   1.689   4.050   2.924
 5353SOL     OW16957   3.809   5.545   3.917
 5353SOL    HW116958   3.767   5.454   3.910
 5353SOL    HW216959   3.908   5.536   3.918
 5354SOL     OW16960   3.763   4.662   0.456
 5354SOL    HW116961   3.701   4.588   0.478
 5354SOL    HW216962   3.856   4.638   0.486
 5355SOL     OW16963   5.061   5.450   5.435
 5355SOL    HW116964   5.028   5.370   5.485
 5355SOL    HW216965   5.048   5.532   5.491
 5356SOL     OW16966   6.904   3.710   1.551
 5356SOL    HW116967   6.838   3.640   1.521
 5356SOL    HW216968   6.973   3.667   1.610
 5357SOL     OW16969   4.121   4.569   1.823
 5357SOL    HW116970   4.157   4.568   1.916
 5357SOL    HW216971   4.181   4.516   1.763
 5358SOL     OW16972   4.386   1.650   0.142
 5358SOL    HW116973   4.388   1.718   0.069
 5358SOL    HW216974   4.314   1.583   0.123
 5359SOL     OW16975   2.133   2.005   0.327
 5359SOL    HW116976   2.057   1.949   0.295
 5359SOL    HW216977   2.165   1.971   0.416
 5360SOL     OW16978   5.374   4.949   3.836
 5360SOL    HW116979   5.373   4.914   3.742
 5360SOL    HW216980   5.312   5.027   3.844
 5361SOL     OW16981   3.246   6.070   2.763
 5361SOL    HW116982   3.342   6.060   2.737
 5361SOL    HW216983   3.235   6.151   2.820
 5362SOL     OW16984   5.295   6.830   2.668
 5362SOL    HW116985   5.296   6.733   2.642
 5362SOL    HW216986   5.342   6.841   2.756
 5363SOL     OW16987   5.461   6.525   5.062
 5363SOL    HW116988   5.490   6.601   5.119
 5363SOL    HW216989   5.536   6.499   5.001
 5364SOL     OW16990   5.570   0.693   2.496
 5364SOL    HW116991   5.562   0.784   2.455
 5364SOL    HW216992   5.581   0.625   2.424
 5365SOL     OW16993   3.308   3.219   3.411
 5365SOL    HW116994   3.338   3.126   3.431
 5365SOL    HW216995   3.382   3.269   3.365
 5366SOL     OW16996   6.973   0.352   1.494
 5366SOL    HW116997   6.929   0.415   1.431
 5366SOL    HW216998   6.968   0.259   1.458
 5367SOL     OW16999   5.769   0.360   0.587
 5367SOL    HW117000   5.775   0.400   0.496
 5367SOL    HW217001   5.757   0.432   0.655
 5368SOL     OW17002   6.990   5.869   2.115
 5368SOL    HW117003   6.953   5.941   2.057
 5368SOL    HW217004   7.005   5.905   2.207
 5369SOL     OW17005   2.810   4.969   1.827
 5369SOL    HW117006   2.860   4.893   1.785
 5369SOL    HW217007   2.806   4.956   1.926
 5370SOL     OW17008   3.741   3.853   1.627
 5370SOL    HW117009   3.821   3.794   1.617
 5370SOL    HW217010   3.746   3.901   1.714
 5371SOL     OW17011   6.603   5.220   4.953
 5371SOL    HW117012   6.575   5.130   4.920
 5371SOL    HW217013   6.548   5.291   4.909
 5372SOL     OW17014   2.173   6.880   3.163
 5372SOL    HW117015   2.142   6.882   3.258
 5372SOL    HW217016   2.097   6.902   3.103
 5373SOL     OW17017   4.298   6.683   6.120
 5373SOL    HW117018   4.221   6.670   6.056
 5373SOL    HW217019   4.345   6.596   6.132
 5374SOL     OW17020   2.356   4.674   1.246
 5374SOL    HW117021   2.270   4.702   1.288
 5374SOL    HW217022   2.338   4.606   1.175
 5375SOL     OW17023   0.398   6.642   5.716
 5375SOL    HW117024   0.442   6.697   5.645
 5375SOL    HW217025   0.348   6.702   5.778
 5376SOL     OW17026   1.412   2.383   1.720
 5376SOL    HW117027   1.370   2.376   1.629
 5376SOL    HW217028   1.349   2.431   1.782
 5377SOL     OW17029   2.085   0.811   3.025
 5377SOL    HW117030   2.063   0.864   3.108
 5377SOL    HW217031   2.118   0.721   3.051
 5378SOL     OW17032   5.359   0.784   0.976
 5378SOL    HW117033   5.324   0.768   1.068
 5378SOL    HW217034   5.323   0.714   0.914
 5379SOL     OW17035   1.586   2.647   5.436
 5379SOL    HW117036   1.488   2.663   5.444
 5379SOL    HW217037   1.608   2.620   5.343
 5380SOL     OW17038   3.594   0.152   1.305
 5380SOL    HW117039   3.501   0.153   1.268
 5380SOL    HW217040   3.589   0.162   1.405
 5381SOL     OW17041   5.662   6.644   2.748
 5381SOL    HW117042   5.605   6.568   2.719
 5381SOL    HW217043   5.665   6.714   2.676
 5382SOL     OW17044   4.431   1.781   2.562
 5382SOL    HW117045   4.357   1.829   2.611
 5382SOL    HW217046   4.391   1.716   2.497
 5383SOL     OW17047   1.093   2.977   3.928
 5383SOL    HW117048   1.031   3.026   3.990
 5383SOL    HW217049   1.156   2.920   3.981
 5384SOL     OW17050   4.315   5.665   5.271
 5384SOL    HW117051   4.366   5.660   5.357
 5384SOL    HW217052   4.303   5.761   5.245
 5385SOL     OW17053   6.581   2.724   6.093
 5385SOL    HW117054   6.676   2.732   6.126
 5385SOL    HW217055   6.524   2.687   6.167
 5386SOL     OW17056   5.923   3.090   3.876
 5386SOL    HW117057   5.825   3.108   3.869
 5386SOL    HW217058   5.961   3.071   3.786
 5387SOL     OW17059   2.869   0.113   3.159
 5387SOL    HW117060   2.923   0.096   3.241
 5387SOL    HW217061   2.873   0.032   3.099
 5388SOL     OW17062   0.599   6.508   2.585
 5388SOL    HW117063   0.651   6.434   2.629
 5388SOL    HW217064   0.612   6.502   2.486
 5389SOL     OW17065   4.523   2.210   4.751
 5389SOL    HW117066   4.498   2.124   4.708
 5389SOL    HW217067   4.452   2.278   4.734
 5390SOL     OW17068   6.255   3.531   4.009
 5390SOL    HW117069   6.250   3.454   3.945
 5390SOL    HW217070   6.166   3.544   4.052
 5391SOL     OW17071   2.265   2.511   0.210
 5391SOL    HW117072   2.242   2.607   0.229
 5391SOL    HW217073   2.287   2.465   0.296
 5392SOL     OW17074   4.538   2.518   3.464
 5392SOL    HW117075   4.585   2.456   3.401
 5392SOL    HW217076   4.570   2.612   3.449
 5393SOL     OW17077   4.268   0.084   4.985
 5393SOL    HW117078   4.199   0.012   4.977
 5393SOL    HW217079   4.329   0.063   5.061
 5394SOL     OW17080   1.312   0.098   1.007
 5394SOL    HW117081   1.283   0.019   0.953
 5394SOL    HW217082   1.319   0.071   1.103
 5395SOL     OW17083   5.070   1.289   0.967
 5395SOL    HW117084   5.069   1.303   0.867
 5395SOL    HW217085   4.992   1.337   1.008
 5396SOL     OW17086   5.562   5.625   2.698
 5396SOL    HW117087   5.653   5.667   2.697
 5396SOL    HW217088   5.512   5.657   2.779
 5397SOL     OW17089   6.311   1.755   2.573
 5397SOL    HW117090   6.223   1.734   2.616
 5397SOL    HW217091   6.343   1.845   2.604
 5398SOL     OW17092   4.791   2.130   4.166
 5398SOL    HW117093   4.771   2.197   4.238
 5398SOL    HW217094   4.721   2.058   4.167
 5399SOL     OW17095   1.613   6.795   5.070
 5399SOL    HW117096   1.639   6.820   4.976
 5399SOL    HW217097   1.542   6.859   5.102
 5400SOL     OW17098   3.690   2.911   0.828
 5400SOL    HW117099   3.630   2.990   0.843
 5400SOL    HW217100   3.644   2.844   0.770
 5401SOL     OW17101   5.282   4.914   3.175
 5401SOL    HW117102   5.312   4.846   3.108
 5401SOL    HW217103   5.182   4.911   3.182
 5402SOL     OW17104   2.475   6.990   0.738
 5402SOL    HW117105   2.537   6.916   0.763
 5402SOL    HW217106   2.523   0.053   0.744
 5403SOL     OW17107   5.565   3.167   0.145
 5403SOL    HW117108   5.516   3.136   0.226
 5403SOL    HW217109   5.499   3.195   0.075
 5404SOL     OW17110   0.786   0.887   0.959
 5404SOL    HW117111   0.824   0.811   0.906
 5404SOL    HW217112   0.716   0.853   1.021
 5405SOL     OW17113   5.490   5.808   0.352
 5405SOL    HW117114   5.510   5.797   0.450
 5405SOL    HW217115   5.567   5.855   0.308
 5406SOL     OW17116   2.623   0.762   4.662
 5406SOL    HW117117   2.554   0.710   4.613
 5406SOL    HW217118   2.685   0.698   4.709
 5407SOL     OW17119   2.535   0.756   1.308
 5407SOL    HW117120   2.469   0.788   1.377
 5407SOL    HW217121   2.574   0.834   1.260
 5408SOL     OW17122   2.808   1.934   4.105
 5408SOL    HW117123   2.827   1.934   4.203
 5408SOL    HW217124   2.720   1.890   4.088
 5409SOL     OW17125   6.602   2.606   1.275
 5409SOL    HW117126   6.625   2.674   1.206
 5409SOL    HW217127   6.594   2.650   1.364
 5410SOL     OW17128   0.243   2.373   1.286
 5410SOL    HW117129   0.192   2.341   1.206
 5410SOL    HW217130   0.221   2.316   1.365
 5411SOL     OW17131   5.353   4.902   6.943
 5411SOL    HW117132   5.279   4.833   6.944
 5411SOL    HW217133   5.423   4.876   7.010
 5412SOL     OW17134   1.486   1.514   6.634
 5412SOL    HW117135   1.391   1.535   6.611
 5412SOL    HW217136   1.515   1.433   6.584
 5413SOL     OW17137   6.297   0.376   5.147
 5413SOL    HW117138   6.345   0.303   5.195
 5413SOL    HW217139   6.306   0.461   5.198
 5414SOL     OW17140   6.801   4.680   5.399
 5414SOL    HW117141   6.717   4.733   5.392
 5414SOL    HW217142   6.796   4.619   5.477
 5415SOL     OW17143   2.728   6.548   0.487
 5415SOL    HW117144   2.692   6.459   0.515
 5415SOL    HW217145   2.662   6.620   0.512
 5416SOL     OW17146   2.643   5.209   5.081
 5416SOL    HW117147   2.560   5.172   5.038
 5416SOL    HW217148   2.710   5.136   5.091
 5417SOL     OW17149   4.670   6.310   3.658
 5417SOL    HW117150   4.698   6.356   3.741
 5417SOL    HW217151   4.570   6.311   3.651
 5418SOL     OW17152   5.915   4.582   4.172
 5418SOL    HW117153   6.003   4.610   4.211
 5418SOL    HW217154   5.890   4.644   4.098
 5419SOL     OW17155   4.277   6.829   6.547
 5419SOL    HW117156   4.296   6.837   6.645
 5419SOL    HW217157   4.204   6.763   6.532
 5420SOL     OW17158   1.298   1.727   1.463
 5420SOL    HW117159   1.279   1.629   1.460
 5420SOL    HW217160   1.225   1.777   1.415
 5421SOL     OW17161   3.345   5.437   2.121
 5421SOL    HW117162   3.302   5.499   2.056
 5421SOL    HW217163   3.398   5.368   2.071
 5422SOL     OW17164   2.166   5.885   4.092
 5422SOL    HW117165   2.136   5.809   4.148
 5422SOL    HW217166   2.133   5.971   4.132
 5423SOL     OW17167   6.693   6.182   2.055
 5423SOL    HW117168   6.652   6.270   2.031
 5423SOL    HW217169   6.780   6.172   2.008
 5424SOL     OW17170   4.833   4.044   5.004
 5424SOL    HW117171   4.862   4.071   4.913
 5424SOL    HW217172   4.850   3.946   5.017
 5425SOL     OW17173   0.548   3.361   5.394
 5425SOL    HW117174   0.464   3.368   5.448
 5425SOL    HW217175   0.607   3.439   5.413
 5426SOL     OW17176   5.144   5.302   2.234
 5426SOL    HW117177   5.106   5.377   2.288
 5426SOL    HW217178   5.089   5.220   2.248
 5427SOL     OW17179   4.897   2.626   6.620
 5427SOL    HW117180   4.932   2.671   6.702
 5427SOL    HW217181   4.813   2.576   6.642
 5428SOL     OW17182   6.291   5.548   3.131
 5428SOL    HW117183   6.311   5.511   3.040
 5428SOL    HW217184   6.269   5.472   3.193
 5429SOL     OW17185   3.468   0.714   3.896
 5429SOL    HW117186   3.453   0.812   3.908
 5429SOL    HW217187   3.384   0.665   3.919
 5430SOL     OW17188   2.375   4.013   6.161
 5430SOL    HW117189   2.470   4.005   6.132
 5430SOL    HW217190   2.330   4.086   6.109
 5431SOL     OW17191   3.382   4.862   6.385
 5431SOL    HW117192   3.374   4.962   6.388
 5431SOL    HW217193   3.344   4.828   6.298
 5432SOL     OW17194   5.634   5.982   1.493
 5432SOL    HW117195   5.597   5.972   1.401
 5432SOL    HW217196   5.577   6.046   1.545
 5433SOL     OW17197   1.343   0.343   1.114
 5433SOL    HW117198   1.356   0.262   1.056
 5433SOL    HW217199   1.431   0.388   1.130
 5434SOL     OW17200   5.073   1.151   4.844
 5434SOL    HW117201   5.016   1.069   4.851
 5434SOL    HW217202   5.038   1.222   4.905
 5435SOL     OW17203   6.531   3.920   0.895
 5435SOL    HW117204   6.540   4.008   0.849
 5435SOL    HW217205   6.620   3.890   0.929
 5436SOL     OW17206   1.384   5.569   2.655
 5436SOL    HW117207   1.332   5.643   2.698
 5436SOL    HW217208   1.382   5.488   2.714
 5437SOL     OW17209   2.916   5.064   6.388
 5437SOL    HW117210   3.003   5.102   6.356
 5437SOL    HW217211   2.934   4.988   6.450
 5438SOL     OW17212   4.849   3.995   1.849
 5438SOL    HW117213   4.792   4.076   1.831
 5438SOL    HW217214   4.822   3.921   1.787
 5439SOL     OW17215   0.886   3.894   0.722
 5439SOL    HW117216   0.937   3.949   0.788
 5439SOL    HW217217   0.832   3.825   0.771
 5440SOL     OW17218   5.636   6.058   3.317
 5440SOL    HW117219   5.699   6.063   3.396
 5440SOL    HW217220   5.549   6.101   3.341
 5441SOL     OW17221   4.693   2.745   4.126
 5441SOL    HW117222   4.710   2.769   4.031
 5441SOL    HW217223   4.626   2.671   4.130
 5442SOL     OW17224   5.355   0.151   4.190
 5442SOL    HW117225   5.412   0.173   4.270
 5442SOL    HW217226   5.356   0.228   4.127
 5443SOL     OW17227   5.102   6.703   5.036
 5443SOL    HW117228   5.147   6.669   4.953
 5443SOL    HW217229   5.062   6.793   5.018
 5444SOL     OW17230   0.234   1.542   4.016
 5444SOL    HW117231   0.303   1.613   4.000
 5444SOL    HW217232   0.166   1.576   4.081
 5445SOL     OW17233   5.066   5.169   5.519
 5445SOL    HW117234   4.985   5.119   5.488
 5445SOL    HW217235   5.090   5.141   5.612
 5446SOL     OW17236   0.165   4.706   5.024
 5446SOL    HW117237   0.137   4.802   5.028
 5446SOL    HW217238   0.208   4.680   5.111
 5447SOL     OW17239   1.544   1.978   1.328
 5447SOL    HW117240   1.477   2.049   1.351
 5447SOL    HW217241   1.613   1.973   1.399
 5448SOL     OW17242   4.464   5.976   3.542
 5448SOL    HW117243   4.422   5.938   3.625
 5448SOL    HW217244   4.516   5.904   3.496
 5449SOL     OW17245   3.357   1.375   2.509
 5449SOL    HW117246   3.423   1.305   2.481
 5449SOL    HW217247   3.290   1.389   2.437
 5450SOL     OW17248   4.138   6.234   1.809
 5450SOL    HW117249   4.150   6.145   1.853
 5450SOL    HW217250   4.102   6.299   1.877
 5451SOL     OW17251   1.267   0.512   3.214
 5451SOL    HW117252   1.329   0.518   3.135
 5451SOL    HW217253   1.322   0.505   3.298
 5452SOL     OW17254   1.829   4.791   1.525
 5452SOL    HW117255   1.883   4.862   1.481
 5452SOL    HW217256   1.793   4.825   1.612
 5453SOL     OW17257   5.603   4.153   2.876
 5453SOL    HW117258   5.691   4.114   2.906
 5453SOL    HW217259   5.528   4.100   2.915
 5454SOL     OW17260   5.836   5.752   2.696
 5454SOL    HW117261   5.925   5.753   2.652
 5454SOL    HW217262   5.806   5.846   2.714
 5455SOL     OW17263   0.421   1.534   2.379
 5455SOL    HW117264   0.411   1.460   2.313
 5455SOL    HW217265   0.334   1.552   2.424
 5456SOL     OW17266   4.928   0.718   6.908
 5456SOL    HW117267   4.995   0.780   6.948
 5456SOL    HW217268   4.837   0.739   6.945
 5457SOL     OW17269   6.444   2.121   0.813
 5457SOL    HW117270   6.529   2.149   0.857
 5457SOL    HW217271   6.465   2.065   0.733
 5458SOL     OW17272   6.302   4.763   0.970
 5458SOL    HW117273   6.234   4.691   0.955
 5458SOL    HW217274   6.394   4.724   0.960
 5459SOL     OW17275   1.442   4.633   5.397
 5459SOL    HW117276   1.463   4.536   5.414
 5459SOL    HW217277   1.515   4.673   5.342
 5460SOL     OW17278   1.916   1.539   1.023
 5460SOL    HW117279   1.978   1.545   1.102
 5460SOL    HW217280   1.923   1.448   0.983
 5461SOL     OW17281   0.410   1.747   6.253
 5461SOL    HW117282   0.437   1.768   6.159
 5461SOL    HW217283   0.311   1.748   6.261
 5462SOL     OW17284   5.651   6.289   6.729
 5462SOL    HW117285   5.742   6.300   6.770
 5462SOL    HW217286   5.619   6.378   6.695
 5463SOL     OW17287   6.976   2.379   6.520
 5463SOL    HW117288   7.005   2.295   6.567
 5463SOL    HW217289   6.888   2.409   6.558
 5464SOL     OW17290   6.099   6.225   5.679
 5464SOL    HW117291   6.022   6.211   5.617
 5464SOL    HW217292   6.087   6.169   5.761
 5465SOL     OW17293   6.174   6.811   3.056
 5465SOL    HW117294   6.132   6.864   3.130
 5465SOL    HW217295   6.128   6.723   3.048
 5466SOL     OW17296   5.873   2.391   5.291
 5466SOL    HW117297   5.860   2.302   5.333
 5466SOL    HW217298   5.784   2.436   5.281
 5467SOL     OW17299   5.638   3.989   3.512
 5467SOL    HW117300   5.693   3.907   3.495
 5467SOL    HW217301   5.632   4.043   3.428
 5468SOL     OW17302   0.080   2.109   2.917
 5468SOL    HW117303   0.025   2.077   2.839
 5468SOL    HW217304   0.046   2.198   2.947
 5469SOL     OW17305   2.059   0.865   6.006
 5469SOL    HW117306   2.049   0.787   6.067
 5469SOL    HW217307   2.066   0.949   6.060
 5470SOL     OW17308   3.984   5.455   4.722
 5470SOL    HW117309   3.977   5.555   4.728
 5470SOL    HW217310   4.071   5.431   4.678
 5471SOL     OW17311   5.089   0.033   2.912
 5471SOL    HW117312   5.170   0.082   2.944
 5471SOL    HW217313   5.092   0.026   2.812
 5472SOL     OW17314   2.952   2.002   6.242
 5472SOL    HW117315   2.989   1.921   6.288
 5472SOL    HW217316   2.853   1.993   6.235
 5473SOL     OW17317   1.756   4.635   0.352
 5473SOL    HW117318   1.821   4.603   0.421
 5473SOL    HW217319   1.787   4.722   0.315
 5474SOL     OW17320   1.248   5.442   3.570
 5474SOL    HW117321   1.306   5.453   3.489
 5474SOL    HW217322   1.265   5.517   3.634
 5475SOL     OW17323   1.716   1.991   0.257
 5475SOL    HW117324   1.643   1.945   0.207
 5475SOL    HW217325   1.763   2.055   0.197
 5476SOL     OW17326   2.122   5.198   5.387
 5476SOL    HW117327   2.036   5.217   5.434
 5476SOL    HW217328   2.160   5.284   5.352
 5477SOL     OW17329   1.694   4.351   3.034
 5477SOL    HW117330   1.723   4.431   2.980
 5477SOL    HW217331   1.693   4.375   3.131
 5478SOL     OW17332   5.253   5.641   6.321
 5478SOL    HW117333   5.189   5.715   6.301
 5478SOL    HW217334   5.298   5.611   6.237
 5479SOL     OW17335   4.342   1.437   4.158
 5479SOL    HW117336   4.286   1.382   4.096
 5479SOL    HW217337   4.438   1.413   4.145
 5480SOL     OW17338   6.242   4.960   4.763
 5480SOL    HW117339   6.162   4.962   4.703
 5480SOL    HW217340   6.222   4.906   4.844
 5481SOL     OW17341   4.025   0.836   5.955
 5481SOL    HW117342   4.122   0.838   5.980
 5481SOL    HW217343   4.017   0.812   5.858
 5482SOL     OW17344   3.786   3.669   2.274
 5482SOL    HW117345   3.731   3.603   2.223
 5482SOL    HW217346   3.796   3.638   2.369
 5483SOL     OW17347   6.503   2.861   5.835
 5483SOL    HW117348   6.537   2.955   5.827
 5483SOL    HW217349   6.568   2.806   5.888
 5484SOL     OW17350   6.624   6.696   3.778
 5484SOL    HW117351   6.602   6.626   3.846
 5484SOL    HW217352   6.723   6.704   3.770
 5485SOL     OW17353   2.651   0.359   4.468
 5485SOL    HW117354   2.688   0.442   4.511
 5485SOL    HW217355   2.587   0.386   4.396
 5486SOL     OW17356   1.393   0.047   3.907
 5486SOL    HW117357   1.465   0.087   3.851
 5486SOL    HW217358   1.434   0.000   3.986
 5487SOL     OW17359   6.087   3.907   6.823
 5487SOL    HW117360   6.173   3.889   6.872
 5487SOL    HW217361   6.010   3.900   6.887
 5488SOL     OW17362   4.578   1.624   0.313
 5488SOL    HW117363   4.560   1.684   0.391
 5488SOL    HW217364   4.504   1.633   0.246
 5489SOL     OW17365   1.388   4.355   2.178
 5489SOL    HW117366   1.330   4.431   2.205
 5489SOL    HW217367   1.348   4.269   2.209
 5490SOL     OW17368   2.909   6.838   0.471
 5490SOL    HW117369   2.988   6.820   0.413
 5490SOL    HW217370   2.834   6.874   0.416
 5491SOL     OW17371   1.411   4.382   6.521
 5491SOL    HW117372   1.377   4.293   6.489
 5491SOL    HW217373   1.334   4.444   6.534
 5492SOL     OW17374   1.036   1.116   5.900
 5492SOL    HW117375   1.046   1.104   5.998
 5492SOL    HW217376   1.125   1.137   5.859
 5493SOL     OW17377   3.813   2.970   5.086
 5493SOL    HW117378   3.714   2.982   5.091
 5493SOL    HW217379   3.842   2.905   5.156
 5494SOL     OW17380   6.669   2.776   0.434
 5494SOL    HW117381   6.655   2.744   0.527
 5494SOL    HW217382   6.654   2.701   0.370
 5495SOL     OW17383   3.132   3.092   0.559
 5495SOL    HW117384   3.201   3.092   0.487
 5495SOL    HW217385   3.144   3.173   0.617
 5496SOL     OW17386   3.466   5.982   1.535
 5496SOL    HW117387   3.538   6.034   1.489
 5496SOL    HW217388   3.377   6.025   1.516
 5497SOL     OW17389   0.263   2.402   3.154
 5497SOL    HW117390   0.361   2.414   3.168
 5497SOL    HW217391   0.242   2.305   3.144
 5498SOL     OW17392   4.859   0.962   0.318
 5498SOL    HW117393   4.870   1.058   0.341
 5498SOL    HW217394   4.762   0.941   0.306
 5499SOL     OW17395   0.760   1.474   3.587
 5499SOL    HW117396   0.812   1.486   3.503
 5499SOL    HW217397   0.813   1.510   3.664
 5500SOL     OW17398   1.869   5.898   6.950
 5500SOL    HW117399   1.918   5.844   6.882
 5500SOL    HW217400   1.846   5.987   6.912
 5501SOL     OW17401   3.410   6.981   1.541
 5501SOL    HW117402   3.354   6.970   1.623
 5501SOL    HW217403   3.476   6.906   1.534
 5502SOL     OW17404   5.966   4.289   6.047
 5502SOL    HW117405   5.924   4.259   6.132
 5502SOL    HW217406   5.907   4.264   5.970
 5503SOL     OW17407   0.737   4.895   2.641
 5503SOL    HW117408   0.691   4.856   2.721
 5503SOL    HW217409   0.750   4.824   2.572
 5504SOL     OW17410   2.666   0.811   4.983
 5504SOL    HW117411   2.745   0.872   4.973
 5504SOL    HW217412   2.587   0.864   5.015
 5505SOL     OW17413   1.992   5.941   4.835
 5505SOL    HW117414   2.000   6.038   4.857
 5505SOL    HW217415   1.934   5.896   4.903
 5506SOL     OW17416   6.582   6.985   5.291
 5506SOL    HW117417   6.510   6.968   5.357
 5506SOL    HW217418   6.671   6.962   5.332
 5507SOL     OW17419   2.906   6.550   3.290
 5507SOL    HW117420   2.816   6.557   3.248
 5507SOL    HW217421   2.969   6.504   3.227
 5508SOL     OW17422   2.599   0.750   0.282
 5508SOL    HW117423   2.550   0.754   0.369
 5508SOL    HW217424   2.677   0.812   0.285
 5509SOL     OW17425   0.115   6.313   0.599
 5509SOL    HW117426   0.185   6.374   0.563
 5509SOL    HW217427   0.159   6.233   0.640
 5510SOL     OW17428   5.217   6.599   0.194
 5510SOL    HW117429   5.185   6.630   0.104
 5510SOL    HW217430   5.265   6.673   0.240
 5511SOL     OW17431   2.055   0.484   3.316
 5511SOL    HW117432   1.970   0.433   3.297
 5511SOL    HW217433   2.085   0.530   3.233
 5512SOL     OW17434   6.203   2.011   0.673
 5512SOL    HW117435   6.289   2.026   0.723
 5512SOL    HW217436   6.189   2.085   0.608
 5513SOL     OW17437   5.056   4.228   5.245
 5513SOL    HW117438   5.049   4.243   5.146
 5513SOL    HW217439   5.034   4.313   5.292
 5514SOL     OW17440   5.049   5.525   2.856
 5514SOL    HW117441   5.098   5.537   2.943
 5514SOL    HW217442   5.108   5.480   2.790
 5515SOL     OW17443   6.480   3.819   0.579
 5515SOL    HW117444   6.401   3.806   0.638
 5515SOL    HW217445   6.553   3.755   0.605
 5516SOL     OW17446   1.436   2.841   0.387
 5516SOL    HW117447   1.491   2.774   0.436
 5516SOL    HW217448   1.495   2.895   0.327
 5517SOL     OW17449   2.743   2.315   2.515
 5517SOL    HW117450   2.772   2.336   2.609
 5517SOL    HW217451   2.807   2.251   2.474
 5518SOL     OW17452   6.701   5.868   5.767
 5518SOL    HW117453   6.798   5.875   5.742
 5518SOL    HW217454   6.693   5.855   5.865
 5519SOL     OW17455   4.966   3.794   3.007
 5519SOL    HW117456   4.926   3.780   2.917
 5519SOL    HW217457   4.945   3.887   3.039
 5520SOL     OW17458   0.542   4.491   2.754
 5520SOL    HW117459   0.610   4.500   2.826
 5520SOL    HW217460   0.463   4.441   2.790
 5521SOL     OW17461   4.430   5.851   2.360
 5521SOL    HW117462   4.525   5.882   2.364
 5521SOL    HW217463   4.424   5.756   2.389
 5522SOL     OW17464   1.694   3.557   0.964
 5522SOL    HW117465   1.727   3.535   1.056
 5522SOL    HW217466   1.613   3.502   0.944
 5523SOL     OW17467   3.459   6.491   2.879
 5523SOL    HW117468   3.439   6.519   2.785
 5523SOL    HW217469   3.463   6.571   2.938
 5524SOL     OW17470   6.771   5.877   4.968
 5524SOL    HW117471   6.790   5.905   5.062
 5524SOL    HW217472   6.698   5.809   4.967
 5525SOL     OW17473   6.548   4.429   0.060
 5525SOL    HW117474   6.522   4.365   7.012
 5525SOL    HW217475   6.494   4.411   0.142
 5526SOL     OW17476   5.899   3.855   4.863
 5526SOL    HW117477   5.950   3.889   4.785
 5526SOL    HW217478   5.961   3.809   4.927
 5527SOL     OW17479   0.838   3.374   3.258
 5527SOL    HW117480   0.887   3.363   3.344
 5527SOL    HW217481   0.871   3.456   3.211
 5528SOL     OW17482   1.019   2.328   5.757
 5528SOL    HW117483   1.047   2.252   5.816
 5528SOL    HW217484   1.034   2.415   5.805
 5529SOL     OW17485   2.262   0.367   4.485
 5529SOL    HW117486   2.321   0.290   4.510
 5529SOL    HW217487   2.294   0.450   4.531
 5530SOL     OW17488   0.056   2.093   2.100
 5530SOL    HW117489   0.010   2.038   2.168
 5530SOL    HW217490   0.071   2.039   2.017
 5531SOL     OW17491   4.143   3.448   4.002
 5531SOL    HW117492   4.095   3.419   3.919
 5531SOL    HW217493   4.115   3.389   4.078
 5532SOL     OW17494   1.485   1.478   1.164
 5532SOL    HW117495   1.552   1.550   1.145
 5532SOL    HW217496   1.533   1.396   1.198
 5533SOL     OW17497   2.714   0.448   2.883
 5533SOL    HW117498   2.761   0.478   2.965
 5533SOL    HW217499   2.656   0.522   2.849
 5534SOL     OW17500   1.138   3.571   6.423
 5534SOL    HW117501   1.176   3.553   6.333
 5534SOL    HW217502   1.212   3.595   6.486
 5535SOL     OW17503   0.209   3.403   3.321
 5535SOL    HW117504   0.230   3.320   3.268
 5535SOL    HW217505   0.261   3.402   3.406
 5536SOL     OW17506   3.061   0.926   4.051
 5536SOL    HW117507   3.085   0.830   4.064
 5536SOL    HW217508   3.110   0.962   3.971
 5537SOL     OW17509   3.179   1.163   4.204
 5537SOL    HW117510   3.137   1.253   4.190
 5537SOL    HW217511   3.123   1.093   4.158
 5538SOL     OW17512   3.198   0.214   4.679
 5538SOL    HW117513   3.280   0.172   4.639
 5538SOL    HW217514   3.144   0.256   4.607
 5539SOL     OW17515   0.475   1.765   0.848
 5539SOL    HW117516   0.489   1.767   0.947
 5539SOL    HW217517   0.412   1.690   0.824
 5540SOL     OW17518   5.041   3.380   2.313
 5540SOL    HW117519   5.008   3.369   2.220
 5540SOL    HW217520   5.001   3.309   2.371
 5541SOL     OW17521   5.286   2.831   5.903
 5541SOL    HW117522   5.280   2.854   5.806
 5541SOL    HW217523   5.362   2.767   5.917
 5542SOL     OW17524   5.747   5.981   5.852
 5542SOL    HW117525   5.701   5.950   5.935
 5542SOL    HW217526   5.817   6.048   5.876
 5543SOL     OW17527   1.690   5.221   6.345
 5543SOL    HW117528   1.761   5.151   6.329
 5543SOL    HW217529   1.600   5.180   6.335
 5544SOL     OW17530   5.189   5.411   5.819
 5544SOL    HW117531   5.269   5.352   5.810
 5544SOL    HW217532   5.218   5.504   5.841
 5545SOL     OW17533   4.927   1.107   2.445
 5545SOL    HW117534   4.886   1.125   2.355
 5545SOL    HW217535   4.982   1.186   2.472
 5546SOL     OW17536   1.066   6.342   4.197
 5546SOL    HW117537   1.050   6.262   4.255
 5546SOL    HW217538   1.102   6.312   4.109
 5547SOL     OW17539   4.325   0.827   5.193
 5547SOL    HW117540   4.249   0.779   5.237
 5547SOL    HW217541   4.358   0.772   5.117
 5548SOL     OW17542   6.435   3.777   5.622
 5548SOL    HW117543   6.467   3.682   5.627
 5548SOL    HW217544   6.386   3.791   5.536
 5549SOL     OW17545   3.820   4.322   1.222
 5549SOL    HW117546   3.811   4.223   1.215
 5549SOL    HW217547   3.816   4.363   1.130
 5550SOL     OW17548   2.464   4.447   2.068
 5550SOL    HW117549   2.433   4.540   2.051
 5550SOL    HW217550   2.489   4.403   1.981
 5551SOL     OW17551   1.434   6.334   2.623
 5551SOL    HW117552   1.340   6.362   2.642
 5551SOL    HW217553   1.497   6.384   2.682
 5552SOL     OW17554   6.572   1.345   6.638
 5552SOL    HW117555   6.561   1.442   6.614
 5552SOL    HW217556   6.481   1.303   6.646
 5553SOL     OW17557   4.942   6.598   6.497
 5553SOL    HW117558   5.008   6.625   6.427
 5553SOL    HW217559   4.850   6.626   6.471
 5554SOL     OW17560   4.683   2.357   0.146
 5554SOL    HW117561   4.766   2.402   0.177
 5554SOL    HW217562   4.698   2.259   0.141
 5555SOL     OW17563   1.016   3.863   2.098
 5555SOL    HW117564   1.053   3.772   2.118
 5555SOL    HW217565   1.034   3.887   2.003
 5556SOL     OW17566   6.302   1.318   3.104
 5556SOL    HW117567   6.219   1.352   3.149
 5556SOL    HW217568   6.375   1.386   3.114
 5557SOL     OW17569   4.222   5.979   2.233
 5557SOL    HW117570   4.304   5.925   2.251
 5557SOL    HW217571   4.142   5.933   2.272
 5558SOL     OW17572   2.855   3.702   6.448
 5558SOL    HW117573   2.857   3.604   6.426
 5558SOL    HW217574   2.768   3.741   6.419
 5559SOL     OW17575   2.006   0.581   1.763
 5559SOL    HW117576   2.036   0.647   1.695
 5559SOL    HW217577   2.078   0.568   1.831
 5560SOL     OW17578   0.233   5.303   1.456
 5560SOL    HW117579   0.308   5.279   1.394
 5560SOL    HW217580   0.210   5.223   1.512
 5561SOL     OW17581   2.210   0.917   4.346
 5561SOL    HW117582   2.289   0.959   4.392
 5561SOL    HW217583   2.126   0.953   4.385
 5562SOL     OW17584   3.791   2.706   6.664
 5562SOL    HW117585   3.820   2.776   6.598
 5562SOL    HW217586   3.865   2.690   6.730
 5563SOL     OW17587   2.941   4.918   2.528
 5563SOL    HW117588   2.871   4.867   2.579
 5563SOL    HW217589   3.002   4.963   2.593
 5564SOL     OW17590   4.649   0.228   0.702
 5564SOL    HW117591   4.748   0.219   0.712
 5564SOL    HW217592   4.617   0.164   0.632
 5565SOL     OW17593   3.736   2.293   5.924
 5565SOL    HW117594   3.712   2.384   5.891
 5565SOL    HW217595   3.682   2.224   5.874
 5566SOL     OW17596   1.490   4.470   6.763
 5566SOL    HW117597   1.489   4.377   6.799
 5566SOL    HW217598   1.476   4.466   6.664
 5567SOL     OW17599   0.076   3.121   0.886
 5567SOL    HW117600   0.071   3.143   0.983
 5567SOL    HW217601   7.019   3.071   0.858
 5568SOL     OW17602   5.029   0.885   3.349
 5568SOL    HW117603   5.044   0.856   3.254
 5568SOL    HW217604   4.953   0.951   3.351
 5569SOL     OW17605   1.915   1.287   2.389
 5569SOL    HW117606   1.916   1.200   2.439
 5569SOL    HW217607   1.923   1.363   2.455
 5570SOL     OW17608   6.907   3.825   4.366
 5570SOL    HW117609   6.917   3.843   4.463
 5570SOL    HW217610   6.986   3.862   4.316
 5571SOL     OW17611   6.230   6.169   1.275
 5571SOL    HW117612   6.319   6.133   1.248
 5571SOL    HW217613   6.224   6.171   1.375
 5572SOL     OW17614   1.477   3.684   4.779
 5572SOL    HW117615   1.513   3.733   4.699
 5572SOL    HW217616   1.509   3.589   4.776
 5573SOL     OW17617   1.807   5.941   4.613
 5573SOL    HW117618   1.721   5.908   4.651
 5573SOL    HW217619   1.883   5.909   4.668
 5574SOL     OW17620   0.265   1.965   2.251
 5574SOL    HW117621   0.176   1.995   2.286
 5574SOL    HW217622   0.255   1.877   2.204
 5575SOL     OW17623   0.009   1.381   0.795
 5575SOL    HW117624   0.082   1.417   0.736
 5575SOL    HW217625   6.995   1.456   0.849
 5576SOL     OW17626   0.782   4.910   1.849
 5576SOL    HW117627   0.877   4.905   1.880
 5576SOL    HW217628   0.730   4.969   1.911
 5577SOL     OW17629   2.878   2.932   6.643
 5577SOL    HW117630   2.840   2.871   6.712
 5577SOL    HW217631   2.805   2.957   6.579
 5578SOL     OW17632   3.310   3.324   1.744
 5578SOL    HW117633   3.301   3.422   1.726
 5578SOL    HW217634   3.239   3.294   1.807
 5579SOL     OW17635   0.268   3.755   0.509
 5579SOL    HW117636   0.231   3.827   0.450
 5579SOL    HW217637   0.261   3.667   0.461
 5580SOL     OW17638   4.959   2.564   5.386
 5580SOL    HW117639   4.924   2.520   5.303
 5580SOL    HW217640   5.054   2.538   5.400
 5581SOL     OW17641   2.057   0.250   1.645
 5581SOL    HW117642   1.991   0.285   1.712
 5581SOL    HW217643   2.020   0.167   1.602
 5582SOL     OW17644   3.235   3.561   6.247
 5582SOL    HW117645   3.197   3.638   6.196
 5582SOL    HW217646   3.263   3.489   6.184
 5583SOL     OW17647   5.160   0.741   2.663
 5583SOL    HW117648   5.064   0.764   2.678
 5583SOL    HW217649   5.214   0.825   2.656
 5584SOL     OW17650   6.875   4.913   4.185
 5584SOL    HW117651   6.797   4.941   4.127
 5584SOL    HW217652   6.882   4.813   4.185
 5585SOL     OW17653   5.671   5.565   3.096
 5585SOL    HW117654   5.591   5.508   3.078
 5585SOL    HW217655   5.641   5.651   3.138
 5586SOL     OW17656   0.231   2.940   5.816
 5586SOL    HW117657   0.266   2.869   5.754
 5586SOL    HW217658   0.183   2.896   5.892
 5587SOL     OW17659   4.195   6.501   0.861
 5587SOL    HW117660   4.187   6.419   0.917
 5587SOL    HW217661   4.152   6.485   0.772
 5588SOL     OW17662   2.624   5.050   3.055
 5588SOL    HW117663   2.655   4.991   3.130
 5588SOL    HW217664   2.660   5.142   3.068
 5589SOL     OW17665   6.502   3.142   5.837
 5589SOL    HW117666   6.441   3.122   5.760
 5589SOL    HW217667   6.549   3.228   5.822
 5590SOL     OW17668   0.307   6.206   3.590
 5590SOL    HW117669   0.209   6.222   3.584
 5590SOL    HW217670   0.356   6.268   3.528
 5591SOL     OW17671   5.543   1.627   1.551
 5591SOL    HW117672   5.634   1.592   1.574
 5591SOL    HW217673   5.484   1.551   1.523
 5592SOL     OW17674   1.501   5.644   2.213
 5592SOL    HW117675   1.539   5.605   2.297
 5592SOL    HW217676   1.560   5.621   2.136
 5593SOL     OW17677   1.081   2.829   0.486
 5593SOL    HW117678   1.140   2.790   0.416
 5593SOL    HW217679   0.985   2.807   0.466
 5594SOL     OW17680   4.556   1.091   6.514
 5594SOL    HW117681   4.578   1.182   6.481
 5594SOL    HW217682   4.632   1.055   6.568
 5595SOL     OW17683   0.373   1.032   4.647
 5595SOL    HW117684   0.407   1.063   4.559
 5595SOL    HW217685   0.333   0.941   4.638
 5596SOL     OW17686   4.660   0.827   2.686
 5596SOL    HW117687   4.655   0.740   2.735
 5596SOL    HW217688   4.700   0.896   2.746
 5597SOL     OW17689   4.888   3.188   4.770
 5597SOL    HW117690   4.967   3.132   4.792
 5597SOL    HW217691   4.820   3.132   4.722
 5598SOL     OW17692   5.260   4.166   4.118
 5598SOL    HW117693   5.181   4.209   4.074
 5598SOL    HW217694   5.279   4.078   4.074
 5599SOL     OW17695   1.053   2.112   2.660
 5599SOL    HW117696   1.143   2.099   2.619
 5599SOL    HW217697   0.982   2.083   2.596
 5600SOL     OW17698   1.153   1.418   1.480
 5600SOL    HW117699   1.084   1.420   1.408
 5600SOL    HW217700   1.124   1.356   1.553
 5601SOL     OW17701   2.032   0.614   6.159
 5601SOL    HW117702   1.978   0.531   6.167
 5601SOL    HW217703   2.112   0.608   6.219
 5602SOL     OW17704   7.011   1.581   1.483
 5602SOL    HW117705   6.955   1.500   1.461
 5602SOL    HW217706   6.970   1.630   1.560
 5603SOL     OW17707   5.894   2.733   0.551
 5603SOL    HW117708   5.849   2.804   0.497
 5603SOL    HW217709   5.833   2.703   0.625
 5604SOL     OW17710   6.368   2.618   4.875
 5604SOL    HW117711   6.358   2.569   4.962
 5604SOL    HW217712   6.407   2.557   4.806
 5605SOL     OW17713   0.247   1.353   5.206
 5605SOL    HW117714   0.279   1.300   5.284
 5605SOL    HW217715   0.266   1.450   5.221
 5606SOL     OW17716   4.737   6.607   0.669
 5606SOL    HW117717   4.692   6.590   0.581
 5606SOL    HW217718   4.817   6.665   0.655
 5607SOL     OW17719   5.222   1.036   2.550
 5607SOL    HW117720   5.169   1.121   2.557
 5607SOL    HW217721   5.200   0.989   2.465
 5608SOL     OW17722   5.838   0.296   4.005
 5608SOL    HW117723   5.892   0.360   4.061
 5608SOL    HW217724   5.846   0.204   4.043
 5609SOL     OW17725   3.158   5.916   0.961
 5609SOL    HW117726   3.104   5.835   0.984
 5609SOL    HW217727   3.214   5.897   0.880
 5610SOL     OW17728   3.919   5.919   0.268
 5610SOL    HW117729   3.955   5.869   0.346
 5610SOL    HW217730   3.823   5.894   0.254
 5611SOL     OW17731   1.346   5.840   2.741
 5611SOL    HW117732   1.306   5.907   2.803
 5611SOL    HW217733   1.402   5.887   2.673
 5612SOL     OW17734   3.839   2.178   6.167
 5612SOL    HW117735   3.810   2.234   6.089
 5612SOL    HW217736   3.936   2.192   6.184
 5613SOL     OW17737   6.091   4.471   3.170
 5613SOL    HW117738   6.035   4.430   3.098
 5613SOL    HW217739   6.145   4.399   3.214
 5614SOL     OW17740   4.841   2.040   4.471
 5614SOL    HW117741   4.759   2.095   4.456
 5614SOL    HW217742   4.922   2.093   4.446
 5615SOL     OW17743   0.082   1.932   3.923
 5615SOL    HW117744   7.012   1.917   3.953
 5615SOL    HW217745   0.094   1.897   3.831
 5616SOL     OW17746   2.827   1.549   4.708
 5616SOL    HW117747   2.923   1.557   4.736
 5616SOL    HW217748   2.791   1.640   4.687
 5617SOL     OW17749   2.644   6.596   5.825
 5617SOL    HW117750   2.556   6.552   5.843
 5617SOL    HW217751   2.636   6.653   5.742
 5618SOL     OW17752   0.080   4.579   3.606
 5618SOL    HW117753   0.056   4.482   3.599
 5618SOL    HW217754   0.178   4.589   3.590
 5619SOL     OW17755   3.188   3.789   5.050
 5619SOL    HW117756   3.151   3.879   5.027
 5619SOL    HW217757   3.115   3.721   5.043
 5620SOL     OW17758   4.145   3.555   0.531
 5620SOL    HW117759   4.131   3.588   0.625
 5620SOL    HW217760   4.239   3.521   0.522
 5621SOL     OW17761   2.031   2.286   0.322
 5621SOL    HW117762   2.085   2.329   0.395
 5621SOL    HW217763   2.078   2.203   0.291
 5622SOL     OW17764   4.465   0.135   6.245
 5622SOL    HW117765   4.400   0.061   6.264
 5622SOL    HW217766   4.533   0.103   6.180
 5623SOL     OW17767   3.141   5.425   5.293
 5623SOL    HW117768   3.068   5.487   5.261
 5623SOL    HW217769   3.103   5.333   5.306
 5624SOL     OW17770   1.355   4.169   3.767
 5624SOL    HW117771   1.282   4.115   3.810
 5624SOL    HW217772   1.405   4.219   3.838
 5625SOL     OW17773   5.876   1.038   5.518
 5625SOL    HW117774   5.933   1.111   5.557
 5625SOL    HW217775   5.927   0.990   5.447
 5626SOL     OW17776   2.551   5.879   4.244
 5626SOL    HW117777   2.557   5.967   4.291
 5626SOL    HW217778   2.486   5.820   4.292
 5627SOL     OW17779   0.664   5.553   6.315
 5627SOL    HW117780   0.580   5.505   6.343
 5627SOL    HW217781   0.640   5.630   6.256
 5628SOL     OW17782   1.216   2.199   0.772
 5628SOL    HW117783   1.149   2.145   0.823
 5628SOL    HW217784   1.308   2.179   0.808
 5629SOL     OW17785   3.511   3.933   2.526
 5629SOL    HW117786   3.466   3.949   2.613
 5629SOL    HW217787   3.476   3.848   2.485
 5630SOL     OW17788   1.537   3.775   6.955
 5630SOL    HW117789   1.465   3.790   6.887
 5630SOL    HW217790   1.506   3.807   0.020
 5631SOL     OW17791   4.576   1.913   0.928
 5631SOL    HW117792   4.543   2.006   0.908
 5631SOL    HW217793   4.526   1.877   1.007
 5632SOL     OW17794   3.169   2.231   6.043
 5632SOL    HW117795   3.150   2.210   6.139
 5632SOL    HW217796   3.202   2.325   6.035
 5633SOL     OW17797   6.084   4.165   4.235
 5633SOL    HW117798   6.060   4.143   4.141
 5633SOL    HW217799   6.167   4.221   4.236
 5634SOL     OW17800   2.107   4.509   4.351
 5634SOL    HW117801   2.054   4.591   4.371
 5634SOL    HW217802   2.166   4.488   4.429
 5635SOL     OW17803   1.841   4.426   5.349
 5635SOL    HW117804   1.774   4.363   5.388
 5635SOL    HW217805   1.922   4.429   5.408
 5636SOL     OW17806   4.379   6.512   4.131
 5636SOL    HW117807   4.458   6.481   4.079
 5636SOL    HW217808   4.300   6.523   4.071
 5637SOL     OW17809   5.503   0.323   3.470
 5637SOL    HW117810   5.518   0.234   3.428
 5637SOL    HW217811   5.437   0.375   3.415
 5638SOL     OW17812   6.381   3.607   1.184
 5638SOL    HW117813   6.365   3.653   1.096
 5638SOL    HW217814   6.453   3.655   1.234
 5639SOL     OW17815   0.588   1.035   2.066
 5639SOL    HW117816   0.635   0.946   2.067
 5639SOL    HW217817   0.553   1.052   1.974
 5640SOL     OW17818   3.217   0.145   3.631
 5640SOL    HW117819   3.207   0.045   3.628
 5640SOL    HW217820   3.145   0.187   3.576
 5641SOL     OW17821   1.086   4.872   5.096
 5641SOL    HW117822   1.113   4.805   5.166
 5641SOL    HW217823   1.122   4.843   5.007
 5642SOL     OW17824   1.672   6.617   5.282
 5642SOL    HW117825   1.626   6.684   5.225
 5642SOL    HW217826   1.648   6.525   5.252
 5643SOL     OW17827   4.572   0.978   5.656
 5643SOL    HW117828   4.612   1.067   5.677
 5643SOL    HW217829   4.513   0.950   5.732
 5644SOL     OW17830   3.458   0.298   5.329
 5644SOL    HW117831   3.434   0.319   5.234
 5644SOL    HW217832   3.374   0.285   5.381
 5645SOL     OW17833   6.324   4.735   3.807
 5645SOL    HW117834   6.285   4.823   3.781
 5645SOL    HW217835   6.313   4.670   3.731
 5646SOL     OW17836   1.642   5.584   3.377
 5646SOL    HW117837   1.716   5.518   3.365
 5646SOL    HW217838   1.667   5.650   3.448
 5647SOL     OW17839   4.470   5.927   1.619
 5647SOL    HW117840   4.485   5.990   1.695
 5647SOL    HW217841   4.547   5.863   1.614
 5648SOL     OW17842   2.396   5.968   2.279
 5648SOL    HW117843   2.488   5.966   2.316
 5648SOL    HW217844   2.358   6.060   2.286
 5649SOL     OW17845   0.888   6.970   4.439
 5649SOL    HW117846   0.973   6.933   4.476
 5649SOL    HW217847   0.907   7.021   4.355
 5650SOL     OW17848   0.895   5.271   1.391
 5650SOL    HW117849   0.897   5.224   1.479
 5650SOL    HW217850   0.870   5.367   1.405
 5651SOL     OW17851   1.826   1.433   1.329
 5651SOL    HW117852   1.754   1.364   1.331
 5651SOL    HW217853   1.801   1.507   1.267
 5652SOL     OW17854   6.022   6.513   1.518
 5652SOL    HW117855   6.018   6.613   1.517
 5652SOL    HW217856   6.021   6.479   1.423
 5653SOL     OW17857   6.084   6.574   6.513
 5653SOL    HW117858   6.078   6.553   6.415
 5653SOL    HW217859   6.068   6.672   6.527
 5654SOL     OW17860   0.810   6.435   4.533
 5654SOL    HW117861   0.811   6.463   4.437
 5654SOL    HW217862   0.731   6.376   4.550
 5655SOL     OW17863   0.403   2.877   3.826
 5655SOL    HW117864   0.460   2.954   3.856
 5655SOL    HW217865   0.358   2.900   3.740
 5656SOL     OW17866   6.924   4.083   6.602
 5656SOL    HW117867   6.950   3.987   6.599
 5656SOL    HW217868   7.007   4.139   6.611
 5657SOL     OW17869   5.990   3.558   6.501
 5657SOL    HW117870   6.027   3.466   6.519
 5657SOL    HW217871   6.034   3.624   6.562
 5658SOL     OW17872   3.065   3.038   6.112
 5658SOL    HW117873   3.070   3.089   6.026
 5658SOL    HW217874   3.158   3.024   6.147
 5659SOL     OW17875   3.323   3.328   6.078
 5659SOL    HW117876   3.355   3.370   5.993
 5659SOL    HW217877   3.299   3.232   6.060
 5660SOL     OW17878   4.703   6.844   6.042
 5660SOL    HW117879   4.696   6.943   6.031
 5660SOL    HW217880   4.694   6.820   6.139
 5661SOL     OW17881   2.078   6.070   5.112
 5661SOL    HW117882   2.061   6.164   5.141
 5661SOL    HW217883   2.157   6.033   5.161
 5662SOL     OW17884   3.139   6.824   3.248
 5662SOL    HW117885   3.077   6.815   3.326
 5662SOL    HW217886   3.187   6.738   3.232
 5663SOL     OW17887   2.445   2.487   0.639
 5663SOL    HW117888   2.379   2.491   0.715
 5663SOL    HW217889   2.537   2.477   0.676
 5664SOL     OW17890   6.975   3.446   4.508
 5664SOL    HW117891   0.017   3.513   4.539
 5664SOL    HW217892   6.916   3.487   4.438
 5665SOL     OW17893   1.568   0.768   0.527
 5665SOL    HW117894   1.548   0.857   0.488
 5665SOL    HW217895   1.658   0.737   0.495
 5666SOL     OW17896   6.635   0.011   3.508
 5666SOL    HW117897   6.621   0.110   3.495
 5666SOL    HW217898   6.716   7.007   3.456
 5667SOL     OW17899   1.523   5.036   4.734
 5667SOL    HW117900   1.536   5.111   4.799
 5667SOL    HW217901   1.611   4.993   4.714
 5668SOL     OW17902   5.615   3.183   3.357
 5668SOL    HW117903   5.638   3.132   3.274
 5668SOL    HW217904   5.654   3.275   3.351
 5669SOL     OW17905   6.359   3.711   0.930
 5669SOL    HW117906   6.426   3.782   0.910
 5669SOL    HW217907   6.315   3.681   0.846
 5670SOL     OW17908   1.446   3.500   3.996
 5670SOL    HW117909   1.501   3.582   3.988
 5670SOL    HW217910   1.370   3.517   4.060
 5671SOL     OW17911   6.050   6.471   5.410
 5671SOL    HW117912   6.024   6.472   5.314
 5671SOL    HW217913   6.121   6.402   5.425
 5672SOL     OW17914   4.881   4.035   6.422
 5672SOL    HW117915   4.962   3.981   6.445
 5672SOL    HW217916   4.904   4.100   6.349
 5673SOL     OW17917   1.892   6.596   1.159
 5673SOL    HW117918   1.929   6.594   1.066
 5673SOL    HW217919   1.793   6.614   1.155
 5674SOL     OW17920   1.180   4.681   5.287
 5674SOL    HW117921   1.144   4.758   5.338
 5674SOL    HW217922   1.279   4.673   5.303
 5675SOL     OW17923   4.422   2.871   6.426
 5675SOL    HW117924   4.501   2.833   6.473
 5675SOL    HW217925   4.433   2.860   6.327
 5676SOL     OW17926   2.546   2.106   3.226
 5676SOL    HW117927   2.476   2.164   3.267
 5676SOL    HW217928   2.635   2.127   3.266
 5677SOL     OW17929   1.011   0.857   0.708
 5677SOL    HW117930   1.037   0.942   0.662
 5677SOL    HW217931   0.974   0.878   0.798
 5678SOL     OW17932   3.714   0.111   2.932
 5678SOL    HW117933   3.764   0.111   2.845
 5678SOL    HW217934   3.651   0.034   2.933
 5679SOL     OW17935   5.669   0.962   3.929
 5679SOL    HW117936   5.617   0.942   3.845
 5679SOL    HW217937   5.738   0.891   3.943
 5680SOL     OW17938   1.739   5.114   6.820
 5680SOL    HW117939   1.738   5.045   6.748
 5680SOL    HW217940   1.688   5.194   6.789
 5681SOL     OW17941   0.431   3.967   1.784
 5681SOL    HW117942   0.334   3.991   1.776
 5681SOL    HW217943   0.454   3.900   1.714
 5682SOL     OW17944   1.909   5.338   4.423
 5682SOL    HW117945   1.858   5.272   4.368
 5682SOL    HW217946   1.848   5.381   4.490
 5683SOL     OW17947   3.920   1.610   6.323
 5683SOL    HW117948   3.993   1.605   6.255
 5683SOL    HW217949   3.940   1.546   6.398
 5684SOL     OW17950   2.632   3.840   6.317
 5684SOL    HW117951   2.617   3.795   6.229
 5684SOL    HW217952   2.623   3.939   6.305
 5685SOL     OW17953   2.560   1.383   3.579
 5685SOL    HW117954   2.490   1.334   3.630
 5685SOL    HW217955   2.649   1.370   3.623
 5686SOL     OW17956   3.343   1.382   5.326
 5686SOL    HW117957   3.422   1.435   5.356
 5686SOL    HW217958   3.292   1.435   5.257
 5687SOL     OW17959   0.702   5.506   5.790
 5687SOL    HW117960   0.651   5.590   5.810
 5687SOL    HW217961   0.796   5.517   5.824
 5688SOL     OW17962   1.613   2.468   2.858
 5688SOL    HW117963   1.612   2.390   2.921
 5688SOL    HW217964   1.640   2.551   2.908
 5689SOL     OW17965   2.715   1.229   2.487
 5689SOL    HW117966   2.687   1.308   2.541
 5689SOL    HW217967   2.731   1.151   2.547
 5690SOL     OW17968   1.687   6.127   0.094
 5690SOL    HW117969   1.665   6.033   0.066
 5690SOL    HW217970   1.634   6.151   0.175
 5691SOL     OW17971   3.804   0.645   1.921
 5691SOL    HW117972   3.721   0.677   1.968
 5691SOL    HW217973   3.783   0.560   1.873
 5692SOL     OW17974   5.494   4.549   0.670
 5692SOL    HW117975   5.568   4.504   0.620
 5692SOL    HW217976   5.483   4.505   0.759
 5693SOL     OW17977   4.168   1.297   1.992
 5693SOL    HW117978   4.218   1.267   2.073
 5693SOL    HW217979   4.138   1.217   1.939
 5694SOL     OW17980   1.259   0.754   2.768
 5694SOL    HW117981   1.180   0.693   2.775
 5694SOL    HW217982   1.258   0.818   2.845
 5695SOL     OW17983   1.763   1.522   3.667
 5695SOL    HW117984   1.836   1.541   3.601
 5695SOL    HW217985   1.759   1.424   3.685
 5696SOL     OW17986   0.442   6.655   4.198
 5696SOL    HW117987   0.441   6.680   4.101
 5696SOL    HW217988   0.533   6.620   4.222
 5697SOL     OW17989   5.969   2.384   1.878
 5697SOL    HW117990   6.051   2.372   1.822
 5697SOL    HW217991   5.969   2.317   1.952
 5698SOL     OW17992   1.083   4.388   3.842
 5698SOL    HW117993   1.004   4.413   3.897
 5698SOL    HW217994   1.100   4.459   3.773
 5699SOL     OW17995   0.906   2.349   2.769
 5699SOL    HW117996   0.951   2.275   2.718
 5699SOL    HW217997   0.975   2.410   2.807
 5700SOL     OW17998   6.339   6.626   3.888
 5700SOL    HW117999   6.349   6.687   3.966
 5700SOL    HW218000   6.252   6.644   3.842
 5701SOL     OW18001   0.863   0.049   1.349
 5701SOL    HW118002   0.913   0.033   1.434
 5701SOL    HW218003   0.895   7.010   1.279
 5702SOL     OW18004   2.372   5.777   4.414
 5702SOL    HW118005   2.418   5.759   4.501
 5702SOL    HW218006   2.293   5.836   4.430
 5703SOL     OW18007   6.626   4.442   0.474
 5703SOL    HW118008   6.700   4.374   0.477
 5703SOL    HW218009   6.579   4.444   0.562
 5704SOL     OW18010   5.158   4.129   3.248
 5704SOL    HW118011   5.202   4.088   3.328
 5704SOL    HW218012   5.122   4.219   3.273
 5705SOL     OW18013   4.826   6.252   7.004
 5705SOL    HW118014   4.731   6.261   0.009
 5705SOL    HW218015   4.829   6.246   6.904
 5706SOL     OW18016   5.268   2.556   2.263
 5706SOL    HW118017   5.205   2.605   2.202
 5706SOL    HW218018   5.325   2.622   2.312
 5707SOL     OW18019   5.809   0.225   1.025
 5707SOL    HW118020   5.859   0.154   1.076
 5707SOL    HW218021   5.772   0.186   0.941
 5708SOL     OW18022   5.031   6.005   2.190
 5708SOL    HW118023   5.114   5.979   2.141
 5708SOL    HW218024   5.037   5.974   2.285
 5709SOL     OW18025   0.837   1.368   2.483
 5709SOL    HW118026   0.893   1.424   2.543
 5709SOL    HW218027   0.877   1.276   2.476
 5710SOL     OW18028   3.529   2.230   0.374
 5710SOL    HW118029   3.505   2.161   0.442
 5710SOL    HW218030   3.447   2.257   0.324
 5711SOL     OW18031   5.119   1.328   1.836
 5711SOL    HW118032   5.178   1.404   1.810
 5711SOL    HW218033   5.072   1.349   1.922
 5712SOL     OW18034   6.137   6.899   0.252
 5712SOL    HW118035   6.114   6.963   0.179
 5712SOL    HW218036   6.100   6.932   0.339
 5713SOL     OW18037   2.723   3.828   1.738
 5713SOL    HW118038   2.643   3.886   1.755
 5713SOL    HW218039   2.780   3.870   1.668
 5714SOL     OW18040   6.607   6.374   1.235
 5714SOL    HW118041   6.667   6.452   1.250
 5714SOL    HW218042   6.555   6.388   1.151
 5715SOL     OW18043   0.122   0.131   2.805
 5715SOL    HW118044   0.055   0.085   2.862
 5715SOL    HW218045   0.173   0.064   2.752
 5716SOL     OW18046   1.504   5.721   5.791
 5716SOL    HW118047   1.539   5.804   5.835
 5716SOL    HW218048   1.577   5.654   5.781
 5717SOL     OW18049   1.648   5.225   0.481
 5717SOL    HW118050   1.644   5.126   0.499
 5717SOL    HW218051   1.734   5.262   0.517
 5718SOL     OW18052   1.272   3.867   0.862
 5718SOL    HW118053   1.208   3.854   0.786
 5718SOL    HW218054   1.363   3.836   0.835
 5719SOL     OW18055   2.727   3.875   0.282
 5719SOL    HW118056   2.691   3.829   0.202
 5719SOL    HW218057   2.732   3.974   0.265
 5720SOL     OW18058   1.493   6.539   4.537
 5720SOL    HW118059   1.562   6.486   4.487
 5720SOL    HW218060   1.531   6.570   4.624
 5721SOL     OW18061   5.963   4.358   0.663
 5721SOL    HW118062   5.913   4.300   0.598
 5721SOL    HW218063   6.041   4.400   0.617
 5722SOL     OW18064   6.531   2.270   5.063
 5722SOL    HW118065   6.595   2.209   5.110
 5722SOL    HW218066   6.575   2.306   4.980
 5723SOL     OW18067   3.785   3.501   0.285
 5723SOL    HW118068   3.829   3.454   0.360
 5723SOL    HW218069   3.848   3.507   0.207
 5724SOL     OW18070   5.922   2.886   4.053
 5724SOL    HW118071   5.930   2.957   3.983
 5724SOL    HW218072   5.844   2.906   4.112
 5725SOL     OW18073   5.974   5.279   3.811
 5725SOL    HW118074   6.005   5.345   3.743
 5725SOL    HW218075   5.947   5.194   3.766
 5726SOL     OW18076   0.080   5.684   4.037
 5726SOL    HW118077   0.148   5.687   4.110
 5726SOL    HW218078   0.005   5.624   4.064
 5727SOL     OW18079   6.135   2.720   4.517
 5727SOL    HW118080   6.178   2.749   4.603
 5727SOL    HW218081   6.154   2.623   4.502
 5728SOL     OW18082   5.235   6.517   5.660
 5728SOL    HW118083   5.224   6.587   5.590
 5728SOL    HW218084   5.153   6.513   5.717
 5729SOL     OW18085   1.317   1.044   6.954
 5729SOL    HW118086   1.347   1.026   0.024
 5729SOL    HW218087   1.221   1.020   6.945
 5730SOL     OW18088   5.502   5.019   6.107
 5730SOL    HW118089   5.588   5.059   6.138
 5730SOL    HW218090   5.500   4.921   6.127
 5731SOL     OW18091   6.779   0.360   3.132
 5731SOL    HW118092   6.800   0.271   3.173
 5731SOL    HW218093   6.864   0.411   3.119
 5732SOL     OW18094   0.729   5.955   3.816
 5732SOL    HW118095   0.689   5.955   3.907
 5732SOL    HW218096   0.735   5.862   3.781
 5733SOL     OW18097   3.366   6.598   5.123
 5733SOL    HW118098   3.397   6.513   5.166
 5733SOL    HW218099   3.416   6.612   5.037
 5734SOL     OW18100   1.265   0.430   5.565
 5734SOL    HW118101   1.349   0.375   5.562
 5734SOL    HW218102   1.287   0.522   5.597
 5735SOL     OW18103   4.325   1.541   0.919
 5735SOL    HW118104   4.226   1.527   0.927
 5735SOL    HW218105   4.346   1.637   0.934
 5736SOL     OW18106   6.361   4.137   0.181
 5736SOL    HW118107   6.371   4.063   0.248
 5736SOL    HW218108   6.449   4.183   0.169
 5737SOL     OW18109   5.838   6.536   0.671
 5737SOL    HW118110   5.806   6.549   0.577
 5737SOL    HW218111   5.826   6.440   0.696
 5738SOL     OW18112   2.113   2.609   5.995
 5738SOL    HW118113   2.115   2.655   6.084
 5738SOL    HW218114   2.020   2.614   5.958
 5739SOL     OW18115   1.626   1.221   6.115
 5739SOL    HW118116   1.665   1.208   6.206
 5739SOL    HW218117   1.611   1.318   6.098
 5740SOL     OW18118   4.389   4.582   0.459
 5740SOL    HW118119   4.329   4.505   0.434
 5740SOL    HW218120   4.396   4.588   0.558
 5741SOL     OW18121   0.443   5.381   4.456
 5741SOL    HW118122   0.493   5.335   4.383
 5741SOL    HW218123   0.344   5.373   4.440
 5742SOL     OW18124   5.154   6.455   2.833
 5742SOL    HW118125   5.189   6.541   2.869
 5742SOL    HW218126   5.109   6.404   2.907
 5743SOL     OW18127   2.313   6.401   5.066
 5743SOL    HW118128   2.337   6.331   4.998
 5743SOL    HW218129   2.305   6.490   5.020
 5744SOL     OW18130   4.973   0.199   1.506
 5744SOL    HW118131   5.052   0.260   1.503
 5744SOL    HW218132   4.948   0.181   1.601
 5745SOL     OW18133   3.866   1.142   4.588
 5745SOL    HW118134   3.831   1.234   4.568
 5745SOL    HW218135   3.796   1.074   4.565
 5746SOL     OW18136   4.996   0.740   1.067
 5746SOL    HW118137   4.957   0.716   0.978
 5746SOL    HW218138   5.010   0.839   1.071
 5747SOL     OW18139   0.328   5.161   2.792
 5747SOL    HW118140   0.276   5.103   2.730
 5747SOL    HW218141   0.409   5.112   2.824
 5748SOL     OW18142   1.713   4.870   0.903
 5748SOL    HW118143   1.615   4.850   0.904
 5748SOL    HW218144   1.730   4.955   0.953
 5749SOL     OW18145   2.898   0.538   4.471
 5749SOL    HW118146   2.937   0.594   4.545
 5749SOL    HW218147   2.963   0.467   4.446
 5750SOL     OW18148   5.770   5.339   4.872
 5750SOL    HW118149   5.783   5.276   4.796
 5750SOL    HW218150   5.766   5.287   4.958
 5751SOL     OW18151   2.706   2.357   4.531
 5751SOL    HW118152   2.719   2.404   4.618
 5751SOL    HW218153   2.786   2.299   4.513
 5752SOL     OW18154   6.129   1.366   6.327
 5752SOL    HW118155   6.159   1.425   6.401
 5752SOL    HW218156   6.042   1.399   6.290
 5753SOL     OW18157   3.126   3.744   6.076
 5753SOL    HW118158   3.040   3.790   6.099
 5753SOL    HW218159   3.180   3.803   6.016
 5754SOL     OW18160   5.440   5.808   1.162
 5754SOL    HW118161   5.343   5.788   1.144
 5754SOL    HW218162   5.465   5.892   1.114
 5755SOL     OW18163   3.495   3.315   5.390
 5755SOL    HW118164   3.413   3.303   5.446
 5755SOL    HW218165   3.468   3.338   5.296
 5756SOL     OW18166   6.849   5.410   3.703
 5756SOL    HW118167   6.813   5.368   3.619
 5756SOL    HW218168   6.942   5.376   3.719
 5757SOL     OW18169   6.505   6.223   2.414
 5757SOL    HW118170   6.594   6.223   2.368
 5757SOL    HW218171   6.514   6.264   2.504
 5758SOL     OW18172   2.969   1.846   3.891
 5758SOL    HW118173   2.920   1.889   3.968
 5758SOL    HW218174   2.903   1.822   3.820
 5759SOL     OW18175   4.667   1.932   6.468
 5759SOL    HW118176   4.722   2.010   6.495
 5759SOL    HW218177   4.680   1.858   6.534
 5760SOL     OW18178   1.666   6.286   2.006
 5760SOL    HW118179   1.710   6.353   2.066
 5760SOL    HW218180   1.642   6.330   1.919
 5761SOL     OW18181   5.719   0.922   5.679
 5761SOL    HW118182   5.754   0.930   5.772
 5761SOL    HW218183   5.772   0.981   5.619
 5762SOL     OW18184   4.756   6.979   0.466
 5762SOL    HW118185   4.668   6.991   0.512
 5762SOL    HW218186   4.805   6.903   0.506
 5763SOL     OW18187   0.333   0.081   0.248
 5763SOL    HW118188   0.279   0.124   0.175
 5763SOL    HW218189   0.389   0.150   0.293
 5764SOL     OW18190   5.173   4.846   6.172
 5764SOL    HW118191   5.117   4.868   6.092
 5764SOL    HW218192   5.115   4.839   6.252
 5765SOL     OW18193   6.400   4.448   6.499
 5765SOL    HW118194   6.423   4.359   6.461
 5765SOL    HW218195   6.318   4.483   6.452
 5766SOL     OW18196   2.599   1.279   1.554
 5766SOL    HW118197   2.685   1.262   1.506
 5766SOL    HW218198   2.524   1.282   1.488
 5767SOL     OW18199   2.577   6.779   0.486
 5767SOL    HW118200   2.625   6.866   0.472
 5767SOL    HW218201   2.529   6.753   0.402
 5768SOL     OW18202   7.013   6.985   3.002
 5768SOL    HW118203   6.943   6.915   2.989
 5768SOL    HW218204   0.051   6.957   3.076
 5769SOL     OW18205   2.481   6.914   3.474
 5769SOL    HW118206   2.418   6.990   3.464
 5769SOL    HW218207   2.430   6.828   3.472
 5770SOL     OW18208   6.718   6.928   1.024
 5770SOL    HW118209   6.766   7.004   1.067
 5770SOL    HW218210   6.665   6.961   0.946
 5771SOL     OW18211   1.560   6.426   1.375
 5771SOL    HW118212   1.517   6.335   1.371
 5771SOL    HW218213   1.489   6.496   1.376
 5772SOL     OW18214   5.996   3.067   0.577
 5772SOL    HW118215   5.912   3.065   0.523
 5772SOL    HW218216   5.992   2.997   0.648
 5773SOL     OW18217   5.853   0.039   3.885
 5773SOL    HW118218   5.948   0.011   3.873
 5773SOL    HW218219   5.845   0.138   3.874
 5774SOL     OW18220   2.502   4.778   3.455
 5774SOL    HW118221   2.442   4.855   3.476
 5774SOL    HW218222   2.508   4.766   3.356
 5775SOL     OW18223   1.879   0.798   1.299
 5775SOL    HW118224   1.833   0.710   1.284
 5775SOL    HW218225   1.970   0.781   1.336
 5776SOL     OW18226   6.914   0.667   6.179
 5776SOL    HW118227   6.870   0.626   6.259
 5776SOL    HW218228   7.010   0.638   6.175
 5777SOL     OW18229   5.632   1.200   4.105
 5777SOL    HW118230   5.670   1.118   4.062
 5777SOL    HW218231   5.577   1.251   4.037
 5778SOL     OW18232   2.275   0.365   2.013
 5778SOL    HW118233   2.216   0.439   2.047
 5778SOL    HW218234   2.268   0.286   2.075
 5779SOL     OW18235   3.829   0.378   0.866
 5779SOL    HW118236   3.856   0.461   0.915
 5779SOL    HW218237   3.909   0.320   0.853
 5780SOL     OW18238   6.398   5.091   1.793
 5780SOL    HW118239   6.418   5.187   1.772
 5780SOL    HW218240   6.387   5.080   1.892
 5781SOL     OW18241   2.042   4.540   4.925
 5781SOL    HW118242   2.139   4.525   4.903
 5781SOL    HW218243   2.010   4.468   4.987
 5782SOL     OW18244   1.569   1.293   1.606
 5782SOL    HW118245   1.610   1.216   1.655
 5782SOL    HW218246   1.476   1.308   1.641
 5783SOL     OW18247   1.809   1.902   0.832
 5783SOL    HW118248   1.844   1.908   0.926
 5783SOL    HW218249   1.722   1.853   0.833
 5784SOL     OW18250   0.384   6.370   0.215
 5784SOL    HW118251   0.408   6.304   0.144
 5784SOL    HW218252   0.465   6.422   0.241
 5785SOL     OW18253   1.355   1.312   0.951
 5785SOL    HW118254   1.394   1.373   1.020
 5785SOL    HW218255   1.388   1.340   0.860
 5786SOL     OW18256   1.498   3.545   1.379
 5786SOL    HW118257   1.406   3.525   1.415
 5786SOL    HW218258   1.548   3.459   1.367
 5787SOL     OW18259   5.575   2.384   4.136
 5787SOL    HW118260   5.638   2.447   4.089
 5787SOL    HW218261   5.514   2.342   4.069
 5788SOL     OW18262   3.277   0.396   1.075
 5788SOL    HW118263   3.300   0.470   1.011
 5788SOL    HW218264   3.294   0.308   1.031
 5789SOL     OW18265   3.883   2.861   6.459
 5789SOL    HW118266   3.957   2.811   6.413
 5789SOL    HW218267   3.799   2.854   6.406
 5790SOL     OW18268   6.376   6.035   4.907
 5790SOL    HW118269   6.314   6.102   4.866
 5790SOL    HW218270   6.470   6.052   4.876
 5791SOL     OW18271   3.147   1.391   2.347
 5791SOL    HW118272   3.129   1.310   2.291
 5791SOL    HW218273   3.062   1.423   2.389
 5792SOL     OW18274   5.136   3.426   3.165
 5792SOL    HW118275   5.143   3.469   3.075
 5792SOL    HW218276   5.204   3.352   3.172
 5793SOL     OW18277   5.776   2.576   5.595
 5793SOL    HW118278   5.681   2.558   5.571
 5793SOL    HW218279   5.824   2.614   5.516
 5794SOL     OW18280   3.280   6.818   6.256
 5794SOL    HW118281   3.268   6.872   6.173
 5794SOL    HW218282   3.219   6.852   6.328
 5795SOL     OW18283   1.175   6.076   1.856
 5795SOL    HW118284   1.202   6.158   1.905
 5795SOL    HW218285   1.075   6.072   1.848
 5796SOL     OW18286   4.729   0.836   6.165
 5796SOL    HW118287   4.700   0.810   6.073
 5796SOL    HW218288   4.653   0.878   6.214
 5797SOL     OW18289   5.690   1.453   0.335
 5797SOL    HW118290   5.735   1.368   0.360
 5797SOL    HW218291   5.756   1.528   0.335
 5798SOL     OW18292   0.926   3.884   4.748
 5798SOL    HW118293   1.007   3.861   4.801
 5798SOL    HW218294   0.860   3.932   4.807
 5799SOL     OW18295   0.982   7.002   3.300
 5799SOL    HW118296   1.074   0.016   3.309
 5799SOL    HW218297   0.976   6.917   3.353
 5800SOL     OW18298   0.727   6.960   0.666
 5800SOL    HW118299   0.805   6.986   0.609
 5800SOL    HW218300   0.754   6.886   0.727
 5801SOL     OW18301   2.230   2.915   2.818
 5801SOL    HW118302   2.283   2.907   2.903
 5801SOL    HW218303   2.183   3.003   2.816
 5802SOL     OW18304   6.403   2.626   3.052
 5802SOL    HW118305   6.312   2.586   3.041
 5802SOL    HW218306   6.453   2.577   3.123
 5803SOL     OW18307   1.365   4.471   3.891
 5803SOL    HW118308   1.314   4.447   3.808
 5803SOL    HW218309   1.303   4.474   3.969
 5804SOL     OW18310   6.821   6.971   3.691
 5804SOL    HW118311   6.738   7.010   3.650
 5804SOL    HW218312   6.829   7.003   3.785
 5805SOL     OW18313   1.446   3.665   1.111
 5805SOL    HW118314   1.474   3.596   1.178
 5805SOL    HW218315   1.431   3.752   1.156
 5806SOL     OW18316   0.566   3.652   4.011
 5806SOL    HW118317   0.470   3.673   4.029
 5806SOL    HW218318   0.585   3.558   4.039
 5807SOL     OW18319   1.162   6.085   1.099
 5807SOL    HW118320   1.247   6.133   1.077
 5807SOL    HW218321   1.089   6.119   1.040
 5808SOL     OW18322   6.487   6.843   3.983
 5808SOL    HW118323   6.526   6.928   4.018
 5808SOL    HW218324   6.530   6.821   3.895
 5809SOL     OW18325   0.951   2.045   5.878
 5809SOL    HW118326   0.918   1.990   5.954
 5809SOL    HW218327   1.001   1.986   5.814
 5810SOL     OW18328   4.318   6.696   4.911
 5810SOL    HW118329   4.238   6.716   4.855
 5810SOL    HW218330   4.294   6.703   5.008
 5811SOL     OW18331   2.822   2.729   5.761
 5811SOL    HW118332   2.795   2.738   5.856
 5811SOL    HW218333   2.765   2.788   5.704
 5812SOL     OW18334   5.795   2.971   0.409
 5812SOL    HW118335   5.836   3.021   0.333
 5812SOL    HW218336   5.733   3.032   0.458
 5813SOL     OW18337   3.647   6.314   1.330
 5813SOL    HW118338   3.644   6.410   1.302
 5813SOL    HW218339   3.555   6.275   1.326
 5814SOL     OW18340   6.706   1.997   2.151
 5814SOL    HW118341   6.683   2.024   2.058
 5814SOL    HW218342   6.769   1.920   2.150
 5815SOL     OW18343   6.160   1.583   3.941
 5815SOL    HW118344   6.088   1.515   3.930
 5815SOL    HW218345   6.225   1.576   3.865
 5816SOL     OW18346   0.180   5.059   2.229
 5816SOL    HW118347   0.268   5.023   2.197
 5816SOL    HW218348   0.195   5.112   2.313
 5817SOL     OW18349   5.394   3.868   5.229
 5817SOL    HW118350   5.332   3.912   5.165
 5817SOL    HW218351   5.471   3.928   5.249
 5818SOL     OW18352   0.992   6.047   5.255
 5818SOL    HW118353   0.952   5.957   5.274
 5818SOL    HW218354   0.928   6.119   5.280
 5819SOL     OW18355   2.807   5.102   6.883
 5819SOL    HW118356   2.894   5.063   6.853
 5819SOL    HW218357   2.803   5.101   6.983
 5820SOL     OW18358   5.338   5.084   2.321
 5820SOL    HW118359   5.332   5.033   2.236
 5820SOL    HW218360   5.320   5.181   2.304
 5821SOL     OW18361   6.753   1.142   1.298
 5821SOL    HW118362   6.724   1.123   1.392
 5821SOL    HW218363   6.708   1.078   1.236
 5822SOL     OW18364   1.580   2.018   3.027
 5822SOL    HW118365   1.571   2.112   3.061
 5822SOL    HW218366   1.612   2.020   2.932
 5823SOL     OW18367   2.403   6.252   4.654
 5823SOL    HW118368   2.447   6.308   4.724
 5823SOL    HW218369   2.380   6.309   4.575
 5824SOL     OW18370   1.040   0.029   2.443
 5824SOL    HW118371   1.060   6.990   2.368
 5824SOL    HW218372   1.001   0.113   2.406
 5825SOL     OW18373   6.769   6.126   4.621
 5825SOL    HW118374   6.832   6.203   4.634
 5825SOL    HW218375   6.756   6.110   4.523
 5826SOL     OW18376   6.942   0.243   5.211
 5826SOL    HW118377   6.970   0.184   5.287
 5826SOL    HW218378   7.009   0.317   5.200
 5827SOL     OW18379   1.289   3.604   5.008
 5827SOL    HW118380   1.381   3.622   5.044
 5827SOL    HW218381   1.272   3.664   4.930
 5828SOL     OW18382   5.316   7.021   3.929
 5828SOL    HW118383   5.382   0.018   3.856
 5828SOL    HW218384   5.342   0.046   4.012
 5829SOL     OW18385   1.728   0.801   4.918
 5829SOL    HW118386   1.739   0.703   4.901
 5829SOL    HW218387   1.815   0.841   4.944
 5830SOL     OW18388   3.703   5.103   5.497
 5830SOL    HW118389   3.619   5.051   5.511
 5830SOL    HW218390   3.737   5.088   5.404
 5831SOL     OW18391   1.170   1.280   5.467
 5831SOL    HW118392   1.071   1.287   5.460
 5831SOL    HW218393   1.207   1.241   5.383
 5832SOL     OW18394   3.352   4.306   1.342
 5832SOL    HW118395   3.280   4.372   1.362
 5832SOL    HW218396   3.325   4.249   1.265
 5833SOL     OW18397   3.971   3.853   5.338
 5833SOL    HW118398   4.045   3.808   5.388
 5833SOL    HW218399   4.000   3.868   5.243
 5834SOL     OW18400   6.739   4.296   6.621
 5834SOL    HW118401   6.795   4.214   6.617
 5834SOL    HW218402   6.707   4.320   6.529
 5835SOL     OW18403   5.638   1.033   2.651
 5835SOL    HW118404   5.571   1.034   2.726
 5835SOL    HW218405   5.729   1.018   2.689
 5836SOL     OW18406   3.817   6.201   2.550
 5836SOL    HW118407   3.749   6.260   2.507
 5836SOL    HW218408   3.810   6.109   2.511
 5837SOL     OW18409   3.448   4.059   0.509
 5837SOL    HW118410   3.377   3.998   0.474
 5837SOL    HW218411   3.445   4.146   0.461
 5838SOL     OW18412   3.461   2.004   1.268
 5838SOL    HW118413   3.370   1.985   1.305
 5838SOL    HW218414   3.524   2.023   1.343
 5839SOL     OW18415   0.442   2.768   1.687
 5839SOL    HW118416   0.474   2.855   1.651
 5839SOL    HW218417   0.477   2.693   1.632
 5840SOL     OW18418   0.367   4.005   2.230
 5840SOL    HW118419   0.399   3.919   2.190
 5840SOL    HW218420   0.267   4.009   2.223
 5841SOL     OW18421   4.438   0.749   1.756
 5841SOL    HW118422   4.340   0.745   1.737
 5841SOL    HW218423   4.487   0.766   1.670
 5842SOL     OW18424   3.748   2.034   0.345
 5842SOL    HW118425   3.719   1.977   0.422
 5842SOL    HW218426   3.699   2.121   0.348
 5843SOL     OW18427   1.970   3.656   1.198
 5843SOL    HW118428   1.890   3.601   1.174
 5843SOL    HW218429   1.944   3.727   1.264
 5844SOL     OW18430   0.445   6.575   4.874
 5844SOL    HW118431   0.438   6.558   4.973
 5844SOL    HW218432   0.498   6.501   4.832
 5845SOL     OW18433   0.368   6.803   1.720
 5845SOL    HW118434   0.318   6.865   1.780
 5845SOL    HW218435   0.371   6.842   1.628
 5846SOL     OW18436   6.620   3.767   5.415
 5846SOL    HW118437   6.631   3.863   5.440
 5846SOL    HW218438   6.527   3.737   5.437
 5847SOL     OW18439   2.466   2.811   1.708
 5847SOL    HW118440   2.504   2.736   1.762
 5847SOL    HW218441   2.368   2.819   1.725
 5848SOL     OW18442   2.428   5.819   4.007
 5848SOL    HW118443   2.346   5.852   4.053
 5848SOL    HW218444   2.510   5.849   4.057
 5849SOL     OW18445   2.558   6.509   5.231
 5849SOL    HW118446   2.507   6.440   5.180
 5849SOL    HW218447   2.556   6.487   5.328
 5850SOL     OW18448   1.064   2.682   2.103
 5850SOL    HW118449   1.063   2.763   2.045
 5850SOL    HW218450   0.971   2.647   2.114
 5851SOL     OW18451   5.959   3.553   4.497
 5851SOL    HW118452   6.059   3.545   4.499
 5851SOL    HW218453   5.934   3.643   4.460
 5852SOL     OW18454   4.962   5.585   3.598
 5852SOL    HW118455   4.924   5.661   3.651
 5852SOL    HW218456   5.013   5.621   3.520
 5853SOL     OW18457   4.015   4.918   5.194
 5853SOL    HW118458   3.957   4.860   5.251
 5853SOL    HW218459   3.974   5.009   5.186
 5854SOL     OW18460   3.528   4.236   5.660
 5854SOL    HW118461   3.606   4.177   5.678
 5854SOL    HW218462   3.521   4.254   5.562
 5855SOL     OW18463   1.979   2.487   3.871
 5855SOL    HW118464   1.903   2.462   3.811
 5855SOL    HW218465   1.970   2.583   3.897
 5856SOL     OW18466   1.745   6.864   2.322
 5856SOL    HW118467   1.807   6.886   2.247
 5856SOL    HW218468   1.797   6.852   2.406
 5857SOL     OW18469   0.011   3.159   5.455
 5857SOL    HW118470   0.092   3.136   5.402
 5857SOL    HW218471   6.994   3.076   5.491
 5858SOL     OW18472   2.642   1.422   2.666
 5858SOL    HW118473   2.699   1.355   2.714
 5858SOL    HW218474   2.656   1.513   2.706
 5859SOL     OW18475   5.588   6.295   1.608
 5859SOL    HW118476   5.623   6.286   1.702
 5859SOL    HW218477   5.664   6.316   1.546
 5860SOL     OW18478   0.334   4.525   3.572
 5860SOL    HW118479   0.420   4.552   3.616
 5860SOL    HW218480   0.321   4.426   3.580
 5861SOL     OW18481   5.831   0.625   5.199
 5861SOL    HW118482   5.769   0.576   5.260
 5861SOL    HW218483   5.812   0.723   5.204
 5862SOL     OW18484   6.544   5.558   2.052
 5862SOL    HW118485   6.476   5.631   2.059
 5862SOL    HW218486   6.605   5.561   2.131
 5863SOL     OW18487   3.147   0.986   4.429
 5863SOL    HW118488   3.048   0.990   4.413
 5863SOL    HW218489   3.193   1.054   4.373
 5864SOL     OW18490   3.245   3.773   3.206
 5864SOL    HW118491   3.280   3.757   3.299
 5864SOL    HW218492   3.214   3.686   3.167
 5865SOL     OW18493   5.725   1.357   5.732
 5865SOL    HW118494   5.689   1.286   5.671
 5865SOL    HW218495   5.665   1.436   5.730
 5866SOL     OW18496   2.942   3.195   1.328
 5866SOL    HW118497   3.005   3.270   1.348
 5866SOL    HW218498   2.924   3.192   1.230
 5867SOL     OW18499   2.187   2.388   1.537
 5867SOL    HW118500   2.214   2.339   1.454
 5867SOL    HW218501   2.179   2.486   1.518
 5868SOL     OW18502   1.230   1.859   5.999
 5868SOL    HW118503   1.224   1.956   6.021
 5868SOL    HW218504   1.177   1.840   5.916
 5869SOL     OW18505   1.535   4.376   3.349
 5869SOL    HW118506   1.495   4.309   3.287
 5869SOL    HW218507   1.538   4.338   3.442
 5870SOL     OW18508   4.235   4.478   5.609
 5870SOL    HW118509   4.250   4.577   5.599
 5870SOL    HW218510   4.230   4.436   5.518
 5871SOL     OW18511   3.544   3.310   3.283
 5871SOL    HW118512   3.609   3.346   3.349
 5871SOL    HW218513   3.567   3.342   3.191
 5872SOL     OW18514   3.791   5.867   1.448
 5872SOL    HW118515   3.723   5.814   1.398
 5872SOL    HW218516   3.855   5.909   1.384
 5873SOL     OW18517   2.430   5.340   2.042
 5873SOL    HW118518   2.389   5.271   1.982
 5873SOL    HW218519   2.497   5.296   2.101
 5874SOL     OW18520   2.293   4.239   5.212
 5874SOL    HW118521   2.332   4.203   5.297
 5874SOL    HW218522   2.277   4.164   5.148
 5875SOL     OW18523   3.606   2.283   0.050
 5875SOL    HW118524   3.571   2.310   0.140
 5875SOL    HW218525   3.603   2.361   7.012
 5876SOL     OW18526   4.104   3.656   2.306
 5876SOL    HW118527   4.122   3.568   2.349
 5876SOL    HW218528   4.148   3.660   2.216
 5877SOL     OW18529   5.866   6.201   1.037
 5877SOL    HW118530   5.959   6.226   1.009
 5877SOL    HW218531   5.868   6.165   1.130
 5878SOL     OW18532   1.333   6.300   3.652
 5878SOL    HW118533   1.302   6.230   3.716
 5878SOL    HW218534   1.308   6.390   3.688
 5879SOL     OW18535   6.298   3.408   0.037
 5879SOL    HW118536   6.323   3.498   0.073
 5879SOL    HW218537   6.381   3.354   0.020
 5880SOL     OW18538   2.855   5.412   1.223
 5880SOL    HW118539   2.796   5.332   1.233
 5880SOL    HW218540   2.946   5.382   1.191
 5881SOL     OW18541   0.467   4.895   3.557
 5881SOL    HW118542   0.490   4.807   3.515
 5881SOL    HW218543   0.501   4.970   3.499
 5882SOL     OW18544   5.498   0.360   0.850
 5882SOL    HW118545   5.551   0.426   0.798
 5882SOL    HW218546   5.403   0.359   0.817
 5883SOL     OW18547   0.290   2.310   6.562
 5883SOL    HW118548   0.338   2.312   6.474
 5883SOL    HW218549   0.357   2.324   6.636
 5884SOL     OW18550   2.080   1.082   3.617
 5884SOL    HW118551   2.178   1.075   3.603
 5884SOL    HW218552   2.032   1.070   3.530
 5885SOL     OW18553   7.018   6.910   1.696
 5885SOL    HW118554   6.946   6.937   1.759
 5885SOL    HW218555   6.978   6.886   1.608
 5886SOL     OW18556   0.463   2.345   4.846
 5886SOL    HW118557   0.487   2.268   4.906
 5886SOL    HW218558   0.479   2.319   4.751
 5887SOL     OW18559   4.095   1.425   3.200
 5887SOL    HW118560   4.043   1.405   3.283
 5887SOL    HW218561   4.045   1.391   3.120
 5888SOL     OW18562   2.879   6.613   2.905
 5888SOL    HW118563   2.792   6.599   2.858
 5888SOL    HW218564   2.953   6.580   2.846
 5889SOL     OW18565   1.653   0.032   1.236
 5889SOL    HW118566   1.750   0.007   1.229
 5889SOL    HW218567   1.629   0.043   1.333
 5890SOL     OW18568   1.080   0.104   5.504
 5890SOL    HW118569   1.119   0.027   5.555
 5890SOL    HW218570   1.133   0.187   5.525
 5891SOL     OW18571   4.029   3.049   6.204
 5891SOL    HW118572   4.027   2.949   6.208
 5891SOL    HW218573   4.120   3.079   6.176
 5892SOL     OW18574   1.066   6.287   1.537
 5892SOL    HW118575   1.001   6.220   1.503
 5892SOL    HW218576   1.017   6.369   1.567
 5893SOL     OW18577   1.426   3.631   3.474
 5893SOL    HW118578   1.328   3.634   3.454
 5893SOL    HW218579   1.440   3.599   3.568
 5894SOL     OW18580   1.053   5.081   3.123
 5894SOL    HW118581   1.119   5.112   3.191
 5894SOL    HW218582   1.069   5.129   3.036
 5895SOL     OW18583   5.513   2.741   4.086
 5895SOL    HW118584   5.557   2.734   3.996
 5895SOL    HW218585   5.543   2.666   4.144
 5896SOL     OW18586   4.110   1.853   6.991
 5896SOL    HW118587   4.104   1.931   6.929
 5896SOL    HW218588   4.040   1.862   0.038
 5897SOL     OW18589   3.705   0.097   2.118
 5897SOL    HW118590   3.699   0.169   2.187
 5897SOL    HW218591   3.625   0.038   2.124
 5898SOL     OW18592   2.249   0.298   3.145
 5898SOL    HW118593   2.340   0.257   3.142
 5898SOL    HW218594   2.181   0.226   3.161
 5899SOL     OW18595   5.656   0.163   5.601
 5899SOL    HW118596   5.649   0.130   5.695
 5899SOL    HW218597   5.575   0.217   5.578
 5900SOL     OW18598   4.702   5.128   4.121
 5900SOL    HW118599   4.680   5.155   4.215
 5900SOL    HW218600   4.667   5.197   4.058
 5901SOL     OW18601   2.836   0.701   6.468
 5901SOL    HW118602   2.805   0.726   6.376
 5901SOL    HW218603   2.908   0.632   6.460
 5902SOL     OW18604   0.280   2.128   0.992
 5902SOL    HW118605   0.296   2.043   1.042
 5902SOL    HW218606   0.226   2.108   0.910
 5903SOL     OW18607   4.811   4.083   0.533
 5903SOL    HW118608   4.822   4.067   0.631
 5903SOL    HW218609   4.736   4.027   0.498
 5904SOL     OW18610   0.176   3.487   2.532
 5904SOL    HW118611   0.114   3.560   2.559
 5904SOL    HW218612   0.196   3.428   2.611
 5905SOL     OW18613   6.108   5.689   2.959
 5905SOL    HW118614   6.140   5.616   2.899
 5905SOL    HW218615   6.174   5.703   3.033
 5906SOL     OW18616   5.320   1.080   4.502
 5906SOL    HW118617   5.223   1.099   4.490
 5906SOL    HW218618   5.365   1.160   4.542
 5907SOL     OW18619   1.844   6.119   2.086
 5907SOL    HW118620   1.901   6.171   2.023
 5907SOL    HW218621   1.749   6.118   2.054
 5908SOL     OW18622   0.974   2.503   5.514
 5908SOL    HW118623   0.916   2.422   5.517
 5908SOL    HW218624   1.070   2.476   5.516
 5909SOL     OW18625   0.648   5.165   0.681
 5909SOL    HW118626   0.597   5.094   0.729
 5909SOL    HW218627   0.746   5.150   0.692
 5910SOL     OW18628   0.818   3.006   3.481
 5910SOL    HW118629   0.893   2.971   3.537
 5910SOL    HW218630   0.734   2.957   3.504
 5911SOL     OW18631   6.628   5.620   6.520
 5911SOL    HW118632   6.563   5.649   6.450
 5911SOL    HW218633   6.708   5.580   6.477
 5912SOL     OW18634   6.052   1.224   5.251
 5912SOL    HW118635   6.067   1.259   5.344
 5912SOL    HW218636   6.082   1.293   5.185
 5913SOL     OW18637   5.018   2.981   0.129
 5913SOL    HW118638   5.031   2.897   0.182
 5913SOL    HW218639   4.924   3.013   0.142
 5914SOL     OW18640   0.850   6.724   6.541
 5914SOL    HW118641   0.786   6.698   6.468
 5914SOL    HW218642   0.929   6.770   6.501
 5915SOL     OW18643   3.682   6.210   0.249
 5915SOL    HW118644   3.766   6.192   0.197
 5915SOL    HW218645   3.636   6.290   0.212
 5916SOL     OW18646   6.996   6.960   2.655
 5916SOL    HW118647   0.048   7.012   2.617
 5916SOL    HW218648   0.006   6.873   2.690
 5917SOL     OW18649   3.378   3.619   5.177
 5917SOL    HW118650   3.311   3.681   5.137
 5917SOL    HW218651   3.378   3.533   5.126
 5918SOL     OW18652   1.542   5.472   6.149
 5918SOL    HW118653   1.443   5.468   6.147
 5918SOL    HW218654   1.573   5.509   6.236
 5919SOL     OW18655   3.243   3.746   2.634
 5919SOL    HW118656   3.203   3.837   2.634
 5919SOL    HW218657   3.307   3.738   2.558
 5920SOL     OW18658   5.333   0.876   6.541
 5920SOL    HW118659   5.305   0.900   6.634
 5920SOL    HW218660   5.419   0.922   6.519
 5921SOL     OW18661   4.163   5.336   6.054
 5921SOL    HW118662   4.249   5.291   6.032
 5921SOL    HW218663   4.143   5.406   5.985
 5922SOL     OW18664   6.063   3.894   4.315
 5922SOL    HW118665   6.136   3.856   4.371
 5922SOL    HW218666   6.054   3.992   4.333
 5923SOL     OW18667   0.073   0.612   1.591
 5923SOL    HW118668   0.087   0.579   1.685
 5923SOL    HW218669   0.020   0.545   1.540
 5924SOL     OW18670   5.950   6.882   3.258
 5924SOL    HW118671   5.938   6.918   3.350
 5924SOL    HW218672   5.908   6.944   3.192
 5925SOL     OW18673   3.816   5.837   1.730
 5925SOL    HW118674   3.799   5.859   1.634
 5925SOL    HW218675   3.912   5.814   1.743
 5926SOL     OW18676   4.941   4.157   2.383
 5926SOL    HW118677   4.903   4.236   2.430
 5926SOL    HW218678   4.890   4.141   2.299
 5927SOL     OW18679   0.848   4.132   1.983
 5927SOL    HW118680   0.777   4.070   1.951
 5927SOL    HW218681   0.925   4.080   2.019
 5928SOL     OW18682   3.626   0.012   1.833
 5928SOL    HW118683   3.685   0.066   1.893
 5928SOL    HW218684   3.611   6.946   1.874
 5929SOL     OW18685   6.009   1.244   5.694
 5929SOL    HW118686   5.979   1.339   5.702
 5929SOL    HW218687   6.001   1.200   5.784
 5930SOL     OW18688   0.622   2.815   2.756
 5930SOL    HW118689   0.675   2.896   2.781
 5930SOL    HW218690   0.685   2.740   2.735
 5931SOL     OW18691   6.119   5.896   2.211
 5931SOL    HW118692   6.186   5.933   2.275
 5931SOL    HW218693   6.086   5.807   2.244
 5932SOL     OW18694   2.985   0.353   6.675
 5932SOL    HW118695   2.959   0.332   6.769
 5932SOL    HW218696   3.085   0.346   6.666
 5933SOL     OW18697   6.726   4.934   3.939
 5933SOL    HW118698   6.664   4.855   3.935
 5933SOL    HW218699   6.673   5.018   3.930
 5934SOL     OW18700   3.767   3.060   5.435
 5934SOL    HW118701   3.753   3.116   5.517
 5934SOL    HW218702   3.856   3.015   5.442
 5935SOL     OW18703   0.916   5.846   5.552
 5935SOL    HW118704   0.882   5.777   5.488
 5935SOL    HW218705   0.841   5.880   5.608
 5936SOL     OW18706   3.111   3.729   2.044
 5936SOL    HW118707   3.073   3.671   2.117
 5936SOL    HW218708   3.056   3.718   1.961
 5937SOL     OW18709   5.711   2.982   2.098
 5937SOL    HW118710   5.754   3.055   2.151
 5937SOL    HW218711   5.636   3.019   2.044
 5938SOL     OW18712   5.852   6.144   4.778
 5938SOL    HW118713   5.835   6.125   4.874
 5938SOL    HW218714   5.909   6.226   4.769
 5939SOL     OW18715   2.844   5.929   4.630
 5939SOL    HW118716   2.918   5.861   4.626
 5939SOL    HW218717   2.880   6.019   4.604
 5940SOL     OW18718   4.141   5.213   3.854
 5940SOL    HW118719   4.074   5.288   3.848
 5940SOL    HW218720   4.195   5.224   3.938
 5941SOL     OW18721   5.510   2.631   3.322
 5941SOL    HW118722   5.482   2.706   3.382
 5941SOL    HW218723   5.574   2.665   3.253
 5942SOL     OW18724   5.463   3.711   6.462
 5942SOL    HW118725   5.460   3.612   6.478
 5942SOL    HW218726   5.519   3.730   6.381
 5943SOL     OW18727   3.953   3.056   6.663
 5943SOL    HW118728   3.922   3.028   6.572
 5943SOL    HW218729   3.879   3.044   6.729
 5944SOL     OW18730   0.912   2.657   0.106
 5944SOL    HW118731   0.817   2.626   0.114
 5944SOL    HW218732   0.940   2.655   0.010
 5945SOL     OW18733   0.441   5.929   5.393
 5945SOL    HW118734   0.343   5.948   5.389
 5945SOL    HW218735   0.488   5.980   5.321
 5946SOL     OW18736   3.313   4.845   0.066
 5946SOL    HW118737   3.352   4.937   0.066
 5946SOL    HW218738   3.218   4.849   0.096
 5947SOL     OW18739   3.266   3.674   3.467
 5947SOL    HW118740   3.287   3.577   3.481
 5947SOL    HW218741   3.172   3.692   3.497
 5948SOL     OW18742   4.529   4.561   2.344
 5948SOL    HW118743   4.591   4.596   2.273
 5948SOL    HW218744   4.519   4.462   2.333
 5949SOL     OW18745   4.798   4.960   0.828
 5949SOL    HW118746   4.842   5.018   0.759
 5949SOL    HW218747   4.758   4.880   0.785
 5950SOL     OW18748   4.829   2.264   5.364
 5950SOL    HW118749   4.887   2.291   5.287
 5950SOL    HW218750   4.880   2.202   5.423
 5951SOL     OW18751   0.993   5.567   5.291
 5951SOL    HW118752   1.018   5.664   5.289
 5951SOL    HW218753   0.949   5.542   5.205
 5952SOL     OW18754   4.294   5.594   3.530
 5952SOL    HW118755   4.305   5.516   3.468
 5952SOL    HW218756   4.249   5.669   3.481
 5953SOL     OW18757   6.780   4.243   5.198
 5953SOL    HW118758   6.864   4.279   5.239
 5953SOL    HW218759   6.801   4.201   5.110
 5954SOL     OW18760   0.523   5.712   5.542
 5954SOL    HW118761   0.609   5.674   5.508
 5954SOL    HW218762   0.488   5.778   5.476
 5955SOL     OW18763   4.023   4.793   1.703
 5955SOL    HW118764   4.086   4.720   1.730
 5955SOL    HW218765   3.952   4.803   1.773
 5956SOL     OW18766   5.847   1.723   3.795
 5956SOL    HW118767   5.765   1.711   3.739
 5956SOL    HW218768   5.845   1.813   3.838
 5957SOL     OW18769   2.373   1.807   3.692
 5957SOL    HW118770   2.287   1.777   3.733
 5957SOL    HW218771   2.443   1.814   3.764
 5958SOL     OW18772   4.005   0.350   2.970
 5958SOL    HW118773   4.090   0.337   2.920
 5958SOL    HW218774   3.944   0.409   2.916
 5959SOL     OW18775   4.244   2.750   5.784
 5959SOL    HW118776   4.278   2.843   5.774
 5959SOL    HW218777   4.246   2.704   5.695
 5960SOL     OW18778   2.549   6.138   4.363
 5960SOL    HW118779   2.624   6.200   4.389
 5960SOL    HW218780   2.494   6.182   4.292
 5961SOL     OW18781   4.736   1.228   2.621
 5961SOL    HW118782   4.699   1.273   2.540
 5961SOL    HW218783   4.793   1.150   2.594
 5962SOL     OW18784   5.488   5.646   5.826
 5962SOL    HW118785   5.566   5.624   5.884
 5962SOL    HW218786   5.413   5.680   5.883
 5963SOL     OW18787   2.980   3.964   6.419
 5963SOL    HW118788   2.940   3.873   6.430
 5963SOL    HW218789   3.067   3.969   6.469
 5964SOL     OW18790   2.646   6.967   4.258
 5964SOL    HW118791   2.696   6.891   4.215
 5964SOL    HW218792   2.711   0.007   4.298
 5965SOL     OW18793   2.064   0.563   0.236
 5965SOL    HW118794   2.089   0.508   0.315
 5965SOL    HW218795   2.120   0.646   0.234
 5966SOL     OW18796   0.825   6.642   6.275
 5966SOL    HW118797   0.746   6.613   6.329
 5966SOL    HW218798   0.794   6.675   6.186
 5967SOL     OW18799   1.783   7.016   5.609
 5967SOL    HW118800   1.872   7.022   5.563
 5967SOL    HW218801   1.779   0.059   5.683
 5968SOL     OW18802   5.765   2.469   0.234
 5968SOL    HW118803   5.777   2.566   0.254
 5968SOL    HW218804   5.674   2.455   0.196
 5969SOL     OW18805   4.924   0.823   6.533
 5969SOL    HW118806   5.010   0.834   6.483
 5969SOL    HW218807   4.858   0.775   6.476
 5970SOL     OW18808   0.613   4.440   0.959
 5970SOL    HW118809   0.578   4.359   0.912
 5970SOL    HW218810   0.585   4.522   0.910
 5971SOL     OW18811   6.435   0.263   1.637
 5971SOL    HW118812   6.408   0.342   1.692
 5971SOL    HW218813   6.382   0.183   1.665
 5972SOL     OW18814   4.940   6.091   6.402
 5972SOL    HW118815   4.971   6.160   6.467
 5972SOL    HW218816   4.845   6.067   6.423
 5973SOL     OW18817   1.703   2.964   2.961
 5973SOL    HW118818   1.795   2.948   2.997
 5973SOL    HW218819   1.637   2.967   3.037
 5974SOL     OW18820   4.772   0.218   0.355
 5974SOL    HW118821   4.765   0.121   0.378
 5974SOL    HW218822   4.855   0.257   0.395
 5975SOL     OW18823   3.977   5.975   0.636
 5975SOL    HW118824   4.011   5.982   0.729
 5975SOL    HW218825   3.932   6.060   0.610
 5976SOL     OW18826   3.543   2.943   5.335
 5976SOL    HW118827   3.495   2.932   5.423
 5976SOL    HW218828   3.636   2.977   5.352
 5977SOL     OW18829   0.558   5.857   0.553
 5977SOL    HW118830   0.511   5.795   0.616
 5977SOL    HW218831   0.617   5.918   0.605
 5978SOL     OW18832   3.596   5.580   1.307
 5978SOL    HW118833   3.549   5.496   1.335
 5978SOL    HW218834   3.591   5.589   1.208
 5979SOL     OW18835   6.752   0.750   2.352
 5979SOL    HW118836   6.671   0.697   2.325
 5979SOL    HW218837   6.772   0.733   2.448
 5980SOL     OW18838   3.794   3.184   1.862
 5980SOL    HW118839   3.828   3.109   1.919
 5980SOL    HW218840   3.849   3.266   1.878
 5981SOL     OW18841   4.789   1.810   0.136
 5981SOL    HW118842   4.807   1.752   0.215
 5981SOL    HW218843   4.864   1.801   0.070
 5982SOL     OW18844   6.076   2.239   2.733
 5982SOL    HW118845   6.002   2.269   2.792
 5982SOL    HW218846   6.090   2.305   2.660
 5983SOL     OW18847   1.365   0.962   4.113
 5983SOL    HW118848   1.322   1.006   4.192
 5983SOL    HW218849   1.463   0.983   4.112
 5984SOL     OW18850   5.702   6.585   3.539
 5984SOL    HW118851   5.717   6.592   3.440
 5984SOL    HW218852   5.790   6.579   3.586
 5985SOL     OW18853   6.565   2.524   3.604
 5985SOL    HW118854   6.529   2.579   3.529
 5985SOL    HW218855   6.571   2.581   3.687
 5986SOL     OW18856   3.756   3.775   5.492
 5986SOL    HW118857   3.683   3.770   5.424
 5986SOL    HW218858   3.832   3.828   5.454
 5987SOL     OW18859   5.556   0.744   4.992
 5987SOL    HW118860   5.472   0.791   4.966
 5987SOL    HW218861   5.556   0.653   4.951
 5988SOL     OW18862   3.522   0.644   6.639
 5988SOL    HW118863   3.496   0.704   6.563
 5988SOL    HW218864   3.559   0.699   6.714
 5989SOL     OW18865   1.379   5.164   5.738
 5989SOL    HW118866   1.436   5.104   5.793
 5989SOL    HW218867   1.287   5.125   5.729
 5990SOL     OW18868   4.031   4.160   0.228
 5990SOL    HW118869   4.041   4.142   0.326
 5990SOL    HW218870   4.005   4.256   0.214
 5991SOL     OW18871   4.572   6.037   6.791
 5991SOL    HW118872   4.565   5.937   6.791
 5991SOL    HW218873   4.497   6.075   6.736
 5992SOL     OW18874   3.658   6.788   2.042
 5992SOL    HW118875   3.623   6.802   2.134
 5992SOL    HW218876   3.674   6.690   2.026
 5993SOL     OW18877   5.348   4.284   6.362
 5993SOL    HW118878   5.415   4.288   6.287
 5993SOL    HW218879   5.379   4.219   6.431
 5994SOL     OW18880   6.621   2.607   0.914
 5994SOL    HW118881   6.526   2.586   0.938
 5994SOL    HW218882   6.665   2.656   0.990
 5995SOL     OW18883   4.894   2.782   1.934
 5995SOL    HW118884   4.833   2.858   1.957
 5995SOL    HW218885   4.863   2.738   1.850
 5996SOL     OW18886   1.349   5.184   1.916
 5996SOL    HW118887   1.419   5.175   1.846
 5996SOL    HW218888   1.374   5.130   1.997
 5997SOL     OW18889   1.172   6.563   3.363
 5997SOL    HW118890   1.236   6.508   3.417
 5997SOL    HW218891   1.148   6.513   3.279
 5998SOL     OW18892   5.878   0.575   1.587
 5998SOL    HW118893   5.903   0.528   1.672
 5998SOL    HW218894   5.784   0.608   1.594
 5999SOL     OW18895   2.429   3.071   1.056
 5999SOL    HW118896   2.330   3.062   1.063
 5999SOL    HW218897   2.456   3.065   0.960
 6000SOL     OW18898   0.785   6.207   0.382
 6000SOL    HW118899   0.744   6.117   0.378
 6000SOL    HW218900   0.718   6.273   0.416
 6001SOL     OW18901   6.093   5.365   6.844
 6001SOL    HW118902   6.109   5.427   6.767
 6001SOL    HW218903   6.148   5.395   6.923
 6002SOL     OW18904   6.266   0.038   5.950
 6002SOL    HW118905   6.302   0.112   5.893
 6002SOL    HW218906   6.270   6.976   5.899
 6003SOL     OW18907   5.779   2.516   4.390
 6003SOL    HW118908   5.763   2.424   4.425
 6003SOL    HW218909   5.808   2.576   4.465
 6004SOL     OW18910   6.482   2.078   3.516
 6004SOL    HW118911   6.569   2.069   3.565
 6004SOL    HW218912   6.452   2.173   3.520
 6005SOL     OW18913   5.581   4.650   5.224
 6005SOL    HW118914   5.503   4.588   5.232
 6005SOL    HW218915   5.652   4.623   5.288
 6006SOL     OW18916   2.953   0.709   4.990
 6006SOL    HW118917   2.923   0.757   5.072
 6006SOL    HW218918   3.025   0.762   4.945
 6007SOL     OW18919   0.196   3.226   6.118
 6007SOL    HW118920   0.239   3.143   6.081
 6007SOL    HW218921   0.101   3.229   6.089
 6008SOL     OW18922   2.425   4.746   5.336
 6008SOL    HW118923   2.379   4.821   5.289
 6008SOL    HW218924   2.524   4.759   5.330
 6009SOL     OW18925   4.163   5.958   3.046
 6009SOL    HW118926   4.112   5.919   3.123
 6009SOL    HW218927   4.222   6.032   3.079
 6010SOL     OW18928   0.846   4.462   3.382
 6010SOL    HW118929   0.813   4.543   3.335
 6010SOL    HW218930   0.944   4.451   3.365
 6011SOL     OW18931   4.840   3.038   2.934
 6011SOL    HW118932   4.814   3.059   3.028
 6011SOL    HW218933   4.840   2.939   2.921
 6012SOL     OW18934   6.260   0.719   0.082
 6012SOL    HW118935   6.337   0.718   0.146
 6012SOL    HW218936   6.227   0.625   0.069
 6013SOL     OW18937   5.013   1.058   2.790
 6013SOL    HW118938   5.046   1.152   2.781
 6013SOL    HW218939   5.020   1.011   2.702
 6014SOL     OW18940   3.509   4.161   3.780
 6014SOL    HW118941   3.607   4.143   3.788
 6014SOL    HW218942   3.457   4.080   3.807
 6015SOL     OW18943   6.254   3.468   4.548
 6015SOL    HW118944   6.214   3.389   4.596
 6015SOL    HW218945   6.287   3.534   4.615
 6016SOL     OW18946   5.955   1.807   5.816
 6016SOL    HW118947   5.885   1.806   5.887
 6016SOL    HW218948   6.044   1.827   5.857
 6017SOL     OW18949   0.085   4.966   5.086
 6017SOL    HW118950   0.104   5.043   5.025
 6017SOL    HW218951   0.025   4.997   5.160
 6018SOL     OW18952   3.365   1.201   5.092
 6018SOL    HW118953   3.290   1.234   5.150
 6018SOL    HW218954   3.339   1.211   4.996
 6019SOL     OW18955   0.870   3.419   5.459
 6019SOL    HW118956   0.832   3.476   5.386
 6019SOL    HW218957   0.865   3.469   5.546
 6020SOL     OW18958   0.542   5.474   0.439
 6020SOL    HW118959   0.532   5.504   0.534
 6020SOL    HW218960   0.501   5.542   0.378
 6021SOL     OW18961   4.700   0.285   3.124
 6021SOL    HW118962   4.640   0.228   3.181
 6021SOL    HW218963   4.644   0.335   3.057
 6022SOL     OW18964   0.194   1.690   3.382
 6022SOL    HW118965   0.262   1.758   3.354
 6022SOL    HW218966   0.114   1.697   3.323
 6023SOL     OW18967   5.235   0.625   1.892
 6023SOL    HW118968   5.279   0.694   1.834
 6023SOL    HW218969   5.248   0.535   1.851
 6024SOL     OW18970   0.891   4.342   0.984
 6024SOL    HW118971   0.803   4.388   0.999
 6024SOL    HW218972   0.890   4.252   1.027
 6025SOL     OW18973   3.554   1.328   3.198
 6025SOL    HW118974   3.628   1.393   3.213
 6025SOL    HW218975   3.466   1.376   3.202
 6026SOL     OW18976   6.895   5.449   4.748
 6026SOL    HW118977   6.808   5.480   4.709
 6026SOL    HW218978   6.894   5.462   4.847
 6027SOL     OW18979   0.482   3.102   5.839
 6027SOL    HW118980   0.480   3.119   5.740
 6027SOL    HW218981   0.404   3.045   5.864
 6028SOL     OW18982   5.319   4.759   1.017
 6028SOL    HW118983   5.408   4.794   1.047
 6028SOL    HW218984   5.250   4.776   1.088
 6029SOL     OW18985   2.626   6.785   3.949
 6029SOL    HW118986   2.587   6.718   4.011
 6029SOL    HW218987   2.725   6.784   3.956
 6030SOL     OW18988   5.211   3.890   4.513
 6030SOL    HW118989   5.127   3.911   4.464
 6030SOL    HW218990   5.188   3.850   4.602
 6031SOL     OW18991   2.158   5.586   4.635
 6031SOL    HW118992   2.237   5.536   4.672
 6031SOL    HW218993   2.157   5.679   4.672
 6032SOL     OW18994   2.779   4.716   2.972
 6032SOL    HW118995   2.723   4.695   3.052
 6032SOL    HW218996   2.875   4.705   2.994
 6033SOL     OW18997   1.949   3.338   2.695
 6033SOL    HW118998   1.989   3.368   2.608
 6033SOL    HW218999   1.945   3.238   2.696
 6034SOL     OW19000   0.981   0.443   6.489
 6034SOL    HW119001   1.016   0.525   6.445
 6034SOL    HW219002   0.917   0.396   6.427
 6035SOL     OW19003   1.480   0.167   2.601
 6035SOL    HW119004   1.512   0.104   2.531
 6035SOL    HW219005   1.382   0.156   2.614
 6036SOL     OW19006   6.028   4.837   1.347
 6036SOL    HW119007   5.932   4.829   1.375
 6036SOL    HW219008   6.054   4.933   1.344
 6037SOL     OW19009   3.503   6.730   0.532
 6037SOL    HW119010   3.573   6.759   0.596
 6037SOL    HW219011   3.414   6.726   0.579
 6038SOL     OW19012   0.975   2.617   6.744
 6038SOL    HW119013   1.021   2.530   6.762
 6038SOL    HW219014   1.013   2.658   6.661
 6039SOL     OW19015   4.073   3.365   3.486
 6039SOL    HW119016   4.069   3.305   3.566
 6039SOL    HW219017   4.022   3.324   3.411
 6040SOL     OW19018   1.932   1.518   0.596
 6040SOL    HW119019   1.968   1.548   0.684
 6040SOL    HW219020   2.001   1.535   0.525
 6041SOL     OW19021   3.279   2.089   5.183
 6041SOL    HW119022   3.307   2.123   5.273
 6041SOL    HW219023   3.233   2.162   5.133
 6042SOL     OW19024   3.737   6.668   3.033
 6042SOL    HW119025   3.751   6.569   3.042
 6042SOL    HW219026   3.784   6.701   2.952
 6043SOL     OW19027   1.119   0.555   4.427
 6043SOL    HW119028   1.027   0.518   4.441
 6043SOL    HW219029   1.116   0.628   4.359
 6044SOL     OW19030   2.384   2.010   1.871
 6044SOL    HW119031   2.406   2.067   1.950
 6044SOL    HW219032   2.468   1.972   1.832
 6045SOL     OW19033   5.414   3.570   3.816
 6045SOL    HW119034   5.464   3.620   3.887
 6045SOL    HW219035   5.474   3.502   3.775
 6046SOL     OW19036   3.235   2.696   0.351
 6046SOL    HW119037   3.196   2.672   0.440
 6046SOL    HW219038   3.185   2.773   0.312
 6047SOL     OW19039   5.427   2.122   1.195
 6047SOL    HW119040   5.354   2.181   1.162
 6047SOL    HW219041   5.400   2.080   1.281
 6048SOL     OW19042   5.120   5.537   5.183
 6048SOL    HW119043   5.153   5.629   5.163
 6048SOL    HW219044   5.100   5.529   5.281
 6049SOL     OW19045   4.860   4.417   6.310
 6049SOL    HW119046   4.930   4.347   6.326
 6049SOL    HW219047   4.874   4.459   6.221
 6050SOL     OW19048   2.017   5.264   0.877
 6050SOL    HW119049   2.008   5.361   0.898
 6050SOL    HW219050   2.029   5.212   0.962
 6051SOL     OW19051   1.802   6.574   2.593
 6051SOL    HW119052   1.805   6.671   2.567
 6051SOL    HW219053   1.895   6.536   2.587
 6052SOL     OW19054   5.293   1.506   1.683
 6052SOL    HW119055   5.367   1.564   1.715
 6052SOL    HW219056   5.323   1.455   1.602
 6053SOL     OW19057   3.897   0.576   6.047
 6053SOL    HW119058   3.931   0.635   5.974
 6053SOL    HW219059   3.857   0.631   6.119
 6054SOL     OW19060   3.341   4.326   0.667
 6054SOL    HW119061   3.323   4.242   0.719
 6054SOL    HW219062   3.255   4.360   0.629
 6055SOL     OW19063   4.033   5.907   5.871
 6055SOL    HW119064   4.131   5.912   5.890
 6055SOL    HW219065   4.017   5.850   5.790
 6056SOL     OW19066   4.999   3.367   5.160
 6056SOL    HW119067   5.025   3.435   5.091
 6056SOL    HW219068   4.903   3.379   5.184
 6057SOL     OW19069   6.106   0.457   2.399
 6057SOL    HW119070   6.119   0.526   2.328
 6057SOL    HW219071   6.144   0.369   2.368
 6058SOL     OW19072   5.541   4.109   0.223
 6058SOL    HW119073   5.566   4.084   0.316
 6058SOL    HW219074   5.613   4.081   0.160
 6059SOL     OW19075   5.082   4.555   5.626
 6059SOL    HW119076   4.992   4.531   5.662
 6059SOL    HW219077   5.141   4.583   5.702
 6060SOL     OW19078   2.536   3.192   6.783
 6060SOL    HW119079   2.451   3.147   6.755
 6060SOL    HW219080   2.539   3.199   6.882
 6061SOL     OW19081   4.650   4.026   0.821
 6061SOL    HW119082   4.727   4.044   0.882
 6061SOL    HW219083   4.661   3.936   0.779
 6062SOL     OW19084   2.404   1.648   6.735
 6062SOL    HW119085   2.307   1.630   6.726
 6062SOL    HW219086   2.445   1.580   6.796
 6063SOL     OW19087   3.591   3.578   5.632
 6063SOL    HW119088   3.624   3.484   5.620
 6063SOL    HW219089   3.642   3.639   5.571
 6064SOL     OW19090   1.316   1.051   0.937
 6064SOL    HW119091   1.327   1.150   0.952
 6064SOL    HW219092   1.363   1.025   0.852
 6065SOL     OW19093   0.495   5.654   1.759
 6065SOL    HW119094   0.445   5.740   1.773
 6065SOL    HW219095   0.440   5.592   1.704
 6066SOL     OW19096   5.443   1.345   5.811
 6066SOL    HW119097   5.446   1.261   5.758
 6066SOL    HW219098   5.515   1.343   5.880
 6067SOL     OW19099   4.752   0.997   5.380
 6067SOL    HW119100   4.819   1.021   5.310
 6067SOL    HW219101   4.676   1.062   5.378
 6068SOL     OW19102   5.114   2.602   4.650
 6068SOL    HW119103   5.039   2.613   4.716
 6068SOL    HW219104   5.185   2.669   4.668
 6069SOL     OW19105   6.672   3.891   5.160
 6069SOL    HW119106   6.578   3.924   5.155
 6069SOL    HW219107   6.680   3.825   5.235
 6070SOL     OW19108   3.489   2.956   1.181
 6070SOL    HW119109   3.426   2.908   1.119
 6070SOL    HW219110   3.490   3.053   1.158
 6071SOL     OW19111   1.350   5.728   4.339
 6071SOL    HW119112   1.345   5.793   4.415
 6071SOL    HW219113   1.329   5.636   4.372
 6072SOL     OW19114   0.835   0.647   1.907
 6072SOL    HW119115   0.745   0.685   1.928
 6072SOL    HW219116   0.843   0.556   1.947
 6073SOL     OW19117   5.138   2.608   1.010
 6073SOL    HW119118   5.189   2.559   1.080
 6073SOL    HW219119   5.052   2.641   1.049
 6074SOL     OW19120   1.991   6.330   1.950
 6074SOL    HW119121   2.077   6.370   1.918
 6074SOL    HW219122   1.969   6.368   2.040
 6075SOL     OW19123   4.679   0.089   4.973
 6075SOL    HW119124   4.650   0.179   5.006
 6075SOL    HW219125   4.605   0.023   4.986
 6076SOL     OW19126   2.636   5.123   3.450
 6076SOL    HW119127   2.637   5.221   3.466
 6076SOL    HW219128   2.663   5.075   3.533
 6077SOL     OW19129   6.522   6.038   0.939
 6077SOL    HW119130   6.532   5.944   0.908
 6077SOL    HW219131   6.591   6.059   1.008
 6078SOL     OW19132   4.733   4.759   0.327
 6078SOL    HW119133   4.796   4.757   0.250
 6078SOL    HW219134   4.676   4.676   0.326
 6079SOL     OW19135   5.508   4.767   6.665
 6079SOL    HW119136   5.513   4.677   6.708
 6079SOL    HW219137   5.589   4.820   6.691
 6080SOL     OW19138   0.454   5.203   1.282
 6080SOL    HW119139   0.537   5.161   1.246
 6080SOL    HW219140   0.434   5.286   1.231
 6081SOL     OW19141   0.079   2.666   5.308
 6081SOL    HW119142   0.136   2.671   5.226
 6081SOL    HW219143   0.003   2.730   5.299
 6082SOL     OW19144   3.396   6.592   2.622
 6082SOL    HW119145   3.471   6.659   2.619
 6082SOL    HW219146   3.313   6.633   2.584
 6083SOL     OW19147   5.658   5.878   0.800
 6083SOL    HW119148   5.756   5.896   0.796
 6083SOL    HW219149   5.636   5.831   0.886
 6084SOL     OW19150   0.782   6.597   2.237
 6084SOL    HW119151   0.814   6.503   2.234
 6084SOL    HW219152   0.830   6.651   2.168
 6085SOL     OW19153   6.843   5.926   6.729
 6085SOL    HW119154   6.941   5.927   6.709
 6085SOL    HW219155   6.817   5.835   6.762
 6086SOL     OW19156   2.483   1.951   5.896
 6086SOL    HW119157   2.466   1.873   5.837
 6086SOL    HW219158   2.520   2.027   5.842
 6087SOL     OW19159   3.772   5.644   0.781
 6087SOL    HW119160   3.724   5.727   0.755
 6087SOL    HW219161   3.760   5.574   0.711
 6088SOL     OW19162   5.721   6.764   4.786
 6088SOL    HW119163   5.622   6.770   4.774
 6088SOL    HW219164   5.763   6.846   4.747
 6089SOL     OW19165   6.063   2.249   3.146
 6089SOL    HW119166   6.059   2.310   3.225
 6089SOL    HW219167   6.064   2.303   3.062
 6090SOL     OW19168   2.248   4.888   4.406
 6090SOL    HW119169   2.334   4.838   4.403
 6090SOL    HW219170   2.182   4.844   4.344
 6091SOL     OW19171   2.798   1.537   0.298
 6091SOL    HW119172   2.751   1.551   0.385
 6091SOL    HW219173   2.827   1.441   0.292
 6092SOL     OW19174   4.737   1.038   1.820
 6092SOL    HW119175   4.815   1.089   1.783
 6092SOL    HW219176   4.770   0.959   1.872
 6093SOL     OW19177   2.463   2.236   1.735
 6093SOL    HW119178   2.426   2.169   1.799
 6093SOL    HW219179   2.544   2.280   1.774
 6094SOL     OW19180   1.479   6.113   3.271
 6094SOL    HW119181   1.544   6.046   3.235
 6094SOL    HW219182   1.387   6.092   3.239
 6095SOL     OW19183   4.772   4.847   6.571
 6095SOL    HW119184   4.735   4.873   6.661
 6095SOL    HW219185   4.872   4.844   6.576
 6096SOL     OW19186   6.222   6.586   2.434
 6096SOL    HW119187   6.305   6.636   2.461
 6096SOL    HW219188   6.151   6.599   2.503
 6097SOL     OW19189   1.895   5.237   2.565
 6097SOL    HW119190   1.981   5.223   2.615
 6097SOL    HW219191   1.889   5.172   2.490
 6098SOL     OW19192   0.336   1.335   5.816
 6098SOL    HW119193   0.336   1.339   5.916
 6098SOL    HW219194   0.348   1.426   5.779
 6099SOL     OW19195   4.953   5.827   5.404
 6099SOL    HW119196   4.941   5.915   5.451
 6099SOL    HW219197   5.043   5.789   5.427
 6100SOL     OW19198   0.103   6.313   2.426
 6100SOL    HW119199   0.114   6.401   2.473
 6100SOL    HW219200   0.091   6.329   2.328
 6101SOL     OW19201   6.794   2.841   2.848
 6101SOL    HW119202   6.762   2.814   2.757
 6101SOL    HW219203   6.716   2.866   2.904
 6102SOL     OW19204   4.301   5.161   2.754
 6102SOL    HW119205   4.344   5.115   2.833
 6102SOL    HW219206   4.328   5.257   2.753
 6103SOL     OW19207   6.560   0.698   1.135
 6103SOL    HW119208   6.472   0.670   1.098
 6103SOL    HW219209   6.568   0.798   1.128
 6104SOL     OW19210   5.849   6.965   5.094
 6104SOL    HW119211   5.849   7.024   5.175
 6104SOL    HW219212   5.876   7.018   5.014
 6105SOL     OW19213   1.546   5.243   6.030
 6105SOL    HW119214   1.572   5.328   6.076
 6105SOL    HW219215   1.499   5.265   5.944
 6106SOL     OW19216   1.296   4.862   6.893
 6106SOL    HW119217   1.371   4.797   6.897
 6106SOL    HW219218   1.324   4.943   6.843
 6107SOL     OW19219   4.864   5.465   5.063
 6107SOL    HW119220   4.810   5.549   5.072
 6107SOL    HW219221   4.954   5.479   5.105
 6108SOL     OW19222   2.224   2.389   3.773
 6108SOL    HW119223   2.200   2.376   3.677
 6108SOL    HW219224   2.144   2.424   3.822
 6109SOL     OW19225   5.439   1.092   5.703
 6109SOL    HW119226   5.515   1.028   5.699
 6109SOL    HW219227   5.368   1.065   5.637
 6110SOL     OW19228   2.619   3.070   0.719
 6110SOL    HW119229   2.638   3.053   0.622
 6110SOL    HW219230   2.612   2.982   0.767
 6111SOL     OW19231   1.034   3.329   2.419
 6111SOL    HW119232   0.964   3.266   2.452
 6111SOL    HW219233   1.020   3.419   2.460
 6112SOL     OW19234   4.238   0.696   2.618
 6112SOL    HW119235   4.178   0.756   2.671
 6112SOL    HW219236   4.326   0.686   2.666
 6113SOL     OW19237   2.354   2.824   6.736
 6113SOL    HW119238   2.438   2.776   6.710
 6113SOL    HW219239   2.321   2.790   6.824
 6114SOL     OW19240   4.929   3.748   2.732
 6114SOL    HW119241   4.896   3.658   2.704
 6114SOL    HW219242   4.889   3.818   2.674
 6115SOL     OW19243   6.295   1.127   4.599
 6115SOL    HW119244   6.268   1.033   4.620
 6115SOL    HW219245   6.376   1.151   4.653
 6116SOL     OW19246   3.852   1.570   6.083
 6116SOL    HW119247   3.857   1.584   6.181
 6116SOL    HW219248   3.830   1.474   6.064
 6117SOL     OW19249   1.847   2.065   3.403
 6117SOL    HW119250   1.814   1.972   3.384
 6117SOL    HW219251   1.903   2.096   3.327
 6118SOL     OW19252   5.835   1.198   1.358
 6118SOL    HW119253   5.898   1.275   1.359
 6118SOL    HW219254   5.761   1.215   1.293
 6119SOL     OW19255   1.417   3.704   0.594
 6119SOL    HW119256   1.456   3.714   0.685
 6119SOL    HW219257   1.317   3.697   0.601
 6120SOL     OW19258   1.769   6.168   5.760
 6120SOL    HW119259   1.682   6.210   5.785
 6120SOL    HW219260   1.840   6.200   5.822
 6121SOL     OW19261   1.195   3.785   5.609
 6121SOL    HW119262   1.246   3.864   5.577
 6121SOL    HW219263   1.248   3.736   5.679
 6122SOL     OW19264   4.607   5.520   6.713
 6122SOL    HW119265   4.567   5.469   6.636
 6122SOL    HW219266   4.654   5.456   6.774
 6123SOL     OW19267   4.807   6.793   5.767
 6123SOL    HW119268   4.855   6.714   5.806
 6123SOL    HW219269   4.737   6.825   5.830
 6124SOL     OW19270   0.717   6.747   6.055
 6124SOL    HW119271   0.757   6.816   5.994
 6124SOL    HW219272   0.698   6.664   6.002
 6125SOL     OW19273   2.411   4.411   0.210
 6125SOL    HW119274   2.510   4.403   0.221
 6125SOL    HW219275   2.366   4.331   0.250
 6126SOL     OW19276   0.111   1.177   5.035
 6126SOL    HW119277   0.172   1.216   5.104
 6126SOL    HW219278   0.052   1.108   5.077
 6127SOL     OW19279   3.903   0.079   1.864
 6127SOL    HW119280   3.975   0.039   1.807
 6127SOL    HW219281   3.916   0.050   1.959
 6128SOL     OW19282   5.313   5.713   0.828
 6128SOL    HW119283   5.239   5.685   0.766
 6128SOL    HW219284   5.316   5.651   0.906
 6129SOL     OW19285   0.782   3.428   2.753
 6129SOL    HW119286   0.840   3.496   2.798
 6129SOL    HW219287   0.784   3.443   2.654
 6130SOL     OW19288   5.195   2.735   2.771
 6130SOL    HW119289   5.137   2.665   2.728
 6130SOL    HW219290   5.138   2.814   2.796
 6131SOL     OW19291   0.620   1.736   3.067
 6131SOL    HW119292   0.654   1.777   2.983
 6131SOL    HW219293   0.603   1.807   3.135
 6132SOL     OW19294   3.662   2.282   6.679
 6132SOL    HW119295   3.614   2.255   6.595
 6132SOL    HW219296   3.594   2.307   6.749
 6133SOL     OW19297   2.078   3.402   3.193
 6133SOL    HW119298   2.089   3.433   3.099
 6133SOL    HW219299   2.073   3.481   3.254
 6134SOL     OW19300   4.310   6.479   0.022
 6134SOL    HW119301   4.218   6.505   7.016
 6134SOL    HW219302   4.323   6.507   0.117
 6135SOL     OW19303   0.562   5.657   1.444
 6135SOL    HW119304   0.561   5.757   1.448
 6135SOL    HW219305   0.473   5.622   1.471
 6136SOL     OW19306   1.133   2.614   1.714
 6136SOL    HW119307   1.128   2.524   1.671
 6136SOL    HW219308   1.042   2.644   1.741
 6137SOL     OW19309   0.234   4.218   2.537
 6137SOL    HW119310   0.175   4.237   2.459
 6137SOL    HW219311   0.330   4.222   2.509
 6138SOL     OW19312   3.598   0.197   3.766
 6138SOL    HW119313   3.642   0.282   3.738
 6138SOL    HW219314   3.552   0.155   3.688
 6139SOL     OW19315   0.877   6.868   5.610
 6139SOL    HW119316   0.827   6.905   5.532
 6139SOL    HW219317   0.894   6.770   5.596
 6140SOL     OW19318   0.589   0.532   2.388
 6140SOL    HW119319   0.624   0.470   2.458
 6140SOL    HW219320   0.502   0.497   2.352
 6141SOL     OW19321   0.157   0.060   6.623
 6141SOL    HW119322   0.099   0.119   6.678
 6141SOL    HW219323   0.199   7.014   6.681
 6142SOL     OW19324   0.410   5.431   6.323
 6142SOL    HW119325   0.430   5.355   6.260
 6142SOL    HW219326   0.366   5.395   6.405
 6143SOL     OW19327   6.946   4.228   0.840
 6143SOL    HW119328   6.930   4.174   0.923
 6143SOL    HW219329   6.994   4.172   0.773
 6144SOL     OW19330   5.170   5.134   3.856
 6144SOL    HW119331   5.102   5.123   3.929
 6144SOL    HW219332   5.212   5.224   3.863
 6145SOL     OW19333   5.256   4.741   3.992
 6145SOL    HW119334   5.305   4.656   4.010
 6145SOL    HW219335   5.315   4.803   3.940
 6146SOL     OW19336   3.285   6.090   3.162
 6146SOL    HW119337   3.355   6.019   3.157
 6146SOL    HW219338   3.262   6.107   3.257
 6147SOL     OW19339   1.907   2.287   5.029
 6147SOL    HW119340   1.841   2.348   4.984
 6147SOL    HW219341   1.868   2.195   5.036
 6148SOL     OW19342   4.163   5.797   5.528
 6148SOL    HW119343   4.090   5.765   5.589
 6148SOL    HW219344   4.250   5.790   5.576
 6149SOL     OW19345   2.855   6.674   1.662
 6149SOL    HW119346   2.823   6.579   1.654
 6149SOL    HW219347   2.788   6.727   1.714
 6150SOL     OW19348   6.015   4.140   6.592
 6150SOL    HW119349   5.957   4.219   6.610
 6150SOL    HW219350   5.967   4.056   6.620
 6151SOL     OW19351   6.124   4.911   5.449
 6151SOL    HW119352   6.072   4.991   5.481
 6151SOL    HW219353   6.222   4.934   5.447
 6152SOL     OW19354   0.504   5.591   4.874
 6152SOL    HW119355   0.522   5.560   4.968
 6152SOL    HW219356   0.537   5.522   4.809
 6153SOL     OW19357   5.858   5.169   1.176
 6153SOL    HW119358   5.949   5.147   1.212
 6153SOL    HW219359   5.841   5.114   1.094
 6154SOL     OW19360   5.667   3.234   2.465
 6154SOL    HW119361   5.602   3.300   2.428
 6154SOL    HW219362   5.742   3.283   2.511
 6155SOL     OW19363   2.946   1.044   2.796
 6155SOL    HW119364   2.993   0.963   2.762
 6155SOL    HW219365   2.918   1.030   2.890
 6156SOL     OW19366   4.354   4.814   1.547
 6156SOL    HW119367   4.405   4.827   1.461
 6156SOL    HW219368   4.299   4.731   1.541
 6157SOL     OW19369   0.696   2.271   2.936
 6157SOL    HW119370   0.726   2.221   3.018
 6157SOL    HW219371   0.777   2.299   2.884
 6158SOL     OW19372   3.952   2.558   6.839
 6158SOL    HW119373   3.931   2.503   6.921
 6158SOL    HW219374   3.934   2.504   6.757
 6159SOL     OW19375   4.064   2.593   0.485
 6159SOL    HW119376   4.138   2.544   0.438
 6159SOL    HW219377   3.976   2.553   0.456
 6160SOL     OW19378   5.819   0.260   6.721
 6160SOL    HW119379   5.858   0.190   6.661
 6160SOL    HW219380   5.742   0.304   6.674
 6161SOL     OW19381   5.465   1.488   0.196
 6161SOL    HW119382   5.552   1.490   0.246
 6161SOL    HW219383   5.463   1.409   0.136
 6162SOL     OW19384   5.773   6.388   3.836
 6162SOL    HW119385   5.697   6.395   3.901
 6162SOL    HW219386   5.800   6.480   3.806
 6163SOL     OW19387   5.280   5.947   2.080
 6163SOL    HW119388   5.348   5.889   2.126
 6163SOL    HW219389   5.325   6.027   2.042
 6164SOL     OW19390   3.327   4.117   4.660
 6164SOL    HW119391   3.230   4.109   4.683
 6164SOL    HW219392   3.379   4.143   4.741
 6165SOL     OW19393   4.496   1.611   6.129
 6165SOL    HW119394   4.478   1.512   6.128
 6165SOL    HW219395   4.462   1.653   6.045
 6166SOL     OW19396   5.918   1.571   0.630
 6166SOL    HW119397   5.923   1.600   0.534
 6166SOL    HW219398   5.898   1.650   0.688
 6167SOL     OW19399   1.010   4.839   2.726
 6167SOL    HW119400   1.014   4.753   2.777
 6167SOL    HW219401   0.915   4.872   2.723
 6168SOL     OW19402   0.342   3.254   3.629
 6168SOL    HW119403   0.429   3.264   3.581
 6168SOL    HW219404   0.300   3.343   3.641
 6169SOL     OW19405   1.414   2.017   0.313
 6169SOL    HW119406   1.472   2.098   0.325
 6169SOL    HW219407   1.348   2.012   0.388
 6170SOL     OW19408   3.221   4.118   5.438
 6170SOL    HW119409   3.208   4.030   5.483
 6170SOL    HW219410   3.200   4.192   5.503
 6171SOL     OW19411   1.613   3.757   1.521
 6171SOL    HW119412   1.703   3.766   1.479
 6171SOL    HW219413   1.554   3.703   1.462
 6172SOL     OW19414   1.299   0.905   3.717
 6172SOL    HW119415   1.388   0.928   3.756
 6172SOL    HW219416   1.242   0.862   3.787
 6173SOL     OW19417   6.798   4.961   2.370
 6173SOL    HW119418   6.732   4.979   2.296
 6173SOL    HW219419   6.754   4.980   2.458
 6174SOL     OW19420   6.090   5.202   2.800
 6174SOL    HW119421   6.013   5.142   2.778
 6174SOL    HW219422   6.175   5.151   2.794
 6175SOL     OW19423   5.126   0.357   3.813
 6175SOL    HW119424   5.152   0.426   3.745
 6175SOL    HW219425   5.077   0.282   3.767
 6176SOL     OW19426   6.492   2.501   0.373
 6176SOL    HW119427   6.463   2.531   0.282
 6176SOL    HW219428   6.415   2.507   0.436
 6177SOL     OW19429   6.324   1.967   1.278
 6177SOL    HW119430   6.249   1.947   1.342
 6177SOL    HW219431   6.406   1.988   1.330
 6178SOL     OW19432   4.658   5.048   2.561
 6178SOL    HW119433   4.570   5.062   2.515
 6178SOL    HW219434   4.647   5.064   2.660
 6179SOL     OW19435   6.522   5.025   4.419
 6179SOL    HW119436   6.596   5.070   4.469
 6179SOL    HW219437   6.434   5.064   4.448
 6180SOL     OW19438   3.374   6.082   6.257
 6180SOL    HW119439   3.361   6.085   6.356
 6180SOL    HW219440   3.471   6.092   6.235
 6181SOL     OW19441   4.236   6.717   1.229
 6181SOL    HW119442   4.307   6.775   1.268
 6181SOL    HW219443   4.221   6.637   1.288
 6182SOL     OW19444   5.464   3.639   5.726
 6182SOL    HW119445   5.497   3.733   5.735
 6182SOL    HW219446   5.365   3.638   5.732
 6183SOL     OW19447   3.117   6.976   2.961
 6183SOL    HW119448   3.112   0.051   2.963
 6183SOL    HW219449   3.052   6.937   3.026
 6184SOL     OW19450   1.299   6.827   6.374
 6184SOL    HW119451   1.349   6.894   6.429
 6184SOL    HW219452   1.202   6.850   6.373
 6185SOL     OW19453   0.624   4.683   6.236
 6185SOL    HW119454   0.723   4.678   6.223
 6185SOL    HW219455   0.604   4.716   6.328
 6186SOL     OW19456   5.852   0.289   5.032
 6186SOL    HW119457   5.823   0.370   4.981
 6186SOL    HW219458   5.800   0.282   5.117
 6187SOL     OW19459   4.562   4.567   4.131
 6187SOL    HW119460   4.660   4.555   4.141
 6187SOL    HW219461   4.515   4.536   4.214
 6188SOL     OW19462   2.237   0.094   0.640
 6188SOL    HW119463   2.231   0.107   0.541
 6188SOL    HW219464   2.310   0.029   0.661
 6189SOL     OW19465   4.823   3.967   3.988
 6189SOL    HW119466   4.850   3.910   4.066
 6189SOL    HW219467   4.894   4.034   3.969
 6190SOL     OW19468   6.710   3.691   6.290
 6190SOL    HW119469   6.629   3.669   6.236
 6190SOL    HW219470   6.713   3.634   6.372
 6191SOL     OW19471   4.430   3.029   0.173
 6191SOL    HW119472   4.524   3.013   0.202
 6191SOL    HW219473   4.426   3.032   0.073
 6192SOL     OW19474   3.289   3.360   6.621
 6192SOL    HW119475   3.383   3.357   6.589
 6192SOL    HW219476   3.229   3.393   6.548
 6193SOL     OW19477   4.922   0.858   2.585
 6193SOL    HW119478   4.910   0.931   2.517
 6193SOL    HW219479   4.845   0.795   2.580
 6194SOL     OW19480   0.870   0.066   0.356
 6194SOL    HW119481   0.814   7.009   0.335
 6194SOL    HW219482   0.966   0.039   0.361
 6195SOL     OW19483   3.939   5.739   5.653
 6195SOL    HW119484   3.871   5.688   5.705
 6195SOL    HW219485   3.900   5.827   5.624
 6196SOL     OW19486   6.037   2.243   1.554
 6196SOL    HW119487   6.012   2.338   1.575
 6196SOL    HW219488   6.024   2.226   1.456
 6197SOL     OW19489   4.342   4.137   0.369
 6197SOL    HW119490   4.263   4.192   0.397
 6197SOL    HW219491   4.329   4.105   0.275
 6198SOL     OW19492   3.118   5.246   2.180
 6198SOL    HW119493   3.142   5.167   2.124
 6198SOL    HW219494   3.196   5.308   2.186
 6199SOL     OW19495   0.997   6.928   1.143
 6199SOL    HW119496   0.960   6.998   1.082
 6199SOL    HW219497   0.976   6.838   1.107
 6200SOL     OW19498   2.010   0.972   5.362
 6200SOL    HW119499   1.964   1.060   5.370
 6200SOL    HW219500   1.995   0.935   5.270
 6201SOL     OW19501   1.878   3.863   5.167
 6201SOL    HW119502   1.932   3.824   5.242
 6201SOL    HW219503   1.818   3.934   5.203
 6202SOL     OW19504   4.166   1.765   1.742
 6202SOL    HW119505   4.190   1.679   1.786
 6202SOL    HW219506   4.128   1.747   1.651
 6203SOL     OW19507   5.665   6.535   3.033
 6203SOL    HW119508   5.660   6.571   2.939
 6203SOL    HW219509   5.700   6.441   3.031
 6204SOL     OW19510   0.950   5.153   4.934
 6204SOL    HW119511   0.852   5.147   4.953
 6204SOL    HW219512   0.970   5.237   4.884
 6205SOL     OW19513   5.972   6.642   6.960
 6205SOL    HW119514   6.060   6.652   7.007
 6205SOL    HW219515   5.943   6.731   6.925
 6206SOL     OW19516   6.539   0.603   2.968
 6206SOL    HW119517   6.549   0.504   2.981
 6206SOL    HW219518   6.445   0.630   2.985
 6207SOL     OW19519   1.793   4.424   4.316
 6207SOL    HW119520   1.816   4.349   4.255
 6207SOL    HW219521   1.876   4.468   4.349
 6208SOL     OW19522   5.917   1.827   6.261
 6208SOL    HW119523   5.946   1.792   6.350
 6208SOL    HW219524   5.889   1.923   6.270
 6209SOL     OW19525   4.848   5.657   0.183
 6209SOL    HW119526   4.799   5.744   0.176
 6209SOL    HW219527   4.944   5.671   0.158
 6210SOL     OW19528   6.057   4.554   3.823
 6210SOL    HW119529   6.128   4.519   3.885
 6210SOL    HW219530   6.020   4.639   3.860
 6211SOL     OW19531   3.305   6.358   4.960
 6211SOL    HW119532   3.328   6.454   4.944
 6211SOL    HW219533   3.278   6.346   5.056
 6212SOL     OW19534   2.451   5.142   2.875
 6212SOL    HW119535   2.510   5.106   2.947
 6212SOL    HW219536   2.500   5.141   2.788
 6213SOL     OW19537   5.199   0.588   6.910
 6213SOL    HW119538   5.261   0.589   6.832
 6213SOL    HW219539   5.119   0.644   6.889
 6214SOL     OW19540   4.347   5.173   3.662
 6214SOL    HW119541   4.423   5.120   3.701
 6214SOL    HW219542   4.269   5.170   3.724
 6215SOL     OW19543   4.076   2.010   0.809
 6215SOL    HW119544   4.131   2.088   0.781
 6215SOL    HW219545   4.056   1.953   0.729
 6216SOL     OW19546   6.481   2.217   2.428
 6216SOL    HW119547   6.391   2.213   2.385
 6216SOL    HW219548   6.472   2.253   2.521
 6217SOL     OW19549   0.256   2.957   3.028
 6217SOL    HW119550   0.318   2.902   3.084
 6217SOL    HW219551   0.214   2.898   2.959
 6218SOL     OW19552   3.199   4.894   5.708
 6218SOL    HW119553   3.211   4.918   5.612
 6218SOL    HW219554   3.189   4.978   5.762
 6219SOL     OW19555   1.054   1.930   4.144
 6219SOL    HW119556   1.004   2.014   4.166
 6219SOL    HW219557   1.146   1.953   4.114
 6220SOL     OW19558   1.668   3.186   5.259
 6220SOL    HW119559   1.727   3.172   5.180
 6220SOL    HW219560   1.639   3.097   5.296
 6221SOL     OW19561   6.169   5.773   6.525
 6221SOL    HW119562   6.197   5.855   6.574
 6221SOL    HW219563   6.097   5.796   6.459
 6222SOL     OW19564   1.374   6.278   1.102
 6222SOL    HW119565   1.331   6.305   1.189
 6222SOL    HW219566   1.466   6.317   1.097
 6223SOL     OW19567   0.296   4.348   4.584
 6223SOL    HW119568   0.388   4.387   4.577
 6223SOL    HW219569   0.247   4.392   4.659
 6224SOL     OW19570   2.636   1.927   6.120
 6224SOL    HW119571   2.656   1.831   6.137
 6224SOL    HW219572   2.592   1.938   6.031
 6225SOL     OW19573   3.653   3.462   0.883
 6225SOL    HW119574   3.596   3.387   0.850
 6225SOL    HW219575   3.724   3.426   0.944
 6226SOL     OW19576   5.912   1.531   5.578
 6226SOL    HW119577   5.877   1.474   5.504
 6226SOL    HW219578   5.840   1.547   5.645
 6227SOL     OW19579   3.806   5.570   5.841
 6227SOL    HW119580   3.720   5.559   5.790
 6227SOL    HW219581   3.802   5.515   5.925
 6228SOL     OW19582   1.151   2.496   2.821
 6228SOL    HW119583   1.186   2.589   2.814
 6228SOL    HW219584   1.228   2.433   2.834
 6229SOL     OW19585   0.823   2.818   2.475
 6229SOL    HW119586   0.909   2.857   2.508
 6229SOL    HW219587   0.798   2.740   2.531
 6230SOL     OW19588   1.038   1.426   4.129
 6230SOL    HW119589   1.023   1.517   4.167
 6230SOL    HW219590   0.979   1.413   4.049
 6231SOL     OW19591   6.738   5.026   1.272
 6231SOL    HW119592   6.783   5.047   1.359
 6231SOL    HW219593   6.640   5.011   1.289
 6232SOL     OW19594   6.453   1.526   1.041
 6232SOL    HW119595   6.387   1.495   1.109
 6232SOL    HW219596   6.404   1.568   0.964
 6233SOL     OW19597   6.177   0.967   0.062
 6233SOL    HW119598   6.212   0.874   0.051
 6233SOL    HW219599   6.228   1.029   0.001
 6234SOL     OW19600   6.342   1.892   5.681
 6234SOL    HW119601   6.361   1.978   5.633
 6234SOL    HW219602   6.319   1.912   5.777
 6235SOL     OW19603   1.394   0.487   1.558
 6235SOL    HW119604   1.398   0.586   1.548
 6235SOL    HW219605   1.310   0.461   1.605
 6236SOL     OW19606   0.311   4.010   0.236
 6236SOL    HW119607   0.332   4.007   0.138
 6236SOL    HW219608   0.327   4.102   0.271
 6237SOL     OW19609   3.310   6.059   6.508
 6237SOL    HW119610   3.343   5.966   6.520
 6237SOL    HW219611   3.324   6.111   6.593
 6238SOL     OW19612   4.027   4.911   3.227
 6238SOL    HW119613   4.032   4.914   3.326
 6238SOL    HW219614   3.982   4.994   3.193
 6239SOL     OW19615   3.420   6.163   1.923
 6239SOL    HW119616   3.341   6.102   1.914
 6239SOL    HW219617   3.485   6.124   1.988
 6240SOL     OW19618   2.704   3.030   6.393
 6240SOL    HW119619   2.800   3.056   6.387
 6240SOL    HW219620   2.664   3.067   6.477
 6241SOL     OW19621   3.188   6.983   1.708
 6241SOL    HW119622   3.147   0.020   1.640
 6241SOL    HW219623   3.162   6.889   1.688
 6242SOL     OW19624   5.339   1.321   3.624
 6242SOL    HW119625   5.277   1.250   3.594
 6242SOL    HW219626   5.288   1.405   3.643
 6243SOL     OW19627   6.108   6.719   3.782
 6243SOL    HW119628   6.068   6.643   3.732
 6243SOL    HW219629   6.122   6.796   3.720
 6244SOL     OW19630   0.859   2.244   2.258
 6244SOL    HW119631   0.876   2.168   2.320
 6244SOL    HW219632   0.901   2.224   2.169
 6245SOL     OW19633   1.775   3.843   0.179
 6245SOL    HW119634   1.726   3.920   0.137
 6245SOL    HW219635   1.718   3.804   0.252
 6246SOL     OW19636   1.850   2.607   5.340
 6246SOL    HW119637   1.784   2.575   5.409
 6246SOL    HW219638   1.823   2.697   5.308
 6247SOL     OW19639   1.268   6.743   4.003
 6247SOL    HW119640   1.328   6.663   4.004
 6247SOL    HW219641   1.234   6.760   4.095
 6248SOL     OW19642   3.007   3.930   0.549
 6248SOL    HW119643   3.105   3.914   0.541
 6248SOL    HW219644   2.991   4.018   0.592
 6249SOL     OW19645   0.598   4.153   0.548
 6249SOL    HW119646   0.658   4.211   0.492
 6249SOL    HW219647   0.564   4.077   0.493
 6250SOL     OW19648   0.159   5.729   0.932
 6250SOL    HW119649   0.172   5.636   0.969
 6250SOL    HW219650   0.067   5.761   0.954
 6251SOL     OW19651   3.916   5.214   6.862
 6251SOL    HW119652   3.883   5.191   6.953
 6251SOL    HW219653   3.884   5.145   6.797
 6252SOL     OW19654   1.050   6.473   6.029
 6252SOL    HW119655   1.018   6.464   6.124
 6252SOL    HW219656   0.983   6.527   5.977
 6253SOL     OW19657   2.204   3.951   2.992
 6253SOL    HW119658   2.213   3.856   2.962
 6253SOL    HW219659   2.196   3.954   3.091
 6254SOL     OW19660   5.017   1.196   0.688
 6254SOL    HW119661   5.049   1.108   0.654
 6254SOL    HW219662   5.007   1.259   0.611
 6255SOL     OW19663   2.675   0.541   1.226
 6255SOL    HW119664   2.628   0.615   1.275
 6255SOL    HW219665   2.641   0.537   1.132
 6256SOL     OW19666   3.446   4.932   2.551
 6256SOL    HW119667   3.371   4.885   2.597
 6256SOL    HW219668   3.481   5.005   2.609
 6257SOL     OW19669   4.878   2.435   0.579
 6257SOL    HW119670   4.887   2.368   0.506
 6257SOL    HW219671   4.968   2.472   0.602
 6258SOL     OW19672   4.274   0.158   3.835
 6258SOL    HW119673   4.297   0.092   3.906
 6258SOL    HW219674   4.298   0.250   3.867
 6259SOL     OW19675   2.727   2.475   0.731
 6259SOL    HW119676   2.756   2.386   0.766
 6259SOL    HW219677   2.809   2.531   0.713
 6260SOL     OW19678   3.238   5.431   6.814
 6260SOL    HW119679   3.190   5.516   6.793
 6260SOL    HW219680   3.190   5.354   6.773
 6261SOL     OW19681   3.948   0.164   6.288
 6261SOL    HW119682   3.946   0.114   6.202
 6261SOL    HW219683   3.965   0.100   6.363
 6262SOL     OW19684   1.637   4.957   0.501
 6262SOL    HW119685   1.633   4.937   0.403
 6262SOL    HW219686   1.713   4.907   0.543
 6263SOL     OW19687   6.940   0.110   5.475
 6263SOL    HW119688   6.896   0.024   5.451
 6263SOL    HW219689   0.015   0.099   5.473
 6264SOL     OW19690   1.341   6.983   1.812
 6264SOL    HW119691   1.359   6.913   1.882
 6264SOL    HW219692   1.396   6.964   1.731
 6265SOL     OW19693   3.250   3.884   0.419
 6265SOL    HW119694   3.256   3.785   0.405
 6265SOL    HW219695   3.239   3.930   0.331
 6266SOL     OW19696   4.062   6.741   4.789
 6266SOL    HW119697   4.055   6.778   4.696
 6266SOL    HW219698   4.026   6.648   4.791
 6267SOL     OW19699   2.874   0.633   6.908
 6267SOL    HW119700   2.852   0.686   6.826
 6267SOL    HW219701   2.973   0.633   6.922
 6268SOL     OW19702   3.682   6.512   3.533
 6268SOL    HW119703   3.587   6.537   3.551
 6268SOL    HW219704   3.688   6.465   3.445
 6269SOL     OW19705   6.646   5.463   1.815
 6269SOL    HW119706   6.619   5.495   1.906
 6269SOL    HW219707   6.703   5.382   1.824
 6270SOL     OW19708   1.994   0.657   4.986
 6270SOL    HW119709   2.088   0.625   4.970
 6270SOL    HW219710   1.937   0.581   5.017
 6271SOL     OW19711   5.690   2.317   5.989
 6271SOL    HW119712   5.664   2.405   6.030
 6271SOL    HW219713   5.697   2.327   5.890
 6272SOL     OW19714   0.722   2.205   6.563
 6272SOL    HW119715   0.821   2.193   6.566
 6272SOL    HW219716   0.693   2.219   6.468
 6273SOL     OW19717   1.857   6.655   2.968
 6273SOL    HW119718   1.790   6.647   3.042
 6273SOL    HW219719   1.864   6.567   2.921
 6274SOL     OW19720   2.192   5.185   5.820
 6274SOL    HW119721   2.226   5.093   5.800
 6274SOL    HW219722   2.154   5.226   5.736
 6275SOL     OW19723   2.240   5.863   5.272
 6275SOL    HW119724   2.311   5.884   5.205
 6275SOL    HW219725   2.236   5.764   5.286
 6276SOL     OW19726   1.857   4.973   2.906
 6276SOL    HW119727   1.933   4.945   2.964
 6276SOL    HW219728   1.774   4.981   2.962
 6277SOL     OW19729   5.545   3.679   1.794
 6277SOL    HW119730   5.612   3.687   1.867
 6277SOL    HW219731   5.549   3.760   1.736
 6278SOL     OW19732   5.307   6.594   4.858
 6278SOL    HW119733   5.351   6.530   4.921
 6278SOL    HW219734   5.370   6.668   4.836
 6279SOL     OW19735   3.774   0.687   6.270
 6279SOL    HW119736   3.685   0.650   6.294
 6279SOL    HW219737   3.837   0.675   6.347
 6280SOL     OW19738   0.927   1.927   5.050
 6280SOL    HW119739   0.965   1.924   4.957
 6280SOL    HW219740   1.002   1.931   5.117
 6281SOL     OW19741   1.670   4.875   3.825
 6281SOL    HW119742   1.753   4.917   3.861
 6281SOL    HW219743   1.592   4.898   3.884
 6282SOL     OW19744   1.593   6.861   4.814
 6282SOL    HW119745   1.518   6.905   4.865
 6282SOL    HW219746   1.667   6.927   4.801
 6283SOL     OW19747   6.453   2.977   6.136
 6283SOL    HW119748   6.487   3.057   6.087
 6283SOL    HW219749   6.519   2.902   6.127
 6284SOL     OW19750   1.768   5.189   4.788
 6284SOL    HW119751   1.751   5.106   4.735
 6284SOL    HW219752   1.765   5.269   4.728
 6285SOL     OW19753   1.057   3.508   3.722
 6285SOL    HW119754   1.115   3.438   3.762
 6285SOL    HW219755   1.109   3.593   3.711
 6286SOL     OW19756   6.508   1.750   3.829
 6286SOL    HW119757   6.460   1.710   3.751
 6286SOL    HW219758   6.485   1.700   3.912
 6287SOL     OW19759   3.836   5.128   3.981
 6287SOL    HW119760   3.903   5.058   4.007
 6287SOL    HW219761   3.826   5.129   3.882
 6288SOL     OW19762   5.313   4.671   2.678
 6288SOL    HW119763   5.260   4.728   2.615
 6288SOL    HW219764   5.258   4.592   2.705
 6289SOL     OW19765   1.691   4.514   1.999
 6289SOL    HW119766   1.773   4.503   2.054
 6289SOL    HW219767   1.630   4.579   2.042
 6290SOL     OW19768   5.878   3.753   4.176
 6290SOL    HW119769   5.946   3.801   4.231
 6290SOL    HW219770   5.808   3.818   4.146
 6291SOL     OW19771   3.391   2.858   4.912
 6291SOL    HW119772   3.448   2.777   4.895
 6291SOL    HW219773   3.330   2.839   4.989
 6292SOL     OW19774   1.492   2.017   3.695
 6292SOL    HW119775   1.527   1.923   3.695
 6292SOL    HW219776   1.536   2.069   3.769
 6293SOL     OW19777   3.711   0.033   0.199
 6293SOL    HW119778   3.713   0.087   0.283
 6293SOL    HW219779   3.705   6.960   0.223
 6294SOL     OW19780   3.561   5.072   4.401
 6294SOL    HW119781   3.469   5.050   4.435
 6294SOL    HW219782   3.614   4.988   4.391
 6295SOL     OW19783   5.365   5.261   5.451
 6295SOL    HW119784   5.269   5.237   5.467
 6295SOL    HW219785   5.379   5.358   5.471
 6296SOL     OW19786   0.099   6.756   5.510
 6296SOL    HW119787   0.080   6.675   5.454
 6296SOL    HW219788   0.040   6.755   5.591
 6297SOL     OW19789   4.666   6.528   4.582
 6297SOL    HW119790   4.682   6.524   4.680
 6297SOL    HW219791   4.625   6.442   4.551
 6298SOL     OW19792   1.412   2.899   6.403
 6298SOL    HW119793   1.431   2.973   6.467
 6298SOL    HW219794   1.485   2.895   6.335
 6299SOL     OW19795   5.147   1.608   6.887
 6299SOL    HW119796   5.058   1.579   6.852
 6299SOL    HW219797   5.217   1.541   6.858
 6300SOL     OW19798   5.409   0.632   0.055
 6300SOL    HW119799   5.451   0.717   0.022
 6300SOL    HW219800   5.320   0.620   0.011
 6301SOL     OW19801   3.790   0.716   0.867
 6301SOL    HW119802   3.784   0.738   0.964
 6301SOL    HW219803   3.880   0.675   0.848
 6302SOL     OW19804   1.935   0.678   3.756
 6302SOL    HW119805   2.010   0.742   3.745
 6302SOL    HW219806   1.962   0.604   3.818
 6303SOL     OW19807   1.889   1.156   4.499
 6303SOL    HW119808   1.794   1.147   4.469
 6303SOL    HW219809   1.891   1.201   4.589
 6304SOL     OW19810   2.353   1.323   1.369
 6304SOL    HW119811   2.263   1.284   1.389
 6304SOL    HW219812   2.345   1.421   1.354
 6305SOL     OW19813   6.094   0.033   2.104
 6305SOL    HW119814   6.106   7.021   2.197
 6305SOL    HW219815   6.104   0.133   2.106
 6306SOL     OW19816   1.495   3.495   4.331
 6306SOL    HW119817   1.593   3.498   4.349
 6306SOL    HW219818   1.446   3.543   4.404
 6307SOL     OW19819   4.002   4.292   5.598
 6307SOL    HW119820   4.078   4.318   5.539
 6307SOL    HW219821   3.942   4.229   5.548
 6308SOL     OW19822   2.120   2.219   4.625
 6308SOL    HW119823   2.040   2.277   4.645
 6308SOL    HW219824   2.135   2.217   4.526
 6309SOL     OW19825   5.318   4.174   4.645
 6309SOL    HW119826   5.341   4.265   4.679
 6309SOL    HW219827   5.373   4.152   4.565
 6310SOL     OW19828   2.144   5.603   3.174
 6310SOL    HW119829   2.092   5.683   3.203
 6310SOL    HW219830   2.157   5.605   3.075
 6311SOL     OW19831   4.994   0.748   5.677
 6311SOL    HW119832   5.084   0.755   5.634
 6311SOL    HW219833   4.962   0.839   5.703
 6312SOL     OW19834   5.804   5.410   5.706
 6312SOL    HW119835   5.726   5.385   5.648
 6312SOL    HW219836   5.874   5.455   5.651
 6313SOL     OW19837   1.375   6.473   3.941
 6313SOL    HW119838   1.308   6.403   3.915
 6313SOL    HW219839   1.465   6.447   3.906
 6314SOL     OW19840   3.996   6.455   1.672
 6314SOL    HW119841   4.039   6.406   1.748
 6314SOL    HW219842   3.898   6.466   1.690
 6315SOL     OW19843   3.454   3.275   6.317
 6315SOL    HW119844   3.395   3.301   6.241
 6315SOL    HW219845   3.427   3.185   6.351
 6316SOL     OW19846   4.671   1.685   6.620
 6316SOL    HW119847   4.604   1.677   6.694
 6316SOL    HW219848   4.758   1.645   6.650
 6317SOL     OW19849   4.928   5.707   2.673
 6317SOL    HW119850   4.921   5.782   2.738
 6317SOL    HW219851   4.996   5.641   2.705
 6318SOL     OW19852   2.931   1.925   4.859
 6318SOL    HW119853   2.907   1.920   4.955
 6318SOL    HW219854   2.865   1.873   4.805
 6319SOL     OW19855   6.774   2.300   4.149
 6319SOL    HW119856   6.854   2.290   4.090
 6319SOL    HW219857   6.709   2.226   4.131
 6320SOL     OW19858   5.864   5.552   5.018
 6320SOL    HW119859   5.801   5.629   5.025
 6320SOL    HW219860   5.827   5.485   4.954
 6321SOL     OW19861   3.089   3.526   1.087
 6321SOL    HW119862   3.155   3.601   1.079
 6321SOL    HW219863   3.098   3.483   1.177
 6322SOL     OW19864   1.764   2.197   0.070
 6322SOL    HW119865   1.820   2.280   0.070
 6322SOL    HW219866   1.699   2.201   7.018
 6323SOL     OW19867   2.837   2.713   1.243
 6323SOL    HW119868   2.784   2.661   1.310
 6323SOL    HW219869   2.840   2.663   1.157
 6324SOL     OW19870   5.193   0.179   6.421
 6324SOL    HW119871   5.137   0.163   6.340
 6324SOL    HW219872   5.277   0.227   6.395
 6325SOL     OW19873   2.271   1.949   2.389
 6325SOL    HW119874   2.229   1.859   2.401
 6325SOL    HW219875   2.345   1.942   2.323
 6326SOL     OW19876   5.061   5.378   1.472
 6326SOL    HW119877   5.117   5.343   1.398
 6326SOL    HW219878   5.096   5.467   1.501
 6327SOL     OW19879   0.217   0.098   5.084
 6327SOL    HW119880   0.200   0.104   5.182
 6327SOL    HW219881   0.167   0.171   5.037
 6328SOL     OW19882   2.048   4.123   0.713
 6328SOL    HW119883   2.142   4.155   0.719
 6328SOL    HW219884   1.990   4.178   0.774
 6329SOL     OW19885   2.353   2.851   3.082
 6329SOL    HW119886   2.332   2.811   3.171
 6329SOL    HW219887   2.376   2.778   3.018
 6330SOL     OW19888   4.629   0.968   0.967
 6330SOL    HW119889   4.576   1.047   0.935
 6330SOL    HW219890   4.581   0.925   1.043
 6331SOL     OW19891   6.367   2.160   6.946
 6331SOL    HW119892   6.396   2.230   7.012
 6331SOL    HW219893   6.308   2.094   6.991
 6332SOL     OW19894   6.089   3.553   1.757
 6332SOL    HW119895   6.139   3.488   1.814
 6332SOL    HW219896   6.037   3.615   1.815
 6333SOL     OW19897   4.450   5.506   5.082
 6333SOL    HW119898   4.382   5.569   5.121
 6333SOL    HW219899   4.468   5.531   4.987
 6334SOL     OW19900   3.280   6.975   1.966
 6334SOL    HW119901   3.238   7.009   1.882
 6334SOL    HW219902   3.273   6.876   1.970
 6335SOL     OW19903   4.586   1.137   0.372
 6335SOL    HW119904   4.538   1.186   0.445
 6335SOL    HW219905   4.524   1.126   0.294
 6336SOL     OW19906   0.910   1.793   6.273
 6336SOL    HW119907   0.979   1.849   6.321
 6336SOL    HW219908   0.835   1.772   6.336
 6337SOL     OW19909   4.605   4.515   6.253
 6337SOL    HW119910   4.618   4.543   6.158
 6337SOL    HW219911   4.683   4.460   6.283
 6338SOL     OW19912   3.345   1.910   3.337
 6338SOL    HW119913   3.332   1.866   3.248
 6338SOL    HW219914   3.332   1.842   3.409
 6339SOL     OW19915   1.461   2.741   2.699
 6339SOL    HW119916   1.547   2.790   2.688
 6339SOL    HW219917   1.437   2.736   2.796
 6340SOL     OW19918   1.679   4.697   2.597
 6340SOL    HW119919   1.719   4.646   2.521
 6340SOL    HW219920   1.589   4.731   2.571
 6341SOL     OW19921   0.750   4.270   4.183
 6341SOL    HW119922   0.691   4.347   4.159
 6341SOL    HW219923   0.714   4.223   4.263
 6342SOL     OW19924   2.660   1.948   1.807
 6342SOL    HW119925   2.741   2.003   1.828
 6342SOL    HW219926   2.688   1.853   1.792
 6343SOL     OW19927   4.806   2.143   6.549
 6343SOL    HW119928   4.799   2.198   6.466
 6343SOL    HW219929   4.889   2.167   6.599
 6344SOL     OW19930   5.852   3.393   5.174
 6344SOL    HW119931   5.937   3.354   5.140
 6344SOL    HW219932   5.822   3.467   5.113
 6345SOL     OW19933   5.182   1.784   2.203
 6345SOL    HW119934   5.178   1.694   2.158
 6345SOL    HW219935   5.094   1.831   2.191
 6346SOL     OW19936   6.784   4.506   3.965
 6346SOL    HW119937   6.860   4.571   3.970
 6346SOL    HW219938   6.790   4.440   4.040
 6347SOL     OW19939   1.943   0.299   1.271
 6347SOL    HW119940   2.010   0.275   1.201
 6347SOL    HW219941   1.947   0.233   1.346
 6348SOL     OW19942   1.805   4.166   5.058
 6348SOL    HW119943   1.879   4.231   5.078
 6348SOL    HW219944   1.752   4.149   5.140
 6349SOL     OW19945   3.175   0.261   1.304
 6349SOL    HW119946   3.219   0.286   1.218
 6349SOL    HW219947   3.177   0.339   1.366
 6350SOL     OW19948   2.558   4.572   4.225
 6350SOL    HW119949   2.580   4.541   4.133
 6350SOL    HW219950   2.615   4.651   4.248
 6351SOL     OW19951   6.230   3.657   3.136
 6351SOL    HW119952   6.312   3.603   3.150
 6351SOL    HW219953   6.151   3.596   3.129
 6352SOL     OW19954   3.095   5.160   4.984
 6352SOL    HW119955   3.185   5.201   4.999
 6352SOL    HW219956   3.099   5.096   4.908
 6353SOL     OW19957   0.406   0.669   5.930
 6353SOL    HW119958   0.467   0.748   5.939
 6353SOL    HW219959   0.363   0.670   5.840
 6354SOL     OW19960   2.028   5.887   3.289
 6354SOL    HW119961   2.080   5.883   3.374
 6354SOL    HW219962   1.956   5.955   3.297
 6355SOL     OW19963   0.841   5.363   6.208
 6355SOL    HW119964   0.787   5.299   6.154
 6355SOL    HW219965   0.783   5.438   6.240
 6356SOL     OW19966   3.612   4.967   2.285
 6356SOL    HW119967   3.635   5.063   2.276
 6356SOL    HW219968   3.677   4.923   2.347
 6357SOL     OW19969   5.130   3.007   2.232
 6357SOL    HW119970   5.037   3.025   2.199
 6357SOL    HW219971   5.134   3.028   2.330
 6358SOL     OW19972   1.476   2.072   6.343
 6358SOL    HW119973   1.449   2.135   6.416
 6358SOL    HW219974   1.468   1.977   6.376
 6359SOL     OW19975   6.267   6.802   5.808
 6359SOL    HW119976   6.252   6.875   5.742
 6359SOL    HW219977   6.357   6.761   5.792
 6360SOL     OW19978   1.524   3.942   3.816
 6360SOL    HW119979   1.450   4.004   3.790
 6360SOL    HW219980   1.570   3.909   3.733
 6361SOL     OW19981   6.088   0.544   0.480
 6361SOL    HW119982   6.083   0.625   0.423
 6361SOL    HW219983   6.117   0.570   0.572
 6362SOL     OW19984   0.257   6.098   0.659
 6362SOL    HW119985   0.259   6.022   0.594
 6362SOL    HW219986   0.296   6.069   0.746
 6363SOL     OW19987   2.292   4.098   3.550
 6363SOL    HW119988   2.319   4.154   3.628
 6363SOL    HW219989   2.267   4.156   3.473
 6364SOL     OW19990   3.150   1.535   6.027
 6364SOL    HW119991   3.133   1.458   5.965
 6364SOL    HW219992   3.073   1.599   6.022
 6365SOL     OW19993   5.645   0.263   4.396
 6365SOL    HW119994   5.568   0.204   4.422
 6365SOL    HW219995   5.728   0.208   4.388
 6366SOL     OW19996   1.014   5.812   6.287
 6366SOL    HW119997   0.946   5.876   6.323
 6366SOL    HW219998   0.972   5.752   6.220
 6367SOL     OW19999   4.186   6.933   4.546
 6367SOL    HW120000   4.206   6.942   4.449
 6367SOL    HW220001   4.201   6.838   4.575
 6368SOL     OW20002   3.427   5.790   3.466
 6368SOL    HW120003   3.479   5.706   3.457
 6368SOL    HW220004   3.389   5.816   3.377
 6369SOL     OW20005   1.908   4.696   4.355
 6369SOL    HW120006   1.861   4.780   4.381
 6369SOL    HW220007   1.902   4.683   4.256
 6370SOL     OW20008   0.377   3.723   2.657
 6370SOL    HW120009   0.386   3.781   2.738
 6370SOL    HW220010   0.386   3.779   2.575
 6371SOL     OW20011   5.247   3.598   4.374
 6371SOL    HW120012   5.243   3.498   4.369
 6371SOL    HW220013   5.154   3.634   4.376
 6372SOL     OW20014   3.441   0.201   1.812
 6372SOL    HW120015   3.426   0.108   1.847
 6372SOL    HW220016   3.477   0.196   1.719
 6373SOL     OW20017   5.687   4.190   3.703
 6373SOL    HW120018   5.695   4.275   3.651
 6373SOL    HW220019   5.664   4.115   3.640
 6374SOL     OW20020   3.206   3.743   4.453
 6374SOL    HW120021   3.137   3.753   4.525
 6374SOL    HW220022   3.163   3.707   4.370
 6375SOL     OW20023   7.000   1.534   4.223
 6375SOL    HW120024   6.972   1.596   4.151
 6375SOL    HW220025   6.971   1.441   4.201
 6376SOL     OW20026   6.307   2.444   5.124
 6376SOL    HW120027   6.219   2.418   5.083
 6376SOL    HW220028   6.377   2.379   5.094
 6377SOL     OW20029   6.215   1.608   5.696
 6377SOL    HW120030   6.229   1.600   5.597
 6377SOL    HW220031   6.234   1.701   5.725
 6378SOL     OW20032   5.110   5.532   3.891
 6378SOL    HW120033   5.183   5.592   3.923
 6378SOL    HW220034   5.037   5.587   3.850
 6379SOL     OW20035   2.369   4.332   4.293
 6379SOL    HW120036   2.381   4.429   4.273
 6379SOL    HW220037   2.351   4.320   4.391
 6380SOL     OW20038   0.861   1.489   6.393
 6380SOL    HW120039   0.877   1.508   6.297
 6380SOL    HW220040   0.772   1.526   6.421
 6381SOL     OW20041   4.158   3.119   1.963
 6381SOL    HW120042   4.233   3.056   1.985
 6381SOL    HW220043   4.140   3.115   1.865
 6382SOL     OW20044   0.643   2.134   0.620
 6382SOL    HW120045   0.586   2.118   0.700
 6382SOL    HW220046   0.667   2.047   0.578
 6383SOL     OW20047   1.985   1.995   2.947
 6383SOL    HW120048   2.034   2.049   2.879
 6383SOL    HW220049   1.993   1.897   2.926
 6384SOL     OW20050   5.543   4.461   1.278
 6384SOL    HW120051   5.456   4.508   1.264
 6384SOL    HW220052   5.542   4.373   1.231
 6385SOL     OW20053   0.100   5.298   3.862
 6385SOL    HW120054   0.123   5.227   3.795
 6385SOL    HW220055   0.045   5.258   3.935
 6386SOL     OW20056   2.380   4.676   6.620
 6386SOL    HW120057   2.463   4.622   6.634
 6386SOL    HW220058   2.394   4.740   6.544
 6387SOL     OW20059   0.937   1.902   6.588
 6387SOL    HW120060   0.976   1.993   6.576
 6387SOL    HW220061   0.839   1.910   6.610
 6388SOL     OW20062   4.297   4.592   1.172
 6388SOL    HW120063   4.243   4.636   1.242
 6388SOL    HW220064   4.283   4.493   1.176
 6389SOL     OW20065   1.189   6.401   2.767
 6389SOL    HW120066   1.136   6.333   2.816
 6389SOL    HW220067   1.159   6.493   2.793
 6390SOL     OW20068   1.113   1.784   4.750
 6390SOL    HW120069   1.050   1.852   4.788
 6390SOL    HW220070   1.086   1.762   4.656
 6391SOL     OW20071   2.610   6.700   5.580
 6391SOL    HW120072   2.695   6.718   5.532
 6391SOL    HW220073   2.541   6.768   5.553
 6392SOL     OW20074   1.960   0.070   3.546
 6392SOL    HW120075   1.968   0.157   3.498
 6392SOL    HW220076   1.895   0.079   3.621
 6393SOL     OW20077   6.080   0.270   1.546
 6393SOL    HW120078   6.119   0.179   1.533
 6393SOL    HW220079   6.114   0.331   1.475
 6394SOL     OW20080   2.404   4.736   0.873
 6394SOL    HW120081   2.311   4.772   0.864
 6394SOL    HW220082   2.425   4.676   0.796
 6395SOL     OW20083   6.250   2.834   2.090
 6395SOL    HW120084   6.153   2.825   2.068
 6395SOL    HW220085   6.277   2.930   2.083
 6396SOL     OW20086   5.339   3.131   6.344
 6396SOL    HW120087   5.375   3.066   6.411
 6396SOL    HW220088   5.410   3.199   6.322
 6397SOL     OW20089   5.589   2.593   6.324
 6397SOL    HW120090   5.557   2.550   6.240
 6397SOL    HW220091   5.521   2.659   6.355
 6398SOL     OW20092   3.024   0.395   0.757
 6398SOL    HW120093   3.078   0.316   0.726
 6398SOL    HW220094   3.000   0.383   0.853
 6399SOL     OW20095   1.217   5.435   6.951
 6399SOL    HW120096   1.281   5.363   6.979
 6399SOL    HW220097   1.134   5.393   6.913
 6400SOL     OW20098   2.062   6.644   2.168
 6400SOL    HW120099   2.053   6.555   2.214
 6400SOL    HW220100   2.145   6.644   2.112
 6401SOL     OW20101   0.567   4.576   3.694
 6401SOL    HW120102   0.594   4.634   3.771
 6401SOL    HW220103   0.630   4.499   3.687
 6402SOL     OW20104   4.544   1.343   3.060
 6402SOL    HW120105   4.467   1.394   3.021
 6402SOL    HW220106   4.604   1.405   3.110
 6403SOL     OW20107   6.730   6.438   6.539
 6403SOL    HW120108   6.731   6.445   6.638
 6403SOL    HW220109   6.644   6.395   6.510
 6404SOL     OW20110   4.248   1.381   2.705
 6404SOL    HW120111   4.201   1.296   2.680
 6404SOL    HW220112   4.194   1.459   2.674
 6405SOL     OW20113   2.469   0.511   3.649
 6405SOL    HW120114   2.397   0.465   3.596
 6405SOL    HW220115   2.553   0.458   3.643
 6406SOL     OW20116   1.524   2.549   3.729
 6406SOL    HW120117   1.472   2.520   3.809
 6406SOL    HW220118   1.600   2.486   3.714
 6407SOL     OW20119   2.952   6.995   3.959
 6407SOL    HW120120   3.028   0.023   3.997
 6407SOL    HW220121   2.865   0.010   3.991
 6408SOL     OW20122   6.086   1.969   0.307
 6408SOL    HW120123   6.140   2.049   0.331
 6408SOL    HW220124   6.009   1.960   0.370
 6409SOL     OW20125   0.422   4.658   3.299
 6409SOL    HW120126   0.363   4.637   3.222
 6409SOL    HW220127   0.368   4.658   3.383
 6410SOL     OW20128   2.102   1.537   0.404
 6410SOL    HW120129   2.165   1.609   0.375
 6410SOL    HW220130   2.092   1.470   0.331
 6411SOL     OW20131   0.342   2.699   3.404
 6411SOL    HW120132   0.299   2.734   3.487
 6411SOL    HW220133   0.284   2.628   3.364
 6412SOL     OW20134   0.485   2.615   5.159
 6412SOL    HW120135   0.549   2.542   5.183
 6412SOL    HW220136   0.437   2.645   5.242
 6413SOL     OW20137   4.345   4.633   3.170
 6413SOL    HW120138   4.333   4.651   3.268
 6413SOL    HW220139   4.383   4.542   3.158
 6414SOL     OW20140   5.896   0.800   1.050
 6414SOL    HW120141   5.801   0.781   1.026
 6414SOL    HW220142   5.905   0.895   1.081
 6415SOL     OW20143   1.938   2.493   3.366
 6415SOL    HW120144   1.839   2.488   3.378
 6415SOL    HW220145   1.961   2.487   3.269
 6416SOL     OW20146   1.163   1.066   6.140
 6416SOL    HW120147   1.224   0.988   6.124
 6416SOL    HW220148   1.161   1.087   6.238
 6417SOL     OW20149   6.677   4.349   1.925
 6417SOL    HW120150   6.605   4.292   1.885
 6417SOL    HW220151   6.763   4.299   1.924
 6418SOL     OW20152   4.663   4.842   1.675
 6418SOL    HW120153   4.706   4.759   1.639
 6418SOL    HW220154   4.566   4.843   1.651
 6419SOL     OW20155   2.524   4.544   2.629
 6419SOL    HW120156   2.535   4.531   2.530
 6419SOL    HW220157   2.433   4.514   2.657
 6420SOL     OW20158   3.162   3.824   5.336
 6420SOL    HW120159   3.221   3.846   5.258
 6420SOL    HW220160   3.079   3.879   5.332
 6421SOL     OW20161   5.720   1.325   2.147
 6421SOL    HW120162   5.645   1.315   2.213
 6421SOL    HW220163   5.762   1.415   2.158
 6422SOL     OW20164   0.132   0.384   4.394
 6422SOL    HW120165   0.227   0.375   4.425
 6422SOL    HW220166   0.130   0.432   4.306
 6423SOL     OW20167   4.771   4.815   2.454
 6423SOL    HW120168   4.748   4.826   2.357
 6423SOL    HW220169   4.742   4.897   2.504
 6424SOL     OW20170   6.497   5.987   5.246
 6424SOL    HW120171   6.523   6.060   5.309
 6424SOL    HW220172   6.440   6.025   5.173
 6425SOL     OW20173   6.242   6.080   3.081
 6425SOL    HW120174   6.146   6.108   3.078
 6425SOL    HW220175   6.247   5.982   3.100
 6426SOL     OW20176   0.624   5.073   3.400
 6426SOL    HW120177   0.674   5.093   3.485
 6426SOL    HW220178   0.621   5.156   3.344
 6427SOL     OW20179   2.486   3.197   6.005
 6427SOL    HW120180   2.537   3.122   6.047
 6427SOL    HW220181   2.497   3.193   5.905
 6428SOL     OW20182   6.474   2.774   6.704
 6428SOL    HW120183   6.412   2.838   6.659
 6428SOL    HW220184   6.562   2.774   6.658
 6429SOL     OW20185   0.892   1.610   5.814
 6429SOL    HW120186   0.879   1.561   5.900
 6429SOL    HW220187   0.989   1.625   5.799
 6430SOL     OW20188   5.382   1.091   2.085
 6430SOL    HW120189   5.469   1.043   2.093
 6430SOL    HW220190   5.360   1.103   1.988
 6431SOL     OW20191   5.463   6.468   3.437
 6431SOL    HW120192   5.452   6.369   3.440
 6431SOL    HW220193   5.557   6.492   3.460
 6432SOL     OW20194   4.185   3.584   6.682
 6432SOL    HW120195   4.161   3.663   6.627
 6432SOL    HW220196   4.209   3.507   6.623
 6433SOL     OW20197   3.701   4.148   0.596
 6433SOL    HW120198   3.610   4.107   0.586
 6433SOL    HW220199   3.719   4.165   0.693
 6434SOL     OW20200   1.910   3.565   0.346
 6434SOL    HW120201   1.894   3.614   0.431
 6434SOL    HW220202   1.855   3.606   0.273
 6435SOL     OW20203   3.983   6.389   0.119
 6435SOL    HW120204   4.012   6.420   0.028
 6435SOL    HW220205   3.950   6.295   0.114
 6436SOL     OW20206   2.138   3.143   3.443
 6436SOL    HW120207   2.039   3.138   3.452
 6436SOL    HW220208   2.162   3.143   3.346
 6437SOL     OW20209   2.470   0.912   1.027
 6437SOL    HW120210   2.407   0.843   1.063
 6437SOL    HW220211   2.469   0.993   1.085
 6438SOL     OW20212   0.783   4.647   6.661
 6438SOL    HW120213   0.782   4.687   6.753
 6438SOL    HW220214   0.872   4.605   6.644
 6439SOL     OW20215   6.496   0.842   1.626
 6439SOL    HW120216   6.510   0.746   1.605
 6439SOL    HW220217   6.400   0.858   1.648
 6440SOL     OW20218   2.205   1.864   0.556
 6440SOL    HW120219   2.268   1.788   0.542
 6440SOL    HW220220   2.111   1.830   0.562
 6441SOL     OW20221   1.378   6.614   2.393
 6441SOL    HW120222   1.311   6.676   2.435
 6441SOL    HW220223   1.334   6.564   2.318
 6442SOL     OW20224   2.772   0.812   3.750
 6442SOL    HW120225   2.859   0.855   3.775
 6442SOL    HW220226   2.760   0.818   3.651
 6443SOL     OW20227   4.196   2.544   6.198
 6443SOL    HW120228   4.139   2.566   6.119
 6443SOL    HW220229   4.284   2.508   6.167
 6444SOL     OW20230   6.732   2.547   3.886
 6444SOL    HW120231   6.794   2.618   3.853
 6444SOL    HW220232   6.783   2.483   3.944
 6445SOL     OW20233   4.988   2.912   5.902
 6445SOL    HW120234   5.075   2.959   5.887
 6445SOL    HW220235   4.913   2.977   5.890
 6446SOL     OW20236   1.300   0.801   6.104
 6446SOL    HW120237   1.338   0.814   6.013
 6446SOL    HW220238   1.348   0.727   6.151
 6447SOL     OW20239   0.211   5.425   2.775
 6447SOL    HW120240   0.254   5.338   2.799
 6447SOL    HW220241   0.255   5.461   2.692
 6448SOL     OW20242   4.806   4.852   2.941
 6448SOL    HW120243   4.741   4.787   2.902
 6448SOL    HW220244   4.878   4.872   2.874
 6449SOL     OW20245   2.829   4.734   0.097
 6449SOL    HW120246   2.732   4.755   0.086
 6449SOL    HW220247   2.839   4.655   0.158
 6450SOL     OW20248   0.095   3.843   1.105
 6450SOL    HW120249   0.091   3.861   1.203
 6450SOL    HW220250   0.056   3.753   1.085
 6451SOL     OW20251   2.710   6.728   5.264
 6451SOL    HW120252   2.654   6.650   5.237
 6451SOL    HW220253   2.769   6.702   5.340
 6452SOL     OW20254   3.432   6.448   4.628
 6452SOL    HW120255   3.436   6.502   4.544
 6452SOL    HW220256   3.446   6.351   4.605
 6453SOL     OW20257   1.115   6.942   0.408
 6453SOL    HW120258   1.120   6.847   0.437
 6453SOL    HW220259   1.131   7.002   0.487
 6454SOL     OW20260   3.328   1.684   3.490
 6454SOL    HW120261   3.423   1.666   3.462
 6454SOL    HW220262   3.271   1.605   3.467
 6455SOL     OW20263   0.151   2.124   4.111
 6455SOL    HW120264   0.127   2.061   4.037
 6455SOL    HW220265   0.128   2.082   4.199
 6456SOL     OW20266   1.516   0.616   3.828
 6456SOL    HW120267   1.556   0.643   3.916
 6456SOL    HW220268   1.539   0.685   3.759
 6457SOL     OW20269   4.769   1.348   0.770
 6457SOL    HW120270   4.829   1.276   0.736
 6457SOL    HW220271   4.823   1.419   0.814
 6458SOL     OW20272   1.056   0.346   3.246
 6458SOL    HW120273   1.068   0.281   3.322
 6458SOL    HW220274   1.139   0.400   3.235
 6459SOL     OW20275   5.878   5.132   0.517
 6459SOL    HW120276   5.889   5.217   0.466
 6459SOL    HW220277   5.941   5.131   0.595
 6460SOL     OW20278   4.464   5.236   5.661
 6460SOL    HW120279   4.428   5.326   5.684
 6460SOL    HW220280   4.564   5.240   5.656
 6461SOL     OW20281   2.703   4.741   5.280
 6461SOL    HW120282   2.698   4.689   5.365
 6461SOL    HW220283   2.741   4.683   5.208
 6462SOL     OW20284   2.418   2.679   5.057
 6462SOL    HW120285   2.426   2.670   5.157
 6462SOL    HW220286   2.427   2.775   5.032
 6463SOL     OW20287   0.751   3.805   6.850
 6463SOL    HW120288   0.812   3.726   6.851
 6463SOL    HW220289   0.733   3.832   6.756
 6464SOL     OW20290   1.150   5.463   5.035
 6464SOL    HW120291   1.058   5.424   5.032
 6464SOL    HW220292   1.214   5.400   4.991
 6465SOL     OW20293   6.373   2.338   3.584
 6465SOL    HW120294   6.455   2.390   3.606
 6465SOL    HW220295   6.330   2.377   3.502
 6466SOL     OW20296   0.973   1.264   6.526
 6466SOL    HW120297   0.945   1.196   6.459
 6466SOL    HW220298   0.972   1.355   6.483
 6467SOL     OW20299   3.309   1.068   0.072
 6467SOL    HW120300   3.242   0.995   0.061
 6467SOL    HW220301   3.386   1.053   0.009
 6468SOL     OW20302   4.246   6.763   1.915
 6468SOL    HW120303   4.276   6.844   1.863
 6468SOL    HW220304   4.147   6.767   1.928
 6469SOL     OW20305   4.216   0.729   5.540
 6469SOL    HW120306   4.310   0.706   5.513
 6469SOL    HW220307   4.209   0.827   5.556
 6470SOL     OW20308   6.204   5.543   6.667
 6470SOL    HW120309   6.296   5.530   6.704
 6470SOL    HW220310   6.199   5.633   6.624
 6471SOL     OW20311   6.375   6.351   5.721
 6471SOL    HW120312   6.396   6.415   5.795
 6471SOL    HW220313   6.284   6.312   5.736
 6472SOL     OW20314   0.526   4.292   1.392
 6472SOL    HW120315   0.506   4.375   1.443
 6472SOL    HW220316   0.444   4.233   1.391
 6473SOL     OW20317   2.231   1.629   4.212
 6473SOL    HW120318   2.227   1.655   4.309
 6473SOL    HW220319   2.148   1.660   4.166
 6474SOL     OW20320   1.857   3.839   5.971
 6474SOL    HW120321   1.880   3.899   5.894
 6474SOL    HW220322   1.905   3.752   5.960
 6475SOL     OW20323   0.154   5.389   4.400
 6475SOL    HW120324   0.185   5.329   4.325
 6475SOL    HW220325   0.087   5.453   4.364
 6476SOL     OW20326   4.567   3.599   1.171
 6476SOL    HW120327   4.492   3.641   1.119
 6476SOL    HW220328   4.563   3.499   1.159
 6477SOL     OW20329   6.936   5.199   1.210
 6477SOL    HW120330   6.849   5.150   1.212
 6477SOL    HW220331   6.957   5.228   1.117
 6478SOL     OW20332   3.894   5.924   2.519
 6478SOL    HW120333   3.869   5.845   2.574
 6478SOL    HW220334   3.989   5.950   2.538
 6479SOL     OW20335   3.805   5.692   3.397
 6479SOL    HW120336   3.775   5.784   3.373
 6479SOL    HW220337   3.858   5.695   3.482
 6480SOL     OW20338   3.002   1.981   5.703
 6480SOL    HW120339   3.029   1.976   5.799
 6480SOL    HW220340   3.003   2.076   5.673
 6481SOL     OW20341   3.313   2.084   2.340
 6481SOL    HW120342   3.269   2.091   2.430
 6481SOL    HW220343   3.247   2.107   2.268
 6482SOL     OW20344   0.475   0.451   6.112
 6482SOL    HW120345   0.441   0.514   6.042
 6482SOL    HW220346   0.534   0.500   6.175
 6483SOL     OW20347   1.826   5.933   1.578
 6483SOL    HW120348   1.787   6.018   1.543
 6483SOL    HW220349   1.916   5.951   1.618
 6484SOL     OW20350   3.921   0.482   2.120
 6484SOL    HW120351   3.981   0.421   2.069
 6484SOL    HW220352   3.911   0.568   2.071
 6485SOL     OW20353   1.595   3.943   2.999
 6485SOL    HW120354   1.592   3.852   2.959
 6485SOL    HW220355   1.572   3.938   3.096
 6486SOL     OW20356   1.815   4.222   4.593
 6486SOL    HW120357   1.834   4.317   4.565
 6486SOL    HW220358   1.809   4.165   4.511
 6487SOL     OW20359   6.764   5.894   5.430
 6487SOL    HW120360   6.720   5.982   5.411
 6487SOL    HW220361   6.809   5.861   5.347
 6488SOL     OW20362   3.001   5.857   5.433
 6488SOL    HW120363   3.095   5.859   5.399
 6488SOL    HW220364   2.991   5.923   5.508
 6489SOL     OW20365   2.415   3.389   6.590
 6489SOL    HW120366   2.394   3.291   6.590
 6489SOL    HW220367   2.492   3.407   6.651
 6490SOL     OW20368   4.160   1.898   6.332
 6490SOL    HW120369   4.084   1.892   6.397
 6490SOL    HW220370   4.242   1.929   6.379
 6491SOL     OW20371   4.080   1.348   6.866
 6491SOL    HW120372   4.083   1.303   6.777
 6491SOL    HW220373   4.000   1.315   6.917
 6492SOL     OW20374   5.398   5.908   0.030
 6492SOL    HW120375   5.425   5.876   6.964
 6492SOL    HW220376   5.480   5.930   0.083
 6493SOL     OW20377   1.155   5.527   4.590
 6493SOL    HW120378   1.176   5.503   4.496
 6493SOL    HW220379   1.114   5.618   4.593
 6494SOL     OW20380   0.751   1.260   3.177
 6494SOL    HW120381   0.660   1.238   3.211
 6494SOL    HW220382   0.748   1.275   3.078
 6495SOL     OW20383   4.697   6.019   4.485
 6495SOL    HW120384   4.720   5.957   4.559
 6495SOL    HW220385   4.698   5.970   4.398
 6496SOL     OW20386   0.287   6.979   1.904
 6496SOL    HW120387   0.215   0.021   1.884
 6496SOL    HW220388   0.371   0.004   1.926
 6497SOL     OW20389   2.649   3.778   0.049
 6497SOL    HW120390   2.600   3.691   0.042
 6497SOL    HW220391   2.694   3.798   6.986
 6498SOL     OW20392   2.273   4.189   3.835
 6498SOL    HW120393   2.326   4.234   3.907
 6498SOL    HW220394   2.224   4.110   3.874
 6499SOL     OW20395   5.576   2.197   5.055
 6499SOL    HW120396   5.513   2.274   5.067
 6499SOL    HW220397   5.624   2.207   4.968
 6500SOL     OW20398   6.579   4.697   3.990
 6500SOL    HW120399   6.601   4.628   3.921
 6500SOL    HW220400   6.505   4.756   3.956
 6501SOL     OW20401   6.338   2.957   6.563
 6501SOL    HW120402   6.272   3.012   6.614
 6501SOL    HW220403   6.296   2.926   6.478
 6502SOL     OW20404   6.077   4.013   1.974
 6502SOL    HW120405   6.016   4.076   1.926
 6502SOL    HW220406   6.153   3.988   1.914
 6503SOL     OW20407   5.404   0.320   3.934
 6503SOL    HW120408   5.323   0.372   3.907
 6503SOL    HW220409   5.480   0.382   3.951
 6504SOL     OW20410   5.039   6.618   6.250
 6504SOL    HW120411   4.952   6.667   6.244
 6504SOL    HW220412   5.052   6.563   6.168
 6505SOL     OW20413   5.236   5.003   1.491
 6505SOL    HW120414   5.288   5.004   1.406
 6505SOL    HW220415   5.293   5.041   1.565
 6506SOL     OW20416   6.397   3.558   1.629
 6506SOL    HW120417   6.297   3.551   1.622
 6506SOL    HW220418   6.422   3.570   1.726
 6507SOL     OW20419   1.739   5.580   5.709
 6507SOL    HW120420   1.716   5.487   5.682
 6507SOL    HW220421   1.835   5.584   5.739
 6508SOL     OW20422   2.795   0.866   3.481
 6508SOL    HW120423   2.830   0.835   3.392
 6508SOL    HW220424   2.824   0.961   3.496
 6509SOL     OW20425   2.695   2.116   3.801
 6509SOL    HW120426   2.779   2.168   3.787
 6509SOL    HW220427   2.617   2.177   3.800
 6510SOL     OW20428   6.605   4.160   6.946
 6510SOL    HW120429   6.544   4.150   6.868
 6510SOL    HW220430   6.696   4.187   6.914
 6511SOL     OW20431   4.666   0.790   5.075
 6511SOL    HW120432   4.747   0.778   5.134
 6511SOL    HW220433   4.630   0.882   5.086
 6512SOL     OW20434   5.190   0.120   1.686
 6512SOL    HW120435   5.106   0.088   1.729
 6512SOL    HW220436   5.231   0.192   1.742
 6513SOL     OW20437   3.372   5.086   2.906
 6513SOL    HW120438   3.352   5.121   2.997
 6513SOL    HW220439   3.316   5.005   2.888
 6514SOL     OW20440   5.958   0.414   3.268
 6514SOL    HW120441   5.881   0.471   3.238
 6514SOL    HW220442   5.925   0.322   3.288
 6515SOL     OW20443   0.660   4.921   4.091
 6515SOL    HW120444   0.752   4.956   4.074
 6515SOL    HW220445   0.600   4.996   4.120
 6516SOL     OW20446   0.248   3.289   1.373
 6516SOL    HW120447   0.344   3.315   1.363
 6516SOL    HW220448   0.241   3.211   1.436
 6517SOL     OW20449   6.776   1.388   0.678
 6517SOL    HW120450   6.870   1.423   0.680
 6517SOL    HW220451   6.736   1.395   0.769
 6518SOL     OW20452   0.025   0.471   7.023
 6518SOL    HW120453   0.066   0.562   7.018
 6518SOL    HW220454   7.020   0.443   6.931
 6519SOL     OW20455   2.637   2.000   3.512
 6519SOL    HW120456   2.537   2.007   3.522
 6519SOL    HW220457   2.679   2.008   3.602
 6520SOL     OW20458   5.331   5.559   2.250
 6520SOL    HW120459   5.235   5.556   2.276
 6520SOL    HW220460   5.386   5.523   2.326
 6521SOL     OW20461   1.481   2.264   4.299
 6521SOL    HW120462   1.520   2.325   4.231
 6521SOL    HW220463   1.396   2.225   4.264
 6522SOL     OW20464   3.419   4.631   6.929
 6522SOL    HW120465   3.418   4.668   6.836
 6522SOL    HW220466   3.402   4.704   6.995
 6523SOL     OW20467   3.244   0.719   6.704
 6523SOL    HW120468   3.342   0.703   6.702
 6523SOL    HW220469   3.209   0.731   6.611
 6524SOL     OW20470   2.904   3.290   2.192
 6524SOL    HW120471   2.867   3.201   2.219
 6524SOL    HW220472   2.875   3.311   2.099
 6525SOL     OW20473   1.649   3.653   2.877
 6525SOL    HW120474   1.718   3.621   2.943
 6525SOL    HW220475   1.680   3.633   2.784
 6526SOL     OW20476   2.349   7.011   5.971
 6526SOL    HW120477   2.267   6.960   5.995
 6526SOL    HW220478   2.346   0.013   5.875
 6527SOL     OW20479   0.625   1.748   4.433
 6527SOL    HW120480   0.591   1.819   4.371
 6527SOL    HW220481   0.695   1.694   4.386
 6528SOL     OW20482   0.190   1.014   3.536
 6528SOL    HW120483   0.256   1.043   3.605
 6528SOL    HW220484   0.120   1.084   3.524
 6529SOL     OW20485   6.974   1.682   3.262
 6529SOL    HW120486   6.972   1.706   3.165
 6529SOL    HW220487   6.963   1.583   3.273
 6530SOL     OW20488   6.484   3.644   1.871
 6530SOL    HW120489   6.516   3.720   1.814
 6530SOL    HW220490   6.563   3.598   1.912
 6531SOL     OW20491   5.633   3.911   4.798
 6531SOL    HW120492   5.722   3.874   4.822
 6531SOL    HW220493   5.638   3.953   4.707
 6532SOL     OW20494   6.448   0.620   6.857
 6532SOL    HW120495   6.365   0.644   6.906
 6532SOL    HW220496   6.425   0.563   6.778
 6533SOL     OW20497   4.533   6.112   1.110
 6533SOL    HW120498   4.436   6.105   1.135
 6533SOL    HW220499   4.577   6.024   1.126
 6534SOL     OW20500   3.126   4.061   1.479
 6534SOL    HW120501   3.093   4.134   1.419
 6534SOL    HW220502   3.188   4.001   1.428
 6535SOL     OW20503   6.797   3.217   4.222
 6535SOL    HW120504   6.744   3.246   4.302
 6535SOL    HW220505   6.741   3.158   4.164
 6536SOL     OW20506   0.703   2.624   5.602
 6536SOL    HW120507   0.740   2.669   5.521
 6536SOL    HW220508   0.749   2.536   5.615
 6537SOL     OW20509   5.817   5.730   0.184
 6537SOL    HW120510   5.761   5.690   0.112
 6537SOL    HW220511   5.913   5.704   0.171
 6538SOL     OW20512   3.253   4.361   0.175
 6538SOL    HW120513   3.262   4.356   0.076
 6538SOL    HW220514   3.215   4.450   0.201
 6539SOL     OW20515   3.078   1.091   6.351
 6539SOL    HW120516   3.168   1.135   6.353
 6539SOL    HW220517   3.008   1.158   6.325
 6540SOL     OW20518   4.729   1.422   5.285
 6540SOL    HW120519   4.701   1.507   5.240
 6540SOL    HW220520   4.780   1.444   5.368
 6541SOL     OW20521   4.054   1.651   5.394
 6541SOL    HW120522   4.066   1.741   5.436
 6541SOL    HW220523   3.981   1.656   5.326
 6542SOL     OW20524   6.980   4.936   3.833
 6542SOL    HW120525   6.981   4.837   3.849
 6542SOL    HW220526   6.887   4.971   3.847
 6543SOL     OW20527   6.289   4.021   6.950
 6543SOL    HW120528   6.332   4.057   0.008
 6543SOL    HW220529   6.237   4.095   6.905
 6544SOL     OW20530   0.495   6.184   2.609
 6544SOL    HW120531   0.484   6.108   2.673
 6544SOL    HW220532   0.436   6.260   2.637
 6545SOL     OW20533   5.308   1.954   6.497
 6545SOL    HW120534   5.282   2.029   6.558
 6545SOL    HW220535   5.299   1.867   6.545
 6546SOL     OW20536   4.431   4.080   6.569
 6546SOL    HW120537   4.414   4.128   6.484
 6546SOL    HW220538   4.380   4.124   6.644
 6547SOL     OW20539   4.816   1.579   5.725
 6547SOL    HW120540   4.717   1.570   5.710
 6547SOL    HW220541   4.833   1.609   5.818
 6548SOL     OW20542   0.705   3.185   0.021
 6548SOL    HW120543   0.763   3.104   0.026
 6548SOL    HW220544   0.672   3.208   0.112
 6549SOL     OW20545   4.154   1.565   0.464
 6549SOL    HW120546   4.249   1.557   0.492
 6549SOL    HW220547   4.095   1.574   0.544
 6550SOL     OW20548   0.402   6.655   3.566
 6550SOL    HW120549   0.364   6.673   3.657
 6550SOL    HW220550   0.403   6.740   3.513
 6551SOL     OW20551   2.039   4.415   2.049
 6551SOL    HW120552   2.052   4.484   1.978
 6551SOL    HW220553   2.128   4.385   2.085
 6552SOL     OW20554   2.412   6.708   5.174
 6552SOL    HW120555   2.476   6.634   5.193
 6552SOL    HW220556   2.349   6.718   5.251
 6553SOL     OW20557   0.561   1.785   2.486
 6553SOL    HW120558   0.621   1.780   2.566
 6553SOL    HW220559   0.515   1.698   2.473
 6554SOL     OW20560   6.515   1.716   5.620
 6554SOL    HW120561   6.438   1.775   5.644
 6554SOL    HW220562   6.481   1.625   5.596
 6555SOL     OW20563   1.080   2.286   1.641
 6555SOL    HW120564   0.990   2.319   1.669
 6555SOL    HW220565   1.113   2.219   1.708
 6556SOL     OW20566   4.562   4.730   5.051
 6556SOL    HW120567   4.573   4.825   5.024
 6556SOL    HW220568   4.484   4.690   5.003
 6557SOL     OW20569   4.291   5.381   1.609
 6557SOL    HW120570   4.347   5.322   1.667
 6557SOL    HW220571   4.336   5.470   1.597
 6558SOL     OW20572   6.517   5.738   0.366
 6558SOL    HW120573   6.562   5.823   0.340
 6558SOL    HW220574   6.423   5.738   0.332
 6559SOL     OW20575   6.858   3.994   6.874
 6559SOL    HW120576   6.892   3.981   6.781
 6559SOL    HW220577   6.880   4.087   6.905
 6560SOL     OW20578   3.936   3.533   0.850
 6560SOL    HW120579   3.844   3.550   0.816
 6560SOL    HW220580   3.938   3.445   0.899
 6561SOL     OW20581   3.538   3.967   2.262
 6561SOL    HW120582   3.527   3.975   2.361
 6561SOL    HW220583   3.470   4.024   2.216
 6562SOL     OW20584   5.883   4.651   6.781
 6562SOL    HW120585   5.923   4.637   6.690
 6562SOL    HW220586   5.895   4.569   6.836
 6563SOL     OW20587   0.032   6.186   0.375
 6563SOL    HW120588   0.075   6.230   0.297
 6563SOL    HW220589   0.046   6.241   0.457
 6564SOL     OW20590   6.531   4.056   2.761
 6564SOL    HW120591   6.572   4.074   2.850
 6564SOL    HW220592   6.592   4.088   2.688
 6565SOL     OW20593   6.159   2.465   4.223
 6565SOL    HW120594   6.181   2.562   4.233
 6565SOL    HW220595   6.060   2.453   4.225
 6566SOL     OW20596   3.057   0.144   1.537
 6566SOL    HW120597   3.007   0.058   1.528
 6566SOL    HW220598   3.121   0.154   1.460
 6567SOL     OW20599   4.058   2.773   1.387
 6567SOL    HW120600   4.033   2.839   1.457
 6567SOL    HW220601   4.013   2.686   1.406
 6568SOL     OW20602   5.015   6.354   3.036
 6568SOL    HW120603   4.990   6.267   3.079
 6568SOL    HW220604   4.945   6.422   3.056
 6569SOL     OW20605   3.529   3.884   0.699
 6569SOL    HW120606   3.497   3.966   0.651
 6569SOL    HW220607   3.451   3.829   0.728
 6570SOL     OW20608   4.660   6.762   2.090
 6570SOL    HW120609   4.709   6.844   2.121
 6570SOL    HW220610   4.712   6.718   2.017
 6571SOL     OW20611   2.832   6.191   1.970
 6571SOL    HW120612   2.870   6.283   1.961
 6571SOL    HW220613   2.888   6.126   1.919
 6572SOL     OW20614   6.696   5.644   5.559
 6572SOL    HW120615   6.721   5.738   5.540
 6572SOL    HW220616   6.618   5.618   5.502
 6573SOL     OW20617   2.785   0.748   3.000
 6573SOL    HW120618   2.802   0.839   3.036
 6573SOL    HW220619   2.867   0.691   3.013
 6574SOL     OW20620   2.923   6.033   2.359
 6574SOL    HW120621   2.964   5.979   2.286
 6574SOL    HW220622   2.993   6.089   2.403
 6575SOL     OW20623   0.915   1.419   1.952
 6575SOL    HW120624   0.951   1.326   1.951
 6575SOL    HW220625   0.895   1.449   1.858
 6576SOL     OW20626   1.290   6.571   6.490
 6576SOL    HW120627   1.281   6.657   6.439
 6576SOL    HW220628   1.387   6.549   6.502
 6577SOL     OW20629   0.557   2.171   3.415
 6577SOL    HW120630   0.464   2.191   3.445
 6577SOL    HW220631   0.554   2.101   3.343
 6578SOL     OW20632   0.281   4.378   2.789
 6578SOL    HW120633   0.327   4.299   2.829
 6578SOL    HW220634   0.254   4.357   2.695
 6579SOL     OW20635   0.249   3.876   4.728
 6579SOL    HW120636   0.216   3.879   4.633
 6579SOL    HW220637   0.307   3.795   4.739
 6580SOL     OW20638   0.140   1.215   1.215
 6580SOL    HW120639   0.100   1.180   1.131
 6580SOL    HW220640   0.097   1.170   1.294
 6581SOL     OW20641   3.269   1.559   6.671
 6581SOL    HW120642   3.259   1.654   6.641
 6581SOL    HW220643   3.359   1.526   6.644
 6582SOL     OW20644   1.791   0.695   2.211
 6582SOL    HW120645   1.813   0.670   2.116
 6582SOL    HW220646   1.848   0.772   2.239
 6583SOL     OW20647   4.287   0.215   5.346
 6583SOL    HW120648   4.189   0.230   5.357
 6583SOL    HW220649   4.335   0.303   5.351
 6584SOL     OW20650   5.009   1.829   6.983
 6584SOL    HW120651   5.072   1.757   6.955
 6584SOL    HW220652   4.959   1.863   6.903
 6585SOL     OW20653   6.919   1.026   0.390
 6585SOL    HW120654   6.934   1.085   0.470
 6585SOL    HW220655   6.827   1.043   0.354
 6586SOL     OW20656   6.339   2.581   6.216
 6586SOL    HW120657   6.299   2.598   6.306
 6586SOL    HW220658   6.390   2.495   6.218
 6587SOL     OW20659   2.596   5.598   4.835
 6587SOL    HW120660   2.547   5.665   4.779
 6587SOL    HW220661   2.679   5.568   4.786
 6588SOL     OW20662   1.731   4.194   1.746
 6588SOL    HW120663   1.771   4.285   1.755
 6588SOL    HW220664   1.670   4.176   1.823
 6589SOL     OW20665   4.822   0.198   6.480
 6589SOL    HW120666   4.818   0.177   6.578
 6589SOL    HW220667   4.878   0.280   6.465
 6590SOL     OW20668   0.605   1.175   5.972
 6590SOL    HW120669   0.575   1.195   5.879
 6590SOL    HW220670   0.620   1.261   6.021
 6591SOL     OW20671   5.107   6.216   2.705
 6591SOL    HW120672   5.033   6.262   2.655
 6591SOL    HW220673   5.166   6.285   2.746
 6592SOL     OW20674   5.977   6.757   4.028
 6592SOL    HW120675   6.044   6.737   3.957
 6592SOL    HW220676   5.895   6.797   3.986
 6593SOL     OW20677   2.372   2.053   3.561
 6593SOL    HW120678   2.355   1.966   3.607
 6593SOL    HW220679   2.301   2.068   3.492
 6594SOL     OW20680   3.930   1.895   0.185
 6594SOL    HW120681   3.864   1.958   0.226
 6594SOL    HW220682   4.002   1.875   0.252
 6595SOL     OW20683   0.773   3.315   0.961
 6595SOL    HW120684   0.842   3.328   1.033
 6595SOL    HW220685   0.814   3.336   0.872
 6596SOL     OW20686   3.388   0.135   4.517
 6596SOL    HW120687   3.333   0.054   4.497
 6596SOL    HW220688   3.438   0.163   4.435
 6597SOL     OW20689   1.620   6.394   3.187
 6597SOL    HW120690   1.679   6.452   3.242
 6597SOL    HW220691   1.675   6.336   3.127
 6598SOL     OW20692   0.450   0.007   4.299
 6598SOL    HW120693   0.498   6.984   4.374
 6598SOL    HW220694   0.431   6.967   4.226
 6599SOL     OW20695   3.270   5.692   5.565
 6599SOL    HW120696   3.285   5.785   5.599
 6599SOL    HW220697   3.177   5.685   5.529
 6600SOL     OW20698   4.640   5.005   6.108
 6600SOL    HW120699   4.721   4.997   6.167
 6600SOL    HW220700   4.668   5.039   6.018
 6601SOL     OW20701   0.681   1.156   6.746
 6601SOL    HW120702   0.689   1.218   6.668
 6601SOL    HW220703   0.761   1.095   6.748
 6602SOL     OW20704   7.018   1.147   1.946
 6602SOL    HW120705   6.985   1.237   1.974
 6602SOL    HW220706   0.038   1.101   2.023
 6603SOL     OW20707   0.932   2.771   4.118
 6603SOL    HW120708   1.026   2.740   4.104
 6603SOL    HW220709   0.920   2.862   4.077
 6604SOL     OW20710   2.268   6.391   0.552
 6604SOL    HW120711   2.279   6.413   0.455
 6604SOL    HW220712   2.183   6.430   0.586
 6605SOL     OW20713   5.768   4.545   0.905
 6605SOL    HW120714   5.755   4.643   0.895
 6605SOL    HW220715   5.861   4.521   0.878
 6606SOL     OW20716   5.286   0.276   2.535
 6606SOL    HW120717   5.218   0.218   2.579
 6606SOL    HW220718   5.289   0.365   2.581
 6607SOL     OW20719   1.837   2.413   1.324
 6607SOL    HW120720   1.848   2.415   1.224
 6607SOL    HW220721   1.800   2.501   1.354
 6608SOL     OW20722   4.821   6.283   1.999
 6608SOL    HW120723   4.854   6.190   1.986
 6608SOL    HW220724   4.880   6.347   1.949
 6609SOL     OW20725   4.295   0.777   6.000
 6609SOL    HW120726   4.328   0.722   6.077
 6609SOL    HW220727   4.349   0.862   5.995
 6610SOL     OW20728   2.492   1.209   6.211
 6610SOL    HW120729   2.424   1.197   6.283
 6610SOL    HW220730   2.544   1.293   6.229
 6611SOL     OW20731   6.219   2.837   3.380
 6611SOL    HW120732   6.154   2.866   3.451
 6611SOL    HW220733   6.171   2.829   3.293
 6612SOL     OW20734   0.171   2.841   6.806
 6612SOL    HW120735   0.073   2.826   6.790
 6612SOL    HW220736   0.206   2.904   6.737
 6613SOL     OW20737   5.792   6.096   4.513
 6613SOL    HW120738   5.866   6.061   4.455
 6613SOL    HW220739   5.822   6.096   4.608
 6614SOL     OW20740   5.494   6.232   6.991
 6614SOL    HW120741   5.496   6.245   0.065
 6614SOL    HW220742   5.586   6.243   6.953
 6615SOL     OW20743   0.779   4.368   3.741
 6615SOL    HW120744   0.822   4.409   3.822
 6615SOL    HW220745   0.847   4.319   3.687
 6616SOL     OW20746   4.319   1.250   6.378
 6616SOL    HW120747   4.281   1.165   6.341
 6616SOL    HW220748   4.259   1.286   6.449
 6617SOL     OW20749   2.879   5.910   3.196
 6617SOL    HW120750   2.940   5.946   3.125
 6617SOL    HW220751   2.922   5.831   3.240
 6618SOL     OW20752   1.180   3.090   3.083
 6618SOL    HW120753   1.254   3.138   3.130
 6618SOL    HW220754   1.096   3.097   3.137
 6619SOL     OW20755   6.928   6.608   4.365
 6619SOL    HW120756   6.991   6.602   4.287
 6619SOL    HW220757   6.955   6.684   4.424
 6620SOL     OW20758   2.551   2.491   5.365
 6620SOL    HW120759   2.520   2.579   5.328
 6620SOL    HW220760   2.631   2.460   5.313
 6621SOL     OW20761   2.075   3.225   6.613
 6621SOL    HW120762   2.146   3.156   6.628
 6621SOL    HW220763   2.005   3.188   6.552
 6622SOL     OW20764   5.964   6.120   1.300
 6622SOL    HW120765   5.956   6.052   1.372
 6622SOL    HW220766   6.059   6.150   1.292
 6623SOL     OW20767   2.876   3.480   0.789
 6623SOL    HW120768   2.954   3.460   0.849
 6623SOL    HW220769   2.812   3.541   0.836
 6624SOL     OW20770   1.613   0.471   4.474
 6624SOL    HW120771   1.580   0.420   4.554
 6624SOL    HW220772   1.577   0.430   4.391
 6625SOL     OW20773   5.200   1.986   5.923
 6625SOL    HW120774   5.273   1.981   5.855
 6625SOL    HW220775   5.219   2.061   5.987
 6626SOL     OW20776   4.276   4.923   5.087
 6626SOL    HW120777   4.183   4.945   5.116
 6626SOL    HW220778   4.330   4.896   5.166
 6627SOL     OW20779   2.427   0.728   6.031
 6627SOL    HW120780   2.448   0.795   5.960
 6627SOL    HW220781   2.359   0.664   5.998
 6628SOL     OW20782   4.841   4.610   4.236
 6628SOL    HW120783   4.830   4.688   4.298
 6628SOL    HW220784   4.936   4.578   4.240
 6629SOL     OW20785   2.662   5.658   6.789
 6629SOL    HW120786   2.734   5.671   6.720
 6629SOL    HW220787   2.590   5.600   6.752
 6630SOL     OW20788   3.070   1.474   1.648
 6630SOL    HW120789   3.095   1.384   1.612
 6630SOL    HW220790   2.992   1.465   1.710
 6631SOL     OW20791   3.756   0.374   2.315
 6631SOL    HW120792   3.676   0.433   2.311
 6631SOL    HW220793   3.817   0.395   2.238
 6632SOL     OW20794   0.668   0.214   2.359
 6632SOL    HW120795   0.674   0.264   2.446
 6632SOL    HW220796   0.572   0.208   2.331
 6633SOL     OW20797   1.006   4.484   5.416
 6633SOL    HW120798   0.951   4.418   5.367
 6633SOL    HW220799   1.046   4.550   5.352
 6634SOL     OW20800   6.061   3.036   5.034
 6634SOL    HW120801   6.063   2.936   5.028
 6634SOL    HW220802   6.150   3.072   5.004
 6635SOL     OW20803   3.690   5.392   3.662
 6635SOL    HW120804   3.788   5.410   3.658
 6635SOL    HW220805   3.667   5.352   3.751
 6636SOL     OW20806   3.740   1.961   5.923
 6636SOL    HW120807   3.679   1.887   5.896
 6636SOL    HW220808   3.690   2.026   5.980
 6637SOL     OW20809   1.811   0.421   6.001
 6637SOL    HW120810   1.736   0.355   6.004
 6637SOL    HW220811   1.775   0.514   6.006
 6638SOL     OW20812   3.620   4.218   4.836
 6638SOL    HW120813   3.647   4.146   4.772
 6638SOL    HW220814   3.690   4.290   4.836
 6639SOL     OW20815   5.734   5.375   0.192
 6639SOL    HW120816   5.678   5.441   0.242
 6639SOL    HW220817   5.681   5.291   0.179
 6640SOL     OW20818   0.530   1.701   5.146
 6640SOL    HW120819   0.553   1.652   5.062
 6640SOL    HW220820   0.439   1.741   5.137
 6641SOL     OW20821   2.234   2.251   0.024
 6641SOL    HW120822   2.174   2.298   0.087
 6641SOL    HW220823   2.299   2.194   0.075
 6642SOL     OW20824   2.742   5.594   0.247
 6642SOL    HW120825   2.654   5.549   0.231
 6642SOL    HW220826   2.733   5.656   0.324
 6643SOL     OW20827   6.750   4.962   6.773
 6643SOL    HW120828   6.781   5.018   6.851
 6643SOL    HW220829   6.665   4.916   6.797
 6644SOL     OW20830   2.883   4.714   1.673
 6644SOL    HW120831   2.806   4.688   1.613
 6644SOL    HW220832   2.876   4.663   1.759
 6645SOL     OW20833   7.015   4.974   0.040
 6645SOL    HW120834   6.928   4.925   0.046
 6645SOL    HW220835   0.015   5.011   0.130
 6646SOL     OW20836   3.864   0.106   4.364
 6646SOL    HW120837   3.883   0.203   4.379
 6646SOL    HW220838   3.855   0.059   4.452
 6647SOL     OW20839   4.043   0.902   2.191
 6647SOL    HW120840   4.071   0.902   2.095
 6647SOL    HW220841   3.963   0.961   2.202
 6648SOL     OW20842   3.258   5.816   2.381
 6648SOL    HW120843   3.236   5.797   2.477
 6648SOL    HW220844   3.331   5.754   2.351
 6649SOL     OW20845   4.704   1.449   0.133
 6649SOL    HW120846   4.676   1.532   0.181
 6649SOL    HW220847   4.749   1.387   0.197
 6650SOL     OW20848   3.586   1.174   5.317
 6650SOL    HW120849   3.508   1.199   5.260
 6650SOL    HW220850   3.563   1.189   5.413
 6651SOL     OW20851   2.051   1.311   6.873
 6651SOL    HW120852   1.957   1.339   6.888
 6651SOL    HW220853   2.053   1.228   6.816
 6652SOL     OW20854   6.980   5.124   0.286
 6652SOL    HW120855   6.932   5.057   0.343
 6652SOL    HW220856   6.921   5.203   0.271
 6653SOL     OW20857   3.426   3.396   2.098
 6653SOL    HW120858   3.493   3.328   2.129
 6653SOL    HW220859   3.334   3.357   2.103
 6654SOL     OW20860   1.645   3.107   0.899
 6654SOL    HW120861   1.641   3.095   0.998
 6654SOL    HW220862   1.595   3.190   0.873
 6655SOL     OW20863   3.382   6.669   1.332
 6655SOL    HW120864   3.448   6.743   1.346
 6655SOL    HW220865   3.373   6.651   1.235
 6656SOL     OW20866   6.406   1.937   2.025
 6656SOL    HW120867   6.414   1.880   2.107
 6656SOL    HW220868   6.379   2.030   2.052
 6657SOL     OW20869   5.299   6.091   6.339
 6657SOL    HW120870   5.300   6.170   6.279
 6657SOL    HW220871   5.362   6.105   6.415
 6658SOL     OW20872   5.790   1.750   4.950
 6658SOL    HW120873   5.877   1.800   4.960
 6658SOL    HW220874   5.798   1.661   4.995
 6659SOL     OW20875   2.164   2.117   0.838
 6659SOL    HW120876   2.237   2.105   0.771
 6659SOL    HW220877   2.075   2.118   0.792
 6660SOL     OW20878   0.694   6.094   0.990
 6660SOL    HW120879   0.771   6.034   0.969
 6660SOL    HW220880   0.612   6.039   1.005
 6661SOL     OW20881   0.780   6.040   3.434
 6661SOL    HW120882   0.696   5.992   3.406
 6661SOL    HW220883   0.761   6.137   3.446
 6662SOL     OW20884   1.194   0.727   6.804
 6662SOL    HW120885   1.279   0.687   6.835
 6662SOL    HW220886   1.184   0.819   6.844
 6663SOL     OW20887   0.027   5.257   3.116
 6663SOL    HW120888   7.014   5.241   3.208
 6663SOL    HW220889   0.126   5.264   3.121
 6664SOL     OW20890   1.807   0.166   0.677
 6664SOL    HW120891   1.742   0.242   0.672
 6664SOL    HW220892   1.760   0.085   0.713
 6665SOL     OW20893   1.778   6.942   3.399
 6665SOL    HW120894   1.701   7.005   3.387
 6665SOL    HW220895   1.855   6.991   3.440
 6666SOL     OW20896   5.816   0.591   6.276
 6666SOL    HW120897   5.745   0.661   6.273
 6666SOL    HW220898   5.901   0.632   6.309
 6667SOL     OW20899   6.733   5.095   5.565
 6667SOL    HW120900   6.793   5.035   5.511
 6667SOL    HW220901   6.755   5.190   5.544
 6668SOL     OW20902   6.028   5.731   1.788
 6668SOL    HW120903   6.058   5.643   1.753
 6668SOL    HW220904   6.099   5.769   1.847
 6669SOL     OW20905   2.213   2.809   3.794
 6669SOL    HW120906   2.250   2.751   3.867
 6669SOL    HW220907   2.225   2.905   3.818
 6670SOL     OW20908   3.515   2.385   5.720
 6670SOL    HW120909   3.494   2.291   5.745
 6670SOL    HW220910   3.457   2.413   5.643
 6671SOL     OW20911   5.024   5.639   1.278
 6671SOL    HW120912   5.076   5.623   1.362
 6671SOL    HW220913   5.077   5.699   1.218
 6672SOL     OW20914   0.591   2.106   5.484
 6672SOL    HW120915   0.587   2.021   5.432
 6672SOL    HW220916   0.632   2.089   5.573
 6673SOL     OW20917   5.380   6.016   3.142
 6673SOL    HW120918   5.401   5.943   3.207
 6673SOL    HW220919   5.331   6.090   3.188
 6674SOL     OW20920   0.677   4.916   6.076
 6674SOL    HW120921   0.730   4.839   6.040
 6674SOL    HW220922   0.605   4.881   6.136
 6675SOL     OW20923   4.208   4.037   1.722
 6675SOL    HW120924   4.115   4.067   1.744
 6675SOL    HW220925   4.274   4.104   1.756
 6676SOL     OW20926   0.665   4.497   5.329
 6676SOL    HW120927   0.593   4.478   5.397
 6676SOL    HW220928   0.724   4.416   5.320
 6677SOL     OW20929   1.160   1.840   6.760
 6677SOL    HW120930   1.072   1.871   6.723
 6677SOL    HW220931   1.165   1.863   6.857
 6678SOL     OW20932   2.497   2.737   0.473
 6678SOL    HW120933   2.588   2.757   0.435
 6678SOL    HW220934   2.505   2.664   0.541
 6679SOL     OW20935   2.993   1.368   4.116
 6679SOL    HW120936   2.951   1.448   4.073
 6679SOL    HW220937   2.947   1.350   4.203
 6680SOL     OW20938   4.647   6.609   6.653
 6680SOL    HW120939   4.703   6.624   6.735
 6680SOL    HW220940   4.616   6.697   6.618
 6681SOL     OW20941   4.948   5.093   0.247
 6681SOL    HW120942   5.029   5.143   0.217
 6681SOL    HW220943   4.960   4.996   0.227
 6682SOL     OW20944   1.437   4.640   2.394
 6682SOL    HW120945   1.446   4.550   2.437
 6682SOL    HW220946   1.363   4.690   2.439
 6683SOL     OW20947   4.844   2.618   5.622
 6683SOL    HW120948   4.789   2.700   5.609
 6683SOL    HW220949   4.901   2.603   5.541
 6684SOL     OW20950   2.317   6.639   0.632
 6684SOL    HW120951   2.327   6.540   0.621
 6684SOL    HW220952   2.351   6.685   0.551
 6685SOL     OW20953   5.543   3.007   5.561
 6685SOL    HW120954   5.541   3.091   5.506
 6685SOL    HW220955   5.598   2.938   5.514
 6686SOL     OW20956   5.158   6.060   4.091
 6686SOL    HW120957   5.209   5.997   4.032
 6686SOL    HW220958   5.084   6.011   4.137
 6687SOL     OW20959   7.017   2.103   1.273
 6687SOL    HW120960   6.946   2.172   1.288
 6687SOL    HW220961   6.984   2.036   1.206
 6688SOL     OW20962   6.582   4.030   2.097
 6688SOL    HW120963   6.662   4.085   2.124
 6688SOL    HW220964   6.504   4.090   2.083
 6689SOL     OW20965   4.279   3.098   0.401
 6689SOL    HW120966   4.232   3.166   0.345
 6689SOL    HW220967   4.351   3.055   0.347
 6690SOL     OW20968   2.342   0.895   1.981
 6690SOL    HW120969   2.434   0.863   1.999
 6690SOL    HW220970   2.335   0.992   2.005
 6691SOL     OW20971   3.034   6.242   1.756
 6691SOL    HW120972   3.008   6.337   1.773
 6691SOL    HW220973   3.126   6.239   1.717
 6692SOL     OW20974   2.942   4.365   5.624
 6692SOL    HW120975   2.969   4.278   5.666
 6692SOL    HW220976   2.941   4.354   5.524
 6693SOL     OW20977   4.029   3.150   5.831
 6693SOL    HW120978   3.932   3.155   5.806
 6693SOL    HW220979   4.043   3.200   5.917
 6694SOL     OW20980   5.266   6.369   0.310
 6694SOL    HW120981   5.231   6.449   0.262
 6694SOL    HW220982   5.352   6.340   0.269
 6695SOL     OW20983   2.276   2.236   5.576
 6695SOL    HW120984   2.350   2.176   5.546
 6695SOL    HW220985   2.308   2.296   5.649
 6696SOL     OW20986   1.809   2.714   0.287
 6696SOL    HW120987   1.795   2.633   0.345
 6696SOL    HW220988   1.838   2.791   0.344
 6697SOL     OW20989   5.057   2.422   3.477
 6697SOL    HW120990   5.018   2.482   3.407
 6697SOL    HW220991   5.155   2.410   3.459
 6698SOL     OW20992   2.931   2.900   0.587
 6698SOL    HW120993   2.982   2.820   0.617
 6698SOL    HW220994   2.995   2.968   0.549
 6699SOL     OW20995   3.334   5.134   6.467
 6699SOL    HW120996   3.420   5.185   6.464
 6699SOL    HW220997   3.260   5.194   6.495
 6700SOL     OW20998   0.157   6.206   1.313
 6700SOL    HW120999   0.087   6.263   1.357
 6700SOL    HW221000   0.222   6.174   1.382
 6701SOL     OW21001   5.380   3.131   1.021
 6701SOL    HW121002   5.368   3.050   0.963
 6701SOL    HW221003   5.314   3.128   1.096
 6702SOL     OW21004   2.321   2.794   0.284
 6702SOL    HW121005   2.355   2.882   0.249
 6702SOL    HW221006   2.392   2.752   0.341
 6703SOL     OW21007   6.503   1.673   6.911
 6703SOL    HW121008   6.452   1.615   6.847
 6703SOL    HW221009   6.554   1.742   6.860
 6704SOL     OW21010   4.543   2.269   2.425
 6704SOL    HW121011   4.478   2.292   2.353
 6704SOL    HW221012   4.603   2.347   2.443
 6705SOL     OW21013   0.026   2.355   2.062
 6705SOL    HW121014   0.028   2.407   2.147
 6705SOL    HW221015   0.036   2.258   2.081
 6706SOL     OW21016   1.192   3.884   1.146
 6706SOL    HW121017   1.227   3.871   1.053
 6706SOL    HW221018   1.126   3.960   1.146
 6707SOL     OW21019   0.353   5.651   4.643
 6707SOL    HW121020   0.289   5.574   4.641
 6707SOL    HW221021   0.411   5.645   4.724
 6708SOL     OW21022   1.391   4.953   2.536
 6708SOL    HW121023   1.364   5.041   2.495
 6708SOL    HW221024   1.488   4.936   2.517
 6709SOL     OW21025   3.001   5.653   2.041
 6709SOL    HW121026   3.090   5.628   2.004
 6709SOL    HW221027   2.929   5.630   1.975
 6710SOL     OW21028   2.930   1.680   5.991
 6710SOL    HW121029   2.848   1.636   6.028
 6710SOL    HW221030   2.914   1.705   5.896
 6711SOL     OW21031   5.704   4.705   6.992
 6711SOL    HW121032   5.741   4.676   6.903
 6711SOL    HW221033   5.700   4.805   6.995
 6712SOL     OW21034   4.686   5.465   0.090
 6712SOL    HW121035   4.595   5.499   0.113
 6712SOL    HW221036   4.755   5.529   0.124
 6713SOL     OW21037   1.761   1.973   1.498
 6713SOL    HW121038   1.839   1.949   1.440
 6713SOL    HW221039   1.773   2.066   1.534
 6714SOL     OW21040   5.345   0.644   6.134
 6714SOL    HW121041   5.269   0.618   6.194
 6714SOL    HW221042   5.345   0.584   6.054
 6715SOL     OW21043   0.189   0.694   7.019
 6715SOL    HW121044   0.265   0.711   6.957
 6715SOL    HW221045   0.150   0.781   0.024
 6716SOL     OW21046   1.003   5.673   2.282
 6716SOL    HW121047   0.927   5.649   2.343
 6716SOL    HW221048   1.079   5.610   2.299
 6717SOL     OW21049   4.116   3.141   0.920
 6717SOL    HW121050   4.093   3.095   0.835
 6717SOL    HW221051   4.045   3.121   0.989
 6718SOL     OW21052   4.016   6.096   6.369
 6718SOL    HW121053   3.983   6.176   6.321
 6718SOL    HW221054   4.014   6.016   6.308
 6719SOL     OW21055   0.477   0.020   5.899
 6719SOL    HW121056   0.519   0.020   5.809
 6719SOL    HW221057   0.548   0.021   5.969
 6720SOL     OW21058   1.345   6.222   2.157
 6720SOL    HW121059   1.409   6.246   2.230
 6720SOL    HW221060   1.375   6.136   2.114
 6721SOL     OW21061   5.964   6.711   4.487
 6721SOL    HW121062   6.024   6.631   4.486
 6721SOL    HW221063   5.978   6.764   4.404
 6722SOL     OW21064   5.239   3.388   1.400
 6722SOL    HW121065   5.178   3.367   1.324
 6722SOL    HW221066   5.334   3.371   1.372
 6723SOL     OW21067   2.379   6.206   2.799
 6723SOL    HW121068   2.328   6.121   2.785
 6723SOL    HW221069   2.346   6.275   2.734
 6724SOL     OW21070   1.248   3.599   6.182
 6724SOL    HW121071   1.294   3.687   6.175
 6724SOL    HW221072   1.180   3.590   6.109
 6725SOL     OW21073   0.755   4.367   1.876
 6725SOL    HW121074   0.685   4.327   1.818
 6725SOL    HW221075   0.785   4.299   1.944
 6726SOL     OW21076   0.758   2.180   4.552
 6726SOL    HW121077   0.842   2.127   4.541
 6726SOL    HW221078   0.747   2.241   4.473
 6727SOL     OW21079   6.719   3.583   5.966
 6727SOL    HW121080   6.671   3.671   5.963
 6727SOL    HW221081   6.795   3.584   5.902
 6728SOL     OW21082   4.950   1.478   4.753
 6728SOL    HW121083   5.037   1.497   4.707
 6728SOL    HW221084   4.958   1.500   4.850
 6729SOL     OW21085   6.707   1.682   2.322
 6729SOL    HW121086   6.612   1.662   2.298
 6729SOL    HW221087   6.753   1.597   2.350
 6730SOL     OW21088   1.731   6.376   6.426
 6730SOL    HW121089   1.674   6.317   6.369
 6730SOL    HW221090   1.827   6.354   6.411
 6731SOL     OW21091   1.960   4.539   1.152
 6731SOL    HW121092   1.934   4.586   1.067
 6731SOL    HW221093   1.884   4.481   1.182
 6732SOL     OW21094   4.521   5.670   5.885
 6732SOL    HW121095   4.521   5.611   5.966
 6732SOL    HW221096   4.615   5.682   5.852
 6733SOL     OW21097   4.525   5.203   6.709
 6733SOL    HW121098   4.453   5.207   6.778
 6733SOL    HW221099   4.495   5.253   6.627
 6734SOL     OW21100   1.044   3.134   5.354
 6734SOL    HW121101   0.983   3.170   5.425
 6734SOL    HW221102   1.130   3.105   5.395
 6735SOL     OW21103   0.563   5.879   4.828
 6735SOL    HW121104   0.577   5.781   4.843
 6735SOL    HW221105   0.466   5.895   4.807
 6736SOL     OW21106   1.686   3.323   0.489
 6736SOL    HW121107   1.588   3.315   0.508
 6736SOL    HW221108   1.700   3.338   0.391
 6737SOL     OW21109   2.126   2.826   1.058
 6737SOL    HW121110   2.055   2.883   1.017
 6737SOL    HW221111   2.206   2.824   0.998
 6738SOL     OW21112   2.088   3.221   2.116
 6738SOL    HW121113   2.084   3.313   2.077
 6738SOL    HW221114   2.169   3.212   2.173
 6739SOL     OW21115   3.265   5.178   5.844
 6739SOL    HW121116   3.350   5.127   5.858
 6739SOL    HW221117   3.271   5.266   5.891
 6740SOL     OW21118   2.187   1.706   4.475
 6740SOL    HW121119   2.131   1.630   4.508
 6740SOL    HW221120   2.156   1.791   4.518
 6741SOL     OW21121   4.424   1.348   5.643
 6741SOL    HW121122   4.462   1.440   5.632
 6741SOL    HW221123   4.374   1.323   5.560
 6742SOL     OW21124   0.581   5.831   2.760
 6742SOL    HW121125   0.674   5.797   2.757
 6742SOL    HW221126   0.549   5.836   2.854
 6743SOL     OW21127   3.799   4.321   6.943
 6743SOL    HW121128   3.784   4.390   6.871
 6743SOL    HW221129   3.893   4.290   6.939
 6744SOL     OW21130   4.368   5.474   5.756
 6744SOL    HW121131   4.270   5.484   5.774
 6744SOL    HW221132   4.419   5.530   5.822
 6745SOL     OW21133   1.072   5.966   2.417
 6745SOL    HW121134   1.120   5.890   2.373
 6745SOL    HW221135   1.090   6.050   2.367
 6746SOL     OW21136   0.528   1.165   2.761
 6746SOL    HW121137   0.431   1.141   2.768
 6746SOL    HW221138   0.543   1.219   2.679
 6747SOL     OW21139   5.411   6.810   4.411
 6747SOL    HW121140   5.377   6.765   4.328
 6747SOL    HW221141   5.505   6.782   4.429
 6748SOL     OW21142   1.555   0.295   2.883
 6748SOL    HW121143   1.503   0.380   2.894
 6748SOL    HW221144   1.527   0.250   2.798
 6749SOL     OW21145   3.101   6.580   6.819
 6749SOL    HW121146   3.188   6.610   6.859
 6749SOL    HW221147   3.110   6.579   6.719
 6750SOL     OW21148   4.029   1.487   4.872
 6750SOL    HW121149   4.102   1.533   4.922
 6750SOL    HW221150   4.051   1.488   4.774
 6751SOL     OW21151   3.918   1.682   3.568
 6751SOL    HW121152   3.913   1.583   3.562
 6751SOL    HW221153   3.915   1.710   3.664
 6752SOL     OW21154   5.895   3.054   2.626
 6752SOL    HW121155   5.914   3.062   2.724
 6752SOL    HW221156   5.887   3.145   2.586
 6753SOL     OW21157   4.689   1.287   6.306
 6753SOL    HW121158   4.636   1.361   6.346
 6753SOL    HW221159   4.632   1.236   6.242
 6754SOL     OW21160   6.406   2.127   5.564
 6754SOL    HW121161   6.490   2.172   5.533
 6754SOL    HW221162   6.327   2.182   5.536
 6755SOL     OW21163   4.565   1.944   4.091
 6755SOL    HW121164   4.574   1.847   4.069
 6755SOL    HW221165   4.481   1.959   4.144
 6756SOL     OW21166   4.668   4.345   4.390
 6756SOL    HW121167   4.599   4.414   4.410
 6756SOL    HW221168   4.657   4.312   4.296
 6757SOL     OW21169   4.591   6.264   0.877
 6757SOL    HW121170   4.590   6.361   0.900
 6757SOL    HW221171   4.596   6.210   0.961
 6758SOL     OW21172   5.464   3.994   2.006
 6758SOL    HW121173   5.429   3.904   1.979
 6758SOL    HW221174   5.395   4.042   2.060
 6759SOL     OW21175   1.184   3.551   4.155
 6759SOL    HW121176   1.215   3.646   4.141
 6759SOL    HW221177   1.085   3.547   4.148
 6760SOL     OW21178   6.269   5.571   4.440
 6760SOL    HW121179   6.203   5.567   4.515
 6760SOL    HW221180   6.362   5.565   4.476
 6761SOL     OW21181   5.478   2.454   6.116
 6761SOL    HW121182   5.406   2.471   6.049
 6761SOL    HW221183   5.450   2.381   6.178
 6762SOL     OW21184   0.214   5.516   3.243
 6762SOL    HW121185   0.197   5.557   3.153
 6762SOL    HW221186   0.133   5.526   3.300
 6763SOL     OW21187   6.317   5.978   3.859
 6763SOL    HW121188   6.318   6.078   3.857
 6763SOL    HW221189   6.404   5.944   3.894
 6764SOL     OW21190   2.910   4.780   6.517
 6764SOL    HW121191   2.930   4.700   6.461
 6764SOL    HW221192   2.994   4.834   6.528
 6765SOL     OW21193   5.820   5.037   3.715
 6765SOL    HW121194   5.850   4.947   3.683
 6765SOL    HW221195   5.727   5.055   3.681
 6766SOL     OW21196   2.910   0.093   6.519
 6766SOL    HW121197   2.944   0.177   6.561
 6766SOL    HW221198   2.811   0.090   6.527
 6767SOL     OW21199   0.510   2.960   1.047
 6767SOL    HW121200   0.556   2.872   1.035
 6767SOL    HW221201   0.573   3.025   1.090
 6768SOL     OW21202   1.061   0.550   3.841
 6768SOL    HW121203   1.134   0.608   3.876
 6768SOL    HW221204   0.986   0.606   3.808
 6769SOL     OW21205   2.918   1.285   5.299
 6769SOL    HW121206   2.998   1.225   5.293
 6769SOL    HW221207   2.915   1.328   5.389
 6770SOL     OW21208   0.036   2.485   4.398
 6770SOL    HW121209   6.981   2.500   4.338
 6770SOL    HW221210   0.120   2.487   4.343
 6771SOL     OW21211   3.863   2.067   3.346
 6771SOL    HW121212   3.768   2.098   3.345
 6771SOL    HW221213   3.869   1.978   3.301
 6772SOL     OW21214   5.712   2.102   2.288
 6772SOL    HW121215   5.750   2.012   2.311
 6772SOL    HW221216   5.724   2.118   2.190
 6773SOL     OW21217   0.058   6.672   1.811
 6773SOL    HW121218   0.034   6.763   1.777
 6773SOL    HW221219   0.147   6.646   1.775
 6774SOL     OW21220   2.009   1.785   5.562
 6774SOL    HW121221   2.047   1.875   5.580
 6774SOL    HW221222   2.025   1.725   5.640
 6775SOL     OW21223   1.089   1.884   3.718
 6775SOL    HW121224   1.102   1.797   3.765
 6775SOL    HW221225   1.153   1.891   3.641
 6776SOL     OW21226   3.561   3.450   1.841
 6776SOL    HW121227   3.522   3.386   1.775
 6776SOL    HW221228   3.501   3.458   1.920
 6777SOL     OW21229   4.259   5.152   1.296
 6777SOL    HW121230   4.331   5.149   1.227
 6777SOL    HW221231   4.297   5.186   1.382
 6778SOL     OW21232   5.442   3.732   2.326
 6778SOL    HW121233   5.356   3.745   2.277
 6778SOL    HW221234   5.433   3.766   2.420
 6779SOL     OW21235   6.569   4.403   6.180
 6779SOL    HW121236   6.530   4.342   6.249
 6779SOL    HW221237   6.506   4.480   6.165
 6780SOL     OW21238   2.105   3.153   2.928
 6780SOL    HW121239   2.096   3.252   2.944
 6780SOL    HW221240   2.031   3.122   2.869
 6781SOL     OW21241   6.653   0.996   3.951
 6781SOL    HW121242   6.707   0.911   3.956
 6781SOL    HW221243   6.584   0.987   3.879
 6782SOL     OW21244   0.160   1.466   3.527
 6782SOL    HW121245   0.143   1.532   3.455
 6782SOL    HW221246   0.239   1.409   3.502
 6783SOL     OW21247   1.361   4.127   5.072
 6783SOL    HW121248   1.292   4.124   4.999
 6783SOL    HW221249   1.414   4.042   5.071
 6784SOL     OW21250   2.184   3.220   1.819
 6784SOL    HW121251   2.122   3.194   1.893
 6784SOL    HW221252   2.244   3.294   1.850
 6785SOL     OW21253   5.870   4.537   5.301
 6785SOL    HW121254   5.874   4.628   5.342
 6785SOL    HW221255   5.937   4.531   5.226
 6786SOL     OW21256   6.389   2.922   0.265
 6786SOL    HW121257   6.324   2.923   0.189
 6786SOL    HW221258   6.347   2.963   0.346
 6787SOL     OW21259   3.520   2.389   0.875
 6787SOL    HW121260   3.432   2.341   0.880
 6787SOL    HW221261   3.523   2.460   0.946
 6788SOL     OW21262   0.708   3.827   2.199
 6788SOL    HW121263   0.622   3.794   2.161
 6788SOL    HW221264   0.780   3.761   2.181
 6789SOL     OW21265   6.573   4.229   4.149
 6789SOL    HW121266   6.668   4.231   4.121
 6789SOL    HW221267   6.558   4.150   4.210
 6790SOL     OW21268   0.694   4.840   5.743
 6790SOL    HW121269   0.725   4.818   5.836
 6790SOL    HW221270   0.643   4.763   5.706
 6791SOL     OW21271   4.675   1.516   3.197
 6791SOL    HW121272   4.722   1.592   3.153
 6791SOL    HW221273   4.742   1.446   3.223
 6792SOL     OW21274   4.052   6.744   5.225
 6792SOL    HW121275   4.150   6.730   5.220
 6792SOL    HW221276   4.005   6.666   5.182
 6793SOL     OW21277   2.902   2.248   6.898
 6793SOL    HW121278   2.912   2.207   6.988
 6793SOL    HW221279   2.936   2.185   6.829
 6794SOL     OW21280   4.757   1.348   5.975
 6794SOL    HW121281   4.830   1.401   5.931
 6794SOL    HW221282   4.725   1.396   6.056
 6795SOL     OW21283   1.342   0.827   1.349
 6795SOL    HW121284   1.335   0.830   1.448
 6795SOL    HW221285   1.272   0.764   1.312
 6796SOL     OW21286   6.243   0.836   2.031
 6796SOL    HW121287   6.182   0.816   2.108
 6796SOL    HW221288   6.327   0.783   2.041
 6797SOL     OW21289   6.735   2.832   1.939
 6797SOL    HW121290   6.807   2.835   1.871
 6797SOL    HW221291   6.736   2.743   1.986
 6798SOL     OW21292   5.202   0.392   1.573
 6798SOL    HW121293   5.214   0.404   1.475
 6798SOL    HW221294   5.288   0.413   1.620
 6799SOL     OW21295   5.753   6.648   3.273
 6799SOL    HW121296   5.820   6.717   3.244
 6799SOL    HW221297   5.724   6.594   3.195
 6800SOL     OW21298   1.093   1.239   1.023
 6800SOL    HW121299   1.172   1.283   0.980
 6800SOL    HW221300   1.124   1.181   1.098
 6801SOL     OW21301   1.296   6.405   4.665
 6801SOL    HW121302   1.370   6.436   4.604
 6801SOL    HW221303   1.211   6.396   4.612
 6802SOL     OW21304   2.798   6.432   0.930
 6802SOL    HW121305   2.855   6.393   1.003
 6802SOL    HW221306   2.832   6.401   0.841
 6803SOL     OW21307   4.921   4.479   6.997
 6803SOL    HW121308   4.871   4.395   6.976
 6803SOL    HW221309   5.019   4.461   6.993
 6804SOL     OW21310   3.042   5.134   2.679
 6804SOL    HW121311   3.071   5.171   2.591
 6804SOL    HW221312   3.004   5.207   2.736
 6805SOL     OW21313   0.189   4.953   5.424
 6805SOL    HW121314   0.215   4.912   5.336
 6805SOL    HW221315   0.108   4.907   5.460
 6806SOL     OW21316   0.010   0.667   3.853
 6806SOL    HW121317   0.102   0.704   3.838
 6806SOL    HW221318   0.015   0.568   3.860
 6807SOL     OW21319   3.643   3.657   3.323
 6807SOL    HW121320   3.628   3.743   3.372
 6807SOL    HW221321   3.635   3.580   3.387
 6808SOL     OW21322   4.954   1.031   5.204
 6808SOL    HW121323   5.000   0.954   5.160
 6808SOL    HW221324   4.984   1.117   5.163
 6809SOL     OW21325   5.974   4.568   1.646
 6809SOL    HW121326   6.002   4.491   1.704
 6809SOL    HW221327   5.901   4.538   1.585
 6810SOL     OW21328   3.532   0.804   3.157
 6810SOL    HW121329   3.511   0.707   3.146
 6810SOL    HW221330   3.607   0.829   3.096
 6811SOL     OW21331   6.735   1.899   2.690
 6811SOL    HW121332   6.676   1.819   2.675
 6811SOL    HW221333   6.691   1.962   2.753
 6812SOL     OW21334   3.532   3.398   4.801
 6812SOL    HW121335   3.556   3.306   4.771
 6812SOL    HW221336   3.498   3.450   4.722
 6813SOL     OW21337   4.837   3.210   1.261
 6813SOL    HW121338   4.868   3.138   1.322
 6813SOL    HW221339   4.794   3.170   1.180
 6814SOL     OW21340   4.196   1.510   5.932
 6814SOL    HW121341   4.206   1.411   5.931
 6814SOL    HW221342   4.167   1.540   6.024
 6815SOL     OW21343   2.008   5.037   6.714
 6815SOL    HW121344   1.960   5.123   6.697
 6815SOL    HW221345   2.022   4.989   6.628
 6816SOL     OW21346   6.529   1.612   4.692
 6816SOL    HW121347   6.501   1.634   4.598
 6816SOL    HW221348   6.454   1.566   4.739
 6817SOL     OW21349   2.573   2.508   3.234
 6817SOL    HW121350   2.519   2.574   3.286
 6817SOL    HW221351   2.615   2.443   3.298
 6818SOL     OW21352   1.935   6.253   5.972
 6818SOL    HW121353   1.992   6.171   5.965
 6818SOL    HW221354   1.974   6.315   6.040
 6819SOL     OW21355   4.646   5.583   3.004
 6819SOL    HW121356   4.610   5.558   2.915
 6819SOL    HW221357   4.592   5.540   3.076
 6820SOL     OW21358   1.255   6.705   1.196
 6820SOL    HW121359   1.287   6.800   1.198
 6820SOL    HW221360   1.288   6.660   1.113
 6821SOL     OW21361   4.110   2.259   5.479
 6821SOL    HW121362   4.123   2.200   5.559
 6821SOL    HW221363   4.028   2.231   5.430
 6822SOL     OW21364   6.827   2.713   6.217
 6822SOL    HW121365   6.848   2.797   6.266
 6822SOL    HW221366   6.879   2.637   6.257
 6823SOL     OW21367   5.327   3.764   6.682
 6823SOL    HW121368   5.387   3.747   6.604
 6823SOL    HW221369   5.380   3.804   6.757
 6824SOL     OW21370   1.847   1.695   6.714
 6824SOL    HW121371   1.808   1.736   6.796
 6824SOL    HW221372   1.798   1.728   6.633
 6825SOL     OW21373   6.726   6.089   1.140
 6825SOL    HW121374   6.726   6.186   1.162
 6825SOL    HW221375   6.813   6.048   1.170
 6826SOL     OW21376   0.330   3.727   3.039
 6826SOL    HW121377   0.296   3.695   3.128
 6826SOL    HW221378   0.310   3.658   2.970
 6827SOL     OW21379   4.757   5.285   5.662
 6827SOL    HW121380   4.813   5.309   5.741
 6827SOL    HW221381   4.752   5.363   5.600
 6828SOL     OW21382   3.937   1.381   2.943
 6828SOL    HW121383   3.845   1.372   2.907
 6828SOL    HW221384   3.976   1.468   2.915
 6829SOL     OW21385   5.781   0.257   5.301
 6829SOL    HW121386   5.756   0.351   5.325
 6829SOL    HW221387   5.797   0.205   5.385
 6830SOL     OW21388   6.017   1.110   2.980
 6830SOL    HW121389   6.085   1.113   2.907
 6830SOL    HW221390   6.011   1.199   3.024
 6831SOL     OW21391   1.208   1.534   5.488
 6831SOL    HW121392   1.213   1.434   5.480
 6831SOL    HW221393   1.177   1.559   5.580
 6832SOL     OW21394   3.075   2.322   0.675
 6832SOL    HW121395   2.990   2.296   0.721
 6832SOL    HW221396   3.064   2.313   0.576
 6833SOL     OW21397   3.349   5.472   6.356
 6833SOL    HW121398   3.403   5.493   6.438
 6833SOL    HW221399   3.361   5.546   6.289
 6834SOL     OW21400   5.232   0.184   0.535
 6834SOL    HW121401   5.318   0.191   0.484
 6834SOL    HW221402   5.156   0.208   0.475
 6835SOL     OW21403   3.310   1.868   3.991
 6835SOL    HW121404   3.405   1.842   3.972
 6835SOL    HW221405   3.273   1.918   3.914
 6836SOL     OW21406   1.742   4.761   6.195
 6836SOL    HW121407   1.721   4.763   6.293
 6836SOL    HW221408   1.792   4.677   6.174
 6837SOL     OW21409   1.364   0.710   2.344
 6837SOL    HW121410   1.379   0.781   2.414
 6837SOL    HW221411   1.319   0.750   2.265
 6838SOL     OW21412   2.659   4.393   5.321
 6838SOL    HW121413   2.743   4.410   5.271
 6838SOL    HW221414   2.581   4.428   5.269
 6839SOL     OW21415   4.885   1.891   4.002
 6839SOL    HW121416   4.956   1.857   4.063
 6839SOL    HW221417   4.870   1.989   4.020
 6840SOL     OW21418   2.901   6.977   4.763
 6840SOL    HW121419   2.889   0.046   4.797
 6840SOL    HW221420   2.907   6.980   4.663
 6841SOL     OW21421   3.840   5.367   1.718
 6841SOL    HW121422   3.740   5.362   1.729
 6841SOL    HW221423   3.862   5.439   1.652
 6842SOL     OW21424   0.558   3.000   6.881
 6842SOL    HW121425   0.612   3.079   6.911
 6842SOL    HW221426   0.618   2.921   6.871
 6843SOL     OW21427   4.776   1.646   1.918
 6843SOL    HW121428   4.706   1.716   1.908
 6843SOL    HW221429   4.825   1.659   2.004
 6844SOL     OW21430   4.621   5.577   4.539
 6844SOL    HW121431   4.581   5.507   4.480
 6844SOL    HW221432   4.717   5.556   4.556
 6845SOL     OW21433   4.224   4.672   2.745
 6845SOL    HW121434   4.310   4.628   2.718
 6845SOL    HW221435   4.224   4.685   2.844
 6846SOL     OW21436   3.686   3.531   1.579
 6846SOL    HW121437   3.678   3.557   1.675
 6846SOL    HW221438   3.656   3.436   1.568
 6847SOL     OW21439   4.594   3.512   1.699
 6847SOL    HW121440   4.642   3.425   1.707
 6847SOL    HW221441   4.560   3.523   1.605
 6848SOL     OW21442   0.629   4.940   4.541
 6848SOL    HW121443   0.662   4.846   4.527
 6848SOL    HW221444   0.699   5.004   4.510
 6849SOL     OW21445   3.999   5.542   4.396
 6849SOL    HW121446   3.909   5.547   4.354
 6849SOL    HW221447   4.005   5.607   4.472
 6850SOL     OW21448   6.263   2.096   3.980
 6850SOL    HW121449   6.290   2.174   3.924
 6850SOL    HW221450   6.248   2.016   3.922
 6851SOL     OW21451   0.727   4.757   5.308
 6851SOL    HW121452   0.687   4.669   5.333
 6851SOL    HW221453   0.660   4.810   5.257
 6852SOL     OW21454   0.866   4.165   1.595
 6852SOL    HW121455   0.925   4.211   1.661
 6852SOL    HW221456   0.770   4.184   1.616
 6853SOL     OW21457   0.278   5.144   5.873
 6853SOL    HW121458   0.360   5.199   5.862
 6853SOL    HW221459   0.232   5.133   5.785
 6854SOL     OW21460   6.492   1.482   5.943
 6854SOL    HW121461   6.518   1.552   6.009
 6854SOL    HW221462   6.566   1.470   5.877
 6855SOL     OW21463   3.635   6.753   2.628
 6855SOL    HW121464   3.693   6.753   2.710
 6855SOL    HW221465   3.668   6.822   2.564
 6856SOL     OW21466   6.079   4.074   5.040
 6856SOL    HW121467   6.035   3.986   5.060
 6856SOL    HW221468   6.174   4.071   5.073
 6857SOL     OW21469   3.463   1.408   6.504
 6857SOL    HW121470   3.369   1.387   6.476
 6857SOL    HW221471   3.522   1.330   6.482
 6858SOL     OW21472   3.941   3.194   4.003
 6858SOL    HW121473   3.970   3.162   4.093
 6858SOL    HW221474   3.911   3.289   4.010
 6859SOL     OW21475   1.849   6.871   0.844
 6859SOL    HW121476   1.793   6.900   0.766
 6859SOL    HW221477   1.930   6.928   0.850
 6860SOL     OW21478   5.602   4.688   1.777
 6860SOL    HW121479   5.574   4.646   1.691
 6860SOL    HW221480   5.600   4.620   1.850
 6861SOL     OW21481   5.799   4.830   0.798
 6861SOL    HW121482   5.872   4.772   0.760
 6861SOL    HW221483   5.733   4.851   0.726
 6862SOL     OW21484   2.470   4.819   4.847
 6862SOL    HW121485   2.374   4.798   4.860
 6862SOL    HW221486   2.526   4.750   4.893
 6863SOL     OW21487   6.014   1.129   4.672
 6863SOL    HW121488   5.969   1.090   4.753
 6863SOL    HW221489   6.108   1.154   4.696
 6864SOL     OW21490   3.438   5.944   3.712
 6864SOL    HW121491   3.531   5.924   3.742
 6864SOL    HW221492   3.416   5.890   3.630
 6865SOL     OW21493   6.279   4.752   4.087
 6865SOL    HW121494   6.238   4.842   4.078
 6865SOL    HW221495   6.282   4.707   3.998
 6866SOL     OW21496   6.354   3.956   2.393
 6866SOL    HW121497   6.416   4.030   2.419
 6866SOL    HW221498   6.289   3.989   2.325
 6867SOL     OW21499   1.658   4.166   1.452
 6867SOL    HW121500   1.608   4.105   1.514
 6867SOL    HW221501   1.607   4.177   1.368
 6868SOL     OW21502   1.547   6.204   4.708
 6868SOL    HW121503   1.491   6.187   4.627
 6868SOL    HW221504   1.514   6.148   4.784
 6869SOL     OW21505   6.090   3.289   4.703
 6869SOL    HW121506   5.996   3.279   4.671
 6869SOL    HW221507   6.141   3.206   4.681
 6870SOL     OW21508   5.786   3.690   3.189
 6870SOL    HW121509   5.712   3.722   3.130
 6870SOL    HW221510   5.779   3.735   3.279
 6871SOL     OW21511   6.311   4.971   1.567
 6871SOL    HW121512   6.274   4.880   1.581
 6871SOL    HW221513   6.355   5.003   1.651
 6872SOL     OW21514   1.874   3.663   0.796
 6872SOL    HW121515   1.833   3.624   0.714
 6872SOL    HW221516   1.814   3.647   0.874
 6873SOL     OW21517   6.005   3.138   6.283
 6873SOL    HW121518   5.958   3.204   6.225
 6873SOL    HW221519   5.948   3.056   6.293
 6874SOL     OW21520   0.292   4.187   3.300
 6874SOL    HW121521   0.239   4.115   3.255
 6874SOL    HW221522   0.379   4.199   3.252
 6875SOL     OW21523   1.299   1.906   3.520
 6875SOL    HW121524   1.378   1.923   3.580
 6875SOL    HW221525   1.329   1.908   3.425
 6876SOL     OW21526   3.729   5.426   6.679
 6876SOL    HW121527   3.768   5.517   6.660
 6876SOL    HW221528   3.750   5.401   6.774
 6877SOL     OW21529   2.944   4.445   6.710
 6877SOL    HW121530   3.000   4.365   6.733
 6877SOL    HW221531   2.995   4.529   6.733
 6878SOL     OW21532   2.124   1.871   6.043
 6878SOL    HW121533   2.086   1.817   6.117
 6878SOL    HW221534   2.202   1.924   6.076
 6879SOL     OW21535   0.260   2.247   0.555
 6879SOL    HW121536   0.331   2.184   0.525
 6879SOL    HW221537   0.264   2.331   0.500
 6880SOL     OW21538   2.164   3.605   5.045
 6880SOL    HW121539   2.220   3.601   5.128
 6880SOL    HW221540   2.148   3.700   5.020
 6881SOL     OW21541   6.798   4.613   1.974
 6881SOL    HW121542   6.725   4.544   1.973
 6881SOL    HW221543   6.881   4.573   2.013
 6882SOL     OW21544   2.224   0.343   5.502
 6882SOL    HW121545   2.283   0.285   5.447
 6882SOL    HW221546   2.248   0.334   5.598
 6883SOL     OW21547   3.366   0.598   0.914
 6883SOL    HW121548   3.354   0.697   0.924
 6883SOL    HW221549   3.430   0.580   0.839
 6884SOL     OW21550   2.401   4.354   4.001
 6884SOL    HW121551   2.430   4.450   3.994
 6884SOL    HW221552   2.438   4.314   4.085
 6885SOL     OW21553   2.726   5.617   3.726
 6885SOL    HW121554   2.724   5.531   3.674
 6885SOL    HW221555   2.763   5.601   3.817
 6886SOL     OW21556   5.721   1.327   1.860
 6886SOL    HW121557   5.719   1.299   1.956
 6886SOL    HW221558   5.808   1.300   1.819
 6887SOL     OW21559   5.338   0.689   5.299
 6887SOL    HW121560   5.325   0.590   5.289
 6887SOL    HW221561   5.434   0.712   5.285
 6888SOL     OW21562   5.916   0.421   5.880
 6888SOL    HW121563   5.940   0.510   5.917
 6888SOL    HW221564   5.944   0.350   5.945
 6889SOL     OW21565   1.136   3.097   5.834
 6889SOL    HW121566   1.163   3.165   5.766
 6889SOL    HW221567   1.116   3.010   5.788
 6890SOL     OW21568   1.904   0.413   0.895
 6890SOL    HW121569   1.810   0.442   0.876
 6890SOL    HW221570   1.951   0.394   0.809
 6891SOL     OW21571   2.133   3.549   4.755
 6891SOL    HW121572   2.171   3.558   4.847
 6891SOL    HW221573   2.097   3.637   4.725
 6892SOL     OW21574   4.187   6.951   4.279
 6892SOL    HW121575   4.133   6.868   4.263
 6892SOL    HW221576   4.199   7.000   4.193
 6893SOL     OW21577   5.352   6.449   2.112
 6893SOL    HW121578   5.255   6.446   2.137
 6893SOL    HW221579   5.407   6.474   2.192
 6894SOL     OW21580   6.508   5.701   0.662
 6894SOL    HW121581   6.559   5.740   0.585
 6894SOL    HW221582   6.470   5.613   0.635
 6895SOL     OW21583   3.183   4.802   6.794
 6895SOL    HW121584   3.199   4.705   6.775
 6895SOL    HW221585   3.166   4.851   6.709
 6896SOL     OW21586   4.129   0.133   3.297
 6896SOL    HW121587   4.053   0.189   3.265
 6896SOL    HW221588   4.114   0.109   3.393
 6897SOL     OW21589   2.869   3.458   0.125
 6897SOL    HW121590   2.889   3.554   0.144
 6897SOL    HW221591   2.789   3.430   0.179
 6898SOL     OW21592   4.638   1.422   2.119
 6898SOL    HW121593   4.690   1.420   2.033
 6898SOL    HW221594   4.605   1.515   2.136
 6899SOL     OW21595   5.063   6.973   6.649
 6899SOL    HW121596   5.027   0.035   6.684
 6899SOL    HW221597   5.160   6.965   6.672
 6900SOL     OW21598   6.241   0.749   6.298
 6900SOL    HW121599   6.193   0.763   6.384
 6900SOL    HW221600   6.180   0.706   6.232
 6901SOL     OW21601   0.267   0.234   6.465
 6901SOL    HW121602   0.187   0.275   6.421
 6901SOL    HW221603   0.238   0.155   6.519
 6902SOL     OW21604   0.096   6.645   0.260
 6902SOL    HW121605   0.075   6.654   0.357
 6902SOL    HW221606   0.171   6.707   0.237
 6903SOL     OW21607   3.590   3.593   0.127
 6903SOL    HW121608   3.662   3.568   0.191
 6903SOL    HW221609   3.621   3.671   0.072
 6904SOL     OW21610   6.609   1.281   3.466
 6904SOL    HW121611   6.621   1.223   3.546
 6904SOL    HW221612   6.515   1.271   3.431
 6905SOL     OW21613   6.004   6.357   0.281
 6905SOL    HW121614   6.089   6.341   0.231
 6905SOL    HW221615   6.020   6.423   0.355
 6906SOL     OW21616   3.815   1.301   4.294
 6906SOL    HW121617   3.738   1.260   4.343
 6906SOL    HW221618   3.785   1.330   4.203
 6907SOL     OW21619   3.843   2.025   0.954
 6907SOL    HW121620   3.920   2.002   0.894
 6907SOL    HW221621   3.773   2.073   0.901
 6908SOL     OW21622   1.495   0.291   5.550
 6908SOL    HW121623   1.498   0.198   5.584
 6908SOL    HW221624   1.585   0.317   5.515
 6909SOL     OW21625   4.455   4.699   0.743
 6909SOL    HW121626   4.547   4.727   0.717
 6909SOL    HW221627   4.404   4.778   0.777
 6910SOL     OW21628   6.359   1.811   2.845
 6910SOL    HW121629   6.335   1.714   2.854
 6910SOL    HW221630   6.276   1.865   2.836
 6911SOL     OW21631   4.418   0.341   3.615
 6911SOL    HW121632   4.409   0.261   3.556
 6911SOL    HW221633   4.334   0.395   3.612
 6912SOL     OW21634   4.844   4.509   1.688
 6912SOL    HW121635   4.806   4.502   1.595
 6912SOL    HW221636   4.943   4.492   1.684
 6913SOL     OW21637   5.477   4.195   5.541
 6913SOL    HW121638   5.497   4.175   5.445
 6913SOL    HW221639   5.395   4.252   5.547
 6914SOL     OW21640   5.610   5.642   0.026
 6914SOL    HW121641   5.520   5.626   7.010
 6914SOL    HW221642   5.679   5.586   7.003
 6915SOL     OW21643   0.294   4.798   1.971
 6915SOL    HW121644   0.205   4.837   1.993
 6915SOL    HW221645   0.290   4.754   1.881
 6916SOL     OW21646   6.502   4.109   6.704
 6916SOL    HW121647   6.410   4.071   6.704
 6916SOL    HW221648   6.559   4.060   6.637
 6917SOL     OW21649   4.628   4.944   6.775
 6917SOL    HW121650   4.576   5.025   6.749
 6917SOL    HW221651   4.574   4.889   6.839
 6918SOL     OW21652   0.337   4.092   4.149
 6918SOL    HW121653   0.366   4.118   4.056
 6918SOL    HW221654   0.336   4.174   4.207
 6919SOL     OW21655   1.813   5.488   2.507
 6919SOL    HW121656   1.721   5.526   2.498
 6919SOL    HW221657   1.808   5.397   2.548
 6920SOL     OW21658   4.912   5.342   5.875
 6920SOL    HW121659   4.908   5.320   5.972
 6920SOL    HW221660   5.002   5.380   5.853
 6921SOL     OW21661   5.658   5.792   3.249
 6921SOL    HW121662   5.625   5.886   3.255
 6921SOL    HW221663   5.753   5.791   3.220
 6922SOL     OW21664   1.713   5.763   0.084
 6922SOL    HW121665   1.621   5.800   0.071
 6922SOL    HW221666   1.774   5.803   0.016
 6923SOL     OW21667   5.021   6.617   3.867
 6923SOL    HW121668   5.049   6.710   3.843
 6923SOL    HW221669   5.070   6.587   3.948
 6924SOL     OW21670   0.515   3.893   0.433
 6924SOL    HW121671   0.492   3.804   0.472
 6924SOL    HW221672   0.454   3.913   0.356
 6925SOL     OW21673   3.878   6.279   3.999
 6925SOL    HW121674   3.906   6.369   4.033
 6925SOL    HW221675   3.779   6.269   4.011
 6926SOL     OW21676   3.494   3.434   3.016
 6926SOL    HW121677   3.491   3.515   2.957
 6926SOL    HW221678   3.454   3.356   2.969
 6927SOL     OW21679   5.427   3.144   5.897
 6927SOL    HW121680   5.339   3.188   5.917
 6927SOL    HW221681   5.411   3.054   5.857
 6928SOL     OW21682   4.781   6.907   6.999
 6928SOL    HW121683   4.771   7.006   6.990
 6928SOL    HW221684   4.858   6.887   0.036
 6929SOL     OW21685   4.295   6.208   0.089
 6929SOL    HW121686   4.232   6.156   0.032
 6929SOL    HW221687   4.305   6.300   0.051
 6930SOL     OW21688   0.342   6.514   1.621
 6930SOL    HW121689   0.274   6.542   1.553
 6930SOL    HW221690   0.392   6.595   1.653
 6931SOL     OW21691   0.843   0.684   1.595
 6931SOL    HW121692   0.942   0.676   1.606
 6931SOL    HW221693   0.799   0.665   1.683
 6932SOL     OW21694   3.160   1.010   0.316
 6932SOL    HW121695   3.249   0.978   0.349
 6932SOL    HW221696   3.157   1.110   0.322
 6933SOL     OW21697   3.578   5.941   4.721
 6933SOL    HW121698   3.669   5.917   4.687
 6933SOL    HW221699   3.558   6.037   4.697
 6934SOL     OW21700   5.615   3.772   6.248
 6934SOL    HW121701   5.681   3.739   6.316
 6934SOL    HW221702   5.598   3.700   6.180
 6935SOL     OW21703   3.989   6.486   2.940
 6935SOL    HW121704   4.030   6.546   2.871
 6935SOL    HW221705   4.025   6.509   3.030
 6936SOL     OW21706   6.830   2.487   2.685
 6936SOL    HW121707   6.906   2.497   2.749
 6936SOL    HW221708   6.831   2.396   2.645
 6937SOL     OW21709   5.320   6.896   6.843
 6937SOL    HW121710   5.271   6.833   6.783
 6937SOL    HW221711   5.414   6.906   6.809
 6938SOL     OW21712   4.863   3.951   5.351
 6938SOL    HW121713   4.846   4.048   5.366
 6938SOL    HW221714   4.914   3.938   5.266
 6939SOL     OW21715   6.898   5.012   3.018
 6939SOL    HW121716   6.827   5.004   3.088
 6939SOL    HW221717   6.975   5.064   3.055
 6940SOL     OW21718   4.274   0.930   1.188
 6940SOL    HW121719   4.289   0.900   1.094
 6940SOL    HW221720   4.217   0.864   1.236
 6941SOL     OW21721   4.119   3.351   2.297
 6941SOL    HW121722   4.207   3.309   2.276
 6941SOL    HW221723   4.104   3.349   2.396
 6942SOL     OW21724   0.376   2.857   1.284
 6942SOL    HW121725   0.417   2.895   1.201
 6942SOL    HW221726   0.382   2.757   1.281
 6943SOL     OW21727   4.988   6.687   6.756
 6943SOL    HW121728   4.988   6.624   6.678
 6943SOL    HW221729   4.964   6.779   6.726
 6944SOL     OW21730   1.368   5.338   5.444
 6944SOL    HW121731   1.353   5.420   5.389
 6944SOL    HW221732   1.288   5.278   5.437
 6945SOL     OW21733   6.194   2.882   0.059
 6945SOL    HW121734   6.213   2.965   0.008
 6945SOL    HW221735   6.247   2.806   0.022
 6946SOL     OW21736   6.275   5.409   2.522
 6946SOL    HW121737   6.207   5.336   2.515
 6946SOL    HW221738   6.277   5.461   2.437
 6947SOL     OW21739   4.173   0.144   4.712
 6947SOL    HW121740   4.182   0.061   4.656
 6947SOL    HW221741   4.191   0.121   4.808
 6948SOL     OW21742   5.749   0.641   0.393
 6948SOL    HW121743   5.744   0.667   0.296
 6948SOL    HW221744   5.845   0.640   0.422
 6949SOL     OW21745   4.782   6.382   3.417
 6949SOL    HW121746   4.743   6.350   3.504
 6949SOL    HW221747   4.848   6.455   3.435
 6950SOL     OW21748   2.489   0.142   3.187
 6950SOL    HW121749   2.561   0.182   3.243
 6950SOL    HW221750   2.507   0.162   3.090
 6951SOL     OW21751   6.232   6.703   6.203
 6951SOL    HW121752   6.177   6.785   6.217
 6951SOL    HW221753   6.325   6.728   6.176
 6952SOL     OW21754   0.134   4.996   3.457
 6952SOL    HW121755   0.171   5.003   3.549
 6952SOL    HW221756   0.085   5.081   3.434
 6953SOL     OW21757   5.291   0.496   5.919
 6953SOL    HW121758   5.207   0.549   5.906
 6953SOL    HW221759   5.269   0.399   5.921
 6954SOL     OW21760   1.291   3.807   4.077
 6954SOL    HW121761   1.236   3.890   4.085
 6954SOL    HW221762   1.384   3.831   4.050
 6955SOL     OW21763   7.022   0.272   1.774
 6955SOL    HW121764   0.092   0.258   1.744
 6955SOL    HW221765   6.965   0.291   1.694
 6956SOL     OW21766   4.203   5.999   2.592
 6956SOL    HW121767   4.177   6.084   2.546
 6956SOL    HW221768   4.274   6.019   2.660
 6957SOL     OW21769   6.951   4.738   1.149
 6957SOL    HW121770   6.909   4.726   1.058
 6957SOL    HW221771   7.003   4.823   1.150
 6958SOL     OW21772   2.928   3.783   5.658
 6958SOL    HW121773   2.956   3.760   5.752
 6958SOL    HW221774   2.967   3.716   5.595
 6959SOL     OW21775   1.632   1.167   4.859
 6959SOL    HW121776   1.671   1.240   4.802
 6959SOL    HW221777   1.697   1.142   4.931
 6960SOL     OW21778   0.344   5.203   0.490
 6960SOL    HW121779   0.288   5.196   0.572
 6960SOL    HW221780   0.409   5.279   0.501
 6961SOL     OW21781   0.483   2.757   4.260
 6961SOL    HW121782   0.580   2.779   4.267
 6961SOL    HW221783   0.462   2.724   4.169
 6962SOL     OW21784   5.427   5.271   2.787
 6962SOL    HW121785   5.373   5.341   2.740
 6962SOL    HW221786   5.426   5.187   2.732
 6963SOL     OW21787   0.016   5.679   1.227
 6963SOL    HW121788   7.006   5.702   1.136
 6963SOL    HW221789   0.005   5.581   1.243
 6964SOL     OW21790   4.958   4.948   5.144
 6964SOL    HW121791   4.992   5.040   5.165
 6964SOL    HW221792   4.860   4.944   5.162
 6965SOL     OW21793   0.676   3.817   6.064
 6965SOL    HW121794   0.713   3.869   6.141
 6965SOL    HW221795   0.658   3.723   6.092
 6966SOL     OW21796   5.555   2.695   2.976
 6966SOL    HW121797   5.602   2.757   3.039
 6966SOL    HW221798   5.499   2.749   2.912
 6967SOL     OW21799   1.652   1.662   4.971
 6967SOL    HW121800   1.659   1.646   5.070
 6967SOL    HW221801   1.572   1.719   4.951
 6968SOL     OW21802   3.737   6.189   1.561
 6968SOL    HW121803   3.836   6.178   1.558
 6968SOL    HW221804   3.708   6.248   1.486
 6969SOL     OW21805   4.244   1.894   2.010
 6969SOL    HW121806   4.176   1.916   2.080
 6969SOL    HW221807   4.198   1.857   1.929
 6970SOL     OW21808   4.245   3.841   0.526
 6970SOL    HW121809   4.233   3.939   0.510
 6970SOL    HW221810   4.158   3.801   0.555
 6971SOL     OW21811   6.072   3.623   2.456
 6971SOL    HW121812   6.154   3.606   2.402
 6971SOL    HW221813   6.093   3.688   2.529
 6972SOL     OW21814   5.908   4.937   4.376
 6972SOL    HW121815   5.833   4.949   4.311
 6972SOL    HW221816   5.986   4.991   4.345
 6973SOL     OW21817   1.329   4.524   4.799
 6973SOL    HW121818   1.310   4.428   4.779
 6973SOL    HW221819   1.322   4.539   4.898
 6974SOL     OW21820   3.680   2.955   3.561
 6974SOL    HW121821   3.726   2.980   3.646
 6974SOL    HW221822   3.743   2.970   3.484
 6975SOL     OW21823   3.052   6.262   5.628
 6975SOL    HW121824   3.067   6.165   5.608
 6975SOL    HW221825   2.987   6.300   5.562
 6976SOL     OW21826   4.020   3.909   5.982
 6976SOL    HW121827   3.995   3.922   6.078
 6976SOL    HW221828   4.027   3.999   5.937
 6977SOL     OW21829   5.770   2.083   1.420
 6977SOL    HW121830   5.795   2.106   1.514
 6977SOL    HW221831   5.721   2.160   1.379
 6978SOL     OW21832   6.221   1.373   1.638
 6978SOL    HW121833   6.319   1.387   1.655
 6978SOL    HW221834   6.168   1.415   1.712
 6979SOL     OW21835   1.737   4.891   1.831
 6979SOL    HW121836   1.646   4.857   1.853
 6979SOL    HW221837   1.741   4.990   1.849
 6980SOL     OW21838   1.403   0.676   4.239
 6980SOL    HW121839   1.340   0.751   4.220
 6980SOL    HW221840   1.395   0.649   4.335
 6981SOL     OW21841   2.603   3.539   6.777
 6981SOL    HW121842   2.657   3.485   6.712
 6981SOL    HW221843   2.634   3.520   6.870
 6982SOL     OW21844   1.391   1.614   3.767
 6982SOL    HW121845   1.412   1.525   3.810
 6982SOL    HW221846   1.474   1.653   3.729
 6983SOL     OW21847   6.979   1.993   3.565
 6983SOL    HW121848   6.904   1.929   3.548
 6983SOL    HW221849   0.025   1.947   3.621
 6984SOL     OW21850   2.686   1.534   5.092
 6984SOL    HW121851   2.651   1.501   5.004
 6984SOL    HW221852   2.678   1.633   5.096
 6985SOL     OW21853   3.399   5.200   2.530
 6985SOL    HW121854   3.310   5.213   2.487
 6985SOL    HW221855   3.437   5.112   2.501
 6986SOL     OW21856   1.851   6.021   6.112
 6986SOL    HW121857   1.824   6.116   6.095
 6986SOL    HW221858   1.947   6.009   6.090
 6987SOL     OW21859   1.129   1.988   6.364
 6987SOL    HW121860   1.189   2.055   6.407
 6987SOL    HW221861   1.064   2.035   6.305
 6988SOL     OW21862   5.796   1.147   5.176
 6988SOL    HW121863   5.792   1.048   5.162
 6988SOL    HW221864   5.884   1.172   5.216
 6989SOL     OW21865   1.104   2.329   3.371
 6989SOL    HW121866   1.085   2.427   3.376
 6989SOL    HW221867   1.122   2.304   3.276
 6990SOL     OW21868   5.380   1.937   0.225
 6990SOL    HW121869   5.355   1.902   0.316
 6990SOL    HW221870   5.400   1.860   0.164
 6991SOL     OW21871   2.528   4.588   5.010
 6991SOL    HW121872   2.501   4.537   5.091
 6991SOL    HW221873   2.625   4.609   5.014
 6992SOL     OW21874   5.812   6.086   5.322
 6992SOL    HW121875   5.754   6.084   5.240
 6992SOL    HW221876   5.792   6.169   5.374
 6993SOL     OW21877   6.113   6.503   3.134
 6993SOL    HW121878   6.092   6.473   3.041
 6993SOL    HW221879   6.055   6.455   3.199
 6994SOL     OW21880   0.571   3.002   4.812
 6994SOL    HW121881   0.581   3.053   4.898
 6994SOL    HW221882   0.569   3.065   4.735
 6995SOL     OW21883   6.312   5.165   4.569
 6995SOL    HW121884   6.267   5.249   4.599
 6995SOL    HW221885   6.313   5.099   4.645
 6996SOL     OW21886   2.556   1.178   5.301
 6996SOL    HW121887   2.615   1.106   5.338
 6996SOL    HW221888   2.573   1.188   5.203
 6997SOL     OW21889   4.897   6.047   5.567
 6997SOL    HW121890   4.815   6.105   5.565
 6997SOL    HW221891   4.923   6.029   5.662
 6998SOL     OW21892   1.741   2.680   1.404
 6998SOL    HW121893   1.766   2.679   1.501
 6998SOL    HW221894   1.815   2.722   1.351
 6999SOL     OW21895   2.340   1.890   6.870
 6999SOL    HW121896   2.360   1.820   6.802
 6999SOL    HW221897   2.425   1.932   6.901
 7000SOL     OW21898   0.423   6.404   2.967
 7000SOL    HW121899   0.424   6.403   2.867
 7000SOL    HW221900   0.339   6.361   3.000
 7001SOL     OW21901   2.668   2.917   5.591
 7001SOL    HW121902   2.608   2.838   5.577
 7001SOL    HW221903   2.681   2.965   5.504
 7002SOL     OW21904   2.346   4.807   3.150
 7002SOL    HW121905   2.395   4.766   3.074
 7002SOL    HW221906   2.398   4.885   3.186
 7003SOL     OW21907   3.597   6.696   0.041
 7003SOL    HW121908   3.592   6.725   0.137
 7003SOL    HW221909   3.646   6.765   7.012
 7004SOL     OW21910   2.034   5.133   1.628
 7004SOL    HW121911   2.069   5.089   1.711
 7004SOL    HW221912   1.942   5.167   1.644
 7005SOL     OW21913   0.464   6.381   5.615
 7005SOL    HW121914   0.422   6.344   5.532
 7005SOL    HW221915   0.436   6.476   5.627
 7006SOL     OW21916   5.438   5.180   4.888
 7006SOL    HW121917   5.379   5.100   4.900
 7006SOL    HW221918   5.409   5.253   4.949
 7007SOL     OW21919   5.365   6.528   3.193
 7007SOL    HW121920   5.441   6.504   3.133
 7007SOL    HW221921   5.389   6.510   3.288
 7008SOL     OW21922   2.494   5.189   4.010
 7008SOL    HW121923   2.478   5.093   4.034
 7008SOL    HW221924   2.479   5.247   4.090
 7009SOL     OW21925   6.240   5.153   2.190
 7009SOL    HW121926   6.156   5.148   2.136
 7009SOL    HW221927   6.217   5.155   2.288
 7010SOL     OW21928   4.678   4.194   6.205
 7010SOL    HW121929   4.729   4.272   6.242
 7010SOL    HW221930   4.700   4.182   6.109
 7011SOL     OW21931   1.651   0.651   6.095
 7011SOL    HW121932   1.620   0.700   6.176
 7011SOL    HW221933   1.581   0.584   6.068
 7012SOL     OW21934   1.960   0.878   2.340
 7012SOL    HW121935   2.024   0.808   2.371
 7012SOL    HW221936   1.918   0.922   2.420
 7013SOL     OW21937   0.060   0.082   0.411
 7013SOL    HW121938   0.016   0.121   0.491
 7013SOL    HW221939   0.149   0.046   0.435
 7014SOL     OW21940   4.683   3.912   1.174
 7014SOL    HW121941   4.624   3.973   1.227
 7014SOL    HW221942   4.712   3.835   1.230
 7015SOL     OW21943   5.360   4.433   1.858
 7015SOL    HW121944   5.386   4.478   1.773
 7015SOL    HW221945   5.298   4.492   1.909
 7016SOL     OW21946   3.455   4.947   2.080
 7016SOL    HW121947   3.518   4.938   2.157
 7016SOL    HW221948   3.480   4.881   2.009
 7017SOL     OW21949   2.713   0.197   2.071
 7017SOL    HW121950   2.632   0.255   2.070
 7017SOL    HW221951   2.792   0.252   2.097
 7018SOL     OW21952   6.512   4.739   4.447
 7018SOL    HW121953   6.521   4.834   4.418
 7018SOL    HW221954   6.562   4.679   4.385
 7019SOL     OW21955   3.036   4.248   6.390
 7019SOL    HW121956   3.084   4.237   6.477
 7019SOL    HW221957   3.009   4.158   6.355
 7020SOL     OW21958   6.209   6.828   6.867
 7020SOL    HW121959   6.140   6.830   6.795
 7020SOL    HW221960   6.249   6.737   6.873
 7021SOL     OW21961   2.636   0.841   5.842
 7021SOL    HW121962   2.567   0.838   5.770
 7021SOL    HW221963   2.697   0.762   5.833
 7022SOL     OW21964   5.140   4.372   0.340
 7022SOL    HW121965   5.055   4.320   0.332
 7022SOL    HW221966   5.203   4.344   0.267
 7023SOL     OW21967   0.548   2.568   3.543
 7023SOL    HW121968   0.641   2.591   3.514
 7023SOL    HW221969   0.485   2.584   3.468
 7024SOL     OW21970   1.278   5.879   5.841
 7024SOL    HW121971   1.352   5.818   5.810
 7024SOL    HW221972   1.214   5.827   5.897
 7025SOL     OW21973   3.693   1.550   0.376
 7025SOL    HW121974   3.623   1.609   0.335
 7025SOL    HW221975   3.709   1.578   0.471
 7026SOL     OW21976   2.837   1.434   2.114
 7026SOL    HW121977   2.764   1.369   2.093
 7026SOL    HW221978   2.925   1.397   2.086
 7027SOL     OW21979   2.863   5.665   2.416
 7027SOL    HW121980   2.815   5.717   2.345
 7027SOL    HW221981   2.874   5.723   2.497
 7028SOL     OW21982   5.540   6.157   4.721
 7028SOL    HW121983   5.631   6.135   4.685
 7028SOL    HW221984   5.485   6.198   4.649
 7029SOL     OW21985   3.771   6.908   6.959
 7029SOL    HW121986   3.793   6.957   0.019
 7029SOL    HW221987   3.856   6.887   6.910
 7030SOL     OW21988   0.086   2.572   5.599
 7030SOL    HW121989   0.013   2.632   5.631
 7030SOL    HW221990   0.096   2.582   5.500
 7031SOL     OW21991   1.786   5.987   3.401
 7031SOL    HW121992   1.815   5.900   3.441
 7031SOL    HW221993   1.688   6.001   3.421
 7032SOL     OW21994   3.667   6.910   4.023
 7032SOL    HW121995   3.659   6.814   3.998
 7032SOL    HW221996   3.749   6.924   4.078
 7033SOL     OW21997   6.850   1.687   4.039
 7033SOL    HW121998   6.840   1.786   4.045
 7033SOL    HW221999   6.801   1.653   3.958
 7034SOL     OW22000   6.064   0.824   2.950
 7034SOL    HW122001   5.995   0.806   2.881
 7034SOL    HW222002   6.064   0.922   2.973
 7035SOL     OW22003   0.867   6.841   2.066
 7035SOL    HW122004   0.835   6.897   2.143
 7035SOL    HW222005   0.919   6.897   2.002
 7036SOL     OW22006   6.597   6.539   1.689
 7036SOL    HW122007   6.561   6.629   1.665
 7036SOL    HW222008   6.552   6.469   1.635
 7037SOL     OW22009   0.181   6.781   6.204
 7037SOL    HW122010   0.263   6.730   6.230
 7037SOL    HW222011   0.189   6.813   6.110
 7038SOL     OW22012   2.033   3.786   4.664
 7038SOL    HW122013   1.994   3.846   4.735
 7038SOL    HW222014   1.988   3.804   4.577
 7039SOL     OW22015   2.558   6.240   0.430
 7039SOL    HW122016   2.528   6.145   0.421
 7039SOL    HW222017   2.480   6.301   0.414
 7040SOL     OW22018   4.651   2.619   5.402
 7040SOL    HW122019   4.651   2.520   5.391
 7040SOL    HW222020   4.658   2.663   5.313
 7041SOL     OW22021   0.948   2.057   3.389
 7041SOL    HW122022   0.941   1.981   3.454
 7041SOL    HW222023   1.029   2.112   3.410
 7042SOL     OW22024   5.578   5.216   6.696
 7042SOL    HW122025   5.553   5.292   6.637
 7042SOL    HW222026   5.637   5.249   6.769
 7043SOL     OW22027   2.087   2.563   2.733
 7043SOL    HW122028   2.072   2.649   2.783
 7043SOL    HW222029   2.033   2.490   2.776
 7044SOL     OW22030   4.806   4.296   2.985
 7044SOL    HW122031   4.864   4.371   3.017
 7044SOL    HW222032   4.861   4.213   2.977
 7045SOL     OW22033   4.413   6.327   1.933
 7045SOL    HW122034   4.410   6.420   1.968
 7045SOL    HW222035   4.320   6.297   1.910
 7046SOL     OW22036   3.620   2.113   3.286
 7046SOL    HW122037   3.575   2.155   3.207
 7046SOL    HW222038   3.550   2.082   3.352
 7047SOL     OW22039   0.904   2.595   2.945
 7047SOL    HW122040   0.992   2.573   2.902
 7047SOL    HW222041   0.920   2.658   3.022
 7048SOL     OW22042   0.457   6.140   1.357
 7048SOL    HW122043   0.387   6.084   1.400
 7048SOL    HW222044   0.463   6.117   1.260
 7049SOL     OW22045   2.248   0.965   0.390
 7049SOL    HW122046   2.161   0.975   0.437
 7049SOL    HW222047   2.313   1.032   0.424
 7050SOL     OW22048   3.780   4.063   3.842
 7050SOL    HW122049   3.855   3.998   3.842
 7050SOL    HW222050   3.806   4.144   3.894
 7051SOL     OW22051   0.517   0.529   1.032
 7051SOL    HW122052   0.438   0.566   0.984
 7051SOL    HW222053   0.565   0.465   0.973
 7052SOL     OW22054   6.398   2.740   4.379
 7052SOL    HW122055   6.449   2.795   4.445
 7052SOL    HW222056   6.310   2.713   4.419
 7053SOL     OW22057   0.627   2.855   5.285
 7053SOL    HW122058   0.586   2.831   5.197
 7053SOL    HW222059   0.726   2.851   5.278
 7054SOL     OW22060   1.209   6.368   1.291
 7054SOL    HW122061   1.155   6.305   1.346
 7054SOL    HW222062   1.213   6.457   1.337
 7055SOL     OW22063   3.446   6.384   5.248
 7055SOL    HW122064   3.492   6.303   5.211
 7055SOL    HW222065   3.480   6.403   5.340
 7056SOL     OW22066   5.368   4.916   3.549
 7056SOL    HW122067   5.291   4.966   3.510
 7056SOL    HW222068   5.381   4.830   3.500
 7057SOL     OW22069   1.306   4.569   4.506
 7057SOL    HW122070   1.389   4.536   4.461
 7057SOL    HW222071   1.321   4.574   4.605
 7058SOL     OW22072   6.308   5.628   6.083
 7058SOL    HW122073   6.298   5.685   6.001
 7058SOL    HW222074   6.278   5.535   6.063
 7059SOL     OW22075   0.607   6.898   2.920
 7059SOL    HW122076   0.640   6.842   2.844
 7059SOL    HW222077   0.683   6.917   2.983
 7060SOL     OW22078   3.157   0.297   1.765
 7060SOL    HW122079   3.251   0.263   1.773
 7060SOL    HW222080   3.115   0.259   1.682
 7061SOL     OW22081   0.168   2.678   3.636
 7061SOL    HW122082   0.143   2.754   3.696
 7061SOL    HW222083   0.087   2.623   3.617
 7062SOL     OW22084   5.550   1.449   6.200
 7062SOL    HW122085   5.544   1.503   6.116
 7062SOL    HW222086   5.464   1.457   6.252
 7063SOL     OW22087   0.642   0.349   0.857
 7063SOL    HW122088   0.673   0.342   0.762
 7063SOL    HW222089   0.646   0.259   0.900
 7064SOL     OW22090   4.086   2.180   1.788
 7064SOL    HW122091   4.044   2.126   1.862
 7064SOL    HW222092   4.018   2.244   1.752
 7065SOL     OW22093   4.364   3.835   0.790
 7065SOL    HW122094   4.347   3.843   0.692
 7065SOL    HW222095   4.292   3.780   0.833
 7066SOL     OW22096   3.987   0.486   1.065
 7066SOL    HW122097   3.904   0.440   1.098
 7066SOL    HW222098   4.067   0.446   1.108
 7067SOL     OW22099   1.567   1.707   5.253
 7067SOL    HW122100   1.572   1.660   5.341
 7067SOL    HW222101   1.580   1.805   5.266
 7068SOL     OW22102   0.972   4.162   3.211
 7068SOL    HW122103   0.976   4.206   3.122
 7068SOL    HW222104   0.888   4.189   3.258
 7069SOL     OW22105   6.418   2.712   4.116
 7069SOL    HW122106   6.447   2.617   4.099
 7069SOL    HW222107   6.406   2.726   4.214
 7070SOL     OW22108   6.606   6.481   5.109
 7070SOL    HW122109   6.578   6.577   5.105
 7070SOL    HW222110   6.527   6.426   5.136
 7071SOL     OW22111   0.672   6.559   5.884
 7071SOL    HW122112   0.715   6.474   5.851
 7071SOL    HW222113   0.624   6.603   5.808
 7072SOL     OW22114   6.497   6.755   6.141
 7072SOL    HW122115   6.542   6.815   6.074
 7072SOL    HW222116   6.565   6.716   6.202
 7073SOL     OW22117   5.966   0.303   4.628
 7073SOL    HW122118   5.948   0.342   4.538
 7073SOL    HW222119   5.997   0.376   4.690
 7074SOL     OW22120   4.009   3.225   1.390
 7074SOL    HW122121   3.997   3.178   1.302
 7074SOL    HW222122   3.954   3.180   1.460
 7075SOL     OW22123   0.889   6.410   4.934
 7075SOL    HW122124   0.919   6.491   4.984
 7075SOL    HW222125   0.790   6.415   4.918
 7076SOL     OW22126   4.265   2.529   0.162
 7076SOL    HW122127   4.178   2.479   0.168
 7076SOL    HW222128   4.257   2.615   0.213
 7077SOL     OW22129   1.917   5.044   5.715
 7077SOL    HW122130   1.887   5.037   5.810
 7077SOL    HW222131   1.941   5.139   5.695
 7078SOL     OW22132   6.333   0.495   1.739
 7078SOL    HW122133   6.315   0.564   1.809
 7078SOL    HW222134   6.299   0.527   1.651
 7079SOL     OW22135   0.101   6.209   5.314
 7079SOL    HW122136   0.063   6.185   5.225
 7079SOL    HW222137   0.080   6.136   5.380
 7080SOL     OW22138   3.811   2.078   4.088
 7080SOL    HW122139   3.776   2.028   4.008
 7080SOL    HW222140   3.897   2.123   4.063
 7081SOL     OW22141   3.242   0.451   5.962
 7081SOL    HW122142   3.204   0.527   5.910
 7081SOL    HW222143   3.201   0.449   6.053
 7082SOL     OW22144   5.955   5.991   6.796
 7082SOL    HW122145   5.964   6.007   6.698
 7082SOL    HW222146   5.858   5.994   6.821
 7083SOL     OW22147   3.051   1.215   7.017
 7083SOL    HW122148   3.084   1.270   6.940
 7083SOL    HW222149   3.111   1.136   0.005
 7084SOL     OW22150   6.844   6.996   5.709
 7084SOL    HW122151   6.864   0.019   5.623
 7084SOL    HW222152   6.800   6.908   5.689
 7085SOL     OW22153   2.120   0.932   3.285
 7085SOL    HW122154   2.080   0.872   3.354
 7085SOL    HW222155   2.220   0.921   3.286
 7086SOL     OW22156   4.875   1.103   5.977
 7086SOL    HW122157   4.854   1.055   6.061
 7086SOL    HW222158   4.841   1.197   5.983
 7087SOL     OW22159   6.215   4.352   3.678
 7087SOL    HW122160   6.182   4.355   3.772
 7087SOL    HW222161   6.266   4.267   3.664
 7088SOL     OW22162   5.038   2.586   3.695
 7088SOL    HW122163   5.038   2.526   3.615
 7088SOL    HW222164   5.127   2.632   3.701
 7089SOL     OW22165   3.047   2.002   5.969
 7089SOL    HW122166   3.096   2.087   5.989
 7089SOL    HW222167   2.972   1.991   6.035
 7090SOL     OW22168   3.016   1.586   6.439
 7090SOL    HW122169   3.107   1.572   6.398
 7090SOL    HW222170   3.004   1.683   6.461
 7091SOL     OW22171   6.927   2.452   6.883
 7091SOL    HW122172   6.847   2.441   6.942
 7091SOL    HW222173   6.898   2.483   6.793
 7092SOL     OW22174   4.551   2.696   6.187
 7092SOL    HW122175   4.631   2.646   6.219
 7092SOL    HW222176   4.579   2.759   6.114
 7093SOL     OW22177   3.165   3.942   3.736
 7093SOL    HW122178   3.131   4.014   3.675
 7093SOL    HW222179   3.095   3.871   3.745
 7094SOL     OW22180   0.539   5.729   6.066
 7094SOL    HW122181   0.551   5.768   5.975
 7094SOL    HW222182   0.448   5.752   6.101
 7095SOL     OW22183   2.594   2.828   6.975
 7095SOL    HW122184   2.642   2.782   6.899
 7095SOL    HW222185   2.502   2.791   6.983
 7096SOL     OW22186   6.027   0.823   3.911
 7096SOL    HW122187   6.050   0.892   3.842
 7096SOL    HW222188   6.050   0.858   4.002
 7097SOL     OW22189   6.792   0.663   1.831
 7097SOL    HW122190   6.751   0.603   1.762
 7097SOL    HW222191   6.767   0.630   1.922
 7098SOL     OW22192   0.796   6.695   4.586
 7098SOL    HW122193   0.796   6.597   4.567
 7098SOL    HW222194   0.876   6.719   4.640
 7099SOL     OW22195   2.365   0.618   4.520
 7099SOL    HW122196   2.347   0.622   4.421
 7099SOL    HW222197   2.320   0.695   4.565
 7100SOL     OW22198   5.601   3.232   1.144
 7100SOL    HW122199   5.675   3.165   1.133
 7100SOL    HW222200   5.518   3.198   1.099
 7101SOL     OW22201   2.341   7.006   5.114
 7101SOL    HW122202   2.416   6.944   5.138
 7101SOL    HW222203   2.269   6.999   5.183
 7102SOL     OW22204   4.789   0.688   1.295
 7102SOL    HW122205   4.871   0.681   1.237
 7102SOL    HW222206   4.778   0.782   1.327
 7103SOL     OW22207   4.198   5.282   0.681
 7103SOL    HW122208   4.152   5.371   0.680
 7103SOL    HW222209   4.269   5.281   0.611
 7104SOL     OW22210   1.274   3.071   4.632
 7104SOL    HW122211   1.366   3.095   4.600
 7104SOL    HW222212   1.231   3.152   4.672
 7105SOL     OW22213   2.907   2.638   5.484
 7105SOL    HW122214   2.980   2.591   5.535
 7105SOL    HW222215   2.821   2.632   5.535
 7106SOL     OW22216   3.321   2.948   3.142
 7106SOL    HW122217   3.269   2.986   3.066
 7106SOL    HW222218   3.260   2.896   3.202
 7107SOL     OW22219   3.030   0.894   0.589
 7107SOL    HW122220   3.066   0.952   0.516
 7107SOL    HW222221   3.106   0.861   0.646
 7108SOL     OW22222   4.068   6.119   1.553
 7108SOL    HW122223   4.091   6.023   1.567
 7108SOL    HW222224   4.107   6.174   1.627
 7109SOL     OW22225   3.710   6.982   6.447
 7109SOL    HW122226   3.788   6.928   6.416
 7109SOL    HW222227   3.668   6.937   6.526
 7110SOL     OW22228   4.734   5.587   4.036
 7110SOL    HW122229   4.781   5.551   4.117
 7110SOL    HW222230   4.688   5.512   3.988
 7111SOL     OW22231   1.831   2.292   4.658
 7111SOL    HW122232   1.851   2.389   4.647
 7111SOL    HW222233   1.776   2.260   4.581
 7112SOL     OW22234   2.077   5.579   3.575
 7112SOL    HW122235   2.164   5.532   3.560
 7112SOL    HW222236   2.044   5.560   3.667
 7113SOL     OW22237   3.013   4.028   5.068
 7113SOL    HW122238   2.950   4.006   5.143
 7113SOL    HW222239   3.090   4.082   5.104
 7114SOL     OW22240   3.915   6.954   2.138
 7114SOL    HW122241   3.958   6.959   2.228
 7114SOL    HW222242   3.838   7.017   2.134
 7115SOL     OW22243   5.137   2.461   1.949
 7115SOL    HW122244   5.144   2.467   1.849
 7115SOL    HW222245   5.166   2.548   1.989
 7116SOL     OW22246   5.536   3.204   3.616
 7116SOL    HW122247   5.549   3.209   3.517
 7116SOL    HW222248   5.571   3.287   3.659
 7117SOL     OW22249   0.205   6.901   4.460
 7117SOL    HW122250   0.260   6.944   4.531
 7117SOL    HW222251   0.213   6.801   4.468
 7118SOL     OW22252   3.719   3.665   0.689
 7118SOL    HW122253   3.669   3.579   0.699
 7118SOL    HW222254   3.654   3.741   0.685
 7119SOL     OW22255   5.486   1.685   3.378
 7119SOL    HW122256   5.502   1.761   3.315
 7119SOL    HW222257   5.390   1.657   3.373
 7120SOL     OW22258   4.089   1.748   2.842
 7120SOL    HW122259   4.141   1.808   2.782
 7120SOL    HW222260   4.150   1.681   2.883
 7121SOL     OW22261   3.189   6.988   2.249
 7121SOL    HW122262   3.170   6.935   2.166
 7121SOL    HW222263   3.115   0.029   2.264
 7122SOL     OW22264   6.697   1.104   5.966
 7122SOL    HW122265   6.744   1.021   5.994
 7122SOL    HW222266   6.764   1.175   5.945
 7123SOL     OW22267   2.722   4.729   1.284
 7123SOL    HW122268   2.644   4.699   1.339
 7123SOL    HW222269   2.804   4.732   1.341
 7124SOL     OW22270   0.665   3.251   0.281
 7124SOL    HW122271   0.684   3.174   0.341
 7124SOL    HW222272   0.580   3.296   0.310
 7125SOL     OW22273   6.447   6.985   1.375
 7125SOL    HW122274   6.494   6.967   1.462
 7125SOL    HW222275   6.354   7.015   1.394
 7126SOL     OW22276   3.115   4.935   6.564
 7126SOL    HW122277   3.197   4.946   6.509
 7126SOL    HW222278   3.106   5.012   6.627
 7127SOL     OW22279   2.755   5.750   4.407
 7127SOL    HW122280   2.790   5.816   4.474
 7127SOL    HW222281   2.689   5.796   4.347
 7128SOL     OW22282   2.430   5.570   0.070
 7128SOL    HW122283   2.348   5.521   0.098
 7128SOL    HW222284   2.500   5.504   0.041
 7129SOL     OW22285   3.469   0.427   0.624
 7129SOL    HW122286   3.423   0.478   0.552
 7129SOL    HW222287   3.562   0.462   0.636
 7130SOL     OW22288   3.190   4.835   5.159
 7130SOL    HW122289   3.269   4.872   5.109
 7130SOL    HW222290   3.109   4.839   5.101
 7131SOL     OW22291   3.232   1.266   0.640
 7131SOL    HW122292   3.174   1.200   0.687
 7131SOL    HW222293   3.181   1.305   0.563
 7132SOL     OW22294   2.946   4.173   0.700
 7132SOL    HW122295   3.002   4.255   0.686
 7132SOL    HW222296   2.858   4.199   0.739
 7133SOL     OW22297   4.585   5.305   3.977
 7133SOL    HW122298   4.504   5.359   3.997
 7133SOL    HW222299   4.598   5.299   3.878
 7134SOL     OW22300   6.279   5.704   2.372
 7134SOL    HW122301   6.306   5.740   2.283
 7134SOL    HW222302   6.346   5.732   2.441
 7135SOL     OW22303   1.696   1.842   3.296
 7135SOL    HW122304   1.599   1.837   3.322
 7135SOL    HW222305   1.703   1.852   3.197
 7136SOL     OW22306   1.637   3.054   1.168
 7136SOL    HW122307   1.621   2.957   1.152
 7136SOL    HW222308   1.715   3.065   1.229
 7137SOL     OW22309   4.920   0.347   6.203
 7137SOL    HW122310   4.836   0.335   6.150
 7137SOL    HW222311   4.979   0.268   6.190
 7138SOL     OW22312   2.132   2.681   0.608
 7138SOL    HW122313   2.159   2.609   0.544
 7138SOL    HW222314   2.200   2.755   0.604
 7139SOL     OW22315   4.855   3.895   2.483
 7139SOL    HW122316   4.871   3.993   2.476
 7139SOL    HW222317   4.852   3.855   2.392
 7140SOL     OW22318   6.189   3.011   4.372
 7140SOL    HW122319   6.171   2.920   4.335
 7140SOL    HW222320   6.178   3.079   4.300
 7141SOL     OW22321   2.628   6.209   0.824
 7141SOL    HW122322   2.608   6.112   0.836
 7141SOL    HW222323   2.677   6.223   0.738
 7142SOL     OW22324   4.411   6.728   3.111
 7142SOL    HW122325   4.456   6.801   3.161
 7142SOL    HW222326   4.465   6.645   3.116
 7143SOL     OW22327   1.613   2.576   5.962
 7143SOL    HW122328   1.680   2.502   5.957
 7143SOL    HW222329   1.648   2.649   6.021
 7144SOL     OW22330   1.925   1.544   3.884
 7144SOL    HW122331   1.888   1.515   3.972
 7144SOL    HW222332   1.853   1.545   3.815
 7145SOL     OW22333   4.725   6.202   6.162
 7145SOL    HW122334   4.713   6.270   6.234
 7145SOL    HW222335   4.802   6.143   6.184
 7146SOL     OW22336   2.197   0.391   6.880
 7146SOL    HW122337   2.233   0.484   6.890
 7146SOL    HW222338   2.273   0.328   6.864
 7147SOL     OW22339   6.405   6.102   2.860
 7147SOL    HW122340   6.363   6.147   2.781
 7147SOL    HW222341   6.344   6.111   2.939
 7148SOL     OW22342   6.762   6.240   1.555
 7148SOL    HW122343   6.763   6.142   1.533
 7148SOL    HW222344   6.668   6.274   1.549
 7149SOL     OW22345   6.483   6.811   3.567
 7149SOL    HW122346   6.545   6.886   3.543
 7149SOL    HW222347   6.512   6.769   3.652
 7150SOL     OW22348   4.547   2.392   1.646
 7150SOL    HW122349   4.631   2.385   1.699
 7150SOL    HW222350   4.473   2.423   1.706
 7151SOL     OW22351   1.195   5.931   0.684
 7151SOL    HW122352   1.141   5.857   0.643
 7151SOL    HW222353   1.233   5.900   0.771
 7152SOL     OW22354   0.540   2.191   5.205
 7152SOL    HW122355   0.574   2.175   5.297
 7152SOL    HW222356   0.563   2.285   5.177
 7153SOL     OW22357   3.309   6.349   3.203
 7153SOL    HW122358   3.229   6.335   3.262
 7153SOL    HW222359   3.330   6.264   3.155
 7154SOL     OW22360   3.918   6.550   5.073
 7154SOL    HW122361   3.889   6.582   4.983
 7154SOL    HW222362   3.870   6.465   5.096
 7155SOL     OW22363   2.320   5.608   1.724
 7155SOL    HW122364   2.247   5.675   1.717
 7155SOL    HW222365   2.281   5.516   1.719
 7156SOL     OW22366   0.543   4.468   4.610
 7156SOL    HW122367   0.551   4.555   4.660
 7156SOL    HW222368   0.634   4.441   4.576
 7157SOL     OW22369   6.358   4.263   1.164
 7157SOL    HW122370   6.360   4.166   1.139
 7157SOL    HW222371   6.338   4.317   1.082
 7158SOL     OW22372   1.094   0.224   2.978
 7158SOL    HW122373   1.076   0.258   3.070
 7158SOL    HW222374   1.069   0.127   2.972
 7159SOL     OW22375   6.988   4.123   2.656
 7159SOL    HW122376   0.059   4.099   2.639
 7159SOL    HW222377   6.983   4.190   2.730
 7160SOL     OW22378   5.958   0.114   3.055
 7160SOL    HW122379   5.874   0.166   3.074
 7160SOL    HW222380   6.020   0.121   3.134
 7161SOL     OW22381   3.203   4.194   5.174
 7161SOL    HW122382   3.280   4.231   5.121
 7161SOL    HW222383   3.236   4.161   5.262
 7162SOL     OW22384   2.768   6.112   5.902
 7162SOL    HW122385   2.687   6.065   5.870
 7162SOL    HW222386   2.771   6.205   5.863
 7163SOL     OW22387   2.872   6.370   3.648
 7163SOL    HW122388   2.801   6.301   3.635
 7163SOL    HW222389   2.839   6.458   3.613
 7164SOL     OW22390   2.154   2.032   3.387
 7164SOL    HW122391   2.084   2.066   3.324
 7164SOL    HW222392   2.180   1.939   3.359
 7165SOL     OW22393   6.742   1.542   1.205
 7165SOL    HW122394   6.708   1.609   1.271
 7165SOL    HW222395   6.787   1.467   1.254
 7166SOL     OW22396   5.166   3.181   0.254
 7166SOL    HW122397   5.146   3.102   0.196
 7166SOL    HW222398   5.264   3.186   0.271
 7167SOL     OW22399   5.279   3.651   4.978
 7167SOL    HW122400   5.261   3.560   4.940
 7167SOL    HW222401   5.276   3.647   5.077
 7168SOL     OW22402   0.849   2.444   4.156
 7168SOL    HW122403   0.929   2.484   4.202
 7168SOL    HW222404   0.809   2.512   4.094
 7169SOL     OW22405   0.748   3.535   5.250
 7169SOL    HW122406   0.650   3.557   5.242
 7169SOL    HW222407   0.797   3.573   5.171
 7170SOL     OW22408   4.843   6.227   4.095
 7170SOL    HW122409   4.860   6.167   4.173
 7170SOL    HW222410   4.789   6.178   4.026
 7171SOL     OW22411   5.750   4.091   6.417
 7171SOL    HW122412   5.801   4.153   6.357
 7171SOL    HW222413   5.659   4.076   6.379
 7172SOL     OW22414   1.621   0.486   5.764
 7172SOL    HW122415   1.526   0.515   5.775
 7172SOL    HW222416   1.624   0.388   5.744
 7173SOL     OW22417   6.884   4.988   5.278
 7173SOL    HW122418   6.925   5.070   5.318
 7173SOL    HW222419   6.799   5.012   5.232
 7174SOL     OW22420   0.845   4.943   6.422
 7174SOL    HW122421   0.750   4.936   6.392
 7174SOL    HW222422   0.883   5.031   6.392
 7175SOL     OW22423   5.512   3.676   0.292
 7175SOL    HW122424   5.524   3.592   0.238
 7175SOL    HW222425   5.416   3.705   0.285
 7176SOL     OW22426   0.719   5.463   3.134
 7176SOL    HW122427   0.795   5.516   3.171
 7176SOL    HW222428   0.732   5.451   3.035
 7177SOL     OW22429   2.372   0.015   4.296
 7177SOL    HW122430   2.471   0.004   4.285
 7177SOL    HW222431   2.326   7.010   4.213
 7178SOL     OW22432   2.547   3.163   5.737
 7178SOL    HW122433   2.574   3.068   5.746
 7178SOL    HW222434   2.576   3.198   5.648
 7179SOL     OW22435   1.523   3.394   4.758
 7179SOL    HW122436   1.437   3.377   4.805
 7179SOL    HW222437   1.510   3.385   4.659
 7180SOL     OW22438   1.220   4.584   6.548
 7180SOL    HW122439   1.154   4.659   6.548
 7180SOL    HW222440   1.250   4.566   6.642
 7181SOL     OW22441   2.349   5.927   0.729
 7181SOL    HW122442   2.331   6.025   0.744
 7181SOL    HW222443   2.274   5.887   0.677
 7182SOL     OW22444   1.979   3.198   5.362
 7182SOL    HW122445   1.930   3.121   5.321
 7182SOL    HW222446   2.029   3.248   5.291
 7183SOL     OW22447   1.501   5.436   0.608
 7183SOL    HW122448   1.562   5.393   0.541
 7183SOL    HW222449   1.529   5.411   0.700
 7184SOL     OW22450   0.873   0.457   3.094
 7184SOL    HW122451   0.923   0.401   3.160
 7184SOL    HW222452   0.854   0.402   3.012
 7185SOL     OW22453   5.267   1.635   5.654
 7185SOL    HW122454   5.252   1.594   5.744
 7185SOL    HW222455   5.202   1.708   5.640
 7186SOL     OW22456   6.673   0.143   6.305
 7186SOL    HW122457   6.700   0.186   6.219
 7186SOL    HW222458   6.724   0.057   6.317
 7187SOL     OW22459   2.860   4.728   0.525
 7187SOL    HW122460   2.849   4.703   0.621
 7187SOL    HW222461   2.812   4.814   0.508
 7188SOL     OW22462   5.324   6.757   0.620
 7188SOL    HW122463   5.423   6.764   0.621
 7188SOL    HW222464   5.292   6.717   0.706
 7189SOL     OW22465   6.539   1.693   6.177
 7189SOL    HW122466   6.452   1.712   6.222
 7189SOL    HW222467   6.612   1.743   6.223
 7190SOL     OW22468   5.619   3.799   2.999
 7190SOL    HW122469   5.546   3.743   2.959
 7190SOL    HW222470   5.672   3.841   2.926
 7191SOL     OW22471   0.082   4.589   2.486
 7191SOL    HW122472   0.058   4.669   2.431
 7191SOL    HW222473   0.064   4.506   2.434
 7192SOL     OW22474   2.866   5.298   4.934
 7192SOL    HW122475   2.793   5.266   4.994
 7192SOL    HW222476   2.950   5.247   4.953
 7193SOL     OW22477   2.998   1.536   3.207
 7193SOL    HW122478   2.911   1.567   3.245
 7193SOL    HW222479   2.999   1.554   3.108
 7194SOL     OW22480   2.618   2.287   0.991
 7194SOL    HW122481   2.602   2.197   1.031
 7194SOL    HW222482   2.547   2.350   1.023
 7195SOL     OW22483   0.601   5.089   6.298
 7195SOL    HW122484   0.670   5.140   6.246
 7195SOL    HW222485   0.511   5.130   6.282
 7196SOL     OW22486   3.354   4.026   1.707
 7196SOL    HW122487   3.352   4.005   1.805
 7196SOL    HW222488   3.272   4.078   1.683
 7197SOL     OW22489   0.105   2.375   6.129
 7197SOL    HW122490   0.191   2.325   6.125
 7197SOL    HW222491   0.041   2.336   6.062
 7198SOL     OW22492   1.018   1.030   5.602
 7198SOL    HW122493   0.989   1.084   5.681
 7198SOL    HW222494   0.980   1.071   5.519
 7199SOL     OW22495   2.534   0.377   2.083
 7199SOL    HW122496   2.570   0.462   2.121
 7199SOL    HW222497   2.435   0.385   2.073
 7200SOL     OW22498   2.384   1.658   0.495
 7200SOL    HW122499   2.401   1.727   0.424
 7200SOL    HW222500   2.472   1.629   0.534
 7201SOL     OW22501   1.759   5.301   3.724
 7201SOL    HW122502   1.700   5.370   3.767
 7201SOL    HW222503   1.731   5.288   3.629
 7202SOL     OW22504   4.234   0.159   5.953
 7202SOL    HW122505   4.292   0.229   5.995
 7202SOL    HW222506   4.210   0.186   5.860
 7203SOL     OW22507   0.064   1.174   0.966
 7203SOL    HW122508   0.047   1.257   0.913
 7203SOL    HW222509   0.102   1.103   0.905
 7204SOL     OW22510   6.544   6.754   5.114
 7204SOL    HW122511   6.462   6.756   5.056
 7204SOL    HW222512   6.564   6.846   5.147
 7205SOL     OW22513   2.132   5.924   3.041
 7205SOL    HW122514   2.214   5.976   3.064
 7205SOL    HW222515   2.099   5.876   3.123
 7206SOL     OW22516   1.798   0.487   1.617
 7206SOL    HW122517   1.741   0.564   1.589
 7206SOL    HW222518   1.870   0.519   1.678
 7207SOL     OW22519   3.611   6.526   1.169
 7207SOL    HW122520   3.671   6.555   1.095
 7207SOL    HW222521   3.523   6.495   1.131
 7208SOL     OW22522   4.181   6.320   4.196
 7208SOL    HW122523   4.108   6.329   4.128
 7208SOL    HW222524   4.242   6.398   4.188
 7209SOL     OW22525   2.919   3.696   2.553
 7209SOL    HW122526   3.010   3.669   2.523
 7209SOL    HW222527   2.867   3.732   2.476
 7210SOL     OW22528   4.658   6.744   4.409
 7210SOL    HW122529   4.684   6.669   4.470
 7210SOL    HW222530   4.608   6.813   4.461
 7211SOL     OW22531   2.126   5.479   3.860
 7211SOL    HW122532   2.221   5.503   3.841
 7211SOL    HW222533   2.123   5.407   3.930
 7212SOL     OW22534   0.912   6.075   3.195
 7212SOL    HW122535   0.843   6.117   3.136
 7212SOL    HW222536   0.870   6.047   3.281
 7213SOL     OW22537   6.075   0.707   6.784
 7213SOL    HW122538   6.166   0.709   6.744
 7213SOL    HW222539   6.023   0.630   6.747
 7214SOL     OW22540   1.628   5.606   4.288
 7214SOL    HW122541   1.553   5.671   4.278
 7214SOL    HW222542   1.682   5.604   4.204
 7215SOL     OW22543   0.603   3.389   4.153
 7215SOL    HW122544   0.679   3.362   4.212
 7215SOL    HW222545   0.542   3.312   4.138
 7216SOL     OW22546   2.091   5.781   6.816
 7216SOL    HW122547   2.118   5.691   6.781
 7216SOL    HW222548   2.163   5.817   6.875
 7217SOL     OW22549   2.156   4.297   1.729
 7217SOL    HW122550   2.126   4.297   1.824
 7217SOL    HW222551   2.123   4.215   1.683
 7218SOL     OW22552   4.442   2.746   5.568
 7218SOL    HW122553   4.531   2.727   5.528
 7218SOL    HW222554   4.430   2.845   5.578
 7219SOL     OW22555   5.279   5.679   4.018
 7219SOL    HW122556   5.354   5.617   4.038
 7219SOL    HW222557   5.206   5.667   4.086
 7220SOL     OW22558   0.523   5.517   3.815
 7220SOL    HW122559   0.538   5.438   3.755
 7220SOL    HW222560   0.467   5.585   3.768
 7221SOL     OW22561   5.022   5.198   5.222
 7221SOL    HW122562   5.052   5.171   5.314
 7221SOL    HW222563   4.948   5.264   5.229
 7222SOL     OW22564   6.250   6.896   1.956
 7222SOL    HW122565   6.317   6.878   2.028
 7222SOL    HW222566   6.169   6.941   1.995
 7223SOL     OW22567   2.751   2.041   1.428
 7223SOL    HW122568   2.814   2.082   1.494
 7223SOL    HW222569   2.754   1.942   1.436
 7224SOL     OW22570   5.739   2.075   4.469
 7224SOL    HW122571   5.659   2.120   4.430
 7224SOL    HW222572   5.746   2.098   4.566
 7225SOL     OW22573   0.986   6.416   6.301
 7225SOL    HW122574   0.929   6.496   6.318
 7225SOL    HW222575   0.993   6.362   6.385
 7226SOL     OW22576   0.934   0.469   0.392
 7226SOL    HW122577   0.852   0.417   0.369
 7226SOL    HW222578   0.986   0.487   0.309
 7227SOL     OW22579   0.404   2.585   1.270
 7227SOL    HW122580   0.328   2.520   1.259
 7227SOL    HW222581   0.469   2.573   1.196
 7228SOL     OW22582   0.077   1.334   2.357
 7228SOL    HW122583   0.060   1.241   2.324
 7228SOL    HW222584   0.169   1.339   2.395
 7229SOL     OW22585   1.223   0.765   3.946
 7229SOL    HW122586   1.289   0.693   3.967
 7229SOL    HW222587   1.246   0.848   3.997
 7230SOL     OW22588   4.649   5.967   4.925
 7230SOL    HW122589   4.716   5.980   4.997
 7230SOL    HW222590   4.693   5.930   4.843
 7231SOL     OW22591   4.591   0.189   0.037
 7231SOL    HW122592   4.684   0.196   0.072
 7231SOL    HW222593   4.533   0.142   0.103
 7232SOL     OW22594   4.002   5.204   3.485
 7232SOL    HW122595   4.020   5.106   3.488
 7232SOL    HW222596   4.021   5.239   3.394
 7233SOL     OW22597   0.544   2.750   4.674
 7233SOL    HW122598   0.563   2.848   4.686
 7233SOL    HW222599   0.491   2.717   4.753
 7234SOL     OW22600   5.701   2.487   2.867
 7234SOL    HW122601   5.716   2.534   2.780
 7234SOL    HW222602   5.629   2.533   2.919
 7235SOL     OW22603   6.428   4.339   2.898
 7235SOL    HW122604   6.521   4.321   2.866
 7235SOL    HW222605   6.420   4.436   2.922
 7236SOL     OW22606   3.216   1.582   2.656
 7236SOL    HW122607   3.290   1.517   2.638
 7236SOL    HW222608   3.133   1.552   2.607
 7237SOL     OW22609   6.533   6.622   5.432
 7237SOL    HW122610   6.551   6.667   5.345
 7237SOL    HW222611   6.442   6.647   5.465
 7238SOL     OW22612   2.241   2.310   1.057
 7238SOL    HW122613   2.212   2.243   0.989
 7238SOL    HW222614   2.169   2.378   1.071
 7239SOL     OW22615   2.818   1.669   3.767
 7239SOL    HW122616   2.732   1.712   3.741
 7239SOL    HW222617   2.837   1.592   3.705
 7240SOL     OW22618   2.495   4.379   6.553
 7240SOL    HW122619   2.582   4.428   6.550
 7240SOL    HW222620   2.461   4.375   6.647
 7241SOL     OW22621   3.165   0.625   6.943
 7241SOL    HW122622   3.179   0.530   6.971
 7241SOL    HW222623   3.189   0.634   6.847
 7242SOL     OW22624   6.533   4.793   6.824
 7242SOL    HW122625   6.443   4.755   6.802
 7242SOL    HW222626   6.581   4.732   6.887
 7243SOL     OW22627   0.682   4.796   6.903
 7243SOL    HW122628   0.587   4.825   6.918
 7243SOL    HW222629   0.738   4.823   6.982
 7244SOL     OW22630   4.433   0.511   1.504
 7244SOL    HW122631   4.366   0.461   1.449
 7244SOL    HW222632   4.420   0.609   1.492
 7245SOL     OW22633   0.509   2.019   5.002
 7245SOL    HW122634   0.502   2.071   5.087
 7245SOL    HW222635   0.573   2.065   4.940
 7246SOL     OW22636   6.318   6.766   4.983
 7246SOL    HW122637   6.281   6.766   4.891
 7246SOL    HW222638   6.244   6.747   5.049
 7247SOL     OW22639   2.624   6.525   3.223
 7247SOL    HW122640   2.541   6.569   3.189
 7247SOL    HW222641   2.640   6.440   3.173
 7248SOL     OW22642   3.790   0.990   3.441
 7248SOL    HW122643   3.745   0.901   3.451
 7248SOL    HW222644   3.726   1.063   3.464
 7249SOL     OW22645   5.687   4.933   1.658
 7249SOL    HW122646   5.706   4.892   1.570
 7249SOL    HW222647   5.653   4.863   1.721
 7250SOL     OW22648   3.167   5.076   6.259
 7250SOL    HW122649   3.237   5.097   6.327
 7250SOL    HW222650   3.141   5.159   6.210
 7251SOL     OW22651   6.787   6.732   5.637
 7251SOL    HW122652   6.766   6.657   5.574
 7251SOL    HW222653   6.875   6.715   5.681
 7252SOL     OW22654   3.364   3.120   3.966
 7252SOL    HW122655   3.373   3.047   3.897
 7252SOL    HW222656   3.333   3.080   4.052
 7253SOL     OW22657   1.075   6.960   0.127
 7253SOL    HW122658   1.033   0.019   0.092
 7253SOL    HW222659   1.065   6.955   0.226
 7254SOL     OW22660   4.242   5.201   5.163
 7254SOL    HW122661   4.312   5.183   5.093
 7254SOL    HW222662   4.277   5.267   5.229
 7255SOL     OW22663   3.558   3.776   1.997
 7255SOL    HW122664   3.525   3.844   2.063
 7255SOL    HW222665   3.480   3.724   1.962
 7256SOL     OW22666   4.947   4.929   4.660
 7256SOL    HW122667   4.892   4.975   4.730
 7256SOL    HW222668   5.041   4.919   4.692
 7257SOL     OW22669   5.994   3.094   3.409
 7257SOL    HW122670   5.913   3.153   3.398
 7257SOL    HW222671   6.077   3.150   3.403
 7258SOL     OW22672   4.638   0.392   4.419
 7258SOL    HW122673   4.710   0.457   4.398
 7258SOL    HW222674   4.613   0.341   4.337
 7259SOL     OW22675   3.074   3.866   1.129
 7259SOL    HW122676   3.048   3.911   1.043
 7259SOL    HW222677   2.995   3.820   1.168
 7260SOL     OW22678   3.562   2.124   2.892
 7260SOL    HW122679   3.580   2.137   2.794
 7260SOL    HW222680   3.625   2.182   2.945
 7261SOL     OW22681   3.210   2.690   1.684
 7261SOL    HW122682   3.303   2.656   1.698
 7261SOL    HW222683   3.183   2.748   1.760
 7262SOL     OW22684   6.034   2.223   3.669
 7262SOL    HW122685   5.945   2.195   3.705
 7262SOL    HW222686   6.091   2.258   3.744
 7263SOL     OW22687   1.008   5.569   1.976
 7263SOL    HW122688   1.036   5.475   1.997
 7263SOL    HW222689   1.029   5.628   2.055
 7264SOL     OW22690   0.068   1.989   6.906
 7264SOL    HW122691   0.069   1.941   6.818
 7264SOL    HW222692   0.090   1.925   6.979
 7265SOL     OW22693   5.406   5.252   5.965
 7265SOL    HW122694   5.439   5.172   6.016
 7265SOL    HW222695   5.485   5.303   5.930
 7266SOL     OW22696   4.292   0.626   1.047
 7266SOL    HW122697   4.274   0.653   1.141
 7266SOL    HW222698   4.302   0.526   1.043
 7267SOL     OW22699   6.377   5.000   5.432
 7267SOL    HW122700   6.399   5.092   5.463
 7267SOL    HW222701   6.382   4.995   5.333
 7268SOL     OW22702   3.959   4.813   2.868
 7268SOL    HW122703   4.044   4.760   2.868
 7268SOL    HW222704   3.930   4.830   2.962
 7269SOL     OW22705   0.345   5.890   1.763
 7269SOL    HW122706   0.313   5.983   1.781
 7269SOL    HW222707   0.310   5.828   1.834
 7270SOL     OW22708   2.004   2.109   3.190
 7270SOL    HW122709   2.006   2.049   3.110
 7270SOL    HW222710   2.054   2.193   3.169
 7271SOL     OW22711   0.701   4.658   3.270
 7271SOL    HW122712   0.748   4.735   3.311
 7271SOL    HW222713   0.602   4.671   3.277
 7272SOL     OW22714   5.572   3.264   2.899
 7272SOL    HW122715   5.609   3.198   2.835
 7272SOL    HW222716   5.512   3.328   2.851
 7273SOL     OW22717   5.784   4.540   1.474
 7273SOL    HW122718   5.797   4.489   1.389
 7273SOL    HW222719   5.687   4.537   1.499
 7274SOL     OW22720   6.989   5.666   6.282
 7274SOL    HW122721   7.006   5.570   6.260
 7274SOL    HW222722   0.015   5.724   6.218
 7275SOL     OW22723   6.058   1.017   0.316
 7275SOL    HW122724   6.101   1.023   0.406
 7275SOL    HW222725   6.128   1.029   0.246
 7276SOL     OW22726   3.364   1.434   3.768
 7276SOL    HW122727   3.440   1.442   3.832
 7276SOL    HW222728   3.282   1.477   3.806
 7277SOL     OW22729   5.353   1.034   5.455
 7277SOL    HW122730   5.383   0.983   5.375
 7277SOL    HW222731   5.256   1.058   5.445
 7278SOL     OW22732   3.919   2.147   3.063
 7278SOL    HW122733   3.959   2.166   3.153
 7278SOL    HW222734   3.993   2.127   2.998
 7279SOL     OW22735   4.565   4.009   0.420
 7279SOL    HW122736   4.478   4.050   0.393
 7279SOL    HW222737   4.550   3.913   0.444
 7280SOL     OW22738   5.632   2.147   5.343
 7280SOL    HW122739   5.597   2.136   5.250
 7280SOL    HW222740   5.595   2.232   5.382
 7281SOL     OW22741   3.258   6.981   0.904
 7281SOL    HW122742   3.344   6.963   0.952
 7281SOL    HW222743   3.181   6.950   0.961
 7282SOL     OW22744   6.503   5.960   1.602
 7282SOL    HW122745   6.510   6.036   1.667
 7282SOL    HW222746   6.407   5.931   1.596
 7283SOL     OW22747   3.190   6.510   1.845
 7283SOL    HW122748   3.105   6.484   1.891
 7283SOL    HW222749   3.232   6.430   1.803
 7284SOL     OW22750   6.491   2.799   3.839
 7284SOL    HW122751   6.470   2.757   3.927
 7284SOL    HW222752   6.586   2.830   3.837
 7285SOL     OW22753   5.098   2.737   1.269
 7285SOL    HW122754   5.133   2.826   1.239
 7285SOL    HW222755   5.165   2.694   1.329
 7286SOL     OW22756   1.004   1.450   0.520
 7286SOL    HW122757   1.048   1.499   0.445
 7286SOL    HW222758   0.936   1.386   0.484
 7287SOL     OW22759   6.910   2.739   3.775
 7287SOL    HW122760   6.904   2.775   3.682
 7287SOL    HW222761   6.978   2.791   3.827
 7288SOL     OW22762   2.123   2.576   2.480
 7288SOL    HW122763   2.107   2.553   2.576
 7288SOL    HW222764   2.182   2.507   2.439
 7289SOL     OW22765   5.631   2.635   2.184
 7289SOL    HW122766   5.578   2.673   2.260
 7289SOL    HW222767   5.569   2.605   2.111
 7290SOL     OW22768   3.978   1.097   5.411
 7290SOL    HW122769   3.935   1.187   5.404
 7290SOL    HW222770   3.953   1.055   5.498
 7291SOL     OW22771   3.126   6.926   0.310
 7291SOL    HW122772   3.153   7.006   0.364
 7291SOL    HW222773   3.191   6.913   0.235
 7292SOL     OW22774   1.835   6.510   3.750
 7292SOL    HW122775   1.800   6.577   3.684
 7292SOL    HW222776   1.934   6.504   3.742
 7293SOL     OW22777   1.171   1.556   5.833
 7293SOL    HW122778   1.251   1.499   5.813
 7293SOL    HW222779   1.130   1.526   5.919
 7294SOL     OW22780   3.147   4.571   1.683
 7294SOL    HW122781   3.149   4.591   1.781
 7294SOL    HW222782   3.054   4.579   1.649
 7295SOL     OW22783   6.231   4.655   1.264
 7295SOL    HW122784   6.166   4.709   1.317
 7295SOL    HW222785   6.237   4.691   1.171
 7296SOL     OW22786   3.571   5.132   2.736
 7296SOL    HW122787   3.629   5.051   2.735
 7296SOL    HW222788   3.490   5.115   2.792
 7297SOL     OW22789   3.301   6.286   1.704
 7297SOL    HW122790   3.357   6.350   1.651
 7297SOL    HW222791   3.358   6.241   1.774
 7298SOL     OW22792   4.551   6.277   6.960
 7298SOL    HW122793   4.518   6.190   6.925
 7298SOL    HW222794   4.513   6.352   6.906
 7299SOL     OW22795   0.948   2.215   0.307
 7299SOL    HW122796   1.003   2.190   0.386
 7299SOL    HW222797   0.875   2.278   0.336
 7300SOL     OW22798   0.703   5.069   2.053
 7300SOL    HW122799   0.759   5.098   2.131
 7300SOL    HW222800   0.608   5.059   2.082
 7301SOL     OW22801   0.065   0.440   5.873
 7301SOL    HW122802   7.019   0.376   5.841
 7301SOL    HW222803   0.155   0.406   5.848
 7302SOL     OW22804   5.768   2.658   5.862
 7302SOL    HW122805   5.708   2.579   5.849
 7302SOL    HW222806   5.823   2.673   5.780
 7303SOL     OW22807   3.240   1.603   0.459
 7303SOL    HW122808   3.180   1.658   0.401
 7303SOL    HW222809   3.206   1.510   0.465
 7304SOL     OW22810   2.507   5.215   1.653
 7304SOL    HW122811   2.485   5.197   1.749
 7304SOL    HW222812   2.587   5.276   1.648
 7305SOL     OW22813   5.551   2.623   0.513
 7305SOL    HW122814   5.480   2.663   0.570
 7305SOL    HW222815   5.526   2.632   0.416
 7306SOL     OW22816   3.315   1.604   1.164
 7306SOL    HW122817   3.391   1.624   1.226
 7306SOL    HW222818   3.318   1.665   1.085
 7307SOL     OW22819   4.043   6.469   1.975
 7307SOL    HW122820   4.030   6.567   1.964
 7307SOL    HW222821   4.026   6.444   2.071
 7308SOL     OW22822   6.508   1.054   2.434
 7308SOL    HW122823   6.574   1.099   2.373
 7308SOL    HW222824   6.486   0.964   2.399
 7309SOL     OW22825   2.681   5.829   2.851
 7309SOL    HW122826   2.600   5.780   2.886
 7309SOL    HW222827   2.651   5.904   2.793
 7310SOL     OW22828   1.133   2.777   0.197
 7310SOL    HW122829   1.215   2.720   0.203
 7310SOL    HW222830   1.054   2.719   0.177
 7311SOL     OW22831   1.130   0.478   0.156
 7311SOL    HW122832   1.120   0.511   0.062
 7311SOL    HW222833   1.210   0.417   0.161
 7312SOL     OW22834   0.377   1.343   4.948
 7312SOL    HW122835   0.299   1.355   5.009
 7312SOL    HW222836   0.348   1.300   4.864
 7313SOL     OW22837   2.797   0.796   0.698
 7313SOL    HW122838   2.796   0.697   0.682
 7313SOL    HW222839   2.887   0.832   0.674
 7314SOL     OW22840   0.148   4.195   6.958
 7314SOL    HW122841   0.128   4.219   6.863
 7314SOL    HW222842   0.206   4.114   6.960
 7315SOL     OW22843   6.510   5.277   2.356
 7315SOL    HW122844   6.575   5.284   2.280
 7315SOL    HW222845   6.429   5.332   2.335
 7316SOL     OW22846   3.276   2.073   6.704
 7316SOL    HW122847   3.333   2.139   6.655
 7316SOL    HW222848   3.186   2.069   6.661
 7317SOL     OW22849   3.364   1.800   1.924
 7317SOL    HW122850   3.376   1.732   1.997
 7317SOL    HW222851   3.401   1.888   1.954
 7318SOL     OW22852   4.001   6.861   2.476
 7318SOL    HW122853   3.914   6.862   2.428
 7318SOL    HW222854   3.996   6.797   2.553
 7319SOL     OW22855   0.003   3.549   6.614
 7319SOL    HW122856   6.984   3.466   6.578
 7319SOL    HW222857   0.097   3.555   6.579
 7320SOL     OW22858   6.767   3.881   1.028
 7320SOL    HW122859   6.821   3.800   1.006
 7320SOL    HW222860   6.827   3.955   1.059
 7321SOL     OW22861   1.565   6.213   6.293
 7321SOL    HW122862   1.492   6.265   6.338
 7321SOL    HW222863   1.542   6.115   6.296
 7322SOL     OW22864   0.997   1.943   3.115
 7322SOL    HW122865   0.992   2.030   3.165
 7322SOL    HW222866   1.058   1.953   3.037
 7323SOL     OW22867   2.430   1.418   2.078
 7323SOL    HW122868   2.502   1.431   2.010
 7323SOL    HW222869   2.374   1.501   2.083
 7324SOL     OW22870   5.912   4.454   2.299
 7324SOL    HW122871   5.982   4.525   2.296
 7324SOL    HW222872   5.840   4.481   2.362
 7325SOL     OW22873   3.470   0.411   5.702
 7325SOL    HW122874   3.439   0.381   5.611
 7325SOL    HW222875   3.390   0.432   5.758
 7326SOL     OW22876   3.433   0.887   6.505
 7326SOL    HW122877   3.344   0.849   6.479
 7326SOL    HW222878   3.479   0.922   6.423
 7327SOL     OW22879   5.960   3.854   3.090
 7327SOL    HW122880   6.029   3.903   3.143
 7327SOL    HW222881   5.905   3.797   3.151
 7328SOL     OW22882   4.039   5.282   5.766
 7328SOL    HW122883   4.086   5.194   5.772
 7328SOL    HW222884   3.940   5.267   5.768
 7329SOL     OW22885   0.686   2.444   0.048
 7329SOL    HW122886   0.635   2.461   0.132
 7329SOL    HW222887   0.696   2.346   0.035
 7330SOL     OW22888   2.869   2.904   1.429
 7330SOL    HW122889   2.875   2.990   1.378
 7330SOL    HW222890   2.869   2.827   1.366
 7331SOL     OW22891   4.832   0.160   1.957
 7331SOL    HW122892   4.880   0.244   1.983
 7331SOL    HW222893   4.792   0.118   2.038
 7332SOL     OW22894   4.005   4.429   0.205
 7332SOL    HW122895   4.056   4.418   0.119
 7332SOL    HW222896   3.943   4.506   0.197
 7333SOL     OW22897   5.988   3.425   3.368
 7333SOL    HW122898   5.982   3.429   3.268
 7333SOL    HW222899   5.896   3.419   3.407
 7334SOL     OW22900   2.833   6.281   6.302
 7334SOL    HW122901   2.790   6.281   6.212
 7334SOL    HW222902   2.897   6.204   6.308
 7335SOL     OW22903   6.830   3.504   2.976
 7335SOL    HW122904   6.844   3.418   2.927
 7335SOL    HW222905   6.918   3.545   2.998
 7336SOL     OW22906   1.480   6.106   0.881
 7336SOL    HW122907   1.438   6.167   0.948
 7336SOL    HW222908   1.520   6.027   0.929
 7337SOL     OW22909   3.469   2.659   1.686
 7337SOL    HW122910   3.453   2.698   1.596
 7337SOL    HW222911   3.522   2.576   1.678
 7338SOL     OW22912   5.553   2.506   1.420
 7338SOL    HW122913   5.626   2.569   1.395
 7338SOL    HW222914   5.577   2.413   1.389
 7339SOL     OW22915   0.106   6.174   5.053
 7339SOL    HW122916   0.176   6.104   5.046
 7339SOL    HW222917   0.144   6.263   5.027
 7340SOL     OW22918   3.562   1.335   6.965
 7340SOL    HW122919   3.527   1.256   6.915
 7340SOL    HW222920   3.501   1.356   0.017
 7341SOL     OW22921   1.090   5.038   4.265
 7341SOL    HW122922   1.120   5.053   4.359
 7341SOL    HW222923   1.078   5.127   4.219
 7342SOL     OW22924   6.758   0.228   0.643
 7342SOL    HW122925   6.803   0.141   0.663
 7342SOL    HW222926   6.749   0.238   0.544
 7343SOL     OW22927   5.917   3.612   1.533
 7343SOL    HW122928   5.884   3.705   1.518
 7343SOL    HW222929   5.957   3.605   1.625
 7344SOL     OW22930   1.588   6.790   6.694
 7344SOL    HW122931   1.575   6.757   6.788
 7344SOL    HW222932   1.568   6.715   6.630
 7345SOL     OW22933   4.614   4.590   5.967
 7345SOL    HW122934   4.540   4.657   5.960
 7345SOL    HW222935   4.607   4.525   5.892
 7346SOL     OW22936   3.641   3.783   1.102
 7346SOL    HW122937   3.685   3.695   1.082
 7346SOL    HW222938   3.625   3.791   1.200
 7347SOL     OW22939   6.577   2.600   2.380
 7347SOL    HW122940   6.652   2.566   2.324
 7347SOL    HW222941   6.498   2.619   2.322
 7348SOL     OW22942   1.610   3.261   4.020
 7348SOL    HW122943   1.555   3.344   4.008
 7348SOL    HW222944   1.707   3.284   4.018
 7349SOL     OW22945   3.769   1.599   1.333
 7349SOL    HW122946   3.799   1.675   1.391
 7349SOL    HW222947   3.807   1.514   1.369
 7350SOL     OW22948   0.280   2.986   3.597
 7350SOL    HW122949   0.315   3.075   3.624
 7350SOL    HW222950   0.220   2.996   3.518
 7351SOL     OW22951   4.143   4.341   6.400
 7351SOL    HW122952   4.164   4.327   6.497
 7351SOL    HW222953   4.213   4.401   6.359
 7352SOL     OW22954   1.353   1.634   3.449
 7352SOL    HW122955   1.270   1.582   3.467
 7352SOL    HW222956   1.361   1.709   3.515
 7353SOL     OW22957   0.054   1.641   5.368
 7353SOL    HW122958   6.986   1.658   5.332
 7353SOL    HW222959   0.111   1.602   5.296
 7354SOL     OW22960   6.859   0.883   6.022
 7354SOL    HW122961   6.936   0.945   6.040
 7354SOL    HW222962   6.875   0.796   6.068
 7355SOL     OW22963   1.712   5.295   1.256
 7355SOL    HW122964   1.807   5.326   1.246
 7355SOL    HW222965   1.650   5.370   1.234
 7356SOL     OW22966   5.414   2.385   6.681
 7356SOL    HW122967   5.349   2.343   6.617
 7356SOL    HW222968   5.392   2.482   6.691
 7357SOL     OW22969   5.037   0.940   1.515
 7357SOL    HW122970   4.951   0.947   1.465
 7357SOL    HW222971   5.063   0.844   1.523
 7358SOL     OW22972   2.901   1.798   2.706
 7358SOL    HW122973   2.912   1.776   2.609
 7358SOL    HW222974   2.962   1.740   2.760
 7359SOL     OW22975   3.594   2.346   1.309
 7359SOL    HW122976   3.626   2.325   1.401
 7359SOL    HW222977   3.672   2.344   1.246
 7360SOL     OW22978   1.429   2.376   5.301
 7360SOL    HW122979   1.345   2.323   5.312
 7360SOL    HW222980   1.430   2.418   5.210
 7361SOL     OW22981   5.032   0.135   1.248
 7361SOL    HW122982   5.065   0.214   1.197
 7361SOL    HW222983   5.007   0.163   1.341
 7362SOL     OW22984   0.725   0.046   5.403
 7362SOL    HW122985   0.716   7.000   5.333
 7362SOL    HW222986   0.790   0.116   5.372
 7363SOL     OW22987   5.140   2.054   0.447
 7363SOL    HW122988   5.234   2.070   0.479
 7363SOL    HW222989   5.082   2.029   0.525
 7364SOL     OW22990   3.800   6.633   1.434
 7364SOL    HW122991   3.900   6.629   1.428
 7364SOL    HW222992   3.761   6.562   1.377
 7365SOL     OW22993   2.961   6.503   2.172
 7365SOL    HW122994   2.894   6.436   2.204
 7365SOL    HW222995   2.984   6.565   2.247
 7366SOL     OW22996   0.987   5.395   0.201
 7366SOL    HW122997   1.040   5.422   0.281
 7366SOL    HW222998   0.982   5.471   0.137
 7367SOL     OW22999   4.333   3.943   1.226
 7367SOL    HW123000   4.270   4.013   1.195
 7367SOL    HW223001   4.377   3.899   1.147
 7368SOL     OW23002   3.019   3.175   4.029
 7368SOL    HW123003   3.017   3.195   4.127
 7368SOL    HW223004   3.054   3.083   4.014
 7369SOL     OW23005   4.841   3.201   0.870
 7369SOL    HW123006   4.836   3.300   0.860
 7369SOL    HW223007   4.750   3.165   0.893
 7370SOL     OW23008   1.885   0.791   6.309
 7370SOL    HW123009   1.916   0.723   6.243
 7370SOL    HW223010   1.950   0.866   6.313
 7371SOL     OW23011   2.897   5.531   4.217
 7371SOL    HW123012   2.897   5.445   4.165
 7371SOL    HW223013   2.860   5.514   4.308
 7372SOL     OW23014   3.427   0.072   5.563
 7372SOL    HW123015   3.358   0.142   5.544
 7372SOL    HW223016   3.427   0.005   5.488
 7373SOL     OW23017   4.841   1.065   3.425
 7373SOL    HW123018   4.841   1.141   3.489
 7373SOL    HW223019   4.755   1.014   3.433
 7374SOL     OW23020   2.139   2.604   5.324
 7374SOL    HW123021   2.043   2.600   5.349
 7374SOL    HW223022   2.194   2.629   5.404
 7375SOL     OW23023   1.612   1.882   3.955
 7375SOL    HW123024   1.590   1.800   4.008
 7375SOL    HW223025   1.559   1.959   3.989
 7376SOL     OW23026   3.257   2.607   6.821
 7376SOL    HW123027   3.259   2.632   6.918
 7376SOL    HW223028   3.212   2.679   6.768
 7377SOL     OW23029   4.685   5.607   2.146
 7377SOL    HW123030   4.735   5.580   2.064
 7377SOL    HW223031   4.709   5.701   2.170
 7378SOL     OW23032   6.517   1.834   4.396
 7378SOL    HW123033   6.541   1.931   4.390
 7378SOL    HW223034   6.600   1.778   4.386
 7379SOL     OW23035   4.446   1.136   2.703
 7379SOL    HW123036   4.407   1.165   2.790
 7379SOL    HW223037   4.528   1.190   2.684
 7380SOL     OW23038   0.367   3.383   5.889
 7380SOL    HW123039   0.377   3.283   5.888
 7380SOL    HW223040   0.336   3.412   5.979
 7381SOL     OW23041   4.828   2.784   2.774
 7381SOL    HW123042   4.884   2.743   2.702
 7381SOL    HW223043   4.736   2.744   2.773
 7382SOL     OW23044   0.179   5.074   4.757
 7382SOL    HW123045   0.234   5.005   4.709
 7382SOL    HW223046   0.083   5.063   4.730
 7383SOL     OW23047   6.764   6.604   2.690
 7383SOL    HW123048   6.810   6.641   2.609
 7383SOL    HW223049   6.699   6.671   2.726
 7384SOL     OW23050   5.297   1.105   1.829
 7384SOL    HW123051   5.239   1.187   1.831
 7384SOL    HW223052   5.368   1.117   1.760
 7385SOL     OW23053   4.344   5.363   2.366
 7385SOL    HW123054   4.273   5.303   2.328
 7385SOL    HW223055   4.387   5.414   2.292
 7386SOL     OW23056   0.909   2.754   5.459
 7386SOL    HW123057   0.920   2.788   5.366
 7386SOL    HW223058   0.926   2.655   5.461
 7387SOL     OW23059   4.303   6.221   4.800
 7387SOL    HW123060   4.285   6.257   4.708
 7387SOL    HW223061   4.402   6.219   4.816
 7388SOL     OW23062   6.823   5.579   4.082
 7388SOL    HW123063   6.804   5.604   3.988
 7388SOL    HW223064   6.750   5.613   4.142
 7389SOL     OW23065   1.282   4.385   0.086
 7389SOL    HW123066   1.247   4.307   0.138
 7389SOL    HW223067   1.330   4.447   0.148
 7390SOL     OW23068   1.686   1.832   6.281
 7390SOL    HW123069   1.651   1.818   6.188
 7390SOL    HW223070   1.752   1.907   6.281
 7391SOL     OW23071   4.493   4.134   5.320
 7391SOL    HW123072   4.407   4.125   5.370
 7391SOL    HW223073   4.532   4.043   5.305
 7392SOL     OW23074   2.298   5.770   5.762
 7392SOL    HW123075   2.318   5.769   5.860
 7392SOL    HW223076   2.375   5.810   5.713
 7393SOL     OW23077   5.774   5.520   1.673
 7393SOL    HW123078   5.852   5.566   1.630
 7393SOL    HW223079   5.700   5.586   1.686
 7394SOL     OW23080   3.496   2.883   5.990
 7394SOL    HW123081   3.517   2.806   6.050
 7394SOL    HW223082   3.568   2.892   5.921
 7395SOL     OW23083   0.741   0.883   0.018
 7395SOL    HW123084   0.669   0.947   7.014
 7395SOL    HW223085   0.783   0.843   6.961
 7396SOL     OW23086   1.509   1.021   6.666
 7396SOL    HW123087   1.423   1.071   6.669
 7396SOL    HW223088   1.545   1.011   6.759
 7397SOL     OW23089   6.401   5.117   4.174
 7397SOL    HW123090   6.475   5.075   4.225
 7397SOL    HW223091   6.314   5.101   4.221
 7398SOL     OW23092   3.669   5.335   4.338
 7398SOL    HW123093   3.637   5.252   4.384
 7398SOL    HW223094   3.746   5.311   4.279
 7399SOL     OW23095   0.404   4.352   5.609
 7399SOL    HW123096   0.483   4.312   5.654
 7399SOL    HW223097   0.367   4.287   5.543
 7400SOL     OW23098   3.098   4.248   6.856
 7400SOL    HW123099   3.053   4.169   6.898
 7400SOL    HW223100   3.169   4.282   6.918
 7401SOL     OW23101   0.482   1.448   3.083
 7401SOL    HW123102   0.433   1.512   3.023
 7401SOL    HW223103   0.507   1.496   3.167
 7402SOL     OW23104   2.004   6.953   4.226
 7402SOL    HW123105   2.063   6.873   4.222
 7402SOL    HW223106   2.040   7.017   4.295
 7403SOL     OW23107   2.230   3.083   3.185
 7403SOL    HW123108   2.234   3.156   3.116
 7403SOL    HW223109   2.275   3.001   3.150
 7404SOL     OW23110   2.353   0.350   1.230
 7404SOL    HW123111   2.420   0.324   1.160
 7404SOL    HW223112   2.274   0.391   1.186
 7405SOL     OW23113   0.935   4.647   4.232
 7405SOL    HW123114   0.950   4.724   4.170
 7405SOL    HW223115   0.903   4.681   4.321
 7406SOL     OW23116   1.407   3.452   2.713
 7406SOL    HW123117   1.361   3.412   2.793
 7406SOL    HW223118   1.505   3.461   2.731
 7407SOL     OW23119   0.225   6.020   4.594
 7407SOL    HW123120   0.179   6.067   4.669
 7407SOL    HW223121   0.265   6.087   4.531
 7408SOL     OW23122   1.526   4.342   5.174
 7408SOL    HW123123   1.595   4.406   5.140
 7408SOL    HW223124   1.508   4.273   5.105
 7409SOL     OW23125   0.706   1.116   4.539
 7409SOL    HW123126   0.697   1.097   4.637
 7409SOL    HW223127   0.617   1.141   4.501
 7410SOL     OW23128   7.006   4.966   0.880
 7410SOL    HW123129   0.059   4.995   0.822
 7410SOL    HW223130   0.011   4.965   0.975
 7411SOL     OW23131   2.413   0.192   4.638
 7411SOL    HW123132   2.508   0.202   4.608
 7411SOL    HW223133   2.403   0.110   4.693
 7412SOL     OW23134   3.149   1.175   1.151
 7412SOL    HW123135   3.248   1.170   1.136
 7412SOL    HW223136   3.111   1.252   1.100
 7413SOL     OW23137   0.392   4.488   3.920
 7413SOL    HW123138   0.331   4.411   3.901
 7413SOL    HW223139   0.448   4.507   3.839
 7414SOL     OW23140   6.845   0.413   2.443
 7414SOL    HW123141   6.771   0.349   2.422
 7414SOL    HW223142   6.815   0.476   2.515
 7415SOL     OW23143   0.552   3.632   3.300
 7415SOL    HW123144   0.627   3.648   3.363
 7415SOL    HW223145   0.511   3.719   3.272
 7416SOL     OW23146   3.693   0.990   3.810
 7416SOL    HW123147   3.729   1.081   3.828
 7416SOL    HW223148   3.717   0.929   3.886
 7417SOL     OW23149   1.037   0.202   5.980
 7417SOL    HW123150   1.045   0.229   5.884
 7417SOL    HW223151   0.950   0.233   6.017
 7418SOL     OW23152   3.516   4.327   1.004
 7418SOL    HW123153   3.490   4.421   1.024
 7418SOL    HW223154   3.493   4.269   1.082
 7419SOL     OW23155   6.122   2.323   4.969
 7419SOL    HW123156   6.064   2.305   4.889
 7419SOL    HW223157   6.150   2.236   5.010
 7420SOL     OW23158   6.187   6.301   2.784
 7420SOL    HW123159   6.248   6.380   2.773
 7420SOL    HW223160   6.106   6.328   2.835
 7421SOL     OW23161   2.616   2.815   0.900
 7421SOL    HW123162   2.679   2.738   0.904
 7421SOL    HW223163   2.560   2.816   0.983
 7422SOL     OW23164   0.220   3.287   2.305
 7422SOL    HW123165   0.247   3.255   2.396
 7422SOL    HW223166   0.180   3.379   2.313
 7423SOL     OW23167   0.291   4.202   6.303
 7423SOL    HW123168   0.365   4.135   6.297
 7423SOL    HW223169   0.233   4.197   6.222
 7424SOL     OW23170   6.004   1.284   4.092
 7424SOL    HW123171   5.953   1.203   4.120
 7424SOL    HW223172   5.958   1.327   4.014
 7425SOL     OW23173   4.301   4.973   6.585
 7425SOL    HW123174   4.368   5.047   6.589
 7425SOL    HW223175   4.340   4.894   6.537
 7426SOL     OW23176   0.641   1.947   6.632
 7426SOL    HW123177   0.547   1.933   6.663
 7426SOL    HW223178   0.657   2.044   6.617
 7427SOL     OW23179   3.192   5.896   5.012
 7427SOL    HW123180   3.095   5.895   4.987
 7427SOL    HW223181   3.218   5.806   5.049
 7428SOL     OW23182   3.743   1.601   5.632
 7428SOL    HW123183   3.784   1.649   5.555
 7428SOL    HW223184   3.691   1.666   5.688
 7429SOL     OW23185   6.140   0.191   2.841
 7429SOL    HW123186   6.183   0.281   2.836
 7429SOL    HW223187   6.078   0.187   2.920
 7430SOL     OW23188   0.003   4.804   5.526
 7430SOL    HW123189   0.063   4.724   5.520
 7430SOL    HW223190   6.942   4.785   5.478
 7431SOL     OW23191   0.448   4.220   2.381
 7431SOL    HW123192   0.539   4.204   2.418
 7431SOL    HW223193   0.432   4.158   2.304
 7432SOL     OW23194   0.354   6.415   4.042
 7432SOL    HW123195   0.412   6.494   4.062
 7432SOL    HW223196   0.406   6.331   4.057
 7433SOL     OW23197   6.723   5.588   0.470
 7433SOL    HW123198   6.648   5.617   0.412
 7433SOL    HW223199   6.808   5.590   0.418
 7434SOL     OW23200   3.627   0.953   6.689
 7434SOL    HW123201   3.668   0.875   6.737
 7434SOL    HW223202   3.553   0.920   6.629
 7435SOL     OW23203   3.400   6.405   6.563
 7435SOL    HW123204   3.396   6.325   6.623
 7435SOL    HW223205   3.326   6.399   6.495
 7436SOL     OW23206   6.899   3.294   6.557
 7436SOL    HW123207   6.989   3.255   6.538
 7436SOL    HW223208   6.844   3.294   6.473
 7437SOL     OW23209   6.865   5.633   0.076
 7437SOL    HW123210   6.877   5.731   0.066
 7437SOL    HW223211   6.773   5.607   0.045
 7438SOL     OW23212   1.394   4.116   1.002
 7438SOL    HW123213   1.484   4.132   0.961
 7438SOL    HW223214   1.339   4.058   0.941
 7439SOL     OW23215   2.603   6.580   4.130
 7439SOL    HW123216   2.677   6.603   4.193
 7439SOL    HW223217   2.620   6.490   4.090
 7440SOL     OW23218   0.881   2.829   4.529
 7440SOL    HW123219   0.899   2.867   4.620
 7440SOL    HW223220   0.966   2.798   4.488
 7441SOL     OW23221   5.651   6.447   4.436
 7441SOL    HW123222   5.675   6.540   4.407
 7441SOL    HW223223   5.720   6.383   4.402
 7442SOL     OW23224   1.033   0.834   6.276
 7442SOL    HW123225   1.068   0.826   6.370
 7442SOL    HW223226   1.103   0.873   6.217
 7443SOL     OW23227   0.295   1.398   1.028
 7443SOL    HW123228   0.347   1.332   0.975
 7443SOL    HW223229   0.229   1.351   1.086
 7444SOL     OW23230   0.584   3.471   5.711
 7444SOL    HW123231   0.610   3.384   5.669
 7444SOL    HW223232   0.523   3.453   5.789
 7445SOL     OW23233   3.905   1.238   1.584
 7445SOL    HW123234   3.844   1.266   1.659
 7445SOL    HW223235   3.996   1.277   1.599
 7446SOL     OW23236   5.715   4.944   0.364
 7446SOL    HW123237   5.675   4.889   0.437
 7446SOL    HW223238   5.770   5.018   0.403
 7447SOL     OW23239   2.433   3.770   6.771
 7447SOL    HW123240   2.443   3.674   6.794
 7447SOL    HW223241   2.418   3.780   6.672
 7448SOL     OW23242   5.549   6.591   5.791
 7448SOL    HW123243   5.490   6.550   5.721
 7448SOL    HW223244   5.536   6.690   5.792
 7449SOL     OW23245   4.893   2.734   2.369
 7449SOL    HW123246   4.953   2.752   2.291
 7449SOL    HW223247   4.824   2.666   2.343
 7450SOL     OW23248   5.334   2.820   4.591
 7450SOL    HW123249   5.273   2.899   4.598
 7450SOL    HW223250   5.420   2.840   4.640
 7451SOL     OW23251   1.388   0.386   3.869
 7451SOL    HW123252   1.354   0.385   3.964
 7451SOL    HW223253   1.428   0.475   3.848
 7452SOL     OW23254   1.442   0.396   4.716
 7452SOL    HW123255   1.405   0.420   4.805
 7452SOL    HW223256   1.367   0.373   4.654
 7453SOL     OW23257   5.248   5.782   5.407
 7453SOL    HW123258   5.315   5.727   5.357
 7453SOL    HW223259   5.289   5.869   5.433
 7454SOL     OW23260   1.007   3.069   2.180
 7454SOL    HW123261   1.100   3.036   2.169
 7454SOL    HW223262   0.960   3.015   2.250
 7455SOL     OW23263   0.030   1.161   1.690
 7455SOL    HW123264   0.040   1.136   1.786
 7455SOL    HW223265   6.986   1.234   1.681
 7456SOL     OW23266   1.476   2.016   4.704
 7456SOL    HW123267   1.380   2.027   4.732
 7456SOL    HW223268   1.483   1.943   4.636
 7457SOL     OW23269   4.465   0.555   6.460
 7457SOL    HW123270   4.485   0.458   6.446
 7457SOL    HW223271   4.433   0.570   6.554
 7458SOL     OW23272   1.471   0.029   6.897
 7458SOL    HW123273   1.533   0.096   6.937
 7458SOL    HW223274   1.486   6.964   6.940
 7459SOL     OW23275   4.217   0.195   0.167
 7459SOL    HW123276   4.237   0.275   0.111
 7459SOL    HW223277   4.285   0.123   0.148
 7460SOL     OW23278   2.106   4.762   0.066
 7460SOL    HW123279   2.142   4.822   7.018
 7460SOL    HW223280   2.174   4.692   0.086
 7461SOL     OW23281   4.920   1.464   5.478
 7461SOL    HW123282   5.013   1.430   5.462
 7461SOL    HW223283   4.914   1.503   5.569
 7462SOL     OW23284   1.671   2.787   2.302
 7462SOL    HW123285   1.672   2.881   2.268
 7462SOL    HW223286   1.764   2.759   2.325
 7463SOL     OW23287   3.636   3.899   1.364
 7463SOL    HW123288   3.689   3.857   1.439
 7463SOL    HW223289   3.589   3.980   1.399
 7464SOL     OW23290   3.793   6.072   6.642
 7464SOL    HW123291   3.788   5.990   6.586
 7464SOL    HW223292   3.783   6.048   6.739
 7465SOL     OW23293   1.657   0.205   1.011
 7465SOL    HW123294   1.735   0.188   0.951
 7465SOL    HW223295   1.654   0.135   1.083
 7466SOL     OW23296   0.367   0.791   6.843
 7466SOL    HW123297   0.463   0.796   6.816
 7466SOL    HW223298   0.321   0.876   6.817
 7467SOL     OW23299   6.289   2.271   1.302
 7467SOL    HW123300   6.190   2.269   1.288
 7467SOL    HW223301   6.311   2.223   1.387
 7468SOL     OW23302   5.161   2.111   2.204
 7468SOL    HW123303   5.245   2.062   2.225
 7468SOL    HW223304   5.148   2.184   2.271
 7469SOL     OW23305   0.702   0.066   0.092
 7469SOL    HW123306   0.618   0.118   0.072
 7469SOL    HW223307   0.773   0.129   0.123
 7470SOL     OW23308   0.311   3.358   3.898
 7470SOL    HW123309   0.335   3.309   3.815
 7470SOL    HW223310   0.220   3.399   3.888
 7471SOL     OW23311   6.003   6.865   4.264
 7471SOL    HW123312   6.003   6.833   4.169
 7471SOL    HW223313   6.097   6.881   4.293
 7472SOL     OW23314   5.338   6.729   3.954
 7472SOL    HW123315   5.335   6.828   3.940
 7472SOL    HW223316   5.390   6.687   3.879
 7473SOL     OW23317   7.002   4.524   3.236
 7473SOL    HW123318   0.027   4.535   3.150
 7473SOL    HW223319   7.005   4.609   3.288
 7474SOL     OW23320   3.096   0.870   4.679
 7474SOL    HW123321   3.124   0.902   4.588
 7474SOL    HW223322   3.125   0.775   4.690
 7475SOL     OW23323   4.452   1.517   2.593
 7475SOL    HW123324   4.431   1.614   2.606
 7475SOL    HW223325   4.377   1.462   2.630
 7476SOL     OW23326   3.666   6.497   4.183
 7476SOL    HW123327   3.735   6.554   4.138
 7476SOL    HW223328   3.582   6.498   4.130
 7477SOL     OW23329   5.044   1.046   4.153
 7477SOL    HW123330   5.044   1.033   4.252
 7477SOL    HW223331   5.023   0.959   4.108
 7478SOL     OW23332   3.754   3.510   6.466
 7478SOL    HW123333   3.809   3.585   6.503
 7478SOL    HW223334   3.746   3.521   6.367
 7479SOL     OW23335   3.853   2.307   0.778
 7479SOL    HW123336   3.764   2.261   0.782
 7479SOL    HW223337   3.922   2.242   0.744
 7480SOL     OW23338   6.015   5.535   1.355
 7480SOL    HW123339   6.024   5.525   1.453
 7480SOL    HW223340   6.017   5.632   1.331
 7481SOL     OW23341   5.448   5.643   1.381
 7481SOL    HW123342   5.516   5.663   1.452
 7481SOL    HW223343   5.442   5.720   1.318
 7482SOL     OW23344   4.628   1.379   2.409
 7482SOL    HW123345   4.606   1.392   2.313
 7482SOL    HW223346   4.581   1.449   2.463
 7483SOL     OW23347   4.112   2.031   4.755
 7483SOL    HW123348   4.135   2.123   4.786
 7483SOL    HW223349   4.195   1.978   4.741
 7484SOL     OW23350   6.659   0.463   2.032
 7484SOL    HW123351   6.598   0.394   2.069
 7484SOL    HW223352   6.752   0.427   2.025
 7485SOL     OW23353   2.844   6.190   5.033
 7485SOL    HW123354   2.758   6.156   4.994
 7485SOL    HW223355   2.859   6.146   5.122
 7486SOL     OW23356   2.107   6.828   5.870
 7486SOL    HW123357   2.113   6.828   5.770
 7486SOL    HW223358   2.081   6.919   5.902
 7487SOL     OW23359   2.063   6.516   2.637
 7487SOL    HW123360   2.148   6.467   2.617
 7487SOL    HW223361   2.027   6.485   2.726
 7488SOL     OW23362   1.892   6.593   5.117
 7488SOL    HW123363   1.938   6.510   5.149
 7488SOL    HW223364   1.797   6.593   5.148
 7489SOL     OW23365   5.101   2.675   5.056
 7489SOL    HW123366   5.051   2.732   5.122
 7489SOL    HW223367   5.063   2.688   4.965
 7490SOL     OW23368   0.996   1.455   1.171
 7490SOL    HW123369   1.007   1.390   1.096
 7490SOL    HW223370   0.909   1.439   1.217
 7491SOL     OW23371   0.160   5.141   6.409
 7491SOL    HW123372   0.256   5.139   6.436
 7491SOL    HW223373   0.154   5.135   6.309
 7492SOL     OW23374   2.602   1.422   4.862
 7492SOL    HW123375   2.539   1.373   4.802
 7492SOL    HW223376   2.669   1.471   4.808
 7493SOL     OW23377   6.128   4.497   6.396
 7493SOL    HW123378   6.075   4.513   6.479
 7493SOL    HW223379   6.135   4.582   6.344
 7494SOL     OW23380   5.998   1.245   2.488
 7494SOL    HW123381   6.060   1.313   2.449
 7494SOL    HW223382   5.904   1.277   2.481
 7495SOL     OW23383   2.478   1.171   1.158
 7495SOL    HW123384   2.466   1.244   1.225
 7495SOL    HW223385   2.565   1.183   1.110
 7496SOL     OW23386   0.806   3.916   6.307
 7496SOL    HW123387   0.900   3.952   6.306
 7496SOL    HW223388   0.809   3.816   6.318
 7497SOL     OW23389   3.124   4.561   1.302
 7497SOL    HW123390   3.205   4.583   1.247
 7497SOL    HW223391   3.073   4.645   1.321
 7498SOL     OW23392   2.198   0.787   3.699
 7498SOL    HW123393   2.265   0.713   3.706
 7498SOL    HW223394   2.230   0.866   3.752
 7499SOL     OW23395   6.090   1.093   3.365
 7499SOL    HW123396   6.059   1.165   3.302
 7499SOL    HW223397   6.120   1.014   3.312
 7500SOL     OW23398   4.201   6.302   2.862
 7500SOL    HW123399   4.134   6.365   2.824
 7500SOL    HW223400   4.293   6.333   2.839
 7501SOL     OW23401   6.638   4.424   4.410
 7501SOL    HW123402   6.656   4.490   4.336
 7501SOL    HW223403   6.542   4.431   4.438
 7502SOL     OW23404   1.164   1.016   5.139
 7502SOL    HW123405   1.169   0.928   5.187
 7502SOL    HW223406   1.153   0.999   5.041
 7503SOL     OW23407   2.635   1.295   6.969
 7503SOL    HW123408   2.641   1.303   6.869
 7503SOL    HW223409   2.699   1.225   7.000
 7504SOL     OW23410   3.682   0.069   3.537
 7504SOL    HW123411   3.757   0.122   3.578
 7504SOL    HW223412   3.719   0.001   3.475
 7505SOL     OW23413   2.820   0.621   5.280
 7505SOL    HW123414   2.913   0.610   5.314
 7505SOL    HW223415   2.814   0.586   5.186
 7506SOL     OW23416   3.903   0.009   2.695
 7506SOL    HW123417   3.869   0.043   2.607
 7506SOL    HW223418   3.987   0.058   2.719
 7507SOL     OW23419   0.271   6.987   0.836
 7507SOL    HW123420   0.234   6.928   0.908
 7507SOL    HW223421   0.320   6.931   0.769
 7508SOL     OW23422   5.459   6.989   2.468
 7508SOL    HW123423   5.418   6.912   2.518
 7508SOL    HW223424   5.442   0.050   2.517
 7509SOL     OW23425   5.577   4.342   0.908
 7509SOL    HW123426   5.660   4.387   0.876
 7509SOL    HW223427   5.593   4.300   0.997
 7510SOL     OW23428   2.646   4.225   5.532
 7510SOL    HW123429   2.727   4.167   5.529
 7510SOL    HW223430   2.642   4.282   5.450
 7511SOL     OW23431   1.556   0.942   2.781
 7511SOL    HW123432   1.611   0.866   2.747
 7511SOL    HW223433   1.616   1.015   2.815
 7512SOL     OW23434   3.057   4.292   1.356
 7512SOL    HW123435   3.005   4.273   1.272
 7512SOL    HW223436   3.089   4.387   1.354
 7513SOL     OW23437   1.604   2.227   0.668
 7513SOL    HW123438   1.649   2.203   0.582
 7513SOL    HW223439   1.656   2.300   0.714
 7514SOL     OW23440   3.250   6.123   2.330
 7514SOL    HW123441   3.274   6.026   2.331
 7514SOL    HW223442   3.298   6.168   2.255
 7515SOL     OW23443   1.637   6.625   2.323
 7515SOL    HW123444   1.546   6.613   2.362
 7515SOL    HW223445   1.666   6.720   2.334
 7516SOL     OW23446   6.828   5.849   4.665
 7516SOL    HW123447   6.827   5.947   4.645
 7516SOL    HW223448   6.917   5.811   4.640
 7517SOL     OW23449   6.794   3.465   1.740
 7517SOL    HW123450   6.738   3.498   1.664
 7517SOL    HW223451   6.767   3.372   1.764
 7518SOL     OW23452   3.645   5.781   3.803
 7518SOL    HW123453   3.698   5.752   3.884
 7518SOL    HW223454   3.695   5.755   3.720
 7519SOL     OW23455   0.222   6.741   3.766
 7519SOL    HW123456   0.166   6.747   3.683
 7519SOL    HW223457   0.179   6.678   3.830
 7520SOL     OW23458   3.125   0.206   2.025
 7520SOL    HW123459   3.192   0.137   2.053
 7520SOL    HW223460   3.159   0.254   1.944
 7521SOL     OW23461   4.612   4.446   5.353
 7521SOL    HW123462   4.701   4.401   5.358
 7521SOL    HW223463   4.551   4.405   5.421
 7522SOL     OW23464   2.875   0.812   6.689
 7522SOL    HW123465   2.883   0.752   6.610
 7522SOL    HW223466   2.905   0.904   6.665
 7523SOL     OW23467   5.178   1.178   5.936
 7523SOL    HW123468   5.083   1.148   5.942
 7523SOL    HW223469   5.186   1.249   5.867
 7524SOL     OW23470   0.354   2.328   6.007
 7524SOL    HW123471   0.435   2.386   6.014
 7524SOL    HW223472   0.310   2.343   5.919
 7525SOL     OW23473   2.816   6.514   6.477
 7525SOL    HW123474   2.730   6.511   6.528
 7525SOL    HW223475   2.823   6.433   6.418
 7526SOL     OW23476   3.743   2.881   2.481
 7526SOL    HW123477   3.721   2.900   2.577
 7526SOL    HW223478   3.667   2.833   2.438
 7527SOL     OW23479   4.543   5.488   3.261
 7527SOL    HW123480   4.600   5.512   3.339
 7527SOL    HW223481   4.453   5.458   3.293
 7528SOL     OW23482   4.552   2.556   0.036
 7528SOL    HW123483   4.612   2.485   0.073
 7528SOL    HW223484   4.472   2.565   0.095
 7529SOL     OW23485   5.487   1.370   4.538
 7529SOL    HW123486   5.565   1.376   4.476
 7529SOL    HW223487   5.519   1.345   4.629
 7530SOL     OW23488   5.865   3.505   2.286
 7530SOL    HW123489   5.895   3.469   2.198
 7530SOL    HW223490   5.938   3.562   2.325
 7531SOL     OW23491   4.075   2.252   4.009
 7531SOL    HW123492   4.047   2.341   3.973
 7531SOL    HW223493   4.166   2.259   4.048
 7532SOL     OW23494   5.192   5.612   1.502
 7532SOL    HW123495   5.286   5.588   1.475
 7532SOL    HW223496   5.190   5.706   1.534
 7533SOL     OW23497   2.434   1.066   3.322
 7533SOL    HW123498   2.526   1.054   3.285
 7533SOL    HW223499   2.404   1.160   3.305
 7534SOL     OW23500   3.461   6.856   4.830
 7534SOL    HW123501   3.387   6.922   4.840
 7534SOL    HW223502   3.547   6.895   4.863
 7535SOL     OW23503   2.847   0.954   6.020
 7535SOL    HW123504   2.793   0.889   5.966
 7535SOL    HW223505   2.794   0.981   6.101
 7536SOL     OW23506   5.388   4.704   4.631
 7536SOL    HW123507   5.463   4.714   4.566
 7536SOL    HW223508   5.420   4.657   4.713
 7537SOL     OW23509   2.255   4.725   5.094
 7537SOL    HW123510   2.347   4.706   5.128
 7537SOL    HW223511   2.236   4.667   5.015
 7538SOL     OW23512   3.194   3.255   2.109
 7538SOL    HW123513   3.145   3.283   2.026
 7538SOL    HW223514   3.129   3.246   2.185
 7539SOL     OW23515   2.948   2.246   4.558
 7539SOL    HW123516   3.026   2.205   4.511
 7539SOL    HW223517   2.971   2.261   4.654
 7540SOL     OW23518   3.342   1.016   6.022
 7540SOL    HW123519   3.377   1.081   5.954
 7540SOL    HW223520   3.263   1.057   6.068
 7541SOL     OW23521   6.797   3.581   5.264
 7541SOL    HW123522   6.754   3.504   5.216
 7541SOL    HW223523   6.731   3.622   5.327
 7542SOL     OW23524   0.195   6.634   6.734
 7542SOL    HW123525   0.246   6.582   6.802
 7542SOL    HW223526   0.244   6.633   6.647
 7543SOL     OW23527   4.213   1.926   1.132
 7543SOL    HW123528   4.215   1.992   1.207
 7543SOL    HW223529   4.276   1.955   1.060
 7544SOL     OW23530   0.343   2.499   3.730
 7544SOL    HW123531   0.264   2.560   3.724
 7544SOL    HW223532   0.408   2.521   3.657
 7545SOL     OW23533   5.254   6.671   2.959
 7545SOL    HW123534   5.172   6.726   2.981
 7545SOL    HW223535   5.278   6.615   3.038
 7546SOL     OW23536   4.410   0.768   1.420
 7546SOL    HW123537   4.507   0.779   1.444
 7546SOL    HW223538   4.363   0.855   1.431
 7547SOL     OW23539   3.810   6.161   0.517
 7547SOL    HW123540   3.750   6.144   0.439
 7547SOL    HW223541   3.833   6.258   0.521
 7548SOL     OW23542   2.893   2.062   0.571
 7548SOL    HW123543   2.918   2.085   0.477
 7548SOL    HW223544   2.968   2.013   0.615
 7549SOL     OW23545   6.160   1.969   1.508
 7549SOL    HW123546   6.185   1.919   1.591
 7549SOL    HW223547   6.106   2.050   1.533
 7550SOL     OW23548   2.531   5.028   2.036
 7550SOL    HW123549   2.608   4.967   2.016
 7550SOL    HW223550   2.564   5.107   2.089
 7551SOL     OW23551   4.613   4.093   6.853
 7551SOL    HW123552   4.544   4.021   6.844
 7551SOL    HW223553   4.623   4.141   6.767
 7552SOL     OW23554   1.856   5.621   4.032
 7552SOL    HW123555   1.821   5.706   4.073
 7552SOL    HW223556   1.951   5.608   4.060
 7553SOL     OW23557   3.975   4.851   5.696
 7553SOL    HW123558   4.034   4.861   5.616
 7553SOL    HW223559   3.952   4.755   5.709
 7554SOL     OW23560   5.049   0.916   0.527
 7554SOL    HW123561   5.141   0.883   0.503
 7554SOL    HW223562   4.982   0.878   0.462
 7555SOL     OW23563   1.216   5.019   4.771
 7555SOL    HW123564   1.312   5.020   4.743
 7555SOL    HW223565   1.190   4.926   4.798
 7556SOL     OW23566   0.732   2.104   5.741
 7556SOL    HW123567   0.720   2.203   5.741
 7556SOL    HW223568   0.807   2.079   5.802
 7557SOL     OW23569   5.628   3.264   6.301
 7557SOL    HW123570   5.691   3.323   6.353
 7557SOL    HW223571   5.567   3.321   6.246
 7558SOL     OW23572   2.434   2.593   3.777
 7558SOL    HW123573   2.367   2.523   3.752
 7558SOL    HW223574   2.386   2.679   3.796
 7559SOL     OW23575   6.298   5.717   1.250
 7559SOL    HW123576   6.303   5.631   1.200
 7559SOL    HW223577   6.381   5.728   1.306
 7560SOL     OW23578   5.462   6.517   0.040
 7560SOL    HW123579   5.406   6.564   0.108
 7560SOL    HW223580   5.432   6.422   0.032
 7561SOL     OW23581   0.701   3.030   0.424
 7561SOL    HW123582   0.635   2.986   0.362
 7561SOL    HW223583   0.769   2.963   0.453
 7562SOL     OW23584   4.453   6.468   4.991
 7562SOL    HW123585   4.414   6.535   4.928
 7562SOL    HW223586   4.391   6.455   5.069
 7563SOL     OW23587   2.723   6.992   0.344
 7563SOL    HW123588   2.766   0.058   0.338
 7563SOL    HW223589   2.695   6.963   0.252
 7564SOL     OW23590   4.751   1.383   2.858
 7564SOL    HW123591   4.687   1.356   2.929
 7564SOL    HW223592   4.741   1.323   2.779
 7565SOL     OW23593   4.919   4.213   6.669
 7565SOL    HW123594   4.926   4.165   6.582
 7565SOL    HW223595   4.825   4.245   6.682
 7566SOL     OW23596   0.869   4.837   3.384
 7566SOL    HW123597   0.933   4.904   3.420
 7566SOL    HW223598   0.919   4.762   3.341
 7567SOL     OW23599   1.649   2.221   5.320
 7567SOL    HW123600   1.568   2.279   5.308
 7567SOL    HW223601   1.715   2.267   5.378
 7568SOL     OW23602   5.603   5.960   3.797
 7568SOL    HW123603   5.647   6.048   3.817
 7568SOL    HW223604   5.655   5.886   3.839
 7569SOL     OW23605   4.220   4.630   5.838
 7569SOL    HW123606   4.187   4.558   5.777
 7569SOL    HW223607   4.143   4.687   5.868
 7570SOL     OW23608   5.319   4.750   5.453
 7570SOL    HW123609   5.389   4.680   5.470
 7570SOL    HW223610   5.260   4.757   5.534
 7571SOL     OW23611   5.405   4.738   2.149
 7571SOL    HW123612   5.335   4.678   2.188
 7571SOL    HW223613   5.380   4.762   2.055
 7572SOL     OW23614   4.931   0.614   3.140
 7572SOL    HW123615   4.886   0.658   3.218
 7572SOL    HW223616   4.915   0.515   3.144
 7573SOL     OW23617   5.941   5.759   4.528
 7573SOL    HW123618   5.970   5.791   4.438
 7573SOL    HW223619   5.912   5.664   4.522
 7574SOL     OW23620   6.722   0.918   4.807
 7574SOL    HW123621   6.747   0.886   4.898
 7574SOL    HW223622   6.666   1.001   4.815
 7575SOL     OW23623   4.642   0.209   5.641
 7575SOL    HW123624   4.654   0.184   5.545
 7575SOL    HW223625   4.634   0.308   5.648
 7576SOL     OW23626   6.195   5.736   0.294
 7576SOL    HW123627   6.181   5.834   0.280
 7576SOL    HW223628   6.157   5.685   0.217
 7577SOL     OW23629   6.806   6.878   5.394
 7577SOL    HW123630   6.842   6.818   5.322
 7577SOL    HW223631   6.766   6.824   5.467
 7578SOL     OW23632   1.987   6.071   3.797
 7578SOL    HW123633   2.016   6.125   3.718
 7578SOL    HW223634   2.035   5.983   3.797
 7579SOL     OW23635   4.596   1.664   2.225
 7579SOL    HW123636   4.561   1.707   2.142
 7579SOL    HW223637   4.696   1.674   2.228
 7580SOL     OW23638   1.523   4.269   4.025
 7580SOL    HW123639   1.437   4.312   3.998
 7580SOL    HW223640   1.600   4.322   3.988
 7581SOL     OW23641   4.834   0.968   1.264
 7581SOL    HW123642   4.893   0.979   1.184
 7581SOL    HW223643   4.760   1.035   1.261
 7582SOL     OW23644   3.506   0.802   0.093
 7582SOL    HW123645   3.443   0.838   0.162
 7582SOL    HW223646   3.578   0.750   0.138
 7583SOL     OW23647   5.852   3.956   1.607
 7583SOL    HW123648   5.810   4.028   1.662
 7583SOL    HW223649   5.781   3.902   1.562
 7584SOL     OW23650   3.316   6.619   1.051
 7584SOL    HW123651   3.216   6.621   1.056
 7584SOL    HW223652   3.344   6.582   0.963
 7585SOL     OW23653   1.879   2.900   5.776
 7585SOL    HW123654   1.787   2.870   5.750
 7585SOL    HW223655   1.904   2.982   5.724
 7586SOL     OW23656   3.630   0.614   3.406
 7586SOL    HW123657   3.710   0.562   3.437
 7586SOL    HW223658   3.615   0.691   3.468
 7587SOL     OW23659   3.551   1.673   6.540
 7587SOL    HW123660   3.529   1.575   6.541
 7587SOL    HW223661   3.600   1.697   6.624
 7588SOL     OW23662   0.599   3.327   2.211
 7588SOL    HW123663   0.554   3.240   2.231
 7588SOL    HW223664   0.661   3.314   2.134
 7589SOL     OW23665   5.995   0.201   0.617
 7589SOL    HW123666   5.944   0.117   0.604
 7589SOL    HW223667   5.932   0.278   0.628
 7590SOL     OW23668   2.785   2.097   6.479
 7590SOL    HW123669   2.705   2.078   6.536
 7590SOL    HW223670   2.755   2.130   6.389
 7591SOL     OW23671   0.070   4.961   0.543
 7591SOL    HW123672   0.154   4.996   0.585
 7591SOL    HW223673   0.090   4.875   0.497
 7592SOL     OW23674   0.178   4.710   6.605
 7592SOL    HW123675   0.226   4.752   6.527
 7592SOL    HW223676   0.087   4.750   6.612
 7593SOL     OW23677   5.375   2.669   0.696
 7593SOL    HW123678   5.389   2.708   0.787
 7593SOL    HW223679   5.299   2.604   0.699
 7594SOL     OW23680   6.783   4.190   2.172
 7594SOL    HW123681   6.820   4.259   2.234
 7594SOL    HW223682   6.817   4.206   2.079
 7595SOL     OW23683   0.230   2.435   5.768
 7595SOL    HW123684   0.283   2.367   5.717
 7595SOL    HW223685   0.182   2.494   5.703
 7596SOL     OW23686   4.392   5.035   2.974
 7596SOL    HW123687   4.330   4.957   2.975
 7596SOL    HW223688   4.415   5.061   3.068
 7597SOL     OW23689   2.860   5.524   1.647
 7597SOL    HW123690   2.854   5.425   1.635
 7597SOL    HW223691   2.932   5.560   1.588
 7598SOL     OW23692   0.003   1.110   2.960
 7598SOL    HW123693   0.001   1.019   2.919
 7598SOL    HW223694   6.940   1.127   3.007
 7599SOL     OW23695   5.627   1.425   3.607
 7599SOL    HW123696   5.640   1.370   3.690
 7599SOL    HW223697   5.556   1.384   3.550
 7600SOL     OW23698   1.869   0.633   2.895
 7600SOL    HW123699   1.968   0.643   2.903
 7600SOL    HW223700   1.828   0.720   2.869
 7601SOL     OW23701   2.027   5.654   2.696
 7601SOL    HW123702   1.933   5.685   2.707
 7601SOL    HW223703   2.054   5.662   2.600
 7602SOL     OW23704   2.228   3.830   5.868
 7602SOL    HW123705   2.134   3.811   5.895
 7602SOL    HW223706   2.269   3.748   5.829
 7603SOL     OW23707   1.079   5.977   6.067
 7603SOL    HW123708   1.026   6.061   6.056
 7603SOL    HW223709   1.082   5.951   6.163
 7604SOL     OW23710   2.036   5.046   4.207
 7604SOL    HW123711   2.106   5.028   4.276
 7604SOL    HW223712   1.968   5.110   4.245
 7605SOL     OW23713   1.443   6.034   0.609
 7605SOL    HW123714   1.444   6.074   0.701
 7605SOL    HW223715   1.353   5.993   0.592
 7606SOL     OW23716   0.054   2.803   2.850
 7606SOL    HW123717   0.074   2.713   2.891
 7606SOL    HW223718   6.980   2.809   2.833
 7607SOL     OW23719   4.204   6.319   0.330
 7607SOL    HW123720   4.127   6.361   0.282
 7607SOL    HW223721   4.257   6.264   0.265
 7608SOL     OW23722   3.506   3.789   3.113
 7608SOL    HW123723   3.551   3.708   3.149
 7608SOL    HW223724   3.409   3.787   3.136
 7609SOL     OW23725   0.002   4.329   3.577
 7609SOL    HW123726   0.013   4.285   3.488
 7609SOL    HW223727   6.938   4.304   3.616
 7610SOL     OW23728   6.357   0.512   6.625
 7610SOL    HW123729   6.381   0.420   6.653
 7610SOL    HW223730   6.292   0.508   6.549
 7611SOL     OW23731   1.120   2.007   7.014
 7611SOL    HW123732   1.109   2.106   7.007
 7611SOL    HW223733   1.081   1.975   0.076
 7612SOL     OW23734   4.543   2.608   4.594
 7612SOL    HW123735   4.616   2.658   4.548
 7612SOL    HW223736   4.464   2.669   4.607
 7613SOL     OW23737   5.399   2.111   1.840
 7613SOL    HW123738   5.388   2.107   1.741
 7613SOL    HW223739   5.309   2.105   1.884
 7614SOL     OW23740   4.831   2.719   1.392
 7614SOL    HW123741   4.917   2.699   1.345
 7614SOL    HW223742   4.755   2.683   1.338
 7615SOL     OW23743   5.240   4.139   5.844
 7615SOL    HW123744   5.168   4.159   5.777
 7615SOL    HW223745   5.291   4.223   5.863
 7616SOL     OW23746   6.934   4.537   4.470
 7616SOL    HW123747   6.945   4.469   4.542
 7616SOL    HW223748   6.924   4.627   4.511
 7617SOL     OW23749   3.074   5.518   2.458
 7617SOL    HW123750   3.001   5.578   2.427
 7617SOL    HW223751   3.159   5.570   2.466
 7618SOL     OW23752   0.615   2.586   6.839
 7618SOL    HW123753   0.680   2.660   6.825
 7618SOL    HW223754   0.641   2.534   6.921
 7619SOL     OW23755   5.999   3.582   4.958
 7619SOL    HW123756   5.901   3.569   4.943
 7619SOL    HW223757   6.045   3.493   4.960
 7620SOL     OW23758   4.127   5.093   0.023
 7620SOL    HW123759   4.177   5.063   0.104
 7620SOL    HW223760   4.030   5.104   0.046
 7621SOL     OW23761   0.575   1.491   0.737
 7621SOL    HW123762   0.632   1.530   0.810
 7621SOL    HW223763   0.516   1.563   0.700
 7622SOL     OW23764   4.840   5.030   1.695
 7622SOL    HW123765   4.874   5.049   1.603
 7622SOL    HW223766   4.762   4.968   1.690
 7623SOL     OW23767   4.650   4.341   6.711
 7623SOL    HW123768   4.644   4.440   6.721
 7623SOL    HW223769   4.610   4.313   6.624
 7624SOL     OW23770   6.993   2.908   4.736
 7624SOL    HW123771   7.007   2.877   4.642
 7624SOL    HW223772   0.052   2.953   4.769
 7625SOL     OW23773   4.329   0.420   1.781
 7625SOL    HW123774   4.370   0.386   1.866
 7625SOL    HW223775   4.398   0.425   1.710
 7626SOL     OW23776   6.849   6.372   4.725
 7626SOL    HW123777   6.868   6.470   4.718
 7626SOL    HW223778   6.756   6.359   4.760
 7627SOL     OW23779   5.487   3.428   0.200
 7627SOL    HW123780   5.469   3.453   0.104
 7627SOL    HW223781   5.521   3.334   0.203
 7628SOL     OW23782   3.289   0.808   1.894
 7628SOL    HW123783   3.249   0.851   1.975
 7628SOL    HW223784   3.224   0.742   1.856
 7629SOL     OW23785   6.423   6.734   2.949
 7629SOL    HW123786   6.341   6.771   2.992
 7629SOL    HW223787   6.472   6.677   3.014
 7630SOL     OW23788   5.485   6.806   1.935
 7630SOL    HW123789   5.535   6.758   2.007
 7630SOL    HW223790   5.446   6.890   1.972
 7631SOL     OW23791   0.499   0.956   5.116
 7631SOL    HW123792   0.590   0.920   5.136
 7631SOL    HW223793   0.504   1.016   5.037
 7632SOL     OW23794   3.593   2.414   1.658
 7632SOL    HW123795   3.663   2.397   1.589
 7632SOL    HW223796   3.620   2.372   1.745
 7633SOL     OW23797   4.695   2.687   0.251
 7633SOL    HW123798   4.646   2.670   0.166
 7633SOL    HW223799   4.705   2.601   0.302
 7634SOL     OW23800   1.643   1.245   1.984
 7634SOL    HW123801   1.671   1.219   1.892
 7634SOL    HW223802   1.722   1.279   2.034
 7635SOL     OW23803   2.770   5.672   5.041
 7635SOL    HW123804   2.814   5.751   4.999
 7635SOL    HW223805   2.714   5.625   4.973
 7636SOL     OW23806   1.549   1.397   3.022
 7636SOL    HW123807   1.536   1.323   3.089
 7636SOL    HW223808   1.604   1.469   3.062
 7637SOL     OW23809   2.902   6.706   2.435
 7637SOL    HW123810   2.821   6.736   2.486
 7637SOL    HW223811   2.984   6.725   2.489
 7638SOL     OW23812   4.197   5.966   1.953
 7638SOL    HW123813   4.190   5.985   2.051
 7638SOL    HW223814   4.285   5.922   1.934
 7639SOL     OW23815   1.574   2.576   0.987
 7639SOL    HW123816   1.530   2.516   1.053
 7639SOL    HW223817   1.656   2.531   0.951
 7640SOL     OW23818   3.295   1.977   0.250
 7640SOL    HW123819   3.325   1.926   0.169
 7640SOL    HW223820   3.316   2.074   0.238
 7641SOL     OW23821   0.850   4.640   1.874
 7641SOL    HW123822   0.807   4.730   1.869
 7641SOL    HW223823   0.782   4.569   1.851
 7642SOL     OW23824   2.894   1.496   2.900
 7642SOL    HW123825   2.819   1.562   2.894
 7642SOL    HW223826   2.863   1.406   2.871
 7643SOL     OW23827   4.973   2.634   4.294
 7643SOL    HW123828   4.950   2.687   4.212
 7643SOL    HW223829   5.071   2.642   4.312
 7644SOL     OW23830   6.033   2.568   2.740
 7644SOL    HW123831   6.099   2.604   2.674
 7644SOL    HW223832   5.947   2.547   2.693
 7645SOL     OW23833   4.260   4.064   5.427
 7645SOL    HW123834   4.264   3.969   5.397
 7645SOL    HW223835   4.198   4.072   5.505
 7646SOL     OW23836   2.105   2.245   2.295
 7646SOL    HW123837   2.095   2.146   2.283
 7646SOL    HW223838   2.177   2.263   2.362
 7647SOL     OW23839   0.313   3.272   1.811
 7647SOL    HW123840   0.313   3.216   1.728
 7647SOL    HW223841   0.333   3.214   1.890
 7648SOL     OW23842   3.612   1.799   3.701
 7648SOL    HW123843   3.543   1.871   3.701
 7648SOL    HW223844   3.599   1.741   3.620
 7649SOL     OW23845   1.123   1.388   3.010
 7649SOL    HW123846   1.072   1.465   3.050
 7649SOL    HW223847   1.136   1.405   2.913
 7650SOL     OW23848   5.179   2.787   1.602
 7650SOL    HW123849   5.115   2.710   1.600
 7650SOL    HW223850   5.127   2.873   1.597
 7651SOL     OW23851   2.985   6.619   4.714
 7651SOL    HW123852   3.056   6.689   4.713
 7651SOL    HW223853   2.942   6.616   4.805
 7652SOL     OW23854   0.309   4.116   3.848
 7652SOL    HW123855   0.383   4.162   3.798
 7652SOL    HW223856   0.229   4.175   3.851
 7653SOL     OW23857   2.594   1.835   0.659
 7653SOL    HW123858   2.529   1.795   0.725
 7653SOL    HW223859   2.595   1.934   0.670
 7654SOL     OW23860   4.850   3.508   4.115
 7654SOL    HW123861   4.922   3.466   4.061
 7654SOL    HW223862   4.790   3.562   4.056
 7655SOL     OW23863   3.539   0.226   3.359
 7655SOL    HW123864   3.466   0.263   3.418
 7655SOL    HW223865   3.590   0.156   3.409
 7656SOL     OW23866   1.337   4.956   6.478
 7656SOL    HW123867   1.408   4.891   6.503
 7656SOL    HW223868   1.354   4.990   6.385
 7657SOL     OW23869   2.340   2.641   3.376
 7657SOL    HW123870   2.281   2.710   3.417
 7657SOL    HW223871   2.415   2.619   3.438
 7658SOL     OW23872   4.049   6.217   5.772
 7658SOL    HW123873   3.965   6.168   5.794
 7658SOL    HW223874   4.100   6.166   5.703
 7659SOL     OW23875   5.389   5.572   6.895
 7659SOL    HW123876   5.393   5.578   6.796
 7659SOL    HW223877   5.306   5.522   6.922
 7660SOL     OW23878   6.310   6.281   4.159
 7660SOL    HW123879   6.365   6.204   4.193
 7660SOL    HW223880   6.354   6.367   4.186
 7661SOL     OW23881   6.061   2.335   4.544
 7661SOL    HW123882   6.047   2.260   4.480
 7661SOL    HW223883   6.155   2.369   4.535
 7662SOL     OW23884   0.880   2.442   2.442
 7662SOL    HW123885   0.871   2.359   2.386
 7662SOL    HW223886   0.969   2.441   2.487
 7663SOL     OW23887   6.744   6.870   6.306
 7663SOL    HW123888   6.813   6.813   6.351
 7663SOL    HW223889   6.767   6.879   6.209
 7664SOL     OW23890   3.812   1.056   2.235
 7664SOL    HW123891   3.714   1.041   2.235
 7664SOL    HW223892   3.831   1.154   2.230
 7665SOL     OW23893   4.545   6.944   4.564
 7665SOL    HW123894   4.504   6.955   4.655
 7665SOL    HW223895   4.473   6.946   4.495
 7666SOL     OW23896   0.660   6.790   1.330
 7666SOL    HW123897   0.677   6.798   1.232
 7666SOL    HW223898   0.593   6.858   1.358
 7667SOL     OW23899   4.377   5.877   1.330
 7667SOL    HW123900   4.453   5.875   1.266
 7667SOL    HW223901   4.406   5.926   1.413
 7668SOL     OW23902   2.953   4.221   1.114
 7668SOL    HW123903   2.899   4.303   1.131
 7668SOL    HW223904   2.907   4.164   1.046
 7669SOL     OW23905   5.601   2.094   5.886
 7669SOL    HW123906   5.643   2.076   5.797
 7669SOL    HW223907   5.658   2.157   5.938
 7670SOL     OW23908   1.477   5.032   6.211
 7670SOL    HW123909   1.489   5.080   6.123
 7670SOL    HW223910   1.464   4.935   6.194
 7671SOL     OW23911   4.403   0.658   4.996
 7671SOL    HW123912   4.361   0.638   4.908
 7671SOL    HW223913   4.499   0.681   4.983
 7672SOL     OW23914   5.570   6.246   3.710
 7672SOL    HW123915   5.649   6.302   3.734
 7672SOL    HW223916   5.514   6.230   3.792
 7673SOL     OW23917   2.152   5.473   0.240
 7673SOL    HW123918   2.060   5.507   0.263
 7673SOL    HW223919   2.217   5.502   0.310
 7674SOL     OW23920   6.082   2.502   3.903
 7674SOL    HW123921   6.161   2.443   3.890
 7674SOL    HW223922   6.082   2.538   3.996
 7675SOL     OW23923   4.780   0.945   2.895
 7675SOL    HW123924   4.758   0.964   2.991
 7675SOL    HW223925   4.868   0.987   2.873
 7676SOL     OW23926   1.415   2.404   0.529
 7676SOL    HW123927   1.442   2.321   0.577
 7676SOL    HW223928   1.415   2.481   0.593
 7677SOL     OW23929   7.016   3.966   2.263
 7677SOL    HW123930   0.029   4.057   2.278
 7677SOL    HW223931   6.954   3.968   2.184
 7678SOL     OW23932   1.860   1.190   5.711
 7678SOL    HW123933   1.884   1.201   5.808
 7678SOL    HW223934   1.774   1.140   5.703
 7679SOL     OW23935   1.984   5.949   5.371
 7679SOL    HW123936   2.037   5.931   5.289
 7679SOL    HW223937   1.958   5.862   5.415
 7680SOL     OW23938   1.978   2.700   0.078
 7680SOL    HW123939   2.029   2.785   0.085
 7680SOL    HW223940   1.904   2.699   0.146
 7681SOL     OW23941   2.932   6.920   0.128
 7681SOL    HW123942   2.911   7.015   0.104
 7681SOL    HW223943   3.010   6.918   0.190
 7682SOL     OW23944   3.634   0.395   1.839
 7682SOL    HW123945   3.695   0.338   1.783
 7682SOL    HW223946   3.605   0.343   1.919
 7683SOL     OW23947   6.868   1.955   4.042
 7683SOL    HW123948   6.867   1.988   4.137
 7683SOL    HW223949   6.797   2.003   3.990
 7684SOL     OW23950   4.521   2.013   0.573
 7684SOL    HW123951   4.603   2.048   0.528
 7684SOL    HW223952   4.504   1.920   0.542
 7685SOL     OW23953   3.311   3.314   6.890
 7685SOL    HW123954   3.294   3.328   6.792
 7685SOL    HW223955   3.232   3.348   6.942
 7686SOL     OW23956   5.135   0.293   3.222
 7686SOL    HW123957   5.126   0.200   3.258
 7686SOL    HW223958   5.054   0.347   3.248
 7687SOL     OW23959   5.756   5.031   5.400
 7687SOL    HW123960   5.671   5.030   5.453
 7687SOL    HW223961   5.834   5.045   5.462
 7688SOL     OW23962   0.345   0.243   5.579
 7688SOL    HW123963   0.388   0.305   5.513
 7688SOL    HW223964   0.401   0.162   5.590
 7689SOL     OW23965   5.203   5.575   3.109
 7689SOL    HW123966   5.194   5.610   3.203
 7689SOL    HW223967   5.300   5.557   3.090
 7690SOL     OW23968   6.365   5.122   0.800
 7690SOL    HW123969   6.376   5.080   0.890
 7690SOL    HW223970   6.273   5.103   0.766
 7691SOL     OW23971   5.625   3.138   4.385
 7691SOL    HW123972   5.608   3.227   4.343
 7691SOL    HW223973   5.555   3.120   4.454
 7692SOL     OW23974   1.054   6.966   1.886
 7692SOL    HW123975   1.009   7.004   1.805
 7692SOL    HW223976   1.149   6.943   1.863
 7693SOL     OW23977   4.043   6.980   1.353
 7693SOL    HW123978   4.128   7.004   1.306
 7693SOL    HW223979   4.062   6.912   1.424
 7694SOL     OW23980   6.834   4.216   4.081
 7694SOL    HW123981   6.871   4.126   4.055
 7694SOL    HW223982   6.881   4.249   4.163
 7695SOL     OW23983   3.626   6.481   0.350
 7695SOL    HW123984   3.606   6.577   0.332
 7695SOL    HW223985   3.542   6.434   0.379
 7696SOL     OW23986   6.671   1.376   4.751
 7696SOL    HW123987   6.600   1.444   4.729
 7696SOL    HW223988   6.716   1.347   4.667
 7697SOL     OW23989   2.987   0.774   2.740
 7697SOL    HW123990   2.952   0.711   2.810
 7697SOL    HW223991   3.027   0.722   2.665
 7698SOL     OW23992   0.131   2.646   4.757
 7698SOL    HW123993   0.049   2.700   4.738
 7698SOL    HW223994   0.161   2.601   4.673
 7699SOL     OW23995   4.230   5.472   6.712
 7699SOL    HW123996   4.291   5.470   6.791
 7699SOL    HW223997   4.212   5.379   6.681
 7700SOL     OW23998   4.622   6.276   5.284
 7700SOL    HW123999   4.536   6.226   5.276
 7700SOL    HW224000   4.680   6.255   5.206
 7701SOL     OW24001   6.852   1.784   6.180
 7701SOL    HW124002   6.907   1.868   6.180
 7701SOL    HW224003   6.823   1.764   6.086
 7702SOL     OW24004   3.062   6.251   5.913
 7702SOL    HW124005   3.046   6.301   5.828
 7702SOL    HW224006   2.997   6.176   5.921
 7703SOL     OW24007   6.908   0.806   4.405
 7703SOL    HW124008   6.888   0.903   4.416
 7703SOL    HW224009   6.867   0.755   4.481
 7704SOL     OW24010   5.247   4.621   5.240
 7704SOL    HW124011   5.305   4.539   5.237
 7704SOL    HW224012   5.285   4.686   5.305
 7705SOL     OW24013   3.927   5.177   6.039
 7705SOL    HW124014   4.008   5.236   6.041
 7705SOL    HW224015   3.936   5.110   5.965
 7706SOL     OW24016   4.547   1.644   5.692
 7706SOL    HW124017   4.528   1.701   5.612
 7706SOL    HW224018   4.485   1.669   5.767
 7707SOL     OW24019   1.057   6.048   6.589
 7707SOL    HW124020   1.147   6.025   6.551
 7707SOL    HW224021   1.069   6.090   6.679
 7708SOL     OW24022   5.052   6.155   5.342
 7708SOL    HW124023   5.123   6.095   5.304
 7708SOL    HW224024   5.011   6.112   5.422
 7709SOL     OW24025   5.663   3.805   1.427
 7709SOL    HW124026   5.708   3.780   1.341
 7709SOL    HW224027   5.624   3.724   1.469
 7710SOL     OW24028   3.347   0.873   0.943
 7710SOL    HW124029   3.350   0.937   1.020
 7710SOL    HW224030   3.428   0.887   0.885
 7711SOL     OW24031   5.989   6.177   5.127
 7711SOL    HW124032   5.948   6.105   5.071
 7711SOL    HW224033   5.980   6.154   5.224
 7712SOL     OW24034   5.795   4.101   1.314
 7712SOL    HW124035   5.841   4.155   1.385
 7712SOL    HW224036   5.745   4.026   1.358
 7713SOL     OW24037   1.502   4.687   0.409
 7713SOL    HW124038   1.490   4.775   0.361
 7713SOL    HW224039   1.598   4.659   0.401
 7714SOL     OW24040   6.227   5.563   5.368
 7714SOL    HW124041   6.188   5.517   5.289
 7714SOL    HW224042   6.225   5.662   5.353
 7715SOL     OW24043   4.665   1.696   0.769
 7715SOL    HW124044   4.764   1.700   0.786
 7715SOL    HW224045   4.618   1.752   0.837
 7716SOL     OW24046   6.346   4.148   3.546
 7716SOL    HW124047   6.314   4.056   3.567
 7716SOL    HW224048   6.423   4.143   3.483
 7717SOL     OW24049   2.425   0.943   5.071
 7717SOL    HW124050   2.387   1.012   5.132
 7717SOL    HW224051   2.427   0.978   4.977
 7718SOL     OW24052   2.008   1.721   2.948
 7718SOL    HW124053   1.953   1.662   2.888
 7718SOL    HW224054   2.002   1.688   3.042
 7719SOL     OW24055   0.229   3.845   4.463
 7719SOL    HW124056   0.232   3.746   4.473
 7719SOL    HW224057   0.183   3.869   4.377
 7720SOL     OW24058   6.964   0.027   0.670
 7720SOL    HW124059   0.023   7.022   0.719
 7720SOL    HW224060   6.899   6.976   0.669
 7721SOL     OW24061   1.157   4.760   2.411
 7721SOL    HW124062   1.177   4.827   2.482
 7721SOL    HW224063   1.195   4.792   2.324
 7722SOL     OW24064   0.350   5.802   2.641
 7722SOL    HW124065   0.440   5.802   2.684
 7722SOL    HW224066   0.336   5.716   2.592
 7723SOL     OW24067   6.577   3.580   0.032
 7723SOL    HW124068   6.635   3.617   6.984
 7723SOL    HW224069   6.634   3.534   0.101
 7724SOL     OW24070   2.442   4.322   1.797
 7724SOL    HW124071   2.352   4.340   1.758
 7724SOL    HW224072   2.462   4.224   1.794
 7725SOL     OW24073   5.056   2.869   4.012
 7725SOL    HW124074   5.002   2.897   4.091
 7725SOL    HW224075   5.152   2.860   4.039
 7726SOL     OW24076   0.498   5.734   4.428
 7726SOL    HW124077   0.594   5.715   4.450
 7726SOL    HW224078   0.441   5.712   4.507
 7727SOL     OW24079   6.688   0.917   3.216
 7727SOL    HW124080   6.742   0.925   3.300
 7727SOL    HW224081   6.730   0.850   3.155
 7728SOL     OW24082   1.032   4.672   3.238
 7728SOL    HW124083   1.048   4.574   3.236
 7728SOL    HW224084   1.119   4.721   3.228
 7729SOL     OW24085   5.880   3.222   1.243
 7729SOL    HW124086   5.864   3.304   1.187
 7729SOL    HW224087   5.812   3.217   1.315
 7730SOL     OW24088   5.870   5.433   1.956
 7730SOL    HW124089   5.831   5.348   1.992
 7730SOL    HW224090   5.827   5.455   1.868
 7731SOL     OW24091   6.688   0.959   0.734
 7731SOL    HW124092   6.712   0.871   0.776
 7731SOL    HW224093   6.770   1.013   0.720
 7732SOL     OW24094   4.447   6.094   0.714
 7732SOL    HW124095   4.498   6.167   0.760
 7732SOL    HW224096   4.421   6.024   0.780
 7733SOL     OW24097   4.099   6.608   2.352
 7733SOL    HW124098   4.092   6.702   2.384
 7733SOL    HW224099   4.188   6.595   2.308
 7734SOL     OW24100   2.534   4.549   3.620
 7734SOL    HW124101   2.612   4.496   3.587
 7734SOL    HW224102   2.526   4.633   3.567
 7735SOL     OW24103   4.359   6.158   6.694
 7735SOL    HW124104   4.377   6.251   6.725
 7735SOL    HW224105   4.370   6.153   6.595
 7736SOL     OW24106   4.530   3.818   6.594
 7736SOL    HW124107   4.517   3.917   6.589
 7736SOL    HW224108   4.496   3.785   6.683
 7737SOL     OW24109   4.177   0.744   1.709
 7737SOL    HW124110   4.154   0.803   1.632
 7737SOL    HW224111   4.143   0.652   1.692
 7738SOL     OW24112   1.445   5.396   6.506
 7738SOL    HW124113   1.429   5.318   6.446
 7738SOL    HW224114   1.396   5.476   6.471
 7739SOL     OW24115   0.428   1.597   1.942
 7739SOL    HW124116   0.517   1.584   1.986
 7739SOL    HW224117   0.426   1.547   1.856
 7740SOL     OW24118   1.436   0.556   2.971
 7740SOL    HW124119   1.468   0.590   2.883
 7740SOL    HW224120   1.509   0.569   3.039
 7741SOL     OW24121   1.356   5.988   3.972
 7741SOL    HW124122   1.280   6.029   4.023
 7741SOL    HW224123   1.373   5.896   4.007
 7742SOL     OW24124   6.124   1.831   3.237
 7742SOL    HW124125   6.055   1.888   3.194
 7742SOL    HW224126   6.207   1.885   3.254
 7743SOL     OW24127   4.403   2.435   6.415
 7743SOL    HW124128   4.373   2.432   6.320
 7743SOL    HW224129   4.416   2.530   6.443
 7744SOL     OW24130   0.411   5.982   3.669
 7744SOL    HW124131   0.372   6.070   3.640
 7744SOL    HW224132   0.509   5.993   3.685
 7745SOL     OW24133   3.566   1.309   5.894
 7745SOL    HW124134   3.636   1.346   5.833
 7745SOL    HW224135   3.568   1.358   5.981
 7746SOL     OW24136   2.146   6.505   6.835
 7746SOL    HW124137   2.208   6.583   6.841
 7746SOL    HW224138   2.133   6.480   6.739
 7747SOL     OW24139   4.257   5.621   1.293
 7747SOL    HW124140   4.337   5.635   1.351
 7747SOL    HW224141   4.227   5.709   1.255
 7748SOL     OW24142   3.530   3.776   6.024
 7748SOL    HW124143   3.434   3.768   5.998
 7748SOL    HW224144   3.582   3.820   5.950
 7749SOL     OW24145   3.295   3.204   5.591
 7749SOL    HW124146   3.203   3.178   5.561
 7749SOL    HW224147   3.346   3.122   5.618
 7750SOL     OW24148   0.041   5.908   1.710
 7750SOL    HW124149   0.051   5.996   1.662
 7750SOL    HW224150   6.989   5.857   1.670
 7751SOL     OW24151   1.725   1.057   2.261
 7751SOL    HW124152   1.805   1.093   2.214
 7751SOL    HW224153   1.751   1.026   2.353
 7752SOL     OW24154   5.254   0.092   5.553
 7752SOL    HW124155   5.314   0.172   5.555
 7752SOL    HW224156   5.164   0.119   5.520
 7753SOL     OW24157   2.132   1.950   4.587
 7753SOL    HW124158   2.121   2.038   4.633
 7753SOL    HW224159   2.158   1.965   4.491
 7754SOL     OW24160   3.543   5.839   1.751
 7754SOL    HW124161   3.513   5.902   1.679
 7754SOL    HW224162   3.643   5.844   1.759
 7755SOL     OW24163   1.125   3.242   6.308
 7755SOL    HW124164   1.148   3.145   6.316
 7755SOL    HW224165   1.210   3.296   6.300
 7756SOL     OW24166   3.353   6.302   1.339
 7756SOL    HW124167   3.334   6.330   1.244
 7756SOL    HW224168   3.306   6.216   1.358
 7757SOL     OW24169   6.907   4.748   1.440
 7757SOL    HW124170   6.829   4.686   1.453
 7757SOL    HW224171   6.910   4.777   1.344
 7758SOL     OW24172   1.503   6.443   6.142
 7758SOL    HW124173   1.531   6.350   6.163
 7758SOL    HW224174   1.415   6.462   6.185
 7759SOL     OW24175   2.571   1.734   5.638
 7759SOL    HW124176   2.474   1.752   5.626
 7759SOL    HW224177   2.623   1.785   5.568
 7760SOL     OW24178   5.167   2.196   1.945
 7760SOL    HW124179   5.167   2.292   1.972
 7760SOL    HW224180   5.171   2.138   2.027
 7761SOL     OW24181   6.172   6.127   4.716
 7761SOL    HW124182   6.232   6.157   4.643
 7761SOL    HW224183   6.125   6.207   4.755
 7762SOL     OW24184   1.849   0.346   3.669
 7762SOL    HW124185   1.794   0.388   3.741
 7762SOL    HW224186   1.820   0.383   3.580
 7763SOL     OW24187   2.168   6.685   6.286
 7763SOL    HW124188   2.082   6.728   6.259
 7763SOL    HW224189   2.228   6.677   6.206
 7764SOL     OW24190   2.945   4.512   6.379
 7764SOL    HW124191   2.970   4.416   6.388
 7764SOL    HW224192   2.967   4.543   6.286
 7765SOL     OW24193   6.505   3.310   4.643
 7765SOL    HW124194   6.488   3.408   4.651
 7765SOL    HW224195   6.539   3.289   4.551
 7766SOL     OW24196   0.095   4.388   0.366
 7766SOL    HW124197   7.024   4.390   0.337
 7766SOL    HW224198   0.134   4.297   0.349
 7767SOL     OW24199   4.336   6.691   2.723
 7767SOL    HW124200   4.340   6.633   2.642
 7767SOL    HW224201   4.429   6.711   2.754
 7768SOL     OW24202   4.654   4.702   3.598
 7768SOL    HW124203   4.660   4.715   3.697
 7768SOL    HW224204   4.606   4.780   3.557
 7769SOL     OW24205   3.925   1.793   5.064
 7769SOL    HW124206   3.934   1.867   4.998
 7769SOL    HW224207   3.832   1.757   5.061
 7770SOL     OW24208   7.017   3.561   4.805
 7770SOL    HW124209   7.012   3.630   4.877
 7770SOL    HW224210   0.070   3.499   4.823
 7771SOL     OW24211   2.700   1.587   6.072
 7771SOL    HW124212   2.714   1.585   6.171
 7771SOL    HW224213   2.604   1.567   6.051
 7772SOL     OW24214   5.096   0.914   0.808
 7772SOL    HW124215   5.166   0.843   0.822
 7772SOL    HW224216   5.080   0.926   0.710
 7773SOL     OW24217   2.646   5.817   5.937
 7773SOL    HW124218   2.683   5.814   6.030
 7773SOL    HW224219   2.611   5.726   5.912
 7774SOL     OW24220   4.768   2.359   4.693
 7774SOL    HW124221   4.682   2.311   4.675
 7774SOL    HW224222   4.828   2.350   4.613
 7775SOL     OW24223   3.902   6.803   0.468
 7775SOL    HW124224   3.966   6.830   0.396
 7775SOL    HW224225   3.952   6.764   0.545
 7776SOL     OW24226   0.436   6.566   6.135
 7776SOL    HW124227   0.437   6.640   6.068
 7776SOL    HW224228   0.492   6.490   6.101
 7777SOL     OW24229   6.423   5.788   4.842
 7777SOL    HW124230   6.362   5.735   4.901
 7777SOL    HW224231   6.413   5.885   4.862
 7778SOL     OW24232   5.470   4.434   2.268
 7778SOL    HW124233   5.515   4.497   2.205
 7778SOL    HW224234   5.380   4.470   2.294
 7779SOL     OW24235   3.044   0.241   2.883
 7779SOL    HW124236   3.111   0.311   2.910
 7779SOL    HW224237   2.968   0.240   2.948
 7780SOL     OW24238   6.930   6.358   5.653
 7780SOL    HW124239   6.867   6.407   5.594
 7780SOL    HW224240   6.885   6.336   5.740
 7781SOL     OW24241   1.410   4.120   0.244
 7781SOL    HW124242   1.384   4.137   0.339
 7781SOL    HW224243   1.487   4.179   0.219
 7782SOL     OW24244   5.615   4.903   3.429
 7782SOL    HW124245   5.535   4.922   3.485
 7782SOL    HW224246   5.681   4.850   3.483
 7783SOL     OW24247   0.463   6.927   6.247
 7783SOL    HW124248   0.538   6.891   6.193
 7783SOL    HW224249   0.460   0.003   6.238
 7784SOL     OW24250   2.880   2.521   1.668
 7784SOL    HW124251   2.933   2.445   1.630
 7784SOL    HW224252   2.873   2.511   1.767
 7785SOL     OW24253   1.250   6.708   3.729
 7785SOL    HW124254   1.241   6.736   3.825
 7785SOL    HW224255   1.168   6.734   3.679
 7786SOL     OW24256   4.423   0.764   0.198
 7786SOL    HW124257   4.452   0.668   0.197
 7786SOL    HW224258   4.435   0.803   0.107
 7787SOL     OW24259   2.321   2.933   0.618
 7787SOL    HW124260   2.361   3.018   0.653
 7787SOL    HW224261   2.374   2.903   0.538
 7788SOL     OW24262   1.408   6.521   2.089
 7788SOL    HW124263   1.376   6.430   2.060
 7788SOL    HW224264   1.474   6.511   2.163
 7789SOL     OW24265   3.249   0.134   6.298
 7789SOL    HW124266   3.287   0.114   6.389
 7789SOL    HW224267   3.317   0.114   6.228
 7790SOL     OW24268   6.393   4.904   2.308
 7790SOL    HW124269   6.474   4.928   2.255
 7790SOL    HW224270   6.376   4.976   2.376
 7791SOL     OW24271   2.525   5.562   1.883
 7791SOL    HW124272   2.498   5.475   1.926
 7791SOL    HW224273   2.449   5.596   1.827
 7792SOL     OW24274   0.495   0.608   2.918
 7792SOL    HW124275   0.446   0.661   2.987
 7792SOL    HW224276   0.593   0.628   2.924
 7793SOL     OW24277   4.911   0.453   6.454
 7793SOL    HW124278   4.874   0.543   6.476
 7793SOL    HW224279   4.914   0.441   6.354
 7794SOL     OW24280   0.680   5.596   1.972
 7794SOL    HW124281   0.615   5.619   1.900
 7794SOL    HW224282   0.753   5.664   1.975
 7795SOL     OW24283   3.216   5.509   5.787
 7795SOL    HW124284   3.248   5.578   5.722
 7795SOL    HW224285   3.293   5.478   5.843
 7796SOL     OW24286   3.542   2.743   5.683
 7796SOL    HW124287   3.588   2.791   5.758
 7796SOL    HW224288   3.610   2.709   5.618
 7797SOL     OW24289   1.190   5.233   1.516
 7797SOL    HW124290   1.242   5.302   1.566
 7797SOL    HW224291   1.204   5.246   1.418
 7798SOL     OW24292   1.458   1.330   2.188
 7798SOL    HW124293   1.402   1.413   2.196
 7798SOL    HW224294   1.496   1.324   2.096
 7799SOL     OW24295   2.903   5.702   2.898
 7799SOL    HW124296   2.820   5.756   2.914
 7799SOL    HW224297   2.969   5.756   2.846
 7800SOL     OW24298   0.603   5.817   2.381
 7800SOL    HW124299   0.513   5.802   2.422
 7800SOL    HW224300   0.634   5.910   2.400
 7801SOL     OW24301   1.758   1.654   2.812
 7801SOL    HW124302   1.771   1.562   2.774
 7801SOL    HW224303   1.699   1.649   2.892
 7802SOL     OW24304   6.859   4.322   6.929
 7802SOL    HW124305   6.911   4.383   6.989
 7802SOL    HW224306   6.845   4.367   6.840
 7803SOL     OW24307   4.852   2.152   7.024
 7803SOL    HW124308   4.930   2.106   0.043
 7803SOL    HW224309   4.776   2.087   7.015
 7804SOL     OW24310   3.526   1.699   4.412
 7804SOL    HW124311   3.541   1.798   4.417
 7804SOL    HW224312   3.614   1.652   4.402
 7805SOL     OW24313   4.857   3.223   2.459
 7805SOL    HW124314   4.819   3.166   2.386
 7805SOL    HW224315   4.899   3.165   2.528
 7806SOL     OW24316   6.692   2.220   6.311
 7806SOL    HW124317   6.597   2.208   6.341
 7806SOL    HW224318   6.695   2.293   6.243
 7807SOL     OW24319   1.471   4.371   5.442
 7807SOL    HW124320   1.387   4.359   5.496
 7807SOL    HW224321   1.451   4.351   5.346
 7808SOL     OW24322   4.806   4.096   2.156
 7808SOL    HW124323   4.809   3.997   2.145
 7808SOL    HW224324   4.799   4.140   2.066
 7809SOL     OW24325   5.210   4.895   4.714
 7809SOL    HW124326   5.285   4.831   4.697
 7809SOL    HW224327   5.191   4.899   4.812
 7810SOL     OW24328   3.705   6.882   4.996
 7810SOL    HW124329   3.752   6.970   4.991
 7810SOL    HW224330   3.683   6.861   5.091
 7811SOL     OW24331   1.601   5.775   3.159
 7811SOL    HW124332   1.677   5.824   3.117
 7811SOL    HW224333   1.636   5.704   3.220
 7812SOL     OW24334   2.342   3.116   5.369
 7812SOL    HW124335   2.307   3.034   5.414
 7812SOL    HW224336   2.416   3.090   5.306
 7813SOL     OW24337   4.517   2.792   1.315
 7813SOL    HW124338   4.566   2.826   1.395
 7813SOL    HW224339   4.469   2.708   1.339
 7814SOL     OW24340   6.511   3.267   2.763
 7814SOL    HW124341   6.445   3.259   2.688
 7814SOL    HW224342   6.584   3.331   2.737
 7815SOL     OW24343   5.570   1.767   5.297
 7815SOL    HW124344   5.543   1.830   5.225
 7815SOL    HW224345   5.507   1.775   5.374
 7816SOL     OW24346   0.558   1.893   6.023
 7816SOL    HW124347   0.517   1.927   5.939
 7816SOL    HW224348   0.656   1.910   6.022
 7817SOL     OW24349   4.488   3.883   5.609
 7817SOL    HW124350   4.479   3.863   5.512
 7817SOL    HW224351   4.416   3.948   5.637
 7818SOL     OW24352   5.110   1.331   2.494
 7818SOL    HW124353   5.149   1.384   2.570
 7818SOL    HW224354   5.040   1.385   2.448
 7819SOL     OW24355   6.841   3.546   4.142
 7819SOL    HW124356   6.854   3.608   4.219
 7819SOL    HW224357   6.748   3.509   4.145
 7820SOL     OW24358   1.846   1.188   5.435
 7820SOL    HW124359   1.844   1.282   5.402
 7820SOL    HW224360   1.892   1.184   5.524
 7821SOL     OW24361   5.822   5.635   0.511
 7821SOL    HW124362   5.806   5.727   0.474
 7821SOL    HW224363   5.915   5.631   0.549
 7822SOL     OW24364   1.257   1.749   6.266
 7822SOL    HW124365   1.262   1.762   6.167
 7822SOL    HW224366   1.218   1.831   6.308
 7823SOL     OW24367   1.331   4.175   6.385
 7823SOL    HW124368   1.333   4.075   6.386
 7823SOL    HW224369   1.318   4.206   6.291
 7824SOL     OW24370   6.218   0.686   4.171
 7824SOL    HW124371   6.187   0.780   4.185
 7824SOL    HW224372   6.230   0.641   4.259
 7825SOL     OW24373   2.116   2.770   1.547
 7825SOL    HW124374   2.045   2.747   1.480
 7825SOL    HW224375   2.193   2.813   1.501
 7826SOL     OW24376   5.262   2.090   6.754
 7826SOL    HW124377   5.259   1.997   6.793
 7826SOL    HW224378   5.332   2.143   6.801
 7827SOL     OW24379   3.615   4.688   1.268
 7827SOL    HW124380   3.594   4.602   1.314
 7827SOL    HW224381   3.701   4.724   1.303
 7828SOL     OW24382   0.602   5.421   0.736
 7828SOL    HW124383   0.504   5.435   0.744
 7828SOL    HW224384   0.621   5.328   0.706
 7829SOL     OW24385   2.296   3.235   1.534
 7829SOL    HW124386   2.297   3.227   1.634
 7829SOL    HW224387   2.383   3.203   1.497
 7830SOL     OW24388   5.565   4.292   6.193
 7830SOL    HW124389   5.586   4.382   6.156
 7830SOL    HW224390   5.572   4.224   6.120
 7831SOL     OW24391   0.835   4.848   0.089
 7831SOL    HW124392   0.886   4.885   0.166
 7831SOL    HW224393   0.899   4.819   0.018
 7832SOL     OW24394   3.598   1.047   4.895
 7832SOL    HW124395   3.643   1.115   4.953
 7832SOL    HW224396   3.499   1.061   4.897
 7833SOL     OW24397   0.892   0.989   0.414
 7833SOL    HW124398   0.926   1.028   0.499
 7833SOL    HW224399   0.839   0.906   0.434
 7834SOL     OW24400   0.312   1.261   2.016
 7834SOL    HW124401   0.384   1.272   2.083
 7834SOL    HW224402   0.316   1.336   1.950
 7835SOL     OW24403   2.599   2.485   4.744
 7835SOL    HW124404   2.509   2.444   4.727
 7835SOL    HW224405   2.587   2.579   4.774
 7836SOL     OW24406   3.168   1.004   6.821
 7836SOL    HW124407   3.180   0.910   6.788
 7836SOL    HW224408   3.112   1.055   6.756
 7837SOL     OW24409   5.947   6.189   1.632
 7837SOL    HW124410   5.862   6.241   1.638
 7837SOL    HW224411   5.927   6.091   1.632
 7838SOL     OW24412   4.690   6.454   6.324
 7838SOL    HW124413   4.781   6.455   6.365
 7838SOL    HW224414   4.672   6.541   6.279
 7839SOL     OW24415   6.577   4.442   4.771
 7839SOL    HW124416   6.481   4.441   4.799
 7839SOL    HW224417   6.601   4.354   4.730
 7840SOL     OW24418   5.308   3.202   3.934
 7840SOL    HW124419   5.380   3.268   3.955
 7840SOL    HW224420   5.328   3.157   3.846
 7841SOL     OW24421   5.682   1.738   6.275
 7841SOL    HW124422   5.645   1.685   6.198
 7841SOL    HW224423   5.767   1.782   6.247
 7842SOL     OW24424   1.476   0.805   3.512
 7842SOL    HW124425   1.548   0.823   3.580
 7842SOL    HW224426   1.387   0.825   3.552
 7843SOL     OW24427   5.876   4.416   1.222
 7843SOL    HW124428   5.856   4.439   1.126
 7843SOL    HW224429   5.974   4.403   1.233
 7844SOL     OW24430   4.708   0.728   3.904
 7844SOL    HW124431   4.661   0.647   3.868
 7844SOL    HW224432   4.806   0.719   3.887
 7845SOL     OW24433   0.561   0.885   3.867
 7845SOL    HW124434   0.596   0.977   3.886
 7845SOL    HW224435   0.607   0.848   3.786
 7846SOL     OW24436   2.284   0.674   1.838
 7846SOL    HW124437   2.302   0.737   1.914
 7846SOL    HW224438   2.365   0.616   1.824
 7847SOL     OW24439   0.552   1.462   1.131
 7847SOL    HW124440   0.479   1.404   1.095
 7847SOL    HW224441   0.618   1.406   1.181
 7848SOL     OW24442   3.263   4.129   1.139
 7848SOL    HW124443   3.298   4.073   1.064
 7848SOL    HW224444   3.164   4.133   1.134
 7849SOL     OW24445   5.634   4.061   4.271
 7849SOL    HW124446   5.542   4.064   4.309
 7849SOL    HW224447   5.664   4.154   4.249
 7850SOL     OW24448   0.274   0.765   3.873
 7850SOL    HW124449   0.363   0.797   3.907
 7850SOL    HW224450   0.288   0.680   3.822
 7851SOL     OW24451   6.269   6.676   0.865
 7851SOL    HW124452   6.357   6.643   0.830
 7851SOL    HW224453   6.274   6.775   0.879
 7852SOL     OW24454   3.066   6.625   6.557
 7852SOL    HW124455   3.063   6.719   6.524
 7852SOL    HW224456   2.976   6.583   6.546
 7853SOL     OW24457   3.846   1.100   0.934
 7853SOL    HW124458   3.896   1.152   1.002
 7853SOL    HW224459   3.909   1.069   0.862
 7854SOL     OW24460   3.688   4.206   0.848
 7854SOL    HW124461   3.620   4.250   0.907
 7854SOL    HW224462   3.711   4.116   0.885
 7855SOL     OW24463   4.823   5.457   6.397
 7855SOL    HW124464   4.786   5.550   6.387
 7855SOL    HW224465   4.893   5.458   6.468
 7856SOL     OW24466   6.084   4.965   4.006
 7856SOL    HW124467   6.081   5.037   4.075
 7856SOL    HW224468   6.154   4.986   3.938
 7857SOL     OW24469   6.846   2.592   5.882
 7857SOL    HW124470   6.763   2.582   5.826
 7857SOL    HW224471   6.842   2.680   5.930
 7858SOL     OW24472   5.377   4.729   3.354
 7858SOL    HW124473   5.466   4.700   3.317
 7858SOL    HW224474   5.346   4.810   3.305
 7859SOL     OW24475   0.194   4.090   6.032
 7859SOL    HW124476   0.136   4.009   6.017
 7859SOL    HW224477   0.164   4.163   5.971
 7860SOL     OW24478   4.028   6.374   2.598
 7860SOL    HW124479   4.044   6.391   2.501
 7860SOL    HW224480   3.978   6.288   2.608
 7861SOL     OW24481   4.072   5.785   1.795
 7861SOL    HW124482   4.112   5.801   1.705
 7861SOL    HW224483   4.114   5.846   1.863
 7862SOL     OW24484   2.789   4.354   1.585
 7862SOL    HW124485   2.821   4.388   1.673
 7862SOL    HW224486   2.863   4.359   1.518
 7863SOL     OW24487   6.841   6.029   3.227
 7863SOL    HW124488   6.810   6.049   3.320
 7863SOL    HW224489   6.764   5.992   3.174
 7864SOL     OW24490   6.985   5.864   5.725
 7864SOL    HW124491   0.022   5.916   5.666
 7864SOL    HW224492   7.009   5.767   5.720
 7865SOL     OW24493   4.208   6.490   3.919
 7865SOL    HW124494   4.231   6.398   3.885
 7865SOL    HW224495   4.244   6.558   3.855
 7866SOL     OW24496   2.562   1.425   1.790
 7866SOL    HW124497   2.606   1.432   1.701
 7866SOL    HW224498   2.484   1.363   1.785
 7867SOL     OW24499   5.683   5.035   2.529
 7867SOL    HW124500   5.603   5.095   2.541
 7867SOL    HW224501   5.671   4.983   2.444
 7868SOL     OW24502   5.144   0.012   2.622
 7868SOL    HW124503   5.058   7.004   2.581
 7868SOL    HW224504   5.202   6.958   2.644
 7869SOL     OW24505   6.177   3.668   0.728
 7869SOL    HW124506   6.201   3.644   0.634
 7869SOL    HW224507   6.105   3.738   0.728
 7870SOL     OW24508   5.690   5.349   3.750
 7870SOL    HW124509   5.753   5.335   3.674
 7870SOL    HW224510   5.730   5.412   3.816
 7871SOL     OW24511   5.664   4.026   3.160
 7871SOL    HW124512   5.646   3.946   3.103
 7871SOL    HW224513   5.760   4.026   3.187
 7872SOL     OW24514   0.756   4.491   2.209
 7872SOL    HW124515   0.803   4.451   2.288
 7872SOL    HW224516   0.822   4.543   2.155
 7873SOL     OW24517   6.383   0.759   5.469
 7873SOL    HW124518   6.432   0.694   5.526
 7873SOL    HW224519   6.334   0.825   5.526
 7874SOL     OW24520   6.647   1.628   6.471
 7874SOL    HW124521   6.611   1.559   6.408
 7874SOL    HW224522   6.635   1.719   6.431
 7875SOL     OW24523   4.434   3.470   6.378
 7875SOL    HW124524   4.443   3.570   6.371
 7875SOL    HW224525   4.415   3.431   6.288
 7876SOL     OW24526   0.023   6.955   4.862
 7876SOL    HW124527   7.014   7.004   4.781
 7876SOL    HW224528   0.041   7.021   4.936
 7877SOL     OW24529   0.436   2.774   2.555
 7877SOL    HW124530   0.353   2.825   2.578
 7877SOL    HW224531   0.506   2.792   2.623
 7878SOL     OW24532   4.990   5.138   3.331
 7878SOL    HW124533   4.984   5.082   3.248
 7878SOL    HW224534   4.941   5.224   3.317
 7879SOL     OW24535   4.630   5.865   3.365
 7879SOL    HW124536   4.702   5.920   3.409
 7879SOL    HW224537   4.608   5.904   3.276
 7880SOL     OW24538   0.340   6.291   0.912
 7880SOL    HW124539   0.296   6.318   0.998
 7880SOL    HW224540   0.289   6.216   0.870
 7881SOL     OW24541   0.037   3.961   4.894
 7881SOL    HW124542   0.130   3.968   4.856
 7881SOL    HW224543   0.028   3.874   4.943
 7882SOL     OW24544   1.920   2.341   2.826
 7882SOL    HW124545   2.018   2.322   2.831
 7882SOL    HW224546   1.880   2.290   2.750
 7883SOL     OW24547   1.895   0.941   1.562
 7883SOL    HW124548   1.891   0.868   1.630
 7883SOL    HW224549   1.867   0.904   1.473
 7884SOL     OW24550   1.242   3.880   2.960
 7884SOL    HW124551   1.252   3.979   2.948
 7884SOL    HW224552   1.282   3.832   2.882
 7885SOL     OW24553   5.783   5.502   2.849
 7885SOL    HW124554   5.827   5.585   2.814
 7885SOL    HW224555   5.753   5.517   2.943
 7886SOL     OW24556   5.973   4.053   1.097
 7886SOL    HW124557   6.056   4.028   1.147
 7886SOL    HW224558   5.898   4.066   1.162
 7887SOL     OW24559   3.349   2.807   5.197
 7887SOL    HW124560   3.423   2.859   5.239
 7887SOL    HW224561   3.299   2.756   5.267
 7888SOL     OW24562   0.318   0.387   4.689
 7888SOL    HW124563   0.402   0.340   4.662
 7888SOL    HW224564   0.308   0.472   4.636
 7889SOL     OW24565   0.436   5.361   6.664
 7889SOL    HW124566   0.404   5.455   6.670
 7889SOL    HW224567   0.536   5.359   6.674
 7890SOL     OW24568   1.508   2.810   4.209
 7890SOL    HW124569   1.524   2.905   4.231
 7890SOL    HW224570   1.499   2.756   4.293
 7891SOL     OW24571   0.696   3.045   4.424
 7891SOL    HW124572   0.768   2.976   4.423
 7891SOL    HW224573   0.646   3.042   4.337
 7892SOL     OW24574   0.925   2.169   4.119
 7892SOL    HW124575   0.873   2.169   4.033
 7892SOL    HW224576   0.948   2.262   4.144
 7893SOL     OW24577   5.968   6.640   2.297
 7893SOL    HW124578   5.935   6.707   2.231
 7893SOL    HW224579   6.044   6.589   2.257
 7894SOL     OW24580   3.052   1.101   0.795
 7894SOL    HW124581   3.090   1.024   0.744
 7894SOL    HW224582   3.025   1.071   0.886
 7895SOL     OW24583   3.582   6.209   4.579
 7895SOL    HW124584   3.535   6.158   4.507
 7895SOL    HW224585   3.647   6.273   4.537
 7896SOL     OW24586   5.062   3.071   1.639
 7896SOL    HW124587   5.158   3.098   1.652
 7896SOL    HW224588   5.018   3.061   1.728
 7897SOL     OW24589   3.249   3.792   6.610
 7897SOL    HW124590   3.304   3.722   6.565
 7897SOL    HW224591   3.263   3.788   6.709
 7898SOL     OW24592   4.753   0.348   3.964
 7898SOL    HW124593   4.724   0.347   3.869
 7898SOL    HW224594   4.820   0.275   3.980
 7899SOL     OW24595   5.080   6.770   2.226
 7899SOL    HW124596   5.179   6.783   2.240
 7899SOL    HW224597   5.038   6.743   2.313
 7900SOL     OW24598   0.966   3.620   0.454
 7900SOL    HW124599   0.934   3.569   0.374
 7900SOL    HW224600   0.919   3.709   0.458
 7901SOL     OW24601   5.172   1.489   6.182
 7901SOL    HW124602   5.077   1.461   6.198
 7901SOL    HW224603   5.193   1.568   6.240
 7902SOL     OW24604   0.027   6.255   3.522
 7902SOL    HW124605   7.006   6.165   3.524
 7902SOL    HW224606   6.986   6.326   3.549
 7903SOL     OW24607   4.198   1.966   3.229
 7903SOL    HW124608   4.129   1.894   3.232
 7903SOL    HW224609   4.156   2.054   3.251
 7904SOL     OW24610   5.882   7.012   3.486
 7904SOL    HW124611   5.900   0.065   3.547
 7904SOL    HW224612   5.787   6.982   3.497
 7905SOL     OW24613   5.337   1.338   0.390
 7905SOL    HW124614   5.361   1.425   0.346
 7905SOL    HW224615   5.398   1.266   0.357
 7906SOL     OW24616   1.199   5.401   0.423
 7906SOL    HW124617   1.270   5.419   0.355
 7906SOL    HW224618   1.166   5.488   0.461
 7907SOL     OW24619   6.332   1.331   2.626
 7907SOL    HW124620   6.396   1.329   2.549
 7907SOL    HW224621   6.264   1.403   2.611
 7908SOL     OW24622   1.342   1.889   6.569
 7908SOL    HW124623   1.418   1.832   6.600
 7908SOL    HW224624   1.263   1.876   6.629
 7909SOL     OW24625   4.880   4.485   3.600
 7909SOL    HW124626   4.826   4.405   3.573
 7909SOL    HW224627   4.827   4.568   3.584
 7910SOL     OW24628   1.392   3.027   1.506
 7910SOL    HW124629   1.466   3.071   1.558
 7910SOL    HW224630   1.367   3.084   1.428
 7911SOL     OW24631   0.837   3.836   1.179
 7911SOL    HW124632   0.907   3.907   1.173
 7911SOL    HW224633   0.878   3.747   1.159
 7912SOL     OW24634   5.065   4.512   0.710
 7912SOL    HW124635   4.973   4.497   0.745
 7912SOL    HW224636   5.128   4.530   0.785
 7913SOL     OW24637   1.658   4.524   0.959
 7913SOL    HW124638   1.583   4.587   0.980
 7913SOL    HW224639   1.689   4.479   1.042
 7914SOL     OW24640   0.022   4.458   0.033
 7914SOL    HW124641   0.071   4.545   0.037
 7914SOL    HW224642   0.070   4.395   6.995
 7915SOL     OW24643   4.717   1.789   2.590
 7915SOL    HW124644   4.623   1.817   2.572
 7915SOL    HW224645   4.743   1.718   2.525
 7916SOL     OW24646   1.104   0.354   4.832
 7916SOL    HW124647   1.069   0.444   4.809
 7916SOL    HW224648   1.029   0.288   4.835
 7917SOL     OW24649   3.933   2.603   5.720
 7917SOL    HW124650   3.935   2.684   5.661
 7917SOL    HW224651   3.965   2.524   5.668
 7918SOL     OW24652   0.728   1.441   5.412
 7918SOL    HW124653   0.728   1.359   5.469
 7918SOL    HW224654   0.814   1.446   5.362
 7919SOL     OW24655   1.294   5.005   2.185
 7919SOL    HW124656   1.207   5.054   2.193
 7919SOL    HW224657   1.277   4.909   2.163
 7920SOL     OW24658   4.991   1.101   2.135
 7920SOL    HW124659   5.021   1.043   2.060
 7920SOL    HW224660   4.905   1.065   2.172
 7921SOL     OW24661   5.603   0.887   1.289
 7921SOL    HW124662   5.637   0.797   1.261
 7921SOL    HW224663   5.577   0.940   1.209
 7922SOL     OW24664   0.102   5.896   0.009
 7922SOL    HW124665   0.004   5.880   0.023
 7922SOL    HW224666   0.118   5.992   7.013
 7923SOL     OW24667   3.232   1.918   6.949
 7923SOL    HW124668   3.169   1.965   7.011
 7923SOL    HW224669   3.222   1.954   6.856
 7924SOL     OW24670   4.737   0.240   1.368
 7924SOL    HW124671   4.826   0.250   1.413
 7924SOL    HW224672   4.748   0.190   1.282
 7925SOL     OW24673   1.445   6.642   0.670
 7925SOL    HW124674   1.376   6.572   0.656
 7925SOL    HW224675   1.534   6.599   0.683
 7926SOL     OW24676   5.367   1.451   6.784
 7926SOL    HW124677   5.332   1.384   6.719
 7926SOL    HW224678   5.452   1.418   6.823
 7927SOL     OW24679   5.396   0.004   1.549
 7927SOL    HW124680   5.324   0.050   1.601
 7927SOL    HW224681   5.356   6.981   1.471
 7928SOL     OW24682   7.019   1.208   3.516
 7928SOL    HW124683   0.010   1.291   3.463
 7928SOL    HW224684   7.013   1.232   3.613
 7929SOL     OW24685   4.192   3.699   6.187
 7929SOL    HW124686   4.258   3.706   6.262
 7929SOL    HW224687   4.210   3.770   6.120
 7930SOL     OW24688   3.784   5.398   6.395
 7930SOL    HW124689   3.812   5.302   6.387
 7930SOL    HW224690   3.742   5.413   6.485
 7931SOL     OW24691   4.197   2.844   0.520
 7931SOL    HW124692   4.180   2.745   0.514
 7931SOL    HW224693   4.194   2.884   0.428
 7932SOL     OW24694   0.625   5.030   1.447
 7932SOL    HW124695   0.660   5.123   1.451
 7932SOL    HW224696   0.584   5.005   1.535
 7933SOL     OW24697   6.961   0.684   5.772
 7933SOL    HW124698   6.941   0.761   5.832
 7933SOL    HW224699   6.994   0.607   5.826
 7934SOL     OW24700   1.486   4.906   0.241
 7934SOL    HW124701   1.520   4.908   0.147
 7934SOL    HW224702   1.394   4.866   0.243
 7935SOL     OW24703   5.195   5.437   2.663
 7935SOL    HW124704   5.264   5.473   2.600
 7935SOL    HW224705   5.168   5.346   2.634
 7936SOL     OW24706   3.146   5.595   3.421
 7936SOL    HW124707   3.203   5.671   3.451
 7936SOL    HW224708   3.191   5.546   3.347
 7937SOL     OW24709   2.392   5.562   3.849
 7937SOL    HW124710   2.464   5.502   3.884
 7937SOL    HW224711   2.408   5.655   3.884
 7938SOL     OW24712   5.310   6.327   5.452
 7938SOL    HW124713   5.246   6.383   5.504
 7938SOL    HW224714   5.300   6.347   5.354
 7939SOL     OW24715   0.434   1.984   5.795
 7939SOL    HW124716   0.353   2.028   5.757
 7939SOL    HW224717   0.474   1.922   5.727
 7940SOL     OW24718   3.625   1.640   2.600
 7940SOL    HW124719   3.580   1.715   2.648
 7940SOL    HW224720   3.557   1.582   2.556
 7941SOL     OW24721   5.008   6.718   3.260
 7941SOL    HW124722   5.099   6.755   3.275
 7941SOL    HW224723   4.983   6.658   3.336
 7942SOL     OW24724   0.863   2.784   3.162
 7942SOL    HW124725   0.792   2.812   3.226
 7942SOL    HW224726   0.900   2.864   3.116
 7943SOL     OW24727   0.940   4.259   5.034
 7943SOL    HW124728   0.895   4.348   5.038
 7943SOL    HW224729   1.031   4.267   5.074
 7944SOL     OW24730   0.255   2.234   1.512
 7944SOL    HW124731   0.293   2.170   1.445
 7944SOL    HW224732   0.328   2.294   1.545
 7945SOL     OW24733   6.164   5.497   2.750
 7945SOL    HW124734   6.226   5.468   2.677
 7945SOL    HW224735   6.079   5.444   2.744
 7946SOL     OW24736   3.794   6.740   5.991
 7946SOL    HW124737   3.697   6.715   6.000
 7946SOL    HW224738   3.802   6.822   5.935
 7947SOL     OW24739   2.061   1.942   5.067
 7947SOL    HW124740   2.011   1.881   5.006
 7947SOL    HW224741   2.021   1.938   5.159
 7948SOL     OW24742   1.199   4.867   1.265
 7948SOL    HW124743   1.130   4.920   1.313
 7948SOL    HW224744   1.202   4.896   1.169
 7949SOL     OW24745   4.517   3.938   5.952
 7949SOL    HW124746   4.496   3.843   5.931
 7949SOL    HW224747   4.613   3.956   5.932
 7950SOL     OW24748   4.803   6.212   5.092
 7950SOL    HW124749   4.836   6.125   5.130
 7950SOL    HW224750   4.882   6.270   5.071
 7951SOL     OW24751   2.346   5.363   2.574
 7951SOL    HW124752   2.256   5.375   2.615
 7951SOL    HW224753   2.345   5.399   2.481
 7952SOL     OW24754   6.501   3.219   7.002
 7952SOL    HW124755   6.568   3.221   6.928
 7952SOL    HW224756   6.545   3.187   0.062
 7953SOL     OW24757   4.548   1.985   1.691
 7953SOL    HW124758   4.453   2.011   1.706
 7953SOL    HW224759   4.598   1.989   1.777
 7954SOL     OW24760   3.879   3.719   6.589
 7954SOL    HW124761   3.795   3.764   6.559
 7954SOL    HW224762   3.873   3.697   6.686
 7955SOL     OW24763   2.526   1.653   6.479
 7955SOL    HW124764   2.452   1.659   6.412
 7955SOL    HW224765   2.488   1.629   6.568
 7956SOL     OW24766   5.965   1.238   1.786
 7956SOL    HW124767   6.032   1.181   1.738
 7956SOL    HW224768   6.007   1.326   1.809
 7957SOL     OW24769   2.452   1.008   6.511
 7957SOL    HW124770   2.356   1.022   6.538
 7957SOL    HW224771   2.455   0.958   6.425
 7958SOL     OW24772   5.525   4.075   6.025
 7958SOL    HW124773   5.425   4.069   6.035
 7958SOL    HW224774   5.562   3.985   6.003
 7959SOL     OW24775   5.407   0.617   6.701
 7959SOL    HW124776   5.425   0.523   6.728
 7959SOL    HW224777   5.353   0.618   6.617
 7960SOL     OW24778   0.904   1.553   6.105
 7960SOL    HW124779   0.988   1.499   6.095
 7960SOL    HW224780   0.924   1.638   6.154
 7961SOL     OW24781   6.201   0.183   0.830
 7961SOL    HW124782   6.145   0.172   0.748
 7961SOL    HW224783   6.245   0.273   0.829
 7962SOL     OW24784   0.007   1.669   5.664
 7962SOL    HW124785   0.105   1.684   5.673
 7962SOL    HW224786   7.009   1.648   5.568
 7963SOL     OW24787   6.663   5.363   3.942
 7963SOL    HW124788   6.709   5.401   4.022
 7963SOL    HW224789   6.709   5.395   3.859
 7964SOL     OW24790   5.828   2.821   2.531
 7964SOL    HW124791   5.864   2.905   2.571
 7964SOL    HW224792   5.792   2.841   2.440
 7965SOL     OW24793   4.032   2.350   6.282
 7965SOL    HW124794   4.085   2.430   6.253
 7965SOL    HW224795   3.998   2.366   6.375
 7966SOL     OW24796   3.714   3.333   5.548
 7966SOL    HW124797   3.800   3.330   5.497
 7966SOL    HW224798   3.637   3.319   5.485
 7967SOL     OW24799   2.060   5.023   1.943
 7967SOL    HW124800   2.010   4.937   1.955
 7967SOL    HW224801   2.070   5.069   2.031
 7968SOL     OW24802   6.087   2.359   5.454
 7968SOL    HW124803   6.022   2.360   5.378
 7968SOL    HW224804   6.124   2.267   5.465
 7969SOL     OW24805   5.333   6.053   0.400
 7969SOL    HW124806   5.378   6.068   0.488
 7969SOL    HW224807   5.350   5.959   0.369
 7970SOL     OW24808   5.516   3.440   2.685
 7970SOL    HW124809   5.603   3.489   2.679
 7970SOL    HW224810   5.463   3.455   2.601
 7971SOL     OW24811   2.917   0.584   1.987
 7971SOL    HW124812   2.991   0.611   1.924
 7971SOL    HW224813   2.859   0.516   1.943
 7972SOL     OW24814   3.280   3.594   1.699
 7972SOL    HW124815   3.323   3.660   1.639
 7972SOL    HW224816   3.299   3.617   1.795
 7973SOL     OW24817   5.795   4.354   4.791
 7973SOL    HW124818   5.806   4.299   4.708
 7973SOL    HW224819   5.810   4.297   4.872
 7974SOL     OW24820   6.333   1.103   5.728
 7974SOL    HW124821   6.306   1.067   5.639
 7974SOL    HW224822   6.280   1.186   5.747
 7975SOL     OW24823   4.850   0.716   0.826
 7975SOL    HW124824   4.772   0.739   0.884
 7975SOL    HW224825   4.876   0.795   0.771
 7976SOL     OW24826   0.865   6.919   5.875
 7976SOL    HW124827   0.839   6.884   5.785
 7976SOL    HW224828   0.855   7.018   5.877
 7977SOL     OW24829   4.644   6.318   2.251
 7977SOL    HW124830   4.560   6.275   2.219
 7977SOL    HW224831   4.721   6.288   2.194
 7978SOL     OW24832   0.393   3.060   6.134
 7978SOL    HW124833   0.407   3.094   6.227
 7978SOL    HW224834   0.471   3.086   6.077
 7979SOL     OW24835   1.820   4.221   5.730
 7979SOL    HW124836   1.764   4.210   5.812
 7979SOL    HW224837   1.903   4.271   5.754
 7980SOL     OW24838   3.112   5.670   6.735
 7980SOL    HW124839   3.046   5.715   6.674
 7980SOL    HW224840   3.100   5.703   6.828
 7981SOL     OW24841   0.841   5.295   1.898
 7981SOL    HW124842   0.821   5.393   1.887
 7981SOL    HW224843   0.764   5.252   1.946
 7982SOL     OW24844   1.442   1.765   5.809
 7982SOL    HW124845   1.366   1.750   5.872
 7982SOL    HW224846   1.408   1.803   5.723
 7983SOL     OW24847   6.265   1.665   1.533
 7983SOL    HW124848   6.256   1.722   1.451
 7983SOL    HW224849   6.178   1.663   1.582
 7984SOL     OW24850   0.258   1.387   0.597
 7984SOL    HW124851   0.176   1.372   0.542
 7984SOL    HW224852   0.339   1.360   0.546
 7985SOL     OW24853   2.614   2.124   4.792
 7985SOL    HW124854   2.544   2.138   4.862
 7985SOL    HW224855   2.688   2.190   4.806
 7986SOL     OW24856   3.498   0.856   5.841
 7986SOL    HW124857   3.461   0.907   5.918
 7986SOL    HW224858   3.439   0.868   5.761
 7987SOL     OW24859   2.002   3.425   0.828
 7987SOL    HW124860   1.951   3.359   0.772
 7987SOL    HW224861   1.958   3.514   0.822
 7988SOL     OW24862   1.296   1.077   2.246
 7988SOL    HW124863   1.394   1.074   2.228
 7988SOL    HW224864   1.277   1.148   2.314
 7989SOL     OW24865   2.270   4.198   0.289
 7989SOL    HW124866   2.182   4.229   0.326
 7989SOL    HW224867   2.303   4.121   0.343
 7990SOL     OW24868   2.771   5.110   4.554
 7990SOL    HW124869   2.682   5.101   4.600
 7990SOL    HW224870   2.794   5.024   4.509
 7991SOL     OW24871   5.708   1.376   4.332
 7991SOL    HW124872   5.753   1.463   4.312
 7991SOL    HW224873   5.690   1.327   4.247
 7992SOL     OW24874   1.596   0.302   0.268
 7992SOL    HW124875   1.592   0.374   0.337
 7992SOL    HW224876   1.598   0.213   0.313
 7993SOL     OW24877   0.416   6.949   1.398
 7993SOL    HW124878   0.477   0.002   1.383
 7993SOL    HW224879   0.338   6.978   1.454
 7994SOL     OW24880   5.387   0.648   3.110
 7994SOL    HW124881   5.391   0.690   3.200
 7994SOL    HW224882   5.358   0.716   3.042
 7995SOL     OW24883   5.820   5.336   3.164
 7995SOL    HW124884   5.766   5.265   3.120
 7995SOL    HW224885   5.769   5.422   3.162
 7996SOL     OW24886   3.975   6.195   4.430
 7996SOL    HW124887   3.976   6.170   4.333
 7996SOL    HW224888   3.976   6.112   4.486
 7997SOL     OW24889   0.363   2.210   0.178
 7997SOL    HW124890   0.410   2.204   0.090
 7997SOL    HW224891   0.265   2.197   0.165
 7998SOL     OW24892   3.189   6.907   6.788
 7998SOL    HW124893   3.243   6.842   6.841
 7998SOL    HW224894   3.092   6.897   6.813
 7999SOL     OW24895   1.263   1.248   5.717
 7999SOL    HW124896   1.220   1.257   5.627
 7999SOL    HW224897   1.336   1.180   5.713
 8000SOL     OW24898   5.710   6.962   6.301
 8000SOL    HW124899   5.781   6.957   6.230
 8000SOL    HW224900   5.631   6.908   6.273
 8001SOL     OW24901   4.255   6.090   1.185
 8001SOL    HW124902   4.262   6.003   1.233
 8001SOL    HW224903   4.206   6.156   1.241
 8002SOL     OW24904   0.726   0.866   5.273
 8002SOL    HW124905   0.771   0.873   5.362
 8002SOL    HW224906   0.795   0.859   5.201
 8003SOL     OW24907   1.935   5.756   1.286
 8003SOL    HW124908   2.012   5.807   1.322
 8003SOL    HW224909   1.852   5.780   1.336
 8004SOL     OW24910   2.148   3.439   3.538
 8004SOL    HW124911   2.066   3.417   3.590
 8004SOL    HW224912   2.176   3.359   3.484
 8005SOL     OW24913   2.515   0.863   3.650
 8005SOL    HW124914   2.592   0.903   3.601
 8005SOL    HW224915   2.499   0.769   3.617
 8006SOL     OW24916   2.526   5.656   5.368
 8006SOL    HW124917   2.612   5.613   5.395
 8006SOL    HW224918   2.486   5.704   5.446
 8007SOL     OW24919   5.690   2.268   6.402
 8007SOL    HW124920   5.661   2.172   6.404
 8007SOL    HW224921   5.614   2.326   6.372
 8008SOL     OW24922   3.447   5.519   6.633
 8008SOL    HW124923   3.385   5.494   6.707
 8008SOL    HW224924   3.535   5.473   6.646
 8009SOL     OW24925   4.435   1.099   0.149
 8009SOL    HW124926   4.468   1.141   0.064
 8009SOL    HW224927   4.336   1.113   0.157
 8010SOL     OW24928   2.880   2.210   4.887
 8010SOL    HW124929   2.911   2.117   4.866
 8010SOL    HW224930   2.952   2.259   4.936
 8011SOL     OW24931   3.648   2.068   1.484
 8011SOL    HW124932   3.592   2.101   1.560
 8011SOL    HW224933   3.728   2.127   1.473
 8012SOL     OW24934   1.184   2.829   6.277
 8012SOL    HW124935   1.267   2.868   6.317
 8012SOL    HW224936   1.105   2.883   6.305
 8013SOL     OW24937   1.692   3.580   3.694
 8013SOL    HW124938   1.614   3.532   3.734
 8013SOL    HW224939   1.663   3.668   3.657
 8014SOL     OW24940   1.934   0.285   4.642
 8014SOL    HW124941   1.945   0.384   4.653
 8014SOL    HW224942   1.839   0.260   4.665
 8015SOL     OW24943   1.960   0.243   5.850
 8015SOL    HW124944   1.904   0.321   5.877
 8015SOL    HW224945   1.936   0.214   5.758
 8016SOL     OW24946   4.370   1.286   5.042
 8016SOL    HW124947   4.399   1.284   5.138
 8016SOL    HW224948   4.384   1.378   5.005
 8017SOL     OW24949   6.351   0.256   6.705
 8017SOL    HW124950   6.399   0.168   6.698
 8017SOL    HW224951   6.297   0.258   6.789
 8018SOL     OW24952   3.344   2.168   7.012
 8018SOL    HW124953   3.330   2.242   6.946
 8018SOL    HW224954   3.441   2.147   7.019
 8019SOL     OW24955   1.873   4.020   1.595
 8019SOL    HW124956   1.803   4.083   1.628
 8019SOL    HW224957   1.951   4.021   1.657
 8020SOL     OW24958   6.493   0.650   6.388
 8020SOL    HW124959   6.397   0.671   6.369
 8020SOL    HW224960   6.549   0.727   6.359
 8021SOL     OW24961   1.877   2.964   1.610
 8021SOL    HW124962   1.847   3.026   1.683
 8021SOL    HW224963   1.964   2.996   1.572
 8022SOL     OW24964   5.964   0.377   1.774
 8022SOL    HW124965   5.997   0.329   1.693
 8022SOL    HW224966   6.034   0.374   1.845
 8023SOL     OW24967   5.887   4.558   2.584
 8023SOL    HW124968   5.930   4.490   2.642
 8023SOL    HW224969   5.958   4.619   2.547
 8024SOL     OW24970   1.288   5.422   6.088
 8024SOL    HW124971   1.190   5.403   6.081
 8024SOL    HW224972   1.329   5.419   5.997
 8025SOL     OW24973   1.736   5.086   1.055
 8025SOL    HW124974   1.689   5.159   1.104
 8025SOL    HW224975   1.818   5.059   1.105
 8026SOL     OW24976   6.658   4.397   0.930
 8026SOL    HW124977   6.739   4.409   0.873
 8026SOL    HW224978   6.613   4.486   0.942
 8027SOL     OW24979   3.323   6.310   5.666
 8027SOL    HW124980   3.380   6.238   5.706
 8027SOL    HW224981   3.234   6.273   5.641
 8028SOL     OW24982   3.308   5.250   5.112
 8028SOL    HW124983   3.377   5.304   5.063
 8028SOL    HW224984   3.282   5.298   5.195
 8029SOL     OW24985   4.887   2.354   2.123
 8029SOL    HW124986   4.853   2.262   2.141
 8029SOL    HW224987   4.976   2.349   2.078
 8030SOL     OW24988   6.007   5.503   0.744
 8030SOL    HW124989   6.012   5.574   0.815
 8030SOL    HW224990   6.067   5.528   0.668
 8031SOL     OW24991   6.951   6.444   2.914
 8031SOL    HW124992   6.891   6.471   2.989
 8031SOL    HW224993   6.926   6.494   2.831
 8032SOL     OW24994   5.040   3.670   1.672
 8032SOL    HW124995   5.068   3.651   1.578
 8032SOL    HW224996   5.024   3.583   1.720
 8033SOL     OW24997   4.967   3.324   0.157
 8033SOL    HW124998   4.983   3.422   0.172
 8033SOL    HW224999   5.036   3.271   0.206
 8034SOL     OW25000   5.443   6.897   5.922
 8034SOL    HW125001   5.504   6.932   5.851
 8034SOL    HW225002   5.348   6.912   5.895
 8035SOL     OW25003   5.198   1.532   2.059
 8035SOL    HW125004   5.278   1.499   2.009
 8035SOL    HW225005   5.168   1.461   2.124
 8036SOL     OW25006   0.203   3.769   3.575
 8036SOL    HW125007   0.258   3.785   3.656
 8036SOL    HW225008   0.167   3.856   3.541
 8037SOL     OW25009   2.046   3.447   0.028
 8037SOL    HW125010   2.068   3.381   6.980
 8037SOL    HW225011   2.012   3.531   7.010
 8038SOL     OW25012   4.669   6.463   2.514
 8038SOL    HW125013   4.578   6.504   2.510
 8038SOL    HW225014   4.718   6.485   2.430
 8039SOL     OW25015   6.948   1.855   4.785
 8039SOL    HW125016   6.991   1.930   4.736
 8039SOL    HW225017   6.929   1.780   4.722
 8040SOL     OW25018   1.602   6.465   6.871
 8040SOL    HW125019   1.533   6.400   6.903
 8040SOL    HW225020   1.690   6.444   6.913
 8041SOL     OW25021   3.173   0.972   3.023
 8041SOL    HW125022   3.162   0.880   3.061
 8041SOL    HW225023   3.235   0.969   2.945
 8042SOL     OW25024   4.712   4.151   5.470
 8042SOL    HW125025   4.627   4.141   5.419
 8042SOL    HW225026   4.707   4.097   5.554
 8043SOL     OW25027   3.452   4.268   0.333
 8043SOL    HW125028   3.532   4.243   0.280
 8043SOL    HW225029   3.379   4.300   0.272
 8044SOL     OW25030   3.784   3.850   0.328
 8044SOL    HW125031   3.691   3.827   0.354
 8044SOL    HW225032   3.823   3.912   0.397
 8045SOL     OW25033   6.458   2.561   2.636
 8045SOL    HW125034   6.494   2.564   2.543
 8045SOL    HW225035   6.417   2.471   2.653
 8046SOL     OW25036   0.247   4.417   2.177
 8046SOL    HW125037   0.254   4.363   2.094
 8046SOL    HW225038   0.336   4.420   2.223
 8047SOL     OW25039   3.769   6.337   6.574
 8047SOL    HW125040   3.792   6.240   6.582
 8047SOL    HW225041   3.703   6.351   6.500
 8048SOL     OW25042   3.160   2.382   6.936
 8048SOL    HW125043   3.066   2.351   6.925
 8048SOL    HW225044   3.187   2.434   6.854
 8049SOL     OW25045   0.123   6.375   0.132
 8049SOL    HW125046   0.209   6.347   0.177
 8049SOL    HW225047   0.085   6.453   0.180
 8050SOL     OW25048   2.183   3.366   4.545
 8050SOL    HW125049   2.108   3.306   4.516
 8050SOL    HW225050   2.150   3.428   4.616
 8051SOL     OW25051   4.569   6.234   4.887
 8051SOL    HW125052   4.536   6.316   4.934
 8051SOL    HW225053   4.606   6.170   4.955
 8052SOL     OW25054   2.502   2.157   1.463
 8052SOL    HW125055   2.588   2.105   1.458
 8052SOL    HW225056   2.466   2.153   1.556
 8053SOL     OW25057   3.082   2.996   5.164
 8053SOL    HW125058   3.069   3.090   5.197
 8053SOL    HW225059   3.168   2.959   5.201
 8054SOL     OW25060   6.742   4.193   4.478
 8054SOL    HW125061   6.741   4.181   4.577
 8054SOL    HW225062   6.711   4.285   4.455
 8055SOL     OW25063   7.010   0.541   5.491
 8055SOL    HW125064   6.945   0.592   5.434
 8055SOL    HW225065   7.009   0.579   5.584
 8056SOL     OW25066   3.083   0.343   4.456
 8056SOL    HW125067   3.053   0.312   4.366
 8056SOL    HW225068   3.173   0.387   4.448
 8057SOL     OW25069   2.442   2.520   2.746
 8057SOL    HW125070   2.513   2.498   2.680
 8057SOL    HW225071   2.387   2.596   2.711
 8058SOL     OW25072   3.206   6.319   2.891
 8058SOL    HW125073   3.289   6.374   2.886
 8058SOL    HW225074   3.147   6.355   2.963
 8059SOL     OW25075   3.080   0.730   5.528
 8059SOL    HW125076   3.121   0.727   5.619
 8059SOL    HW225077   2.983   0.754   5.536
 8060SOL     OW25078   0.428   2.118   6.161
 8060SOL    HW125079   0.389   2.178   6.091
 8060SOL    HW225080   0.463   2.035   6.117
 8061SOL     OW25081   0.669   0.875   2.520
 8061SOL    HW125082   0.761   0.843   2.499
 8061SOL    HW225083   0.673   0.952   2.583
 8062SOL     OW25084   4.093   5.228   4.828
 8062SOL    HW125085   4.042   5.310   4.802
 8062SOL    HW225086   4.061   5.195   4.916
 8063SOL     OW25087   2.878   1.009   3.055
 8063SOL    HW125088   2.966   1.055   3.068
 8063SOL    HW225089   2.804   1.071   3.079
 8064SOL     OW25090   5.961   2.282   0.284
 8064SOL    HW125091   5.882   2.343   0.283
 8064SOL    HW225092   5.990   2.264   0.190
 8065SOL     OW25093   2.950   6.365   4.347
 8065SOL    HW125094   2.894   6.432   4.396
 8065SOL    HW225095   3.033   6.408   4.313
 8066SOL     OW25096   6.420   0.211   4.654
 8066SOL    HW125097   6.375   0.256   4.732
 8066SOL    HW225098   6.460   0.125   4.684
 8067SOL     OW25099   4.930   2.378   3.168
 8067SOL    HW125100   5.027   2.357   3.179
 8067SOL    HW225101   4.911   2.401   3.073
 8068SOL     OW25102   0.441   4.562   1.141
 8068SOL    HW125103   0.479   4.544   1.050
 8068SOL    HW225104   0.502   4.525   1.211
 8069SOL     OW25105   2.080   4.593   1.847
 8069SOL    HW125106   2.014   4.562   1.779
 8069SOL    HW225107   2.170   4.605   1.803
 8070SOL     OW25108   4.255   2.800   0.214
 8070SOL    HW125109   4.316   2.879   0.218
 8070SOL    HW225110   4.189   2.813   0.139
 8071SOL     OW25111   3.142   6.582   5.462
 8071SOL    HW125112   3.138   6.487   5.432
 8071SOL    HW225113   3.167   6.586   5.558
 8072SOL     OW25114   3.247   1.799   0.937
 8072SOL    HW125115   3.169   1.748   0.901
 8072SOL    HW225116   3.215   1.870   0.999
 8073SOL     OW25117   2.949   5.635   5.268
 8073SOL    HW125118   2.943   5.717   5.325
 8073SOL    HW225119   2.887   5.645   5.190
 8074SOL     OW25120   2.748   1.201   1.080
 8074SOL    HW125121   2.810   1.123   1.069
 8074SOL    HW225122   2.790   1.283   1.040
 8075SOL     OW25123   0.139   0.927   0.344
 8075SOL    HW125124   0.119   0.830   0.333
 8075SOL    HW225125   0.054   0.977   0.360
 8076SOL     OW25126   6.060   0.186   5.206
 8076SOL    HW125127   6.129   0.258   5.199
 8076SOL    HW225128   5.976   0.215   5.162
 8077SOL     OW25129   3.514   6.080   2.688
 8077SOL    HW125130   3.563   6.048   2.606
 8077SOL    HW225131   3.518   6.179   2.692
 8078SOL     OW25132   0.921   1.781   1.665
 8078SOL    HW125133   0.982   1.826   1.600
 8078SOL    HW225134   0.852   1.728   1.615
 8079SOL     OW25135   6.680   1.529   3.574
 8079SOL    HW125136   6.654   1.432   3.579
 8079SOL    HW225137   6.636   1.571   3.496
 8080SOL     OW25138   1.155   2.445   2.530
 8080SOL    HW125139   1.183   2.541   2.529
 8080SOL    HW225140   1.164   2.408   2.622
 8081SOL     OW25141   6.209   5.826   5.841
 8081SOL    HW125142   6.272   5.767   5.791
 8081SOL    HW225143   6.115   5.807   5.812
 8082SOL     OW25144   3.653   0.679   2.410
 8082SOL    HW125145   3.679   0.721   2.324
 8082SOL    HW225146   3.706   0.595   2.424
 8083SOL     OW25147   5.477   2.656   3.696
 8083SOL    HW125148   5.415   2.734   3.701
 8083SOL    HW225149   5.561   2.677   3.745
 8084SOL     OW25150   2.634   0.494   6.977
 8084SOL    HW125151   2.718   0.548   6.973
 8084SOL    HW225152   2.623   0.443   6.892
 8085SOL     OW25153   6.092   5.722   2.584
 8085SOL    HW125154   6.124   5.660   2.655
 8085SOL    HW225155   6.149   5.712   2.502
 8086SOL     OW25156   0.442   0.766   1.434
 8086SOL    HW125157   0.344   0.781   1.431
 8086SOL    HW225158   0.482   0.790   1.345
 8087SOL     OW25159   1.668   0.752   0.039
 8087SOL    HW125160   1.761   0.769   0.071
 8087SOL    HW225161   1.609   0.733   0.118
 8088SOL     OW25162   5.442   0.947   0.254
 8088SOL    HW125163   5.486   0.858   0.243
 8088SOL    HW225164   5.343   0.936   0.248
 8089SOL     OW25165   5.606   2.986   6.736
 8089SOL    HW125166   5.682   2.993   6.671
 8089SOL    HW225167   5.641   2.956   6.825
 8090SOL     OW25168   3.668   1.217   6.504
 8090SOL    HW125169   3.689   1.259   6.593
 8090SOL    HW225170   3.744   1.158   6.476
 8091SOL     OW25171   1.490   3.680   5.234
 8091SOL    HW125172   1.433   3.601   5.257
 8091SOL    HW225173   1.584   3.650   5.222
 8092SOL     OW25174   4.730   2.158   5.114
 8092SOL    HW125175   4.758   2.200   5.200
 8092SOL    HW225176   4.751   2.221   5.039
 8093SOL     OW25177   2.706   5.373   3.549
 8093SOL    HW125178   2.796   5.330   3.538
 8093SOL    HW225179   2.683   5.422   3.464
 8094SOL     OW25180   0.435   2.627   4.885
 8094SOL    HW125181   0.480   2.631   4.974
 8094SOL    HW225182   0.423   2.531   4.859
 8095SOL     OW25183   0.806   4.053   4.923
 8095SOL    HW125184   0.726   4.099   4.884
 8095SOL    HW225185   0.859   4.119   4.977
 8096SOL     OW25186   2.194   0.710   2.350
 8096SOL    HW125187   2.171   0.621   2.311
 8096SOL    HW225188   2.277   0.745   2.306
 8097SOL     OW25189   4.152   6.632   4.545
 8097SOL    HW125190   4.233   6.604   4.494
 8097SOL    HW225191   4.119   6.555   4.600
 8098SOL     OW25192   2.468   6.163   3.917
 8098SOL    HW125193   2.390   6.174   3.855
 8098SOL    HW225194   2.520   6.082   3.890
 8099SOL     OW25195   4.547   6.290   4.543
 8099SOL    HW125196   4.565   6.231   4.621
 8099SOL    HW225197   4.582   6.247   4.459
 8100SOL     OW25198   6.916   1.695   6.473
 8100SOL    HW125199   6.916   1.795   6.482
 8100SOL    HW225200   6.822   1.662   6.477
 8101SOL     OW25201   1.552   5.659   0.879
 8101SOL    HW125202   1.551   5.711   0.794
 8101SOL    HW225203   1.600   5.711   0.950
 8102SOL     OW25204   0.645   3.578   2.966
 8102SOL    HW125205   0.645   3.529   2.879
 8102SOL    HW225206   0.562   3.555   3.017
 8103SOL     OW25207   3.860   0.300   1.716
 8103SOL    HW125208   3.866   0.238   1.795
 8103SOL    HW225209   3.898   0.254   1.636
 8104SOL     OW25210   1.595   0.751   6.337
 8104SOL    HW125211   1.693   0.749   6.355
 8104SOL    HW225212   1.546   0.767   6.423
 8105SOL     OW25213   6.945   2.919   2.457
 8105SOL    HW125214   6.887   2.841   2.483
 8105SOL    HW225215   6.981   2.904   2.365
 8106SOL     OW25216   2.594   5.954   3.216
 8106SOL    HW125217   2.687   5.930   3.189
 8106SOL    HW225218   2.549   5.875   3.257
 8107SOL     OW25219   0.975   5.337   3.913
 8107SOL    HW125220   0.986   5.436   3.900
 8107SOL    HW225221   1.012   5.289   3.834
 8108SOL     OW25222   6.697   2.786   6.556
 8108SOL    HW125223   6.677   2.877   6.519
 8108SOL    HW225224   6.694   2.718   6.482
 8109SOL     OW25225   0.338   3.455   6.152
 8109SOL    HW125226   0.280   3.374   6.161
 8109SOL    HW225227   0.330   3.512   6.233
 8110SOL     OW25228   4.234   5.636   2.162
 8110SOL    HW125229   4.188   5.618   2.249
 8110SOL    HW225230   4.167   5.643   2.089
 8111SOL     OW25231   4.728   1.329   4.727
 8111SOL    HW125232   4.713   1.343   4.629
 8111SOL    HW225233   4.788   1.401   4.763
 8112SOL     OW25234   2.711   2.434   4.271
 8112SOL    HW125235   2.649   2.512   4.267
 8112SOL    HW225236   2.721   2.404   4.366
 8113SOL     OW25237   0.198   3.440   0.430
 8113SOL    HW125238   0.208   3.397   0.519
 8113SOL    HW225239   0.126   3.394   0.378
 8114SOL     OW25240   1.763   3.679   2.494
 8114SOL    HW125241   1.858   3.708   2.495
 8114SOL    HW225242   1.703   3.759   2.505
 8115SOL     OW25243   3.540   6.692   6.223
 8115SOL    HW125244   3.440   6.697   6.227
 8115SOL    HW225245   3.578   6.785   6.218
 8116SOL     OW25246   3.806   4.622   0.181
 8116SOL    HW125247   3.767   4.643   0.270
 8116SOL    HW225248   3.733   4.597   0.117
 8117SOL     OW25249   2.041   0.108   3.232
 8117SOL    HW125250   2.024   0.042   3.159
 8117SOL    HW225251   1.989   0.192   3.215
 8118SOL     OW25252   5.515   3.994   5.712
 8118SOL    HW125253   5.505   4.052   5.632
 8118SOL    HW225254   5.429   3.993   5.764
 8119SOL     OW25255   5.381   6.725   6.553
 8119SOL    HW125256   5.386   6.822   6.532
 8119SOL    HW225257   5.312   6.681   6.495
 8120SOL     OW25258   3.171   4.471   0.943
 8120SOL    HW125259   3.245   4.535   0.925
 8120SOL    HW225260   3.204   4.377   0.926
 8121SOL     OW25261   1.042   4.993   1.578
 8121SOL    HW125262   1.080   4.938   1.652
 8121SOL    HW225263   1.100   5.072   1.561
 8122SOL     OW25264   0.002   4.633   2.734
 8122SOL    HW125265   6.935   4.673   2.724
 8122SOL    HW225266   0.034   4.600   2.645
 8123SOL     OW25267   6.866   2.147   7.004
 8123SOL    HW125268   6.831   2.225   0.032
 8123SOL    HW225269   6.937   2.178   6.940
 8124SOL     OW25270   4.942   6.271   2.314
 8124SOL    HW125271   4.967   6.187   2.266
 8124SOL    HW225272   4.879   6.250   2.389
 8125SOL     OW25273   1.281   1.236   3.575
 8125SOL    HW125274   1.245   1.176   3.503
 8125SOL    HW225275   1.226   1.320   3.579
 8126SOL     OW25276   5.459   5.246   3.405
 8126SOL    HW125277   5.407   5.196   3.475
 8126SOL    HW225278   5.438   5.207   3.315
 8127SOL     OW25279   2.817   3.426   6.396
 8127SOL    HW125280   2.759   3.407   6.317
 8127SOL    HW225281   2.781   3.377   6.476
 8128SOL     OW25282   2.970   2.162   2.460
 8128SOL    HW125283   2.995   2.168   2.364
 8128SOL    HW225284   2.904   2.088   2.472
 8129SOL     OW25285   3.588   1.535   6.039
 8129SOL    HW125286   3.519   1.585   5.986
 8129SOL    HW225287   3.676   1.580   6.028
 8130SOL     OW25288   0.652   5.031   6.682
 8130SOL    HW125289   0.741   4.986   6.673
 8130SOL    HW225290   0.612   5.008   6.771
 8131SOL     OW25291   2.485   1.689   1.811
 8131SOL    HW125292   2.481   1.731   1.720
 8131SOL    HW225293   2.533   1.601   1.805
 8132SOL     OW25294   5.602   6.853   5.180
 8132SOL    HW125295   5.678   6.905   5.143
 8132SOL    HW225296   5.635   6.763   5.210
 8133SOL     OW25297   2.851   5.391   2.329
 8133SOL    HW125298   2.848   5.488   2.352
 8133SOL    HW225299   2.932   5.371   2.274
 8134SOL     OW25300   0.366   1.981   6.708
 8134SOL    HW125301   0.346   2.070   6.668
 8134SOL    HW225302   0.287   1.920   6.698
 8135SOL     OW25303   2.732   0.421   1.842
 8135SOL    HW125304   2.766   0.346   1.784
 8135SOL    HW225305   2.664   0.385   1.906
 8136SOL     OW25306   4.543   5.366   2.581
 8136SOL    HW125307   4.487   5.358   2.500
 8136SOL    HW225308   4.605   5.444   2.572
 8137SOL     OW25309   3.141   1.053   4.899
 8137SOL    HW125310   3.194   1.135   4.876
 8137SOL    HW225311   3.124   1.001   4.815
 8138SOL     OW25312   5.413   1.376   1.446
 8138SOL    HW125313   5.337   1.366   1.382
 8138SOL    HW225314   5.462   1.290   1.453
 8139SOL     OW25315   0.388   0.575   1.924
 8139SOL    HW125316   0.325   0.652   1.915
 8139SOL    HW225317   0.438   0.563   1.839
 8140SOL     OW25318   6.152   0.568   6.126
 8140SOL    HW125319   6.087   0.492   6.120
 8140SOL    HW225320   6.207   0.572   6.043
 8141SOL     OW25321   4.127   5.375   5.532
 8141SOL    HW125322   4.051   5.402   5.473
 8141SOL    HW225323   4.092   5.359   5.625
 8142SOL     OW25324   6.794   5.343   0.302
 8142SOL    HW125325   6.866   5.411   0.314
 8142SOL    HW225326   6.763   5.344   0.206
 8143SOL     OW25327   6.077   4.390   0.380
 8143SOL    HW125328   6.040   4.302   0.350
 8143SOL    HW225329   6.035   4.464   0.328
 8144SOL     OW25330   5.819   6.251   0.057
 8144SOL    HW125331   5.895   6.286   0.111
 8144SOL    HW225332   5.822   6.289   6.989
 8145SOL     OW25333   4.931   5.899   1.600
 8145SOL    HW125334   4.930   5.918   1.698
 8145SOL    HW225335   5.026   5.892   1.569
 8146SOL     OW25336   3.903   1.040   4.845
 8146SOL    HW125337   3.822   1.006   4.894
 8146SOL    HW225338   3.875   1.079   4.758
 8147SOL     OW25339   5.924   2.754   2.936
 8147SOL    HW125340   5.962   2.685   2.874
 8147SOL    HW225341   5.860   2.711   2.999
 8148SOL     OW25342   5.174   3.955   1.669
 8148SOL    HW125343   5.166   3.868   1.718
 8148SOL    HW225344   5.190   4.029   1.735
 8149SOL     OW25345   2.357   6.126   1.964
 8149SOL    HW125346   2.304   6.142   1.880
 8149SOL    HW225347   2.445   6.085   1.941
 8150SOL     OW25348   0.199   4.913   6.846
 8150SOL    HW125349   0.166   4.847   6.780
 8150SOL    HW225350   0.128   4.931   6.914
 8151SOL     OW25351   6.476   2.385   1.666
 8151SOL    HW125352   6.534   2.333   1.730
 8151SOL    HW225353   6.513   2.477   1.655
 8152SOL     OW25354   0.814   2.606   2.692
 8152SOL    HW125355   0.812   2.526   2.632
 8152SOL    HW225356   0.850   2.580   2.781
 8153SOL     OW25357   3.580   0.353   2.971
 8153SOL    HW125358   3.510   0.325   2.905
 8153SOL    HW225359   3.637   0.275   2.995
 8154SOL     OW25360   2.873   5.903   3.896
 8154SOL    HW125361   2.903   5.980   3.953
 8154SOL    HW225362   2.936   5.891   3.820
 8155SOL     OW25363   2.587   3.420   1.732
 8155SOL    HW125364   2.500   3.434   1.778
 8155SOL    HW225365   2.610   3.323   1.733
 8156SOL     OW25366   5.192   6.927   6.161
 8156SOL    HW125367   5.167   6.871   6.082
 8156SOL    HW225368   5.156   6.884   6.244
 8157SOL     OW25369   5.940   5.805   6.191
 8157SOL    HW125370   6.017   5.870   6.191
 8157SOL    HW225371   5.970   5.719   6.151
 8158SOL     OW25372   0.450   5.482   1.196
 8158SOL    HW125373   0.517   5.543   1.240
 8158SOL    HW225374   0.492   5.437   1.118
 8159SOL     OW25375   2.844   6.330   2.735
 8159SOL    HW125376   2.887   6.343   2.646
 8159SOL    HW225377   2.785   6.409   2.754
 8160SOL     OW25378   4.481   1.729   1.756
 8160SOL    HW125379   4.505   1.651   1.698
 8160SOL    HW225380   4.518   1.813   1.716
 8161SOL     OW25381   5.139   1.562   0.197
 8161SOL    HW125382   5.226   1.609   0.215
 8161SOL    HW225383   5.064   1.617   0.234
 8162SOL     OW25384   6.445   0.051   6.218
 8162SOL    HW125385   6.467   0.004   6.132
 8162SOL    HW225386   6.529   0.083   6.260
 8163SOL     OW25387   2.653   3.712   5.642
 8163SOL    HW125388   2.747   3.745   5.639
 8163SOL    HW225389   2.591   3.790   5.655
 8164SOL     OW25390   5.921   3.777   0.715
 8164SOL    HW125391   5.885   3.683   0.713
 8164SOL    HW225392   5.852   3.838   0.753
 8165SOL     OW25393   1.048   4.773   6.918
 8165SOL    HW125394   1.131   4.825   6.899
 8165SOL    HW225395   1.071   4.676   6.928
 8166SOL     OW25396   2.476   0.876   2.570
 8166SOL    HW125397   2.486   0.844   2.476
 8166SOL    HW225398   2.395   0.833   2.611
 8167SOL     OW25399   5.440   1.247   3.879
 8167SOL    HW125400   5.383   1.171   3.909
 8167SOL    HW225401   5.409   1.279   3.789
 8168SOL     OW25402   3.490   0.979   2.682
 8168SOL    HW125403   3.401   1.024   2.681
 8168SOL    HW225404   3.550   1.022   2.614
 8169SOL     OW25405   5.277   3.373   1.683
 8169SOL    HW125406   5.313   3.286   1.718
 8169SOL    HW225407   5.286   3.375   1.584
 8170SOL     OW25408   1.731   6.244   2.994
 8170SOL    HW125409   1.690   6.282   2.911
 8170SOL    HW225410   1.785   6.163   2.970
 8171SOL     OW25411   1.237   1.581   6.549
 8171SOL    HW125412   1.220   1.632   6.465
 8171SOL    HW225413   1.177   1.614   6.622
 8172SOL     OW25414   0.832   0.679   1.322
 8172SOL    HW125415   0.811   0.697   1.418
 8172SOL    HW225416   0.848   0.581   1.309
 8173SOL     OW25417   3.727   1.837   0.557
 8173SOL    HW125418   3.817   1.874   0.578
 8173SOL    HW225419   3.710   1.757   0.614
 8174SOL     OW25420   4.976   1.593   1.179
 8174SOL    HW125421   4.917   1.520   1.213
 8174SOL    HW225422   5.057   1.600   1.238
 8175SOL     OW25423   0.205   2.822   6.150
 8175SOL    HW125424   0.265   2.899   6.172
 8175SOL    HW225425   0.258   2.752   6.102
 8176SOL     OW25426   2.889   5.940   1.820
 8176SOL    HW125427   2.979   5.898   1.805
 8176SOL    HW225428   2.838   5.939   1.734
 8177SOL     OW25429   2.134   6.078   4.280
 8177SOL    HW125430   2.113   6.041   4.370
 8177SOL    HW225431   2.086   6.165   4.267
 8178SOL     OW25432   1.455   6.980   6.556
 8178SOL    HW125433   1.532   0.019   6.558
 8178SOL    HW225434   1.477   6.899   6.611
 8179SOL     OW25435   3.446   3.346   0.092
 8179SOL    HW125436   3.513   3.421   0.091
 8179SOL    HW225437   3.409   3.333   7.024
 8180SOL     OW25438   6.298   0.083   4.053
 8180SOL    HW125439   6.306   7.021   4.102
 8180SOL    HW225440   6.390   0.121   4.038
 8181SOL     OW25441   2.015   1.121   2.643
 8181SOL    HW125442   2.041   1.206   2.689
 8181SOL    HW225443   2.097   1.079   2.603
 8182SOL     OW25444   3.853   1.810   6.753
 8182SOL    HW125445   3.894   1.721   6.769
 8182SOL    HW225446   3.915   1.866   6.698
 8183SOL     OW25447   0.724   2.538   4.786
 8183SOL    HW125448   0.631   2.566   4.807
 8183SOL    HW225449   0.746   2.563   4.692
 8184SOL     OW25450   5.635   1.622   5.679
 8184SOL    HW125451   5.575   1.690   5.637
 8184SOL    HW225452   5.707   1.669   5.731
 8185SOL     OW25453   3.143   0.334   0.125
 8185SOL    HW125454   3.123   0.301   0.217
 8185SOL    HW225455   3.234   0.375   0.124
 8186SOL     OW25456   2.763   6.495   6.082
 8186SOL    HW125457   2.830   6.550   6.133
 8186SOL    HW225458   2.793   6.488   5.987
 8187SOL     OW25459   1.514   1.981   5.014
 8187SOL    HW125460   1.513   1.963   4.915
 8187SOL    HW225461   1.604   2.016   5.040
 8188SOL     OW25462   5.469   1.831   2.531
 8188SOL    HW125463   5.426   1.751   2.490
 8188SOL    HW225464   5.423   1.914   2.499
 8189SOL     OW25465   4.903   4.495   2.072
 8189SOL    HW125466   4.862   4.407   2.097
 8189SOL    HW225467   4.839   4.546   2.015
 8190SOL     OW25468   4.981   5.349   4.368
 8190SOL    HW125469   5.033   5.272   4.403
 8190SOL    HW225470   4.995   5.356   4.269
 8191SOL     OW25471   2.319   5.464   3.574
 8191SOL    HW125472   2.367   5.501   3.653
 8191SOL    HW225473   2.308   5.365   3.583
 8192SOL     OW25474   2.800   5.990   0.317
 8192SOL    HW125475   2.860   5.937   0.377
 8192SOL    HW225476   2.708   5.995   0.357
 8193SOL     OW25477   5.800   7.012   4.715
 8193SOL    HW125478   5.733   0.062   4.707
 8193SOL    HW225479   5.874   0.017   4.775
 8194SOL     OW25480   6.325   2.542   6.749
 8194SOL    HW125481   6.248   2.572   6.805
 8194SOL    HW225482   6.393   2.616   6.743
 8195SOL     OW25483   0.452   0.891   0.791
 8195SOL    HW125484   0.536   0.912   0.842
 8195SOL    HW225485   0.431   0.966   0.729
 8196SOL     OW25486   3.923   0.054   5.672
 8196SOL    HW125487   3.844   0.094   5.626
 8196SOL    HW225488   3.996   0.038   5.606
 8197SOL     OW25489   5.511   1.609   5.999
 8197SOL    HW125490   5.522   1.705   5.974
 8197SOL    HW225491   5.437   1.568   5.945
 8198SOL     OW25492   3.543   6.383   2.222
 8198SOL    HW125493   3.601   6.407   2.144
 8198SOL    HW225494   3.449   6.373   2.192
 8199SOL     OW25495   6.619   3.775   0.331
 8199SOL    HW125496   6.572   3.792   0.417
 8199SOL    HW225497   6.579   3.831   0.259
 8200SOL     OW25498   4.594   4.358   1.306
 8200SOL    HW125499   4.655   4.280   1.294
 8200SOL    HW225500   4.499   4.328   1.301
 8201SOL     OW25501   5.328   0.838   4.883
 8201SOL    HW125502   5.380   0.871   4.804
 8201SOL    HW225503   5.259   0.773   4.852
 8202SOL     OW25504   1.501   5.370   4.364
 8202SOL    HW125505   1.567   5.319   4.419
 8202SOL    HW225506   1.541   5.457   4.335
 8203SOL     OW25507   4.840   3.483   0.815
 8203SOL    HW125508   4.902   3.541   0.762
 8203SOL    HW225509   4.810   3.531   0.897
 8204SOL     OW25510   3.568   6.148   0.902
 8204SOL    HW125511   3.549   6.139   0.804
 8204SOL    HW225512   3.646   6.208   0.916
 8205SOL     OW25513   5.720   4.798   1.393
 8205SOL    HW125514   5.771   4.716   1.417
 8205SOL    HW225515   5.624   4.774   1.379
 8206SOL     OW25516   2.996   2.525   5.785
 8206SOL    HW125517   3.092   2.551   5.782
 8206SOL    HW225518   2.939   2.607   5.787
 8207SOL     OW25519   3.270   4.416   5.450
 8207SOL    HW125520   3.186   4.363   5.440
 8207SOL    HW225521   3.255   4.489   5.517
 8208SOL     OW25522   2.311   6.249   1.462
 8208SOL    HW125523   2.285   6.199   1.379
 8208SOL    HW225524   2.299   6.347   1.447
 8209SOL     OW25525   1.301   1.213   5.248
 8209SOL    HW125526   1.249   1.141   5.202
 8209SOL    HW225527   1.330   1.281   5.181
 8210SOL     OW25528   3.316   0.805   0.605
 8210SOL    HW125529   3.268   0.718   0.598
 8210SOL    HW225530   3.393   0.796   0.668
 8211SOL     OW25531   3.551   4.158   4.318
 8211SOL    HW125532   3.632   4.148   4.377
 8211SOL    HW225533   3.473   4.113   4.361
 8212SOL     OW25534   2.721   0.275   0.660
 8212SOL    HW125535   2.758   0.217   0.733
 8212SOL    HW225536   2.624   0.254   0.647
 8213SOL     OW25537   4.613   5.311   3.688
 8213SOL    HW125538   4.566   5.289   3.603
 8213SOL    HW225539   4.710   5.291   3.679
 8214SOL     OW25540   2.338   5.436   4.186
 8214SOL    HW125541   2.407   5.505   4.163
 8214SOL    HW225542   2.301   5.456   4.277
 8215SOL     OW25543   4.520   5.754   0.083
 8215SOL    HW125544   4.542   5.748   7.009
 8215SOL    HW225545   4.502   5.849   0.107
 8216SOL     OW25546   4.995   6.799   3.005
 8216SOL    HW125547   4.994   6.769   3.100
 8216SOL    HW225548   5.045   6.885   2.997
 8217SOL     OW25549   2.300   4.242   2.411
 8217SOL    HW125550   2.276   4.242   2.314
 8217SOL    HW225551   2.394   4.273   2.422
 8218SOL     OW25552   2.192   6.766   5.368
 8218SOL    HW125553   2.120   6.789   5.302
 8218SOL    HW225554   2.151   6.756   5.459
 8219SOL     OW25555   2.906   3.895   1.534
 8219SOL    HW125556   2.967   3.816   1.543
 8219SOL    HW225557   2.955   3.969   1.488
 8220SOL     OW25558   3.512   4.283   5.392
 8220SOL    HW125559   3.416   4.309   5.394
 8220SOL    HW225560   3.525   4.206   5.330
 8221SOL     OW25561   5.919   4.140   3.284
 8221SOL    HW125562   5.970   4.149   3.198
 8221SOL    HW225563   5.970   4.185   3.357
 8222SOL     OW25564   6.153   2.859   0.844
 8222SOL    HW125565   6.215   2.782   0.829
 8222SOL    HW225566   6.206   2.943   0.854
 8223SOL     OW25567   6.914   5.267   5.349
 8223SOL    HW125568   6.874   5.301   5.264
 8223SOL    HW225569   6.913   5.339   5.418
 8224SOL     OW25570   4.537   1.233   0.646
 8224SOL    HW125571   4.490   1.209   0.731
 8224SOL    HW225572   4.630   1.263   0.667
 8225SOL     OW25573   3.783   0.024   0.492
 8225SOL    HW125574   3.808   6.953   0.504
 8225SOL    HW225575   3.692   0.040   0.531
 8226SOL     OW25576   3.684   0.638   0.354
 8226SOL    HW125577   3.650   0.728   0.382
 8226SOL    HW225578   3.694   0.580   0.435
 8227SOL     OW25579   5.874   1.573   2.242
 8227SOL    HW125580   5.813   1.563   2.320
 8227SOL    HW225581   5.969   1.566   2.272
 8228SOL     OW25582   0.891   1.150   5.381
 8228SOL    HW125583   0.796   1.122   5.395
 8228SOL    HW225584   0.907   1.169   5.284
 8229SOL     OW25585   3.953   4.841   0.798
 8229SOL    HW125586   3.983   4.936   0.793
 8229SOL    HW225587   3.863   4.832   0.755
 8230SOL     OW25588   4.279   6.810   5.540
 8230SOL    HW125589   4.297   6.762   5.625
 8230SOL    HW225590   4.326   6.763   5.465
 8231SOL     OW25591   3.479   1.481   2.168
 8231SOL    HW125592   3.565   1.519   2.201
 8231SOL    HW225593   3.404   1.540   2.196
 8232SOL     OW25594   4.942   1.345   2.054
 8232SOL    HW125595   4.925   1.254   2.092
 8232SOL    HW225596   4.879   1.361   1.978
 8233SOL     OW25597   0.676   0.371   5.904
 8233SOL    HW125598   0.625   0.389   5.988
 8233SOL    HW225599   0.666   0.274   5.880
 8234SOL     OW25600   3.133   3.095   0.053
 8234SOL    HW125601   3.097   3.040   7.002
 8234SOL    HW225602   3.140   3.191   0.024
 8235SOL     OW25603   6.925   5.172   6.893
 8235SOL    HW125604   6.963   5.160   6.802
 8235SOL    HW225605   6.976   5.115   6.958
 8236SOL     OW25606   0.013   6.092   5.884
 8236SOL    HW125607   6.995   6.010   5.846
 8236SOL    HW225608   0.064   6.068   5.966
 8237SOL     OW25609   4.344   5.598   6.491
 8237SOL    HW125610   4.294   5.587   6.577
 8237SOL    HW225611   4.282   5.579   6.415
 8238SOL     OW25612   1.623   5.539   6.888
 8238SOL    HW125613   1.638   5.534   6.987
 8238SOL    HW225614   1.544   5.597   6.869
 8239SOL     OW25615   0.215   1.196   4.797
 8239SOL    HW125616   0.256   1.113   4.761
 8239SOL    HW225617   0.180   1.179   4.889
 8240SOL     OW25618   3.014   3.233   2.985
 8240SOL    HW125619   3.021   3.180   2.901
 8240SOL    HW225620   2.959   3.315   2.969
 8241SOL     OW25621   1.595   3.220   0.162
 8241SOL    HW125622   1.571   3.124   0.173
 8241SOL    HW225623   1.641   3.234   0.075
 8242SOL     OW25624   0.994   3.750   4.529
 8242SOL    HW125625   0.944   3.778   4.611
 8242SOL    HW225626   1.090   3.777   4.537
 8243SOL     OW25627   0.539   4.549   5.938
 8243SOL    HW125628   0.630   4.588   5.954
 8243SOL    HW225629   0.477   4.579   6.010
 8244SOL     OW25630   0.955   0.780   3.429
 8244SOL    HW125631   1.045   0.740   3.412
 8244SOL    HW225632   0.967   0.869   3.474
 8245SOL     OW25633   4.428   1.852   3.624
 8245SOL    HW125634   4.472   1.764   3.605
 8245SOL    HW225635   4.467   1.890   3.708
 8246SOL     OW25636   1.310   3.953   6.809
 8246SOL    HW125637   1.228   3.922   6.763
 8246SOL    HW225638   1.286   3.992   6.898
 8247SOL     OW25639   2.786   4.759   3.965
 8247SOL    HW125640   2.762   4.782   3.871
 8247SOL    HW225641   2.865   4.813   3.994
 8248SOL     OW25642   1.005   5.553   3.639
 8248SOL    HW125643   0.980   5.649   3.626
 8248SOL    HW225644   1.101   5.540   3.613
 8249SOL     OW25645   2.289   2.129   5.211
 8249SOL    HW125646   2.228   2.107   5.135
 8249SOL    HW225647   2.287   2.228   5.228
 8250SOL     OW25648   3.014   1.674   0.798
 8250SOL    HW125649   2.978   1.694   0.707
 8250SOL    HW225650   3.090   1.610   0.790
 8251SOL     OW25651   6.862   1.988   4.992
 8251SOL    HW125652   6.893   1.941   4.909
 8251SOL    HW225653   6.884   2.085   4.986
 8252SOL     OW25654   2.504   2.386   6.527
 8252SOL    HW125655   2.503   2.288   6.543
 8252SOL    HW225656   2.410   2.420   6.524
 8253SOL     OW25657   3.989   5.842   6.245
 8253SOL    HW125658   3.917   5.855   6.176
 8253SOL    HW225659   4.011   5.745   6.252
 8254SOL     OW25660   6.224   4.812   6.495
 8254SOL    HW125661   6.202   4.770   6.408
 8254SOL    HW225662   6.276   4.897   6.480
 8255SOL     OW25663   0.689   6.894   6.731
 8255SOL    HW125664   0.627   6.831   6.685
 8255SOL    HW225665   0.783   6.862   6.719
 8256SOL     OW25666   1.083   6.645   2.863
 8256SOL    HW125667   1.129   6.706   2.798
 8256SOL    HW225668   1.053   6.699   2.942
 8257SOL     OW25669   5.965   4.137   4.000
 8257SOL    HW125670   5.992   4.098   3.912
 8257SOL    HW225671   5.940   4.233   3.988
 8258SOL     OW25672   5.619   2.816   1.231
 8258SOL    HW125673   5.562   2.875   1.289
 8258SOL    HW225674   5.675   2.757   1.289
 8259SOL     OW25675   4.377   2.050   4.407
 8259SOL    HW125676   4.386   1.977   4.475
 8259SOL    HW225677   4.323   2.017   4.330
 8260SOL     OW25678   2.335   6.685   0.326
 8260SOL    HW125679   2.238   6.708   0.332
 8260SOL    HW225680   2.345   6.590   0.295
 8261SOL     OW25681   5.500   6.063   2.900
 8261SOL    HW125682   5.443   6.041   2.979
 8261SOL    HW225683   5.441   6.086   2.822
 8262SOL     OW25684   0.551   4.648   0.828
 8262SOL    HW125685   0.454   4.624   0.833
 8262SOL    HW225686   0.570   4.690   0.739
 8263SOL     OW25687   6.635   3.028   6.452
 8263SOL    HW125688   6.540   3.041   6.481
 8263SOL    HW225689   6.675   3.116   6.426
 8264SOL     OW25690   1.873   0.085   1.468
 8264SOL    HW125691   1.882   0.017   1.395
 8264SOL    HW225692   1.870   0.038   1.556
 8265SOL     OW25693   4.063   0.485   1.680
 8265SOL    HW125694   3.981   0.434   1.706
 8265SOL    HW225695   4.140   0.455   1.736
 8266SOL     OW25696   2.812   0.124   4.367
 8266SOL    HW125697   2.758   0.198   4.406
 8266SOL    HW225698   2.885   0.161   4.311
 8267SOL     OW25699   1.653   4.946   2.475
 8267SOL    HW125700   1.625   4.979   2.385
 8267SOL    HW225701   1.751   4.926   2.473
 8268SOL     OW25702   2.746   4.065   6.755
 8268SOL    HW125703   2.702   4.128   6.819
 8268SOL    HW225704   2.749   4.106   6.664
 8269SOL     OW25705   4.663   2.633   3.134
 8269SOL    HW125706   4.689   2.672   3.223
 8269SOL    HW225707   4.594   2.562   3.148
 8270SOL     OW25708   3.040   0.051   5.612
 8270SOL    HW125709   2.957   0.071   5.559
 8270SOL    HW225710   3.019   0.061   5.710
 8271SOL     OW25711   5.228   6.184   4.774
 8271SOL    HW125712   5.305   6.208   4.714
 8271SOL    HW225713   5.171   6.264   4.788
 8272SOL     OW25714   0.716   0.362   2.574
 8272SOL    HW125715   0.638   0.390   2.630
 8272SOL    HW225716   0.801   0.388   2.620
 8273SOL     OW25717   2.927   6.923   6.860
 8273SOL    HW125718   2.881   6.854   6.916
 8273SOL    HW225719   2.862   6.961   6.795
 8274SOL     OW25720   4.421   4.798   6.929
 8274SOL    HW125721   4.357   4.774   7.001
 8274SOL    HW225722   4.441   4.718   6.873
 8275SOL     OW25723   6.923   0.055   4.675
 8275SOL    HW125724   6.832   0.089   4.696
 8275SOL    HW225725   6.981   0.131   4.644
 8276SOL     OW25726   6.642   2.605   5.690
 8276SOL    HW125727   6.551   2.567   5.707
 8276SOL    HW225728   6.697   2.540   5.637
 8277SOL     OW25729   1.577   6.053   5.471
 8277SOL    HW125730   1.644   6.067   5.398
 8277SOL    HW225731   1.516   6.132   5.475
 8278SOL     OW25732   3.356   1.488   6.197
 8278SOL    HW125733   3.282   1.507   6.132
 8278SOL    HW225734   3.444   1.492   6.150
 8279SOL     OW25735   5.110   6.050   6.801
 8279SOL    HW125736   5.106   6.056   6.900
 8279SOL    HW225737   5.192   6.096   6.767
 8280SOL     OW25738   5.002   2.733   0.223
 8280SOL    HW125739   4.917   2.680   0.215
 8280SOL    HW225740   5.012   2.766   0.317
 8281SOL     OW25741   1.888   4.840   0.236
 8281SOL    HW125742   1.888   4.939   0.254
 8281SOL    HW225743   1.969   4.816   0.183
 8282SOL     OW25744   2.460   2.510   1.081
 8282SOL    HW125745   2.497   2.583   1.137
 8282SOL    HW225746   2.377   2.474   1.124
 8283SOL     OW25747   0.623   5.093   3.835
 8283SOL    HW125748   0.704   5.040   3.812
 8283SOL    HW225749   0.603   5.158   3.761
 8284SOL     OW25750   1.894   2.501   3.037
 8284SOL    HW125751   1.819   2.565   3.057
 8284SOL    HW225752   1.873   2.450   2.954
 8285SOL     OW25753   3.432   4.081   5.949
 8285SOL    HW125754   3.528   4.101   5.968
 8285SOL    HW225755   3.392   4.156   5.897
 8286SOL     OW25756   5.703   0.870   4.768
 8286SOL    HW125757   5.645   0.839   4.844
 8286SOL    HW225758   5.694   0.806   4.691
 8287SOL     OW25759   1.219   6.809   4.277
 8287SOL    HW125760   1.199   6.907   4.276
 8287SOL    HW225761   1.308   6.793   4.320
 8288SOL     OW25762   1.978   2.021   2.205
 8288SOL    HW125763   1.945   1.956   2.274
 8288SOL    HW225764   1.905   2.040   2.140
 8289SOL     OW25765   6.172   1.309   5.477
 8289SOL    HW125766   6.186   1.408   5.490
 8289SOL    HW225767   6.134   1.270   5.561
 8290SOL     OW25768   3.649   3.160   1.420
 8290SOL    HW125769   3.616   3.171   1.326
 8290SOL    HW225770   3.572   3.171   1.484
 8291SOL     OW25771   5.578   6.919   6.747
 8291SOL    HW125772   5.625   6.831   6.743
 8291SOL    HW225773   5.590   6.968   6.660
 8292SOL     OW25774   1.102   5.131   5.730
 8292SOL    HW125775   1.039   5.073   5.678
 8292SOL    HW225776   1.113   5.218   5.683
 8293SOL     OW25777   1.762   4.853   2.176
 8293SOL    HW125778   1.823   4.814   2.106
 8293SOL    HW225779   1.817   4.898   2.246
 8294SOL     OW25780   6.920   3.927   5.570
 8294SOL    HW125781   6.884   3.873   5.646
 8294SOL    HW225782   6.845   3.968   5.518
 8295SOL     OW25783   4.850   3.693   3.403
 8295SOL    HW125784   4.907   3.763   3.446
 8295SOL    HW225785   4.817   3.727   3.314
 8296SOL     OW25786   3.376   5.801   6.602
 8296SOL    HW125787   3.390   5.706   6.571
 8296SOL    HW225788   3.370   5.803   6.701
 8297SOL     OW25789   6.272   4.340   2.475
 8297SOL    HW125790   6.196   4.324   2.412
 8297SOL    HW225791   6.244   4.315   2.568
 8298SOL     OW25792   0.870   0.789   6.834
 8298SOL    HW125793   0.961   0.829   6.841
 8298SOL    HW225794   0.877   0.695   6.803
 8299SOL     OW25795   0.097   3.714   2.038
 8299SOL    HW125796   0.137   3.771   2.109
 8299SOL    HW225797   0.003   3.690   2.063
 8300SOL     OW25798   5.597   5.442   4.473
 8300SOL    HW125799   5.638   5.521   4.427
 8300SOL    HW225800   5.498   5.443   4.459
 8301SOL     OW25801   4.305   6.888   6.831
 8301SOL    HW125802   4.302   6.984   6.804
 8301SOL    HW225803   4.394   6.868   6.872
 8302SOL     OW25804   2.959   6.149   4.567
 8302SOL    HW125805   2.961   6.226   4.503
 8302SOL    HW225806   3.020   6.169   4.644
 8303SOL     OW25807   6.588   0.222   2.161
 8303SOL    HW125808   6.569   0.127   2.134
 8303SOL    HW225809   6.652   0.223   2.237
 8304SOL     OW25810   5.456   3.860   3.651
 8304SOL    HW125811   5.481   3.853   3.748
 8304SOL    HW225812   5.524   3.914   3.603
 8305SOL     OW25813   4.378   5.679   4.217
 8305SOL    HW125814   4.345   5.760   4.266
 8305SOL    HW225815   4.432   5.623   4.278
 8306SOL     OW25816   6.392   0.980   2.662
 8306SOL    HW125817   6.437   1.006   2.577
 8306SOL    HW225818   6.460   0.939   2.724
 8307SOL     OW25819   1.450   4.745   1.338
 8307SOL    HW125820   1.441   4.707   1.430
 8307SOL    HW225821   1.366   4.793   1.313
 8308SOL     OW25822   1.300   4.345   0.407
 8308SOL    HW125823   1.289   4.443   0.390
 8308SOL    HW225824   1.227   4.295   0.363
 8309SOL     OW25825   6.489   4.962   4.878
 8309SOL    HW125826   6.547   4.882   4.862
 8309SOL    HW225827   6.413   4.962   4.813
 8310SOL     OW25828   0.475   6.622   0.616
 8310SOL    HW125829   0.457   6.637   0.713
 8310SOL    HW225830   0.503   6.708   0.573
 8311SOL     OW25831   5.285   6.385   4.096
 8311SOL    HW125832   5.334   6.443   4.160
 8311SOL    HW225833   5.190   6.416   4.089
 8312SOL     OW25834   5.048   6.960   0.339
 8312SOL    HW125835   4.994   0.018   0.323
 8312SOL    HW225836   5.108   6.975   0.418
 8313SOL     OW25837   3.741   6.512   5.725
 8313SOL    HW125838   3.681   6.523   5.804
 8313SOL    HW225839   3.819   6.573   5.734
 8314SOL     OW25840   5.272   6.331   6.541
 8314SOL    HW125841   5.299   6.399   6.474
 8314SOL    HW225842   5.173   6.336   6.556
 8315SOL     OW25843   3.574   3.569   3.902
 8315SOL    HW125844   3.670   3.595   3.909
 8315SOL    HW225845   3.560   3.480   3.945
 8316SOL     OW25846   1.096   3.187   7.021
 8316SOL    HW125847   1.013   3.157   0.044
 8316SOL    HW225848   1.143   3.256   0.052
 8317SOL     OW25849   1.783   2.081   4.838
 8317SOL    HW125850   1.734   2.138   4.904
 8317SOL    HW225851   1.816   2.139   4.763
 8318SOL     OW25852   4.088   0.493   6.367
 8318SOL    HW125853   4.127   0.403   6.383
 8318SOL    HW225854   4.010   0.506   6.428
 8319SOL     OW25855   1.168   0.303   6.207
 8319SOL    HW125856   1.239   0.252   6.257
 8319SOL    HW225857   1.163   0.268   6.114
 8320SOL     OW25858   2.947   3.797   4.308
 8320SOL    HW125859   2.923   3.701   4.323
 8320SOL    HW225860   2.957   3.843   4.396
 8321SOL     OW25861   7.023   0.645   6.704
 8321SOL    HW125862   0.019   0.696   6.787
 8321SOL    HW225863   6.937   0.676   6.665
 8322SOL     OW25864   0.018   1.394   0.449
 8322SOL    HW125865   7.020   1.490   0.430
 8322SOL    HW225866   6.989   1.335   0.389
 8323SOL     OW25867   4.955   4.426   1.290
 8323SOL    HW125868   4.986   4.415   1.196
 8323SOL    HW225869   4.872   4.373   1.304
 8324SOL     OW25870   6.311   1.253   6.644
 8324SOL    HW125871   6.257   1.169   6.646
 8324SOL    HW225872   6.251   1.331   6.622
 8325SOL     OW25873   1.573   5.791   4.737
 8325SOL    HW125874   1.553   5.855   4.811
 8325SOL    HW225875   1.594   5.701   4.775
 8326SOL     OW25876   2.847   4.144   0.209
 8326SOL    HW125877   2.881   4.103   0.124
 8326SOL    HW225878   2.924   4.185   0.259
 8327SOL     OW25879   0.835   0.842   5.531
 8327SOL    HW125880   0.750   0.843   5.584
 8327SOL    HW225881   0.892   0.920   5.558
 8328SOL     OW25882   0.593   6.172   5.746
 8328SOL    HW125883   0.552   6.249   5.696
 8328SOL    HW225884   0.671   6.205   5.799
 8329SOL     OW25885   0.688   2.433   5.154
 8329SOL    HW125886   0.774   2.457   5.199
 8329SOL    HW225887   0.707   2.391   5.065
 8330SOL     OW25888   4.120   1.207   6.609
 8330SOL    HW125889   4.192   1.141   6.592
 8330SOL    HW225890   4.036   1.160   6.637
 8331SOL     OW25891   1.794   2.162   0.445
 8331SOL    HW125892   1.728   2.112   0.389
 8331SOL    HW225893   1.880   2.171   0.396
 8332SOL     OW25894   4.905   5.000   1.943
 8332SOL    HW125895   4.862   4.979   1.856
 8332SOL    HW225896   4.866   5.084   1.981
 8333SOL     OW25897   1.913   4.680   0.915
 8333SOL    HW125898   1.857   4.762   0.928
 8333SOL    HW225899   1.854   4.602   0.895
 8334SOL     OW25900   3.340   1.830   6.606
 8334SOL    HW125901   3.438   1.813   6.615
 8334SOL    HW225902   3.319   1.921   6.641
 8335SOL     OW25903   4.793   2.938   6.877
 8335SOL    HW125904   4.729   2.972   6.807
 8335SOL    HW225905   4.805   3.009   6.947
 8336SOL     OW25906   1.424   3.468   2.431
 8336SOL    HW125907   1.364   3.546   2.413
 8336SOL    HW225908   1.431   3.454   2.530
 8337SOL     OW25909   1.188   0.757   5.222
 8337SOL    HW125910   1.272   0.712   5.194
 8337SOL    HW225911   1.148   0.709   5.300
 8338SOL     OW25912   3.841   4.855   1.909
 8338SOL    HW125913   3.847   4.940   1.857
 8338SOL    HW225914   3.745   4.835   1.931
 8339SOL     OW25915   0.133   1.003   0.755
 8339SOL    HW125916   0.211   1.042   0.706
 8339SOL    HW225917   0.129   0.905   0.739
 8340SOL     OW25918   5.340   2.477   1.173
 8340SOL    HW125919   5.281   2.397   1.186
 8340SOL    HW225920   5.341   2.532   1.257
 8341SOL     OW25921   3.460   0.115   6.078
 8341SOL    HW125922   3.533   0.167   6.035
 8341SOL    HW225923   3.497   0.029   6.114
 8342SOL     OW25924   3.402   6.329   0.406
 8342SOL    HW125925   3.312   6.355   0.371
 8342SOL    HW225926   3.428   6.241   0.367
 8343SOL     OW25927   6.514   5.145   3.948
 8343SOL    HW125928   6.465   5.138   4.035
 8343SOL    HW225929   6.571   5.227   3.947
 8344SOL     OW25930   0.380   4.325   4.262
 8344SOL    HW125931   0.477   4.344   4.249
 8344SOL    HW225932   0.357   4.335   4.359
 8345SOL     OW25933   5.371   1.301   3.154
 8345SOL    HW125934   5.388   1.313   3.251
 8345SOL    HW225935   5.447   1.339   3.101
 8346SOL     OW25936   4.317   3.143   6.390
 8346SOL    HW125937   4.414   3.144   6.417
 8346SOL    HW225938   4.262   3.108   6.465
 8347SOL     OW25939   2.020   6.802   6.688
 8347SOL    HW125940   2.037   6.708   6.658
 8347SOL    HW225941   1.947   6.842   6.632
 8348SOL     OW25942   3.336   0.028   1.282
 8348SOL    HW125943   3.372   7.021   1.370
 8348SOL    HW225944   3.258   0.089   1.298
 8349SOL     OW25945   0.394   6.985   2.220
 8349SOL    HW125946   0.327   6.925   2.176
 8349SOL    HW225947   0.351   0.008   2.296
 8350SOL     OW25948   3.012   0.097   6.137
 8350SOL    HW125949   2.937   0.054   6.188
 8350SOL    HW225950   3.091   0.107   6.198
 8351SOL     OW25951   5.964   5.737   4.235
 8351SOL    HW125952   5.994   5.745   4.140
 8351SOL    HW225953   5.994   5.649   4.273
 8352SOL     OW25954   2.872   6.337   2.403
 8352SOL    HW125955   2.865   6.250   2.355
 8352SOL    HW225956   2.968   6.360   2.416
 8353SOL     OW25957   1.106   3.958   1.557
 8353SOL    HW125958   1.157   3.879   1.523
 8353SOL    HW225959   1.140   4.041   1.512
 8354SOL     OW25960   3.382   6.622   3.778
 8354SOL    HW125961   3.298   6.671   3.801
 8354SOL    HW225962   3.442   6.682   3.724
 8355SOL     OW25963   1.338   0.166   6.384
 8355SOL    HW125964   1.414   0.230   6.385
 8355SOL    HW225965   1.360   0.087   6.441
 8356SOL     OW25966   1.171   5.818   2.004
 8356SOL    HW125967   1.108   5.854   2.073
 8356SOL    HW225968   1.193   5.891   1.938
 8357SOL     OW25969   3.777   5.404   6.115
 8357SOL    HW125970   3.751   5.416   6.210
 8357SOL    HW225971   3.784   5.306   6.094
 8358SOL     OW25972   1.412   2.845   5.811
 8358SOL    HW125973   1.376   2.937   5.824
 8358SOL    HW225974   1.353   2.794   5.749
 8359SOL     OW25975   2.613   0.831   4.279
 8359SOL    HW125976   2.593   0.897   4.351
 8359SOL    HW225977   2.605   0.876   4.190
 8360SOL     OW25978   4.573   6.785   0.780
 8360SOL    HW125979   4.648   6.721   0.766
 8360SOL    HW225980   4.506   6.746   0.843
 8361SOL     OW25981   2.361   0.068   6.585
 8361SOL    HW125982   2.291   0.131   6.551
 8361SOL    HW225983   2.337   6.999   6.561
 8362SOL     OW25984   6.198   2.230   0.462
 8362SOL    HW125985   6.222   2.287   0.540
 8362SOL    HW225986   6.123   2.273   0.411
 8363SOL     OW25987   3.997   2.245   0.471
 8363SOL    HW125988   4.080   2.255   0.527
 8363SOL    HW225989   3.940   2.327   0.482
 8364SOL     OW25990   0.569   3.100   3.788
 8364SOL    HW125991   0.577   3.094   3.689
 8364SOL    HW225992   0.582   3.195   3.817
 8365SOL     OW25993   1.982   2.433   2.144
 8365SOL    HW125994   2.006   2.353   2.200
 8365SOL    HW225995   1.885   2.455   2.158
 8366SOL     OW25996   3.913   5.397   1.167
 8366SOL    HW125997   3.965   5.433   1.244
 8366SOL    HW225998   3.948   5.307   1.142
 8367SOL     OW25999   2.989   5.251   4.642
 8367SOL    HW126000   2.908   5.204   4.606
 8367SOL    HW226001   2.985   5.252   4.742
 8368SOL     OW26002   0.528   6.212   0.032
 8368SOL    HW126003   0.540   6.189   6.959
 8368SOL    HW226004   0.614   6.249   0.068
 8369SOL     OW26005   0.692   2.098   1.223
 8369SOL    HW126006   0.673   2.008   1.260
 8369SOL    HW226007   0.656   2.168   1.285
 8370SOL     OW26008   2.743   1.952   0.011
 8370SOL    HW126009   2.656   1.983   6.997
 8370SOL    HW226010   2.800   1.915   6.962
 8371SOL     OW26011   2.089   3.042   5.592
 8371SOL    HW126012   2.049   3.107   5.527
 8371SOL    HW226013   2.144   3.091   5.659
 8372SOL     OW26014   2.626   6.518   1.771
 8372SOL    HW126015   2.557   6.571   1.721
 8372SOL    HW226016   2.653   6.439   1.716
 8373SOL     OW26017   0.577   1.535   4.601
 8373SOL    HW126018   0.498   1.478   4.579
 8373SOL    HW226019   0.578   1.614   4.540
 8374SOL     OW26020   1.050   0.408   4.086
 8374SOL    HW126021   1.148   0.397   4.107
 8374SOL    HW226022   1.039   0.438   3.992
 8375SOL     OW26023   3.878   0.971   5.649
 8375SOL    HW126024   3.900   0.873   5.646
 8375SOL    HW226025   3.851   0.996   5.742
 8376SOL     OW26026   1.388   1.263   3.848
 8376SOL    HW126027   1.486   1.275   3.837
 8376SOL    HW226028   1.349   1.228   3.763
 8377SOL     OW26029   5.286   5.625   0.316
 8377SOL    HW126030   5.214   5.655   0.253
 8377SOL    HW226031   5.364   5.688   0.308
 8378SOL     OW26032   5.476   5.389   3.026
 8378SOL    HW126033   5.443   5.360   2.936
 8378SOL    HW226034   5.469   5.312   3.090
 8379SOL     OW26035   5.065   2.020   1.577
 8379SOL    HW126036   5.061   1.932   1.623
 8379SOL    HW226037   5.008   2.086   1.626
 8380SOL     OW26038   6.527   6.910   0.278
 8380SOL    HW126039   6.561   7.003   0.274
 8380SOL    HW226040   6.534   6.875   0.372
 8381SOL     OW26041   0.497   2.418   2.836
 8381SOL    HW126042   0.491   2.509   2.877
 8381SOL    HW226043   0.576   2.370   2.873
 8382SOL     OW26044   2.426   0.310   0.640
 8382SOL    HW126045   2.355   0.240   0.633
 8382SOL    HW226046   2.406   0.384   0.577
 8383SOL     OW26047   2.855   0.176   5.199
 8383SOL    HW126048   2.785   0.104   5.202
 8383SOL    HW226049   2.813   0.261   5.167
 8384SOL     OW26050   6.728   1.883   1.425
 8384SOL    HW126051   6.822   1.863   1.397
 8384SOL    HW226052   6.703   1.975   1.396
 8385SOL     OW26053   4.706   2.750   0.950
 8385SOL    HW126054   4.684   2.837   0.995
 8385SOL    HW226055   4.676   2.754   0.855
 8386SOL     OW26056   1.804   5.828   1.018
 8386SOL    HW126057   1.865   5.878   0.956
 8386SOL    HW226058   1.856   5.799   1.098
 8387SOL     OW26059   2.283   1.879   1.387
 8387SOL    HW126060   2.267   1.929   1.472
 8387SOL    HW226061   2.229   1.795   1.386
 8388SOL     OW26062   1.586   0.063   0.369
 8388SOL    HW126063   1.585   7.024   0.446
 8388SOL    HW226064   1.533   0.025   0.294
 8389SOL     OW26065   1.862   3.309   3.930
 8389SOL    HW126066   1.861   3.336   3.834
 8389SOL    HW226067   1.937   3.244   3.946
 8390SOL     OW26068   3.411   0.337   6.461
 8390SOL    HW126069   3.408   0.427   6.418
 8390SOL    HW226070   3.499   0.294   6.441
 8391SOL     OW26071   5.213   5.467   1.038
 8391SOL    HW126072   5.301   5.490   1.080
 8391SOL    HW226073   5.144   5.534   1.066
 8392SOL     OW26074   6.301   5.598   5.061
 8392SOL    HW126075   6.230   5.663   5.086
 8392SOL    HW226076   6.265   5.505   5.068
 8393SOL     OW26077   0.512   0.097   3.524
 8393SOL    HW126078   0.544   0.190   3.502
 8393SOL    HW226079   0.576   0.054   3.588
 8394SOL     OW26080   0.989   1.529   2.631
 8394SOL    HW126081   1.085   1.551   2.648
 8394SOL    HW226082   0.935   1.552   2.712
 8395SOL     OW26083   0.627   6.330   4.230
 8395SOL    HW126084   0.553   6.267   4.252
 8395SOL    HW226085   0.698   6.281   4.178
 8396SOL     OW26086   4.612   4.388   2.728
 8396SOL    HW126087   4.679   4.317   2.708
 8396SOL    HW226088   4.575   4.374   2.820
 8397SOL     OW26089   2.438   6.841   2.779
 8397SOL    HW126090   2.415   6.874   2.870
 8397SOL    HW226091   2.536   6.851   2.763
 8398SOL     OW26092   3.746   1.735   0.048
 8398SOL    HW126093   3.823   1.747   0.111
 8398SOL    HW226094   3.778   1.748   6.978
 8399SOL     OW26095   6.171   6.662   0.374
 8399SOL    HW126096   6.167   6.744   0.317
 8399SOL    HW226097   6.176   6.689   0.470
 8400SOL     OW26098   0.848   0.316   2.860
 8400SOL    HW126099   0.922   0.258   2.894
 8400SOL    HW226100   0.781   0.260   2.812
 8401SOL     OW26101   4.237   3.041   5.694
 8401SOL    HW126102   4.317   3.042   5.754
 8401SOL    HW226103   4.155   3.061   5.747
 8402SOL     OW26104   3.366   1.171   5.789
 8402SOL    HW126105   3.393   1.155   5.694
 8402SOL    HW226106   3.439   1.221   5.835
 8403SOL     OW26107   0.512   1.528   3.338
 8403SOL    HW126108   0.456   1.472   3.400
 8403SOL    HW226109   0.609   1.508   3.355
 8404SOL     OW26110   5.595   6.560   6.596
 8404SOL    HW126111   5.518   6.621   6.575
 8404SOL    HW226112   5.657   6.557   6.517
 8405SOL     OW26113   1.942   1.598   0.104
 8405SOL    HW126114   1.883   1.548   0.040
 8405SOL    HW226115   2.032   1.610   0.064
 8406SOL     OW26116   4.379   1.487   0.658
 8406SOL    HW126117   4.371   1.510   0.755
 8406SOL    HW226118   4.413   1.393   0.649
 8407SOL     OW26119   5.261   5.340   4.223
 8407SOL    HW126120   5.178   5.373   4.178
 8407SOL    HW226121   5.319   5.294   4.156
 8408SOL     OW26122   5.238   1.082   3.954
 8408SOL    HW126123   5.186   1.080   4.040
 8408SOL    HW226124   5.186   1.134   3.886
 8409SOL     OW26125   6.989   2.278   3.995
 8409SOL    HW126126   0.043   2.239   4.044
 8409SOL    HW226127   6.999   2.261   3.897
 8410SOL     OW26128   4.345   1.019   1.505
 8410SOL    HW126129   4.252   0.990   1.526
 8410SOL    HW226130   4.394   1.038   1.590
 8411SOL     OW26131   2.016   5.171   3.719
 8411SOL    HW126132   2.011   5.072   3.710
 8411SOL    HW226133   1.923   5.209   3.718
 8412SOL     OW26134   4.458   1.744   1.095
 8412SOL    HW126135   4.366   1.719   1.126
 8412SOL    HW226136   4.525   1.685   1.140
 8413SOL     OW26137   4.622   4.480   0.370
 8413SOL    HW126138   4.612   4.386   0.336
 8413SOL    HW226139   4.535   4.511   0.407
 8414SOL     OW26140   3.713   0.151   2.476
 8414SOL    HW126141   3.713   0.226   2.409
 8414SOL    HW226142   3.728   0.188   2.567
 8415SOL     OW26143   0.659   4.730   3.886
 8415SOL    HW126144   0.712   4.804   3.845
 8415SOL    HW226145   0.607   4.765   3.964
 8416SOL     OW26146   4.872   4.612   2.658
 8416SOL    HW126147   4.828   4.634   2.745
 8416SOL    HW226148   4.846   4.680   2.589
 8417SOL     OW26149   1.639   6.366   5.194
 8417SOL    HW126150   1.678   6.301   5.260
 8417SOL    HW226151   1.683   6.354   5.106
 8418SOL     OW26152   5.447   5.087   1.617
 8418SOL    HW126153   5.541   5.072   1.648
 8418SOL    HW226154   5.390   5.110   1.695
 8419SOL     OW26155   4.600   0.627   1.954
 8419SOL    HW126156   4.532   0.653   1.885
 8419SOL    HW226157   4.653   0.549   1.922
 8420SOL     OW26158   3.359   6.515   0.794
 8420SOL    HW126159   3.446   6.474   0.766
 8420SOL    HW226160   3.286   6.483   0.735
 8421SOL     OW26161   2.926   6.916   1.553
 8421SOL    HW126162   2.920   6.820   1.579
 8421SOL    HW226163   2.843   6.943   1.505
 8422SOL     OW26164   5.294   6.270   1.130
 8422SOL    HW126165   5.392   6.262   1.118
 8422SOL    HW226166   5.275   6.302   1.223
 8423SOL     OW26167   4.151   4.630   6.412
 8423SOL    HW126168   4.238   4.675   6.433
 8423SOL    HW226169   4.146   4.612   6.314
 8424SOL     OW26170   2.774   2.278   2.790
 8424SOL    HW126171   2.747   2.307   2.881
 8424SOL    HW226172   2.819   2.189   2.795
 8425SOL     OW26173   6.741   5.461   1.164
 8425SOL    HW126174   6.708   5.484   1.256
 8425SOL    HW226175   6.674   5.401   1.120
 8426SOL     OW26176   3.652   3.065   4.087
 8426SOL    HW126177   3.744   3.057   4.126
 8426SOL    HW226178   3.634   2.985   4.029
 8427SOL     OW26179   1.568   4.019   6.067
 8427SOL    HW126180   1.605   3.929   6.092
 8427SOL    HW226181   1.643   4.079   6.037
 8428SOL     OW26182   6.537   4.491   2.104
 8428SOL    HW126183   6.528   4.462   2.199
 8428SOL    HW226184   6.571   4.415   2.049
 8429SOL     OW26185   1.880   4.492   4.617
 8429SOL    HW126186   1.956   4.558   4.613
 8429SOL    HW226187   1.816   4.519   4.688
 8430SOL     OW26188   3.983   5.152   2.840
 8430SOL    HW126189   4.066   5.190   2.801
 8430SOL    HW226190   3.983   5.053   2.829
 8431SOL     OW26191   2.313   5.008   0.977
 8431SOL    HW126192   2.263   5.018   0.892
 8431SOL    HW226193   2.321   4.911   1.000
 8432SOL     OW26194   4.417   5.013   5.814
 8432SOL    HW126195   4.504   4.973   5.844
 8432SOL    HW226196   4.435   5.088   5.751
 8433SOL     OW26197   0.398   2.622   6.477
 8433SOL    HW126198   0.313   2.673   6.482
 8433SOL    HW226199   0.394   2.558   6.400
 8434SOL     OW26200   3.095   0.086   5.100
 8434SOL    HW126201   3.011   0.115   5.147
 8434SOL    HW226202   3.123   0.158   5.036
 8435SOL     OW26203   5.162   1.619   1.383
 8435SOL    HW126204   5.253   1.647   1.351
 8435SOL    HW226205   5.149   1.650   1.477
 8436SOL     OW26206   3.979   6.286   3.448
 8436SOL    HW126207   3.896   6.287   3.391
 8436SOL    HW226208   4.055   6.327   3.397
 8437SOL     OW26209   1.705   6.873   1.935
 8437SOL    HW126210   1.610   6.846   1.948
 8437SOL    HW226211   1.748   6.813   1.868
 8438SOL     OW26212   3.002   4.787   2.027
 8438SOL    HW126213   3.010   4.768   2.125
 8438SOL    HW226214   2.941   4.720   1.985
 8439SOL     OW26215   6.474   6.118   1.845
 8439SOL    HW126216   6.420   6.169   1.912
 8439SOL    HW226217   6.569   6.111   1.877
 8440SOL     OW26218   0.032   0.692   2.521
 8440SOL    HW126219   0.095   0.769   2.509
 8440SOL    HW226220   0.080   0.606   2.502
 8441SOL     OW26221   6.138   6.019   0.273
 8441SOL    HW126222   6.052   6.002   0.225
 8441SOL    HW226223   6.119   6.067   0.359
 8442SOL     OW26224   4.238   3.116   6.722
 8442SOL    HW126225   4.148   3.075   6.707
 8442SOL    HW226226   4.302   3.046   6.755
 8443SOL     OW26227   1.694   6.791   3.186
 8443SOL    HW126228   1.686   6.867   3.121
 8443SOL    HW226229   1.724   6.826   3.274
 8444SOL     OW26230   3.343   6.192   3.633
 8444SOL    HW126231   3.392   6.117   3.678
 8444SOL    HW226232   3.248   6.193   3.664
 8445SOL     OW26233   3.173   4.992   2.086
 8445SOL    HW126234   3.126   4.905   2.071
 8445SOL    HW226235   3.261   4.975   2.130
 8446SOL     OW26236   4.606   5.531   1.262
 8446SOL    HW126237   4.637   5.619   1.226
 8446SOL    HW226238   4.560   5.480   1.189
 8447SOL     OW26239   6.183   2.372   2.482
 8447SOL    HW126240   6.272   2.345   2.519
 8447SOL    HW226241   6.195   2.444   2.413
 8448SOL     OW26242   0.237   3.665   5.382
 8448SOL    HW126243   0.143   3.662   5.416
 8448SOL    HW226244   0.279   3.752   5.408
 8449SOL     OW26245   0.377   3.199   4.097
 8449SOL    HW126246   0.298   3.214   4.156
 8449SOL    HW226247   0.369   3.256   4.015
 8450SOL     OW26248   2.263   6.257   2.189
 8450SOL    HW126249   2.342   6.311   2.217
 8450SOL    HW226250   2.287   6.199   2.111
 8451SOL     OW26251   4.218   2.593   0.791
 8451SOL    HW126252   4.232   2.576   0.693
 8451SOL    HW226253   4.131   2.553   0.820
 8452SOL     OW26254   0.099   0.208   1.092
 8452SOL    HW126255   0.159   0.129   1.097
 8452SOL    HW226256   0.008   0.180   1.061
 8453SOL     OW26257   6.549   4.890   6.244
 8453SOL    HW126258   6.643   4.863   6.265
 8453SOL    HW226259   6.493   4.882   6.327
 8454SOL     OW26260   1.715   5.511   1.806
 8454SOL    HW126261   1.638   5.489   1.866
 8454SOL    HW226262   1.732   5.609   1.808
 8455SOL     OW26263   4.940   1.535   0.894
 8455SOL    HW126264   5.011   1.573   0.835
 8455SOL    HW226265   4.962   1.554   0.990
 8456SOL     OW26266   5.638   5.027   3.202
 8456SOL    HW126267   5.651   4.964   3.126
 8456SOL    HW226268   5.644   4.977   3.289
 8457SOL     OW26269   6.577   6.466   5.918
 8457SOL    HW126270   6.599   6.462   6.016
 8457SOL    HW226271   6.598   6.378   5.876
 8458SOL     OW26272   1.911   1.034   6.711
 8458SOL    HW126273   1.967   0.959   6.747
 8458SOL    HW226274   1.865   1.005   6.628
 8459SOL     OW26275   3.648   6.862   1.401
 8459SOL    HW126276   3.688   6.896   1.316
 8459SOL    HW226277   3.693   6.777   1.427
 8460SOL     OW26278   4.085   2.695   6.018
 8460SOL    HW126279   4.022   2.765   6.052
 8460SOL    HW226280   4.121   2.724   5.929
 8461SOL     OW26281   1.155   3.506   1.795
 8461SOL    HW126282   1.189   3.438   1.860
 8461SOL    HW226283   1.075   3.468   1.748
 8462SOL     OW26284   3.293   2.262   0.224
 8462SOL    HW126285   3.246   2.349   0.236
 8462SOL    HW226286   3.292   2.236   0.127
 8463SOL     OW26287   0.057   2.183   0.154
 8463SOL    HW126288   0.013   2.124   0.086
 8463SOL    HW226289   0.018   2.164   0.244
 8464SOL     OW26290   0.044   4.264   5.281
 8464SOL    HW126291   7.002   4.300   5.347
 8464SOL    HW226292   0.064   4.333   5.212
 8465SOL     OW26293   3.043   2.016   0.841
 8465SOL    HW126294   3.129   1.966   0.845
 8465SOL    HW226295   2.989   1.997   0.923
 8466SOL     OW26296   6.272   0.048   4.982
 8466SOL    HW126297   6.265   6.973   4.983
 8466SOL    HW226298   6.298   0.082   5.072
 8467SOL     OW26299   3.994   1.119   1.301
 8467SOL    HW126300   4.025   1.197   1.357
 8467SOL    HW226301   4.020   1.135   1.205
 8468SOL     OW26302   6.120   3.087   6.693
 8468SOL    HW126303   6.051   3.014   6.696
 8468SOL    HW226304   6.133   3.123   6.786
 8469SOL     OW26305   2.644   2.176   5.810
 8469SOL    HW126306   2.651   2.248   5.741
 8469SOL    HW226307   2.728   2.173   5.864
 8470SOL     OW26308   1.210   4.595   0.377
 8470SOL    HW126309   1.211   4.641   0.288
 8470SOL    HW226310   1.225   4.662   0.449
 8471SOL     OW26311   3.714   0.681   5.403
 8471SOL    HW126312   3.686   0.760   5.456
 8471SOL    HW226313   3.788   0.706   5.341
 8472SOL     OW26314   5.382   1.429   5.510
 8472SOL    HW126315   5.414   1.355   5.569
 8472SOL    HW226316   5.355   1.507   5.566
 8473SOL     OW26317   5.492   5.449   0.614
 8473SOL    HW126318   5.423   5.434   0.686
 8473SOL    HW226319   5.512   5.546   0.606
 8474SOL     OW26320   3.147   4.039   2.452
 8474SOL    HW126321   3.079   4.108   2.429
 8474SOL    HW226322   3.194   4.009   2.369
 8475SOL     OW26323   6.646   3.058   2.578
 8475SOL    HW126324   6.688   3.149   2.573
 8475SOL    HW226325   6.718   2.988   2.572
 8476SOL     OW26326   6.811   1.332   1.715
 8476SOL    HW126327   6.785   1.264   1.785
 8476SOL    HW226328   6.851   1.412   1.760
 8477SOL     OW26329   4.408   6.502   2.535
 8477SOL    HW126330   4.402   6.404   2.550
 8477SOL    HW226331   4.399   6.523   2.438
 8478SOL     OW26332   0.886   1.350   5.628
 8478SOL    HW126333   0.797   1.329   5.667
 8478SOL    HW226334   0.938   1.406   5.693
 8479SOL     OW26335   0.949   2.965   1.710
 8479SOL    HW126336   0.925   2.874   1.743
 8479SOL    HW226337   1.025   2.958   1.645
 8480SOL     OW26338   5.364   3.207   6.987
 8480SOL    HW126339   5.374   3.299   6.949
 8480SOL    HW226340   5.271   3.174   6.971
 8481SOL     OW26341   4.699   2.505   4.919
 8481SOL    HW126342   4.713   2.451   4.836
 8481SOL    HW226343   4.601   2.515   4.936
 8482SOL     OW26344   4.728   0.415   1.835
 8482SOL    HW126345   4.728   0.317   1.854
 8482SOL    HW226346   4.804   0.437   1.773
 8483SOL     OW26347   2.654   5.517   3.332
 8483SOL    HW126348   2.576   5.550   3.279
 8483SOL    HW226349   2.730   5.582   3.324
 8484SOL     OW26350   6.638   6.080   4.844
 8484SOL    HW126351   6.694   6.100   4.764
 8484SOL    HW226352   6.675   6.000   4.892
 8485SOL     OW26353   3.847   2.463   0.436
 8485SOL    HW126354   3.807   2.488   0.348
 8485SOL    HW226355   3.775   2.450   0.504
 8486SOL     OW26356   2.095   0.867   2.732
 8486SOL    HW126357   2.025   0.937   2.718
 8486SOL    HW226358   2.121   0.865   2.828
 8487SOL     OW26359   5.360   2.204   6.061
 8487SOL    HW126360   5.375   2.205   6.160
 8487SOL    HW226361   5.448   2.193   6.014
 8488SOL     OW26362   5.409   5.715   2.921
 8488SOL    HW126363   5.461   5.800   2.927
 8488SOL    HW226364   5.312   5.734   2.930
 8489SOL     OW26365   0.295   0.424   1.478
 8489SOL    HW126366   0.281   0.507   1.532
 8489SOL    HW226367   0.268   0.441   1.384
 8490SOL     OW26368   3.233   6.562   5.716
 8490SOL    HW126369   3.265   6.602   5.801
 8490SOL    HW226370   3.254   6.465   5.714
 8491SOL     OW26371   1.951   6.140   2.493
 8491SOL    HW126372   1.888   6.091   2.432
 8491SOL    HW226373   2.036   6.089   2.502
 8492SOL     OW26374   5.691   5.113   3.960
 8492SOL    HW126375   5.667   5.017   3.946
 8492SOL    HW226376   5.726   5.152   3.875
 8493SOL     OW26377   2.381   1.732   0.196
 8493SOL    HW126378   2.316   1.790   0.146
 8493SOL    HW226379   2.475   1.758   0.172
 8494SOL     OW26380   4.518   5.063   2.148
 8494SOL    HW126381   4.471   5.033   2.231
 8494SOL    HW226382   4.472   5.144   2.111
 8495SOL     OW26383   0.226   5.471   1.006
 8495SOL    HW126384   0.296   5.461   1.077
 8495SOL    HW226385   0.162   5.395   1.012
 8496SOL     OW26386   6.195   1.412   2.307
 8496SOL    HW126387   6.198   1.511   2.319
 8496SOL    HW226388   6.287   1.378   2.289
 8497SOL     OW26389   0.749   0.665   3.248
 8497SOL    HW126390   0.787   0.590   3.193
 8497SOL    HW226391   0.823   0.711   3.298
 8498SOL     OW26392   6.533   6.738   3.293
 8498SOL    HW126393   6.507   6.763   3.387
 8498SOL    HW226394   6.461   6.684   3.252
 8499SOL     OW26395   0.528   4.495   0.494
 8499SOL    HW126396   0.621   4.487   0.530
 8499SOL    HW226397   0.531   4.498   0.394
 8500SOL     OW26398   1.559   6.660   5.526
 8500SOL    HW126399   1.610   6.641   5.442
 8500SOL    HW226400   1.623   6.681   5.600
 8501SOL     OW26401   0.683   2.620   6.551
 8501SOL    HW126402   0.589   2.622   6.516
 8501SOL    HW226403   0.681   2.604   6.650
 8502SOL     OW26404   0.326   3.107   1.584
 8502SOL    HW126405   0.420   3.093   1.552
 8502SOL    HW226406   0.277   3.020   1.584
 8503SOL     OW26407   0.174   5.851   5.306
 8503SOL    HW126408   0.133   5.762   5.322
 8503SOL    HW226409   0.121   5.921   5.354
 8504SOL     OW26410   1.713   5.294   2.141
 8504SOL    HW126411   1.668   5.212   2.177
 8504SOL    HW226412   1.787   5.321   2.203
 8505SOL     OW26413   5.773   3.500   2.722
 8505SOL    HW126414   5.845   3.464   2.664
 8505SOL    HW226415   5.813   3.552   2.797
 8506SOL     OW26416   1.660   0.372   6.748
 8506SOL    HW126417   1.654   0.298   6.682
 8506SOL    HW226418   1.657   0.335   6.841
 8507SOL     OW26419   3.883   0.072   5.020
 8507SOL    HW126420   3.967   0.017   5.016
 8507SOL    HW226421   3.871   0.109   5.112
 8508SOL     OW26422   4.108   1.425   5.542
 8508SOL    HW126423   4.076   1.447   5.635
 8508SOL    HW226424   4.110   1.509   5.487
 8509SOL     OW26425   5.534   6.612   3.784
 8509SOL    HW126426   5.589   6.612   3.701
 8509SOL    HW226427   5.455   6.551   3.771
 8510SOL     OW26428   5.172   3.776   3.218
 8510SOL    HW126429   5.096   3.775   3.153
 8510SOL    HW226430   5.249   3.826   3.178
 8511SOL     OW26431   6.376   3.133   2.521
 8511SOL    HW126432   6.447   3.070   2.552
 8511SOL    HW226433   6.381   3.143   2.422
 8512SOL     OW26434   2.649   6.563   2.781
 8512SOL    HW126435   2.602   6.582   2.695
 8512SOL    HW226436   2.589   6.510   2.841
 8513SOL     OW26437   0.290   5.748   1.294
 8513SOL    HW126438   0.201   5.749   1.250
 8513SOL    HW226439   0.301   5.664   1.346
 8514SOL     OW26440   2.996   0.390   3.688
 8514SOL    HW126441   2.979   0.294   3.666
 8514SOL    HW226442   2.941   0.416   3.767
 8515SOL     OW26443   4.794   2.403   0.851
 8515SOL    HW126444   4.816   2.413   0.754
 8515SOL    HW226445   4.817   2.487   0.899
 8516SOL     OW26446   0.002   1.972   2.359
 8516SOL    HW126447   6.994   1.877   2.359
 8516SOL    HW226448   6.954   2.032   2.391
 8517SOL     OW26449   0.558   2.667   5.824
 8517SOL    HW126450   0.611   2.637   5.745
 8517SOL    HW226451   0.583   2.761   5.846
 8518SOL     OW26452   4.178   4.410   0.397
 8518SOL    HW126453   4.120   4.439   0.320
 8518SOL    HW226454   4.122   4.404   0.480
 8519SOL     OW26455   1.821   5.778   1.829
 8519SOL    HW126456   1.742   5.837   1.841
 8519SOL    HW226457   1.901   5.819   1.874
 8520SOL     OW26458   3.840   1.074   0.650
 8520SOL    HW126459   3.836   1.090   0.551
 8520SOL    HW226460   3.813   1.157   0.698
 8521SOL     OW26461   1.888   5.519   5.246
 8521SOL    HW126462   1.874   5.540   5.149
 8521SOL    HW226463   1.876   5.602   5.300
 8522SOL     OW26464   1.525   5.409   1.961
 8522SOL    HW126465   1.593   5.374   2.025
 8522SOL    HW226466   1.463   5.334   1.935
 8523SOL     OW26467   2.757   0.017   6.177
 8523SOL    HW126468   2.743   6.951   6.218
 8523SOL    HW226469   2.680   0.076   6.199
 8524SOL     OW26470   1.132   2.747   4.465
 8524SOL    HW126471   1.184   2.823   4.426
 8524SOL    HW226472   1.185   2.705   4.538
 8525SOL     OW26473   6.301   3.919   2.906
 8525SOL    HW126474   6.284   3.823   2.927
 8525SOL    HW226475   6.385   3.928   2.854
 8526SOL     OW26476   2.562   3.660   1.611
 8526SOL    HW126477   2.630   3.712   1.663
 8526SOL    HW226478   2.552   3.569   1.651
 8527SOL     OW26479   4.102   0.572   4.868
 8527SOL    HW126480   4.075   0.476   4.879
 8527SOL    HW226481   4.162   0.598   4.944
 8528SOL     OW26482   4.903   3.549   5.983
 8528SOL    HW126483   4.847   3.631   5.996
 8528SOL    HW226484   4.984   3.554   6.042
 8529SOL     OW26485   1.172   6.696   0.053
 8529SOL    HW126486   1.102   6.629   0.030
 8529SOL    HW226487   1.129   6.785   0.071
 8530SOL     OW26488   0.867   4.993   5.213
 8530SOL    HW126489   0.949   4.959   5.167
 8530SOL    HW226490   0.817   4.916   5.252
 8531SOL     OW26491   5.480   4.144   3.313
 8531SOL    HW126492   5.445   4.236   3.326
 8531SOL    HW226493   5.549   4.144   3.241
 8532SOL     OW26494   4.260   4.722   4.828
 8532SOL    HW126495   4.252   4.796   4.895
 8532SOL    HW226496   4.324   4.653   4.862
 8533SOL     OW26497   2.001   0.737   5.496
 8533SOL    HW126498   1.908   0.719   5.528
 8533SOL    HW226499   2.001   0.813   5.432
 8534SOL     OW26500   0.058   5.203   2.590
 8534SOL    HW126501   0.000   5.271   2.544
 8534SOL    HW226502   0.001   5.129   2.626
 8535SOL     OW26503   0.984   2.069   4.779
 8535SOL    HW126504   0.992   2.060   4.680
 8535SOL    HW226505   0.900   2.118   4.802
 8536SOL     OW26506   6.076   2.772   4.896
 8536SOL    HW126507   6.050   2.688   4.944
 8536SOL    HW226508   6.149   2.752   4.830
 8537SOL     OW26509   5.907   1.342   1.055
 8537SOL    HW126510   5.932   1.266   0.995
 8537SOL    HW226511   5.990   1.391   1.083
 8538SOL     OW26512   0.596   0.507   5.054
 8538SOL    HW126513   0.649   0.574   5.002
 8538SOL    HW226514   0.499   0.519   5.036
 8539SOL     OW26515   6.229   2.719   2.559
 8539SOL    HW126516   6.216   2.734   2.461
 8539SOL    HW226517   6.312   2.666   2.575
 8540SOL     OW26518   3.768   1.764   0.859
 8540SOL    HW126519   3.739   1.723   0.945
 8540SOL    HW226520   3.782   1.862   0.872
 8541SOL     OW26521   2.979   1.089   5.564
 8541SOL    HW126522   3.014   1.181   5.576
 8541SOL    HW226523   3.044   1.023   5.603
 8542SOL     OW26524   3.381   4.419   6.550
 8542SOL    HW126525   3.404   4.475   6.630
 8542SOL    HW226526   3.406   4.468   6.466
 8543SOL     OW26527   2.908   1.612   5.463
 8543SOL    HW126528   2.838   1.567   5.406
 8543SOL    HW226529   2.864   1.657   5.540
 8544SOL     OW26530   5.231   3.352   5.309
 8544SOL    HW126531   5.193   3.321   5.396
 8544SOL    HW226532   5.163   3.340   5.237
 8545SOL     OW26533   3.229   6.980   4.847
 8545SOL    HW126534   3.207   0.045   4.808
 8545SOL    HW226535   3.157   6.953   4.911
 8546SOL     OW26536   5.250   0.768   1.234
 8546SOL    HW126537   5.304   0.832   1.288
 8546SOL    HW226538   5.163   0.750   1.280
 8547SOL     OW26539   6.672   0.292   5.464
 8547SOL    HW126540   6.765   0.265   5.437
 8547SOL    HW226541   6.677   0.353   5.543
 8548SOL     OW26542   0.499   3.114   5.272
 8548SOL    HW126543   0.554   3.190   5.305
 8548SOL    HW226544   0.548   3.028   5.287
 8549SOL     OW26545   0.895   2.064   3.842
 8549SOL    HW126546   0.959   1.995   3.810
 8549SOL    HW226547   0.904   2.146   3.785
 8550SOL     OW26548   0.551   4.003   6.321
 8550SOL    HW126549   0.647   3.999   6.293
 8550SOL    HW226550   0.544   4.038   6.414
 8551SOL     OW26551   2.029   2.283   6.886
 8551SOL    HW126552   2.094   2.226   6.936
 8551SOL    HW226553   1.983   2.346   6.949
 8552SOL     OW26554   3.311   0.511   2.127
 8552SOL    HW126555   3.313   0.556   2.038
 8552SOL    HW226556   3.383   0.441   2.130
 8553SOL     OW26557   3.645   4.254   0.156
 8553SOL    HW126558   3.658   4.300   0.068
 8553SOL    HW226559   3.707   4.176   0.163
 8554SOL     OW26560   0.919   6.691   1.336
 8554SOL    HW126561   0.944   6.657   1.245
 8554SOL    HW226562   0.844   6.756   1.327
 8555SOL     OW26563   4.336   2.016   2.982
 8555SOL    HW126564   4.308   2.003   3.077
 8555SOL    HW226565   4.420   1.964   2.964
 8556SOL     OW26566   1.340   6.128   5.934
 8556SOL    HW126567   1.414   6.182   5.894
 8556SOL    HW226568   1.326   6.045   5.880
 8557SOL     OW26569   6.676   0.639   0.644
 8557SOL    HW126570   6.645   0.728   0.613
 8557SOL    HW226571   6.706   0.645   0.739
 8558SOL     OW26572   1.965   4.531   3.228
 8558SOL    HW126573   2.064   4.517   3.217
 8558SOL    HW226574   1.949   4.616   3.279
 8559SOL     OW26575   0.862   6.774   3.052
 8559SOL    HW126576   0.829   6.747   3.142
 8559SOL    HW226577   0.812   6.723   2.982
 8560SOL     OW26578   1.222   5.518   1.704
 8560SOL    HW126579   1.281   5.572   1.763
 8560SOL    HW226580   1.150   5.576   1.666
 8561SOL     OW26581   3.902   0.160   3.139
 8561SOL    HW126582   3.857   0.112   3.064
 8561SOL    HW226583   3.951   0.240   3.103
 8562SOL     OW26584   4.022   0.755   6.735
 8562SOL    HW126585   4.071   0.691   6.794
 8562SOL    HW226586   4.015   0.844   6.781
 8563SOL     OW26587   1.286   5.871   2.258
 8563SOL    HW126588   1.350   5.921   2.200
 8563SOL    HW226589   1.279   5.776   2.227
 8564SOL     OW26590   3.885   5.821   6.537
 8564SOL    HW126591   3.912   5.873   6.455
 8564SOL    HW226592   3.951   5.747   6.551
 8565SOL     OW26593   3.645   5.277   1.303
 8565SOL    HW126594   3.678   5.253   1.212
 8565SOL    HW226595   3.714   5.331   1.351
 8566SOL     OW26596   2.582   0.696   2.823
 8566SOL    HW126597   2.650   0.729   2.888
 8566SOL    HW226598   2.490   0.716   2.858
 8567SOL     OW26599   1.637   2.252   1.938
 8567SOL    HW126600   1.585   2.172   1.965
 8567SOL    HW226601   1.583   2.306   1.872
 8568SOL     OW26602   6.835   1.355   0.246
 8568SOL    HW126603   6.781   1.329   0.165
 8568SOL    HW226604   6.794   1.435   0.289
 8569SOL     OW26605   4.651   1.878   5.977
 8569SOL    HW126606   4.562   1.881   6.022
 8569SOL    HW226607   4.698   1.965   5.989
 8570SOL     OW26608   1.682   1.757   4.465
 8570SOL    HW126609   1.748   1.756   4.540
 8570SOL    HW226610   1.590   1.770   4.501
 8571SOL     OW26611   1.088   1.086   4.617
 8571SOL    HW126612   1.057   1.068   4.711
 8571SOL    HW226613   1.180   1.048   4.605
 8572SOL     OW26614   2.235   4.201   5.980
 8572SOL    HW126615   2.238   4.153   5.892
 8572SOL    HW226616   2.146   4.188   6.022
 8573SOL     OW26617   2.690   6.083   6.624
 8573SOL    HW126618   2.766   6.122   6.676
 8573SOL    HW226619   2.611   6.070   6.684
 8574SOL     OW26620   6.170   6.965   6.197
 8574SOL    HW126621   6.230   6.993   6.272
 8574SOL    HW226622   6.214   6.987   6.110
 8575SOL     OW26623   3.337   0.814   2.265
 8575SOL    HW126624   3.339   0.815   2.365
 8575SOL    HW226625   3.306   0.725   2.234
 8576SOL     OW26626   1.533   4.457   4.409
 8576SOL    HW126627   1.511   4.359   4.414
 8576SOL    HW226628   1.631   4.468   4.391
 8577SOL     OW26629   1.608   1.043   5.908
 8577SOL    HW126630   1.619   1.118   5.973
 8577SOL    HW226631   1.692   0.988   5.906
 8578SOL     OW26632   6.004   6.060   5.896
 8578SOL    HW126633   6.001   6.093   5.991
 8578SOL    HW226634   6.073   5.988   5.889
 8579SOL     OW26635   2.042   6.397   2.272
 8579SOL    HW126636   2.140   6.389   2.254
 8579SOL    HW226637   2.021   6.359   2.362
 8580SOL     OW26638   1.060   6.822   0.680
 8580SOL    HW126639   0.972   6.815   0.725
 8580SOL    HW226640   1.127   6.863   0.742
 8581SOL     OW26641   3.846   4.837   1.382
 8581SOL    HW126642   3.893   4.805   1.300
 8581SOL    HW226643   3.910   4.887   1.440
 8582SOL     OW26644   4.844   4.366   5.535
 8582SOL    HW126645   4.801   4.288   5.491
 8582SOL    HW226646   4.909   4.408   5.472
 8583SOL     OW26647   3.804   6.991   3.315
 8583SOL    HW126648   3.899   6.960   3.307
 8583SOL    HW226649   3.799   0.065   3.295
 8584SOL     OW26650   0.050   0.262   4.901
 8584SOL    HW126651   7.020   0.325   4.958
 8584SOL    HW226652   0.041   0.287   4.805
 8585SOL     OW26653   5.709   1.458   0.902
 8585SOL    HW126654   5.661   1.386   0.852
 8585SOL    HW226655   5.784   1.417   0.954
 8586SOL     OW26656   4.824   6.661   1.233
 8586SOL    HW126657   4.878   6.600   1.291
 8586SOL    HW226658   4.745   6.612   1.198
 8587SOL     OW26659   1.052   1.466   4.811
 8587SOL    HW126660   0.985   1.487   4.740
 8587SOL    HW226661   1.056   1.542   4.876
 8588SOL     OW26662   4.331   1.076   6.887
 8588SOL    HW126663   4.313   1.082   6.788
 8588SOL    HW226664   4.399   1.144   6.913
 8589SOL     OW26665   6.662   2.949   5.033
 8589SOL    HW126666   6.637   3.028   4.977
 8589SOL    HW226667   6.759   2.928   5.021
 8590SOL     OW26668   6.973   0.362   2.808
 8590SOL    HW126669   0.014   0.411   2.866
 8590SOL    HW226670   7.017   0.279   2.772
 8591SOL     OW26671   6.828   4.481   0.252
 8591SOL    HW126672   6.741   4.436   0.230
 8591SOL    HW226673   6.884   4.486   0.169
 8592SOL     OW26674   7.012   3.044   0.088
 8592SOL    HW126675   0.062   3.111   0.080
 8592SOL    HW226676   0.025   2.955   0.115
 8593SOL     OW26677   3.444   1.084   6.841
 8593SOL    HW126678   3.525   1.057   6.789
 8593SOL    HW226679   3.363   1.043   6.799
 8594SOL     OW26680   6.245   2.839   5.738
 8594SOL    HW126681   6.341   2.833   5.768
 8594SOL    HW226682   6.192   2.888   5.807
 8595SOL     OW26683   6.051   0.600   3.752
 8595SOL    HW126684   6.010   0.647   3.673
 8595SOL    HW226685   6.058   0.664   3.829
 8596SOL     OW26686   1.168   3.993   3.277
 8596SOL    HW126687   1.091   4.047   3.244
 8596SOL    HW226688   1.181   3.913   3.218
 8597SOL     OW26689   5.806   2.139   0.849
 8597SOL    HW126690   5.880   2.106   0.907
 8597SOL    HW226691   5.718   2.121   0.893
 8598SOL     OW26692   5.405   0.321   5.572
 8598SOL    HW126693   5.321   0.359   5.609
 8598SOL    HW226694   5.480   0.387   5.584
 8599SOL     OW26695   1.233   2.787   4.068
 8599SOL    HW126696   1.277   2.734   3.997
 8599SOL    HW226697   1.284   2.778   4.154
 8600SOL     OW26698   5.265   3.949   0.539
 8600SOL    HW126699   5.270   4.041   0.500
 8600SOL    HW226700   5.302   3.883   0.473
 8601SOL     OW26701   6.926   1.165   3.772
 8601SOL    HW126702   6.991   1.096   3.802
 8601SOL    HW226703   6.905   1.227   3.847
 8602SOL     OW26704   2.362   6.340   3.210
 8602SOL    HW126705   2.285   6.341   3.147
 8602SOL    HW226706   2.447   6.332   3.158
 8603SOL     OW26707   5.595   0.923   6.530
 8603SOL    HW126708   5.602   0.994   6.600
 8603SOL    HW226709   5.579   0.965   6.440
 8604SOL     OW26710   0.581   2.493   6.048
 8604SOL    HW126711   0.603   2.538   5.961
 8604SOL    HW226712   0.659   2.499   6.109
 8605SOL     OW26713   1.010   4.263   4.180
 8605SOL    HW126714   1.039   4.323   4.255
 8605SOL    HW226715   0.910   4.256   4.180
 8606SOL     OW26716   2.947   1.733   0.098
 8606SOL    HW126717   2.948   1.795   0.020
 8606SOL    HW226718   2.965   1.640   0.066
 8607SOL     OW26719   2.545   4.792   0.061
 8607SOL    HW126720   2.493   4.710   0.035
 8607SOL    HW226721   2.562   4.848   7.004
 8608SOL     OW26722   2.266   5.002   2.165
 8608SOL    HW126723   2.357   4.996   2.125
 8608SOL    HW226724   2.263   5.078   2.230
 8609SOL     OW26725   4.973   0.799   4.068
 8609SOL    HW126726   4.906   0.728   4.087
 8609SOL    HW226727   5.006   0.789   3.974
 8610SOL     OW26728   0.036   6.795   3.348
 8610SOL    HW126729   0.071   6.709   3.310
 8610SOL    HW226730   0.082   6.872   3.304
 8611SOL     OW26731   2.598   1.436   4.000
 8611SOL    HW126732   2.681   1.474   3.959
 8611SOL    HW226733   2.532   1.510   4.014
 8612SOL     OW26734   3.018   3.221   1.869
 8612SOL    HW126735   2.938   3.281   1.870
 8612SOL    HW226736   3.002   3.145   1.806
 8613SOL     OW26737   2.665   2.310   1.891
 8613SOL    HW126738   2.749   2.364   1.891
 8613SOL    HW226739   2.687   2.215   1.916
 8614SOL     OW26740   1.489   2.288   3.183
 8614SOL    HW126741   1.392   2.264   3.180
 8614SOL    HW226742   1.532   2.239   3.259
 8615SOL     OW26743   4.642   1.624   5.134
 8615SOL    HW126744   4.675   1.715   5.110
 8615SOL    HW226745   4.556   1.607   5.087
 8616SOL     OW26746   2.371   4.735   1.773
 8616SOL    HW126747   2.429   4.804   1.731
 8616SOL    HW226748   2.427   4.669   1.823
 8617SOL     OW26749   5.771   0.708   3.913
 8617SOL    HW126750   5.866   0.737   3.922
 8617SOL    HW226751   5.726   0.710   4.002
 8618SOL     OW26752   6.570   4.165   0.800
 8618SOL    HW126753   6.657   4.126   0.770
 8618SOL    HW226754   6.586   4.252   0.846
 8619SOL     OW26755   4.463   5.117   3.257
 8619SOL    HW126756   4.413   5.194   3.298
 8619SOL    HW226757   4.532   5.085   3.321
 8620SOL     OW26758   1.643   0.196   4.720
 8620SOL    HW126759   1.687   0.174   4.806
 8620SOL    HW226760   1.562   0.252   4.737
 8621SOL     OW26761   4.845   3.007   2.237
 8621SOL    HW126762   4.818   2.922   2.283
 8621SOL    HW226763   4.805   3.009   2.146
 8622SOL     OW26764   5.810   5.192   1.584
 8622SOL    HW126765   5.780   5.107   1.628
 8622SOL    HW226766   5.909   5.202   1.593
 8623SOL     OW26767   0.883   3.604   4.911
 8623SOL    HW126768   0.939   3.563   4.983
 8623SOL    HW226769   0.840   3.688   4.946
 8624SOL     OW26770   3.678   3.631   6.202
 8624SOL    HW126771   3.736   3.570   6.149
 8624SOL    HW226772   3.606   3.669   6.144
 8625SOL     OW26773   4.233   0.972   6.348
 8625SOL    HW126774   4.144   1.015   6.329
 8625SOL    HW226775   4.218   0.884   6.393
 8626SOL     OW26776   3.750   3.025   6.848
 8626SOL    HW126777   3.690   3.101   6.875
 8626SOL    HW226778   3.756   2.959   6.922
 8627SOL     OW26779   2.454   1.824   2.748
 8627SOL    HW126780   2.489   1.796   2.658
 8627SOL    HW226781   2.494   1.912   2.773
 8628SOL     OW26782   6.209   0.192   0.155
 8628SOL    HW126783   6.169   0.220   0.243
 8628SOL    HW226784   6.284   0.254   0.131
 8629SOL     OW26785   0.841   6.271   5.314
 8629SOL    HW126786   0.742   6.262   5.321
 8629SOL    HW226787   0.863   6.360   5.273
 8630SOL     OW26788   4.992   3.723   3.897
 8630SOL    HW126789   4.956   3.651   3.837
 8630SOL    HW226790   5.069   3.768   3.853
 8631SOL     OW26791   1.224   6.286   6.134
 8631SOL    HW126792   1.141   6.333   6.105
 8631SOL    HW226793   1.238   6.204   6.079
 8632SOL     OW26794   3.766   4.075   5.093
 8632SOL    HW126795   3.805   4.148   5.150
 8632SOL    HW226796   3.667   4.080   5.096
 8633SOL     OW26797   5.752   3.464   5.787
 8633SOL    HW126798   5.660   3.471   5.748
 8633SOL    HW226799   5.765   3.537   5.854
 8634SOL     OW26800   5.326   4.788   0.201
 8634SOL    HW126801   5.314   4.882   0.233
 8634SOL    HW226802   5.242   4.736   0.215
 8635SOL     OW26803   6.091   2.141   6.614
 8635SOL    HW126804   6.063   2.156   6.519
 8635SOL    HW226805   6.046   2.208   6.673
 8636SOL     OW26806   4.378   5.694   0.632
 8636SOL    HW126807   4.305   5.626   0.632
 8636SOL    HW226808   4.465   5.650   0.609
 8637SOL     OW26809   2.122   1.369   6.193
 8637SOL    HW126810   2.118   1.338   6.288
 8637SOL    HW226811   2.101   1.466   6.189
 8638SOL     OW26812   3.856   2.523   5.335
 8638SOL    HW126813   3.944   2.517   5.288
 8638SOL    HW226814   3.843   2.442   5.393
 8639SOL     OW26815   4.380   3.900   6.845
 8639SOL    HW126816   4.332   3.833   6.902
 8639SOL    HW226817   4.316   3.944   6.783
 8640SOL     OW26818   4.281   3.340   0.881
 8640SOL    HW126819   4.276   3.389   0.968
 8640SOL    HW226820   4.205   3.275   0.875
 8641SOL     OW26821   4.237   4.771   4.147
 8641SOL    HW126822   4.313   4.837   4.146
 8641SOL    HW226823   4.260   4.693   4.089
 8642SOL     OW26824   0.402   0.018   3.060
 8642SOL    HW126825   0.426   0.114   3.073
 8642SOL    HW226826   0.477   6.996   3.013
 8643SOL     OW26827   2.164   0.373   0.437
 8643SOL    HW126828   2.232   0.445   0.447
 8643SOL    HW226829   2.203   0.296   0.387
 8644SOL     OW26830   6.651   2.555   6.374
 8644SOL    HW126831   6.681   2.505   6.293
 8644SOL    HW226832   6.588   2.497   6.427
 8645SOL     OW26833   4.787   5.453   1.499
 8645SOL    HW126834   4.876   5.409   1.486
 8645SOL    HW226835   4.746   5.471   1.409
 8646SOL     OW26836   0.558   2.020   6.988
 8646SOL    HW126837   0.477   2.063   6.947
 8646SOL    HW226838   0.603   2.086   0.025
 8647SOL     OW26839   2.650   5.304   0.417
 8647SOL    HW126840   2.725   5.239   0.432
 8647SOL    HW226841   2.608   5.286   0.328
 8648SOL     OW26842   6.166   6.251   0.939
 8648SOL    HW126843   6.244   6.312   0.949
 8648SOL    HW226844   6.162   6.189   1.018
 8649SOL     OW26845   5.618   6.872   0.427
 8649SOL    HW126846   5.706   6.860   0.383
 8649SOL    HW226847   5.588   6.967   0.418
 8650SOL     OW26848   1.710   6.813   4.377
 8650SOL    HW126849   1.760   6.781   4.296
 8650SOL    HW226850   1.770   6.867   4.435
 8651SOL     OW26851   2.851   1.449   0.991
 8651SOL    HW126852   2.819   1.544   0.981
 8651SOL    HW226853   2.929   1.447   1.053
 8652SOL     OW26854   1.084   4.635   3.625
 8652SOL    HW126855   1.181   4.657   3.616
 8652SOL    HW226856   1.052   4.592   3.541
 8653SOL     OW26857   6.590   1.820   5.389
 8653SOL    HW126858   6.558   1.794   5.480
 8653SOL    HW226859   6.516   1.866   5.340
 8654SOL     OW26860   0.973   5.023   0.965
 8654SOL    HW126861   0.933   4.979   0.883
 8654SOL    HW226862   1.052   4.970   0.995
 8655SOL     OW26863   6.066   0.957   5.336
 8655SOL    HW126864   6.085   0.899   5.257
 8655SOL    HW226865   6.058   1.052   5.307
 8656SOL     OW26866   5.625   0.667   2.093
 8656SOL    HW126867   5.582   0.711   2.015
 8656SOL    HW226868   5.652   0.736   2.160
 8657SOL     OW26869   5.634   5.960   0.164
 8657SOL    HW126870   5.657   6.040   0.109
 8657SOL    HW226871   5.714   5.900   0.170
 8658SOL     OW26872   6.283   5.722   0.850
 8658SOL    HW126873   6.268   5.818   0.875
 8658SOL    HW226874   6.351   5.716   0.777
 8659SOL     OW26875   4.384   2.410   2.770
 8659SOL    HW126876   4.454   2.360   2.720
 8659SOL    HW226877   4.382   2.378   2.865
 8660SOL     OW26878   0.035   2.490   2.477
 8660SOL    HW126879   0.127   2.518   2.504
 8660SOL    HW226880   7.003   2.474   2.558
 8661SOL     OW26881   5.676   4.051   2.199
 8661SOL    HW126882   5.628   4.028   2.114
 8661SOL    HW226883   5.730   3.972   2.229
 8662SOL     OW26884   3.769   6.227   2.264
 8662SOL    HW126885   3.844   6.293   2.256
 8662SOL    HW226886   3.687   6.273   2.299
 8663SOL     OW26887   2.597   5.097   2.638
 8663SOL    HW126888   2.655   5.051   2.704
 8663SOL    HW226889   2.632   5.189   2.620
 8664SOL     OW26890   2.580   5.424   2.706
 8664SOL    HW126891   2.488   5.412   2.671
 8664SOL    HW226892   2.644   5.369   2.653
 8665SOL     OW26893   6.346   5.918   4.409
 8665SOL    HW126894   6.350   5.934   4.508
 8665SOL    HW226895   6.300   5.832   4.391
 8666SOL     OW26896   5.713   0.732   4.527
 8666SOL    HW126897   5.626   0.778   4.543
 8666SOL    HW226898   5.712   0.688   4.437
 8667SOL     OW26899   5.220   1.519   4.612
 8667SOL    HW126900   5.255   1.436   4.656
 8667SOL    HW226901   5.253   1.599   4.661
 8668SOL     OW26902   5.090   3.040   4.874
 8668SOL    HW126903   5.188   3.040   4.895
 8668SOL    HW226904   5.038   3.041   4.959
 8669SOL     OW26905   6.943   6.433   6.337
 8669SOL    HW126906   6.892   6.432   6.423
 8669SOL    HW226907   6.922   6.350   6.285
 8670SOL     OW26908   4.717   5.062   5.841
 8670SOL    HW126909   4.751   5.129   5.775
 8670SOL    HW226910   4.745   4.970   5.813
 8671SOL     OW26911   0.984   1.829   2.534
 8671SOL    HW126912   1.021   1.762   2.469
 8671SOL    HW226913   0.933   1.781   2.606
 8672SOL     OW26914   0.625   0.370   3.495
 8672SOL    HW126915   0.640   0.451   3.553
 8672SOL    HW226916   0.609   0.399   3.401
 8673SOL     OW26917   6.890   1.696   6.820
 8673SOL    HW126918   6.819   1.737   6.762
 8673SOL    HW226919   6.889   1.742   6.909
 8674SOL     OW26920   6.741   4.643   3.016
 8674SOL    HW126921   6.737   4.637   2.916
 8674SOL    HW226922   6.832   4.674   3.044
 8675SOL     OW26923   4.225   1.099   5.808
 8675SOL    HW126924   4.127   1.121   5.816
 8675SOL    HW226925   4.253   1.108   5.713
 8676SOL     OW26926   5.323   0.971   1.440
 8676SOL    HW126927   5.346   1.051   1.383
 8676SOL    HW226928   5.225   0.968   1.455
 8677SOL     OW26929   1.689   5.926   5.867
 8677SOL    HW126930   1.693   6.016   5.823
 8677SOL    HW226931   1.773   5.911   5.920
 8678SOL     OW26932   0.289   6.926   0.423
 8678SOL    HW126933   0.378   6.901   0.461
 8678SOL    HW226934   0.302   6.989   0.347
 8679SOL     OW26935   2.022   0.846   3.975
 8679SOL    HW126936   2.115   0.831   4.008
 8679SOL    HW226937   1.968   0.764   3.989
 8680SOL     OW26938   6.204   2.577   6.456
 8680SOL    HW126939   6.179   2.488   6.418
 8680SOL    HW226940   6.233   2.566   6.551
 8681SOL     OW26941   4.440   5.203   1.076
 8681SOL    HW126942   4.401   5.257   1.000
 8681SOL    HW226943   4.532   5.174   1.051
 8682SOL     OW26944   6.855   0.121   1.135
 8682SOL    HW126945   6.805   0.198   1.097
 8682SOL    HW226946   6.904   0.150   1.218
 8683SOL     OW26947   1.849   2.782   5.003
 8683SOL    HW126948   1.838   2.793   4.905
 8683SOL    HW226949   1.903   2.700   5.022
 8684SOL     OW26950   6.997   3.708   5.029
 8684SOL    HW126951   0.060   3.721   5.077
 8684SOL    HW226952   6.924   3.697   5.095
 8685SOL     OW26953   5.411   2.990   6.569
 8685SOL    HW126954   5.345   2.943   6.627
 8685SOL    HW226955   5.501   2.989   6.613
 8686SOL     OW26956   5.903   6.863   2.465
 8686SOL    HW126957   5.935   6.801   2.394
 8686SOL    HW226958   5.982   6.899   2.515
 8687SOL     OW26959   6.239   4.979   3.061
 8687SOL    HW126960   6.156   5.034   3.066
 8687SOL    HW226961   6.224   4.891   3.107
 8688SOL     OW26962   1.713   4.058   6.908
 8688SOL    HW126963   1.627   4.103   6.934
 8688SOL    HW226964   1.692   3.975   6.856
 8689SOL     OW26965   5.089   3.296   0.511
 8689SOL    HW126966   5.042   3.384   0.503
 8689SOL    HW226967   5.112   3.262   0.419
 8690SOL     OW26968   0.748   3.054   2.781
 8690SOL    HW126969   0.845   3.068   2.799
 8690SOL    HW226970   0.694   3.106   2.848
 8691SOL     OW26971   3.007   1.421   5.070
 8691SOL    HW126972   2.942   1.417   5.146
 8691SOL    HW226973   3.088   1.474   5.098
 8692SOL     OW26974   3.635   0.919   5.524
 8692SOL    HW126975   3.705   0.956   5.584
 8692SOL    HW226976   3.642   0.961   5.434
 8693SOL     OW26977   0.123   1.669   6.270
 8693SOL    HW126978   0.043   1.682   6.330
 8693SOL    HW226979   0.132   1.572   6.247
 8694SOL     OW26980   5.949   2.262   4.790
 8694SOL    HW126981   5.896   2.180   4.769
 8694SOL    HW226982   5.985   2.301   4.705
 8695SOL     OW26983   3.864   2.848   6.060
 8695SOL    HW126984   3.806   2.773   6.092
 8695SOL    HW226985   3.835   2.933   6.103
 8696SOL     OW26986   2.679   5.909   5.248
 8696SOL    HW126987   2.676   5.887   5.150
 8696SOL    HW226988   2.629   5.840   5.299
 8697SOL     OW26989   0.949   4.227   6.050
 8697SOL    HW126990   0.971   4.288   5.974
 8697SOL    HW226991   0.938   4.133   6.016
 8698SOL     OW26992   5.236   5.898   5.733
 8698SOL    HW126993   5.280   5.948   5.808
 8698SOL    HW226994   5.255   5.944   5.647
 8699SOL     OW26995   2.055   2.928   5.988
 8699SOL    HW126996   2.105   2.842   6.000
 8699SOL    HW226997   2.006   2.925   5.901
 8700SOL     OW26998   1.526   1.157   5.687
 8700SOL    HW126999   1.550   1.093   5.759
 8700SOL    HW227000   1.496   1.106   5.606
 8701SOL     OW27001   2.253   1.232   0.005
 8701SOL    HW127002   2.203   1.268   6.951
 8701SOL    HW227003   2.327   1.295   0.031
 8702SOL     OW27004   5.074   5.355   1.983
 8702SOL    HW127005   4.976   5.374   1.992
 8702SOL    HW227006   5.113   5.336   2.073
 8703SOL     OW27007   3.466   4.900   6.784
 8703SOL    HW127008   3.405   4.978   6.793
 8703SOL    HW227009   3.540   4.906   6.852
 8704SOL     OW27010   6.900   3.280   3.815
 8704SOL    HW127011   6.853   3.205   3.768
 8704SOL    HW227012   6.933   3.346   3.747
 8705SOL     OW27013   4.389   1.969   6.455
 8705SOL    HW127014   4.366   2.065   6.468
 8705SOL    HW227015   4.489   1.958   6.458
 8706SOL     OW27016   5.532   2.485   0.113
 8706SOL    HW127017   5.492   2.559   0.167
 8706SOL    HW227018   5.470   2.406   0.112
 8707SOL     OW27019   0.997   2.591   3.724
 8707SOL    HW127020   1.086   2.637   3.720
 8707SOL    HW227021   0.925   2.658   3.740
 8708SOL     OW27022   4.277   1.558   4.397
 8708SOL    HW127023   4.289   1.505   4.481
 8708SOL    HW227024   4.296   1.499   4.318
 8709SOL     OW27025   6.683   0.114   6.980
 8709SOL    HW127026   6.679   0.171   6.899
 8709SOL    HW227027   6.751   0.042   6.967
 8710SOL     OW27028   1.768   2.428   3.672
 8710SOL    HW127029   1.827   2.346   3.672
 8710SOL    HW227030   1.756   2.459   3.577
 8711SOL     OW27031   1.314   0.285   1.809
 8711SOL    HW127032   1.307   0.321   1.902
 8711SOL    HW227033   1.347   0.190   1.813
 8712SOL     OW27034   2.935   1.874   4.356
 8712SOL    HW127035   2.979   1.786   4.338
 8712SOL    HW227036   2.997   1.932   4.408
 8713SOL     OW27037   0.162   4.241   1.201
 8713SOL    HW127038   0.218   4.186   1.139
 8713SOL    HW227039   0.153   4.333   1.163
 8714SOL     OW27040   0.624   6.554   0.014
 8714SOL    HW127041   0.684   6.495   0.067
 8714SOL    HW227042   0.609   6.515   6.948
 8715SOL     OW27043   3.420   1.738   0.044
 8715SOL    HW127044   3.519   1.744   0.033
 8715SOL    HW227045   3.376   1.803   7.006
 8716SOL     OW27046   6.502   6.521   0.794
 8716SOL    HW127047   6.587   6.471   0.805
 8716SOL    HW227048   6.474   6.520   0.698
 8717SOL     OW27049   2.413   3.697   6.033
 8717SOL    HW127050   2.399   3.775   5.972
 8717SOL    HW227051   2.508   3.694   6.063
 8718SOL     OW27052   1.428   2.340   6.496
 8718SOL    HW127053   1.521   2.317   6.465
 8718SOL    HW227054   1.419   2.439   6.504
 8719SOL     OW27055   4.143   1.208   0.259
 8719SOL    HW127056   4.087   1.149   0.200
 8719SOL    HW227057   4.091   1.230   0.342
 8720SOL     OW27058   6.980   5.453   5.801
 8720SOL    HW127059   0.023   5.480   5.870
 8720SOL    HW227060   6.891   5.489   5.825
 8721SOL     OW27061   6.111   0.298   0.368
 8721SOL    HW127062   6.091   0.218   0.425
 8721SOL    HW227063   6.109   0.381   0.424
 8722SOL     OW27064   3.430   0.890   0.390
 8722SOL    HW127065   3.386   0.845   0.468
 8722SOL    HW227066   3.489   0.964   0.423
 8723SOL     OW27067   5.650   6.801   2.492
 8723SOL    HW127068   5.746   6.826   2.484
 8723SOL    HW227069   5.592   6.877   2.462
 8724SOL     OW27070   5.669   0.528   4.364
 8724SOL    HW127071   5.648   0.431   4.355
 8724SOL    HW227072   5.659   0.573   4.275
 8725SOL     OW27073   0.571   6.285   4.562
 8725SOL    HW127074   0.572   6.210   4.496
 8725SOL    HW227075   0.477   6.304   4.590
 8726SOL     OW27076   6.927   1.117   0.665
 8726SOL    HW127077   6.993   1.047   0.691
 8726SOL    HW227078   6.962   1.207   0.692
 8727SOL     OW27079   5.646   0.158   0.189
 8727SOL    HW127080   5.640   0.140   0.091
 8727SOL    HW227081   5.735   0.198   0.211
 8728SOL     OW27082   5.453   1.329   2.299
 8728SOL    HW127083   5.383   1.264   2.270
 8728SOL    HW227084   5.454   1.334   2.399
 8729SOL     OW27085   2.892   5.063   5.563
 8729SOL    HW127086   2.940   5.088   5.647
 8729SOL    HW227087   2.916   4.970   5.537
 8730SOL     OW27088   4.906   4.532   3.091
 8730SOL    HW127089   4.830   4.583   3.132
 8730SOL    HW227090   4.960   4.593   3.034
 8731SOL     OW27091   0.650   3.030   3.190
 8731SOL    HW127092   0.731   3.055   3.243
 8731SOL    HW227093   0.653   3.075   3.101
 8732SOL     OW27094   5.322   4.278   1.589
 8732SOL    HW127095   5.313   4.241   1.681
 8732SOL    HW227096   5.312   4.204   1.522
 8733SOL     OW27097   0.824   5.841   0.900
 8733SOL    HW127098   0.906   5.814   0.951
 8733SOL    HW227099   0.778   5.759   0.865
 8734SOL     OW27100   6.800   3.308   2.580
 8734SOL    HW127101   6.786   3.407   2.580
 8734SOL    HW227102   6.859   3.282   2.504
 8735SOL     OW27103   1.232   3.368   5.372
 8735SOL    HW127104   1.154   3.307   5.356
 8735SOL    HW227105   1.204   3.462   5.356
 8736SOL     OW27106   0.410   5.265   2.134
 8736SOL    HW127107   0.357   5.288   2.216
 8736SOL    HW227108   0.421   5.165   2.129
 8737SOL     OW27109   2.559   6.455   6.319
 8737SOL    HW127110   2.641   6.460   6.261
 8737SOL    HW227111   2.561   6.529   6.385
 8738SOL     OW27112   1.836   4.371   3.399
 8738SOL    HW127113   1.897   4.421   3.337
 8738SOL    HW227114   1.746   4.413   3.399
 8739SOL     OW27115   5.409   4.390   5.257
 8739SOL    HW127116   5.344   4.316   5.271
 8739SOL    HW227117   5.482   4.358   5.195
 8740SOL     OW27118   3.634   2.098   2.621
 8740SOL    HW127119   3.734   2.099   2.631
 8740SOL    HW227120   3.609   2.127   2.528
 8741SOL     OW27121   2.613   0.122   2.360
 8741SOL    HW127122   2.705   0.091   2.383
 8741SOL    HW227123   2.605   0.132   2.261
 8742SOL     OW27124   4.150   0.372   2.483
 8742SOL    HW127125   4.077   0.440   2.471
 8742SOL    HW227126   4.235   0.419   2.506
 8743SOL     OW27127   2.085   1.422   2.038
 8743SOL    HW127128   2.051   1.440   1.946
 8743SOL    HW227129   2.067   1.501   2.096
 8744SOL     OW27130   4.626   2.800   0.680
 8744SOL    HW127131   4.536   2.781   0.719
 8744SOL    HW227132   4.620   2.880   0.620
 8745SOL     OW27133   0.001   2.558   6.313
 8745SOL    HW127134   0.035   2.498   6.240
 8745SOL    HW227135   7.018   2.505   6.398
 8746SOL     OW27136   4.911   5.626   4.582
 8746SOL    HW127137   5.005   5.644   4.551
 8746SOL    HW227138   4.906   5.535   4.623
 8747SOL     OW27139   6.926   1.407   2.081
 8747SOL    HW127140   6.965   1.394   2.173
 8747SOL    HW227141   6.827   1.414   2.088
 8748SOL     OW27142   0.855   1.703   4.052
 8748SOL    HW127143   0.766   1.749   4.055
 8748SOL    HW227144   0.928   1.770   4.068
 8749SOL     OW27145   1.809   1.126   5.130
 8749SOL    HW127146   1.862   1.047   5.100
 8749SOL    HW227147   1.746   1.098   5.203
 8750SOL     OW27148   4.224   3.093   5.326
 8750SOL    HW127149   4.311   3.140   5.341
 8750SOL    HW227150   4.237   2.994   5.337
 8751SOL     OW27151   6.618   0.371   0.838
 8751SOL    HW127152   6.661   0.355   0.927
 8751SOL    HW227153   6.682   0.348   0.766
 8752SOL     OW27154   5.183   2.825   6.641
 8752SOL    HW127155   5.118   2.797   6.712
 8752SOL    HW227156   5.150   2.908   6.597
 8753SOL     OW27157   2.399   4.100   7.017
 8753SOL    HW127158   2.383   4.083   6.919
 8753SOL    HW227159   2.312   4.099   0.042
 8754SOL     OW27160   2.994   4.651   6.153
 8754SOL    HW127161   3.061   4.671   6.081
 8754SOL    HW227162   2.942   4.734   6.174
 8755SOL     OW27163   1.703   0.992   1.264
 8755SOL    HW127164   1.638   0.955   1.198
 8755SOL    HW227165   1.773   0.924   1.284
 8756SOL     OW27166   1.787   2.843   3.639
 8756SOL    HW127167   1.826   2.919   3.691
 8756SOL    HW227168   1.832   2.758   3.666
 8757SOL     OW27169   5.095   5.872   6.345
 8757SOL    HW127170   5.038   5.950   6.369
 8757SOL    HW227171   5.159   5.854   6.419
 8758SOL     OW27172   4.323   6.686   3.744
 8758SOL    HW127173   4.241   6.730   3.706
 8758SOL    HW227174   4.379   6.649   3.669
 8759SOL     OW27175   6.106   1.956   0.040
 8759SOL    HW127176   6.011   1.943   0.010
 8759SOL    HW227177   6.111   1.946   0.139
 8760SOL     OW27178   2.433   1.914   4.339
 8760SOL    HW127179   2.341   1.897   4.301
 8760SOL    HW227180   2.436   2.004   4.381
 8761SOL     OW27181   6.221   2.289   1.761
 8761SOL    HW127182   6.164   2.246   1.691
 8761SOL    HW227183   6.299   2.335   1.718
 8762SOL     OW27184   1.555   5.808   3.665
 8762SOL    HW127185   1.625   5.774   3.728
 8762SOL    HW227186   1.577   5.902   3.638
 8763SOL     OW27187   6.268   0.307   4.884
 8763SOL    HW127188   6.284   0.359   4.968
 8763SOL    HW227189   6.256   0.211   4.907
 8764SOL     OW27190   4.637   5.745   6.241
 8764SOL    HW127191   4.626   5.820   6.307
 8764SOL    HW227192   4.683   5.780   6.159
 8765SOL     OW27193   5.236   1.247   5.110
 8765SOL    HW127194   5.173   1.291   5.174
 8765SOL    HW227195   5.330   1.267   5.136
 8766SOL     OW27196   4.243   4.346   5.378
 8766SOL    HW127197   4.242   4.387   5.287
 8766SOL    HW227198   4.279   4.252   5.372
 8767SOL     OW27199   3.471   0.068   3.997
 8767SOL    HW127200   3.506   0.108   3.912
 8767SOL    HW227201   3.532   7.019   4.026
 8768SOL     OW27202   1.030   2.037   0.886
 8768SOL    HW127203   1.035   1.963   0.818
 8768SOL    HW227204   0.935   2.050   0.914
 8769SOL     OW27205   0.136   1.058   2.150
 8769SOL    HW127206   0.212   1.121   2.134
 8769SOL    HW227207   0.171   0.968   2.173
 8770SOL     OW27208   5.074   4.856   2.093
 8770SOL    HW127209   5.152   4.825   2.037
 8770SOL    HW227210   5.006   4.899   2.034
 8771SOL     OW27211   0.685   3.086   6.006
 8771SOL    HW127212   0.623   3.073   5.929
 8771SOL    HW227213   0.735   3.172   5.995
 8772SOL     OW27214   4.867   0.540   5.511
 8772SOL    HW127215   4.893   0.626   5.554
 8772SOL    HW227216   4.793   0.556   5.445
 8773SOL     OW27217   5.756   2.283   3.429
 8773SOL    HW127218   5.853   2.307   3.427
 8773SOL    HW227219   5.712   2.327   3.508
 8774SOL     OW27220   0.470   6.748   6.628
 8774SOL    HW127221   0.520   6.699   6.557
 8774SOL    HW227222   0.414   6.819   6.585
 8775SOL     OW27223   5.261   1.508   5.923
 8775SOL    HW127224   5.330   1.440   5.897
 8775SOL    HW227225   5.230   1.490   6.016
 8776SOL     OW27226   4.919   2.998   1.420
 8776SOL    HW127227   4.876   2.909   1.438
 8776SOL    HW227228   4.972   3.025   1.500
 8777SOL     OW27229   0.545   3.342   3.233
 8777SOL    HW127230   0.514   3.431   3.265
 8777SOL    HW227231   0.635   3.351   3.190
 8778SOL     OW27232   4.818   3.782   6.111
 8778SOL    HW127233   4.785   3.762   6.204
 8778SOL    HW227234   4.797   3.877   6.088
 8779SOL     OW27235   2.649   5.946   2.377
 8779SOL    HW127236   2.639   5.867   2.316
 8779SOL    HW227237   2.741   5.983   2.368
 8780SOL     OW27238   0.713   6.135   2.831
 8780SOL    HW127239   0.745   6.042   2.809
 8780SOL    HW227240   0.637   6.130   2.895
 8781SOL     OW27241   4.294   6.905   2.897
 8781SOL    HW127242   4.313   6.841   2.823
 8781SOL    HW227243   4.317   6.862   2.985
 8782SOL     OW27244   6.285   1.109   2.077
 8782SOL    HW127245   6.280   1.011   2.062
 8782SOL    HW227246   6.193   1.147   2.085
 8783SOL     OW27247   6.321   3.801   4.085
 8783SOL    HW127248   6.305   3.734   4.012
 8783SOL    HW227249   6.236   3.849   4.105
 8784SOL     OW27250   6.427   6.368   1.002
 8784SOL    HW127251   6.443   6.433   0.928
 8784SOL    HW227252   6.466   6.279   0.978
 8785SOL     OW27253   0.568   5.271   5.872
 8785SOL    HW127254   0.611   5.354   5.834
 8785SOL    HW227255   0.576   5.196   5.807
 8786SOL     OW27256   3.869   1.703   2.488
 8786SOL    HW127257   3.816   1.671   2.566
 8786SOL    HW227258   3.853   1.800   2.474
 8787SOL     OW27259   3.393   0.524   1.776
 8787SOL    HW127260   3.460   0.460   1.815
 8787SOL    HW227261   3.434   0.615   1.769
 8788SOL     OW27262   6.688   0.969   5.095
 8788SOL    HW127263   6.658   0.895   5.155
 8788SOL    HW227264   6.627   1.047   5.105
 8789SOL     OW27265   6.699   4.052   5.405
 8789SOL    HW127266   6.750   4.098   5.333
 8789SOL    HW227267   6.615   4.104   5.426
 8790SOL     OW27268   6.290   1.714   0.059
 8790SOL    HW127269   6.348   1.689   7.005
 8790SOL    HW227270   6.233   1.792   0.034
 8791SOL     OW27271   4.772   6.525   4.852
 8791SOL    HW127272   4.749   6.530   4.949
 8791SOL    HW227273   4.820   6.439   4.834
 8792SOL     OW27274   3.204   4.909   2.714
 8792SOL    HW127275   3.144   4.989   2.708
 8792SOL    HW227276   3.181   4.856   2.795
 8793SOL     OW27277   0.964   4.880   4.071
 8793SOL    HW127278   1.034   4.913   4.134
 8793SOL    HW227279   1.006   4.859   3.982
 8794SOL     OW27280   6.347   1.187   3.505
 8794SOL    HW127281   6.271   1.140   3.461
 8794SOL    HW227282   6.372   1.138   3.589
 8795SOL     OW27283   1.182   5.135   5.159
 8795SOL    HW127284   1.117   5.113   5.086
 8795SOL    HW227285   1.141   5.203   5.220
 8796SOL     OW27286   5.747   3.743   3.449
 8796SOL    HW127287   5.655   3.711   3.471
 8796SOL    HW227288   5.811   3.711   3.520
 8797SOL     OW27289   0.010   0.130   4.405
 8797SOL    HW127290   0.052   0.040   4.395
 8797SOL    HW227291   0.080   0.201   4.392
 8798SOL     OW27292   4.693   6.688   5.535
 8798SOL    HW127293   4.723   6.753   5.605
 8798SOL    HW227294   4.734   6.599   5.553
 8799SOL     OW27295   2.623   4.774   2.310
 8799SOL    HW127296   2.677   4.850   2.345
 8799SOL    HW227297   2.636   4.767   2.211
 8800SOL     OW27298   5.788   5.870   5.600
 8800SOL    HW127299   5.795   5.931   5.679
 8800SOL    HW227300   5.879   5.854   5.562
 8801SOL     OW27301   5.846   1.988   5.299
 8801SOL    HW127302   5.825   1.891   5.303
 8801SOL    HW227303   5.768   2.041   5.331
 8802SOL     OW27304   1.663   5.813   5.524
 8802SOL    HW127305   1.629   5.906   5.513
 8802SOL    HW227306   1.651   5.784   5.619
 8803SOL     OW27307   0.044   1.247   0.057
 8803SOL    HW127308   0.103   1.245   0.138
 8803SOL    HW227309   6.973   1.260   0.086
 8804SOL     OW27310   1.619   6.381   1.067
 8804SOL    HW127311   1.673   6.364   1.150
 8804SOL    HW227312   1.668   6.345   0.988
 8805SOL     OW27313   4.044   5.437   3.618
 8805SOL    HW127314   4.134   5.460   3.653
 8805SOL    HW227315   4.046   5.347   3.575
 8806SOL     OW27316   2.519   5.537   0.801
 8806SOL    HW127317   2.456   5.607   0.836
 8806SOL    HW227318   2.521   5.459   0.864
 8807SOL     OW27319   4.235   2.167   0.085
 8807SOL    HW127320   4.211   2.106   0.009
 8807SOL    HW227321   4.254   2.112   0.167
 8808SOL     OW27322   0.543   2.341   6.725
 8808SOL    HW127323   0.588   2.417   6.771
 8808SOL    HW227324   0.606   2.297   6.660
 8809SOL     OW27325   2.132   4.162   3.266
 8809SOL    HW127326   2.168   4.244   3.312
 8809SOL    HW227327   2.175   4.154   3.176
 8810SOL     OW27328   5.784   1.391   5.393
 8810SOL    HW127329   5.779   1.297   5.361
 8810SOL    HW227330   5.767   1.453   5.315
 8811SOL     OW27331   4.368   0.255   2.726
 8811SOL    HW127332   4.401   0.290   2.813
 8811SOL    HW227333   4.414   0.303   2.651
 8812SOL     OW27334   3.030   0.515   6.466
 8812SOL    HW127335   3.004   0.445   6.531
 8812SOL    HW227336   3.066   0.473   6.383
 8813SOL     OW27337   2.261   4.537   2.516
 8813SOL    HW127338   2.297   4.622   2.476
 8813SOL    HW227339   2.261   4.465   2.447
 8814SOL     OW27340   5.376   6.810   0.266
 8814SOL    HW127341   5.470   6.785   0.289
 8814SOL    HW227342   5.355   6.899   0.307
 8815SOL     OW27343   5.480   0.187   1.358
 8815SOL    HW127344   5.460   0.151   1.449
 8815SOL    HW227345   5.439   0.277   1.348
 8816SOL     OW27346   0.231   6.920   6.818
 8816SOL    HW127347   0.323   6.902   6.853
 8816SOL    HW227348   0.179   6.835   6.816
 8817SOL     OW27349   0.951   3.358   4.210
 8817SOL    HW127350   0.955   3.399   4.301
 8817SOL    HW227351   0.909   3.423   4.146
 8818SOL     OW27352   1.475   6.794   2.737
 8818SOL    HW127353   1.408   6.817   2.666
 8818SOL    HW227354   1.463   6.698   2.762
 8819SOL     OW27355   6.035   4.550   5.066
 8819SOL    HW127356   6.021   4.573   4.970
 8819SOL    HW227357   6.081   4.625   5.113
 8820SOL     OW27358   3.146   1.377   4.522
 8820SOL    HW127359   3.111   1.432   4.597
 8820SOL    HW227360   3.232   1.417   4.488
 8821SOL     OW27361   1.171   5.133   0.206
 8821SOL    HW127362   1.266   5.164   0.205
 8821SOL    HW227363   1.111   5.208   0.232
 8822SOL     OW27364   0.034   0.418   3.135
 8822SOL    HW127365   0.034   0.509   3.175
 8822SOL    HW227366   0.107   0.411   3.066
 8823SOL     OW27367   2.098   0.430   2.224
 8823SOL    HW127368   2.123   0.333   2.222
 8823SOL    HW227369   2.020   0.445   2.163
 8824SOL     OW27370   1.558   0.263   1.431
 8824SOL    HW127371   1.612   0.300   1.355
 8824SOL    HW227372   1.483   0.326   1.453
 8825SOL     OW27373   0.551   0.561   1.702
 8825SOL    HW127374   0.553   0.621   1.621
 8825SOL    HW227375   0.583   0.470   1.676
 8826SOL     OW27376   0.897   3.383   1.209
 8826SOL    HW127377   0.935   3.323   1.280
 8826SOL    HW227378   0.891   3.477   1.244
 8827SOL     OW27379   3.757   0.272   2.696
 8827SOL    HW127380   3.821   0.338   2.735
 8827SOL    HW227381   3.665   0.313   2.691
 8828SOL     OW27382   3.911   4.430   6.294
 8828SOL    HW127383   3.988   4.400   6.350
 8828SOL    HW227384   3.873   4.514   6.332
 8829SOL     OW27385   6.217   1.687   1.928
 8829SOL    HW127386   6.307   1.646   1.943
 8829SOL    HW227387   6.227   1.770   1.873
 8830SOL     OW27388   1.677   1.500   2.413
 8830SOL    HW127389   1.646   1.441   2.338
 8830SOL    HW227390   1.707   1.588   2.376
 8831SOL     OW27391   6.400   3.258   2.235
 8831SOL    HW127392   6.351   3.342   2.261
 8831SOL    HW227393   6.498   3.273   2.241
 8832SOL     OW27394   7.003   6.233   3.965
 8832SOL    HW127395   0.057   6.232   3.902
 8832SOL    HW227396   6.925   6.276   3.919
 8833SOL     OW27397   3.800   4.035   0.137
 8833SOL    HW127398   3.796   3.958   0.201
 8833SOL    HW227399   3.889   4.080   0.144
 8834SOL     OW27400   6.218   3.357   4.930
 8834SOL    HW127401   6.198   3.298   5.008
 8834SOL    HW227402   6.179   3.316   4.847
 8835SOL     OW27403   5.787   1.135   6.181
 8835SOL    HW127404   5.799   1.205   6.252
 8835SOL    HW227405   5.756   1.179   6.097
 8836SOL     OW27406   5.813   2.187   0.569
 8836SOL    HW127407   5.785   2.159   0.660
 8836SOL    HW227408   5.808   2.287   0.561
 8837SOL     OW27409   0.056   0.555   1.944
 8837SOL    HW127410   7.001   0.513   1.900
 8837SOL    HW227411   0.029   0.590   2.034
 8838SOL     OW27412   0.397   4.778   2.305
 8838SOL    HW127413   0.385   4.787   2.404
 8838SOL    HW227414   0.395   4.682   2.279
 8839SOL     OW27415   4.685   5.939   2.369
 8839SOL    HW127416   4.756   5.920   2.300
 8839SOL    HW227417   4.703   6.028   2.411
 8840SOL     OW27418   6.132   0.311   2.056
 8840SOL    HW127419   6.072   0.390   2.063
 8840SOL    HW227420   6.226   0.339   2.070
 8841SOL     OW27421   5.028   1.333   2.817
 8841SOL    HW127422   4.928   1.326   2.821
 8841SOL    HW227423   5.061   1.381   2.898
 8842SOL     OW27424   3.166   4.048   4.019
 8842SOL    HW127425   3.163   4.029   3.920
 8842SOL    HW227426   3.162   4.146   4.034
 8843SOL     OW27427   1.946   3.069   4.805
 8843SOL    HW127428   2.019   3.080   4.872
 8843SOL    HW227429   1.931   2.972   4.787
 8844SOL     OW27430   0.071   1.907   5.140
 8844SOL    HW127431   0.134   1.947   5.073
 8844SOL    HW227432   7.003   1.940   5.123
 8845SOL     OW27433   2.691   4.956   0.540
 8845SOL    HW127434   2.603   5.004   0.536
 8845SOL    HW227435   2.765   5.021   0.522
 8846SOL     OW27436   5.406   5.078   4.364
 8846SOL    HW127437   5.424   5.086   4.462
 8846SOL    HW227438   5.377   5.167   4.328
 8847SOL     OW27439   1.732   0.762   2.661
 8847SOL    HW127440   1.660   0.697   2.686
 8847SOL    HW227441   1.802   0.715   2.607
 8848SOL     OW27442   3.094   2.118   2.186
 8848SOL    HW127443   3.047   2.031   2.168
 8848SOL    HW227444   3.053   2.190   2.130
 8849SOL     OW27445   3.033   4.860   4.006
 8849SOL    HW127446   3.040   4.891   4.101
 8849SOL    HW227447   3.121   4.875   3.960
 8850SOL     OW27448   2.943   0.989   1.070
 8850SOL    HW127449   2.952   0.890   1.070
 8850SOL    HW227450   2.999   1.028   1.143
 8851SOL     OW27451   1.029   4.542   2.496
 8851SOL    HW127452   0.931   4.557   2.504
 8851SOL    HW227453   1.071   4.621   2.451
 8852SOL     OW27454   4.897   3.063   6.283
 8852SOL    HW127455   4.957   3.129   6.237
 8852SOL    HW227456   4.808   3.063   6.238
 8853SOL     OW27457   3.743   0.382   4.210
 8853SOL    HW127458   3.795   0.361   4.127
 8853SOL    HW227459   3.803   0.377   4.289
 8854SOL     OW27460   2.271   0.597   6.312
 8854SOL    HW127461   2.334   0.662   6.270
 8854SOL    HW227462   2.247   0.627   6.404
 8855SOL     OW27463   6.655   5.981   0.320
 8855SOL    HW127464   6.699   5.962   0.408
 8855SOL    HW227465   6.666   6.078   0.298
 8856SOL     OW27466   6.393   6.933   5.475
 8856SOL    HW127467   6.429   6.949   5.566
 8856SOL    HW227468   6.304   6.979   5.465
 8857SOL     OW27469   6.331   1.598   3.673
 8857SOL    HW127470   6.243   1.645   3.668
 8857SOL    HW227471   6.348   1.549   3.588
 8858SOL     OW27472   2.276   3.167   5.734
 8858SOL    HW127473   2.239   3.257   5.755
 8858SOL    HW227474   2.375   3.171   5.730
 8859SOL     OW27475   0.352   6.875   5.479
 8859SOL    HW127476   0.414   6.832   5.413
 8859SOL    HW227477   0.270   6.818   5.489
 8860SOL     OW27478   1.657   3.882   2.672
 8860SOL    HW127479   1.755   3.900   2.682
 8860SOL    HW227480   1.608   3.969   2.665
 8861SOL     OW27481   2.768   2.577   6.530
 8861SOL    HW127482   2.731   2.518   6.458
 8861SOL    HW227483   2.811   2.657   6.488
 8862SOL     OW27484   5.898   1.169   3.549
 8862SOL    HW127485   5.895   1.268   3.543
 8862SOL    HW227486   5.972   1.134   3.490
 8863SOL     OW27487   1.722   5.404   4.626
 8863SOL    HW127488   1.628   5.423   4.655
 8863SOL    HW227489   1.777   5.487   4.634
 8864SOL     OW27490   2.388   3.361   6.302
 8864SOL    HW127491   2.427   3.398   6.386
 8864SOL    HW227492   2.379   3.434   6.235
 8865SOL     OW27493   3.304   1.258   4.816
 8865SOL    HW127494   3.365   1.337   4.812
 8865SOL    HW227495   3.246   1.257   4.735
 8866SOL     OW27496   4.640   6.846   3.770
 8866SOL    HW127497   4.583   6.927   3.753
 8866SOL    HW227498   4.592   6.783   3.830
 8867SOL     OW27499   4.959   2.603   3.306
 8867SOL    HW127500   4.958   2.703   3.309
 8867SOL    HW227501   4.936   2.572   3.213
 8868SOL     OW27502   5.638   3.785   0.497
 8868SOL    HW127503   5.733   3.801   0.471
 8868SOL    HW227504   5.589   3.743   0.421
 8869SOL     OW27505   4.339   5.347   3.387
 8869SOL    HW127506   4.324   5.297   3.472
 8869SOL    HW227507   4.252   5.357   3.338
 8870SOL     OW27508   3.176   0.090   0.521
 8870SOL    HW127509   3.114   0.164   0.496
 8870SOL    HW227510   3.253   0.127   0.573
 8871SOL     OW27511   3.610   1.515   3.842
 8871SOL    HW127512   3.625   1.487   3.747
 8871SOL    HW227513   3.590   1.613   3.845
 8872SOL     OW27514   1.782   4.105   4.348
 8872SOL    HW127515   1.691   4.130   4.317
 8872SOL    HW227516   1.843   4.097   4.269
 8873SOL     OW27517   6.157   5.995   1.958
 8873SOL    HW127518   6.128   6.090   1.950
 8873SOL    HW227519   6.143   5.964   2.052
 8874SOL     OW27520   1.924   7.012   1.228
 8874SOL    HW127521   1.994   6.945   1.203
 8874SOL    HW227522   1.921   0.060   1.159
 8875SOL     OW27523   0.981   2.380   4.574
 8875SOL    HW127524   0.935   2.299   4.612
 8875SOL    HW227525   1.019   2.435   4.649
 8876SOL     OW27526   0.900   0.174   4.810
 8876SOL    HW127527   0.817   0.224   4.833
 8876SOL    HW227528   0.916   0.178   4.712
 8877SOL     OW27529   2.772   0.586   4.241
 8877SOL    HW127530   2.820   0.583   4.329
 8877SOL    HW227531   2.692   0.646   4.248
 8878SOL     OW27532   0.854   4.926   0.751
 8878SOL    HW127533   0.857   4.959   0.656
 8878SOL    HW227534   0.850   4.826   0.751
 8879SOL     OW27535   6.176   5.088   1.269
 8879SOL    HW127536   6.221   5.035   1.197
 8879SOL    HW227537   6.190   5.185   1.252
 8880SOL     OW27538   0.039   5.809   4.550
 8880SOL    HW127539   0.093   5.875   4.602
 8880SOL    HW227540   0.074   5.717   4.565
 8881SOL     OW27541   5.638   6.888   3.524
 8881SOL    HW127542   5.621   6.887   3.622
 8881SOL    HW227543   5.640   6.794   3.489
 8882SOL     OW27544   5.062   1.364   0.460
 8882SOL    HW127545   5.015   1.438   0.412
 8882SOL    HW227546   5.161   1.378   0.454
 8883SOL     OW27547   0.677   1.402   6.109
 8883SOL    HW127548   0.738   1.482   6.108
 8883SOL    HW227549   0.592   1.426   6.156
 8884SOL     OW27550   6.226   6.554   6.770
 8884SOL    HW127551   6.201   6.459   6.789
 8884SOL    HW227552   6.189   6.580   6.681
 8885SOL     OW27553   6.601   3.747   1.266
 8885SOL    HW127554   6.568   3.818   1.328
 8885SOL    HW227555   6.652   3.789   1.191
 8886SOL     OW27556   3.122   5.827   5.937
 8886SOL    HW127557   3.132   5.729   5.957
 8886SOL    HW227558   3.079   5.873   6.014
 8887SOL     OW27559   3.121   1.452   1.071
 8887SOL    HW127560   3.206   1.486   1.112
 8887SOL    HW227561   3.117   1.480   0.975
 8888SOL     OW27562   0.959   2.161   1.407
 8888SOL    HW127563   0.893   2.221   1.362
 8888SOL    HW227564   1.002   2.210   1.483
 8889SOL     OW27565   5.267   6.361   5.890
 8889SOL    HW127566   5.256   6.395   5.797
 8889SOL    HW227567   5.313   6.273   5.888
 8890SOL     OW27568   6.393   6.209   4.546
 8890SOL    HW127569   6.390   6.292   4.602
 8890SOL    HW227570   6.429   6.230   4.455
 8891SOL     OW27571   6.235   3.238   6.138
 8891SOL    HW127572   6.149   3.223   6.187
 8891SOL    HW227573   6.310   3.243   6.203
 8892SOL     OW27574   3.021   6.139   3.714
 8892SOL    HW127575   3.018   6.069   3.642
 8892SOL    HW227576   2.982   6.224   3.679
 8893SOL     OW27577   0.952   0.406   2.040
 8893SOL    HW127578   0.888   0.356   1.982
 8893SOL    HW227579   0.906   0.430   2.126
 8894SOL     OW27580   3.759   3.196   5.772
 8894SOL    HW127581   3.729   3.250   5.693
 8894SOL    HW227582   3.705   3.223   5.852
 8895SOL     OW27583   7.001   0.885   1.900
 8895SOL    HW127584   6.995   0.983   1.881
 8895SOL    HW227585   6.927   0.837   1.853
 8896SOL     OW27586   1.800   3.310   4.687
 8896SOL    HW127587   1.875   3.258   4.729
 8896SOL    HW227588   1.738   3.342   4.759
 8897SOL     OW27589   1.490   1.800   2.697
 8897SOL    HW127590   1.568   1.744   2.724
 8897SOL    HW227591   1.481   1.800   2.597
 8898SOL     OW27592   5.909   3.387   4.295
 8898SOL    HW127593   5.862   3.299   4.307
 8898SOL    HW227594   5.897   3.442   4.378
 8899SOL     OW27595   1.524   4.550   0.154
 8899SOL    HW127596   1.490   4.572   0.245
 8899SOL    HW227597   1.616   4.587   0.142
 8900SOL     OW27598   5.438   3.600   2.928
 8900SOL    HW127599   5.339   3.590   2.936
 8900SOL    HW227600   5.471   3.547   2.850
 8901SOL     OW27601   2.569   0.885   3.947
 8901SOL    HW127602   2.581   0.984   3.956
 8901SOL    HW227603   2.571   0.860   3.850
 8902SOL     OW27604   3.071   6.007   6.813
 8902SOL    HW127605   3.158   5.961   6.796
 8902SOL    HW227606   2.997   5.940   6.815
 8903SOL     OW27607   2.245   0.682   4.236
 8903SOL    HW127608   2.307   0.695   4.158
 8903SOL    HW227609   2.188   0.763   4.248
 8904SOL     OW27610   0.175   5.025   3.718
 8904SOL    HW127611   0.090   4.984   3.753
 8904SOL    HW227612   0.252   4.994   3.773
 8905SOL     OW27613   2.145   4.038   4.468
 8905SOL    HW127614   2.064   4.054   4.524
 8905SOL    HW227615   2.221   4.010   4.527
 8906SOL     OW27616   6.432   6.952   6.944
 8906SOL    HW127617   6.369   6.876   6.962
 8906SOL    HW227618   6.463   6.991   0.007
 8907SOL     OW27619   3.453   2.013   4.945
 8907SOL    HW127620   3.398   2.020   4.862
 8907SOL    HW227621   3.393   2.006   5.025
 8908SOL     OW27622   1.225   3.109   6.817
 8908SOL    HW127623   1.198   3.014   6.800
 8908SOL    HW227624   1.168   3.147   6.890
 8909SOL     OW27625   2.311   0.346   5.161
 8909SOL    HW127626   2.250   0.292   5.103
 8909SOL    HW227627   2.306   0.442   5.134
 8910SOL     OW27628   2.116   3.243   6.244
 8910SOL    HW127629   2.172   3.281   6.170
 8910SOL    HW227630   2.167   3.170   6.290
 8911SOL     OW27631   3.891   2.138   4.902
 8911SOL    HW127632   3.951   2.107   4.828
 8911SOL    HW227633   3.924   2.226   4.936
 8912SOL     OW27634   4.048   1.640   6.824
 8912SOL    HW127635   4.103   1.714   6.864
 8912SOL    HW227636   4.064   1.555   6.875
 8913SOL     OW27637   4.953   5.158   0.513
 8913SOL    HW127638   4.943   5.059   0.520
 8913SOL    HW227639   4.900   5.192   0.435
 8914SOL     OW27640   4.248   0.555   5.769
 8914SOL    HW127641   4.166   0.580   5.717
 8914SOL    HW227642   4.286   0.637   5.813
 8915SOL     OW27643   0.730   2.675   3.991
 8915SOL    HW127644   0.638   2.659   4.025
 8915SOL    HW227645   0.790   2.699   4.067
 8916SOL     OW27646   0.474   3.753   2.111
 8916SOL    HW127647   0.439   3.706   2.192
 8916SOL    HW227648   0.437   3.710   2.029
 8917SOL     OW27649   5.860   4.979   6.265
 8917SOL    HW127650   5.824   5.071   6.260
 8917SOL    HW227651   5.823   4.933   6.346
 8918SOL     OW27652   0.008   6.374   0.896
 8918SOL    HW127653   0.025   6.289   0.947
 8918SOL    HW227654   0.068   6.377   0.816
 8919SOL     OW27655   4.419   3.249   0.596
 8919SOL    HW127656   4.373   3.282   0.678
 8919SOL    HW227657   4.361   3.182   0.550
 8920SOL     OW27658   6.724   6.438   6.823
 8920SOL    HW127659   6.625   6.454   6.815
 8920SOL    HW227660   6.772   6.525   6.818
 8921SOL     OW27661   2.336   1.586   3.086
 8921SOL    HW127662   2.309   1.664   3.143
 8921SOL    HW227663   2.312   1.605   2.991
 8922SOL     OW27664   2.520   4.872   1.185
 8922SOL    HW127665   2.613   4.834   1.193
 8922SOL    HW227666   2.454   4.808   1.224
 8923SOL     OW27667   1.899   3.679   6.298
 8923SOL    HW127668   1.976   3.691   6.235
 8923SOL    HW227669   1.825   3.632   6.252
 8924SOL     OW27670   2.953   5.544   6.034
 8924SOL    HW127671   2.889   5.607   6.078
 8924SOL    HW227672   2.925   5.529   5.939
 8925SOL     OW27673   0.965   0.257   2.349
 8925SOL    HW127674   0.963   0.357   2.355
 8925SOL    HW227675   0.872   0.221   2.355
 8926SOL     OW27676   5.670   3.182   0.556
 8926SOL    HW127677   5.634   3.273   0.574
 8926SOL    HW227678   5.690   3.136   0.642
 8927SOL     OW27679   1.878   1.836   4.901
 8927SOL    HW127680   1.823   1.919   4.891
 8927SOL    HW227681   1.818   1.758   4.919
 8928SOL     OW27682   0.016   0.731   5.115
 8928SOL    HW127683   0.003   0.808   5.052
 8928SOL    HW227684   0.069   0.762   5.194
 8929SOL     OW27685   0.674   3.728   3.752
 8929SOL    HW127686   0.728   3.652   3.716
 8929SOL    HW227687   0.631   3.701   3.838
 8930SOL     OW27688   1.938   4.962   4.988
 8930SOL    HW127689   1.872   5.030   5.022
 8930SOL    HW227690   1.889   4.886   4.946
 8931SOL     OW27691   3.486   2.746   0.290
 8931SOL    HW127692   3.491   2.846   0.292
 8931SOL    HW227693   3.392   2.717   0.309
 8932SOL     OW27694   5.395   0.369   6.818
 8932SOL    HW127695   5.328   0.295   6.828
 8932SOL    HW227696   5.432   0.393   6.908
 8933SOL     OW27697   0.754   2.356   5.455
 8933SOL    HW127698   0.671   2.411   5.455
 8933SOL    HW227699   0.733   2.263   5.424
 8934SOL     OW27700   2.712   5.367   3.963
 8934SOL    HW127701   2.676   5.442   4.019
 8934SOL    HW227702   2.661   5.284   3.981
 8935SOL     OW27703   5.089   3.918   1.955
 8935SOL    HW127704   5.130   3.976   2.026
 8935SOL    HW227705   5.006   3.961   1.920
 8936SOL     OW27706   0.587   3.497   0.676
 8936SOL    HW127707   0.610   3.509   0.579
 8936SOL    HW227708   0.491   3.470   0.684
 8937SOL     OW27709   0.040   0.944   3.873
 8937SOL    HW127710   6.980   0.891   3.881
 8937SOL    HW227711   0.119   0.882   3.869
 8938SOL     OW27712   6.926   1.741   0.502
 8938SOL    HW127713   6.857   1.714   0.436
 8938SOL    HW227714   6.906   1.833   0.536
 8939SOL     OW27715   6.659   2.651   4.908
 8939SOL    HW127716   6.672   2.554   4.888
 8939SOL    HW227717   6.564   2.667   4.933
 8940SOL     OW27718   5.729   2.110   0.326
 8940SOL    HW127719   5.753   2.118   0.423
 8940SOL    HW227720   5.797   2.158   0.271
 8941SOL     OW27721   4.946   2.150   1.786
 8941SOL    HW127722   5.041   2.167   1.811
 8941SOL    HW227723   4.895   2.236   1.787
 8942SOL     OW27724   0.461   5.479   4.115
 8942SOL    HW127725   0.478   5.393   4.163
 8942SOL    HW227726   0.478   5.467   4.017
 8943SOL     OW27727   4.275   4.355   0.098
 8943SOL    HW127728   4.272   4.307   0.185
 8943SOL    HW227729   4.369   4.362   0.066
 8944SOL     OW27730   4.797   4.882   4.403
 8944SOL    HW127731   4.842   4.938   4.334
 8944SOL    HW227732   4.845   4.891   4.490
 8945SOL     OW27733   6.946   2.939   5.031
 8945SOL    HW127734   6.966   2.918   4.935
 8945SOL    HW227735   7.006   3.013   5.062
 8946SOL     OW27736   3.912   0.380   4.418
 8946SOL    HW127737   3.917   0.480   4.420
 8946SOL    HW227738   4.005   0.342   4.419
 8947SOL     OW27739   1.886   3.984   6.420
 8947SOL    HW127740   1.961   3.917   6.425
 8947SOL    HW227741   1.888   4.043   6.501
 8948SOL     OW27742   6.447   6.152   3.559
 8948SOL    HW127743   6.522   6.131   3.623
 8948SOL    HW227744   6.444   6.081   3.488
 8949SOL     OW27745   3.710   5.483   6.972
 8949SOL    HW127746   3.639   5.546   6.938
 8949SOL    HW227747   3.800   5.524   6.957
 8950SOL     OW27748   4.512   3.330   1.191
 8950SOL    HW127749   4.508   3.238   1.151
 8950SOL    HW227750   4.523   3.323   1.290
 8951SOL     OW27751   2.293   1.353   4.233
 8951SOL    HW127752   2.386   1.318   4.242
 8951SOL    HW227753   2.294   1.453   4.233
 8952SOL     OW27754   2.146   5.076   3.384
 8952SOL    HW127755   2.239   5.084   3.349
 8952SOL    HW227756   2.139   5.125   3.471
 8953SOL     OW27757   2.384   5.206   1.409
 8953SOL    HW127758   2.298   5.161   1.431
 8953SOL    HW227759   2.442   5.209   1.491
 8954SOL     OW27760   0.877   5.642   4.147
 8954SOL    HW127761   0.953   5.615   4.089
 8954SOL    HW227762   0.791   5.630   4.097
 8955SOL     OW27763   0.169   2.881   2.609
 8955SOL    HW127764   0.131   2.850   2.696
 8955SOL    HW227765   0.098   2.877   2.538
 8956SOL     OW27766   0.711   0.178   6.695
 8956SOL    HW127767   0.682   0.180   6.599
 8956SOL    HW227768   0.689   0.088   6.734
 8957SOL     OW27769   1.687   5.134   1.909
 8957SOL    HW127770   1.600   5.174   1.881
 8957SOL    HW227771   1.721   5.183   1.990
 8958SOL     OW27772   1.368   2.801   5.085
 8958SOL    HW127773   1.336   2.833   4.996
 8958SOL    HW227774   1.298   2.744   5.127
 8959SOL     OW27775   1.007   3.476   2.188
 8959SOL    HW127776   1.004   3.409   2.262
 8959SOL    HW227777   1.066   3.442   2.115
 8960SOL     OW27778   6.984   5.158   4.063
 8960SOL    HW127779   6.897   5.197   4.090
 8960SOL    HW227780   6.981   5.058   4.075
 8961SOL     OW27781   3.834   1.025   4.177
 8961SOL    HW127782   3.799   1.060   4.264
 8961SOL    HW227783   3.847   1.100   4.113
 8962SOL     OW27784   0.405   5.987   2.060
 8962SOL    HW127785   0.389   6.053   2.133
 8962SOL    HW227786   0.502   5.966   2.055
 8963SOL     OW27787   3.473   6.081   4.355
 8963SOL    HW127788   3.450   5.987   4.329
 8963SOL    HW227789   3.569   6.099   4.334
 8964SOL     OW27790   5.330   3.991   2.843
 8964SOL    HW127791   5.331   3.958   2.937
 8964SOL    HW227792   5.267   3.935   2.789
 8965SOL     OW27793   3.456   4.740   0.350
 8965SOL    HW127794   3.376   4.683   0.330
 8965SOL    HW227795   3.506   4.700   0.428
 8966SOL     OW27796   6.499   5.303   6.393
 8966SOL    HW127797   6.508   5.254   6.307
 8966SOL    HW227798   6.585   5.351   6.414
 8967SOL     OW27799   4.202   0.770   3.520
 8967SOL    HW127800   4.271   0.735   3.457
 8967SOL    HW227801   4.141   0.833   3.471
 8968SOL     OW27802   2.599   4.629   1.515
 8968SOL    HW127803   2.518   4.687   1.504
 8968SOL    HW227804   2.596   4.584   1.604
 8969SOL     OW27805   0.478   0.263   3.141
 8969SOL    HW127806   0.459   0.357   3.171
 8969SOL    HW227807   0.577   0.251   3.129
 8970SOL     OW27808   1.093   2.372   6.813
 8970SOL    HW127809   1.080   2.332   6.903
 8970SOL    HW227810   1.176   2.334   6.771
 8971SOL     OW27811   4.529   6.835   1.575
 8971SOL    HW127812   4.447   6.788   1.607
 8971SOL    HW227813   4.535   6.925   1.619
 8972SOL     OW27814   5.236   4.909   0.804
 8972SOL    HW127815   5.193   4.984   0.854
 8972SOL    HW227816   5.250   4.832   0.867
 8973SOL     OW27817   0.320   2.565   2.459
 8973SOL    HW127818   0.379   2.485   2.468
 8973SOL    HW227819   0.359   2.641   2.512
 8974SOL     OW27820   2.152   3.796   3.838
 8974SOL    HW127821   2.196   3.861   3.900
 8974SOL    HW227822   2.171   3.823   3.743
 8975SOL     OW27823   0.305   6.464   6.955
 8975SOL    HW127824   0.249   6.427   0.004
 8975SOL    HW227825   0.356   6.543   6.989
 8976SOL     OW27826   6.484   6.554   0.528
 8976SOL    HW127827   6.583   6.542   0.520
 8976SOL    HW227828   6.441   6.465   0.542
 8977SOL     OW27829   6.982   4.866   6.394
 8977SOL    HW127830   0.040   4.923   6.387
 8977SOL    HW227831   6.968   4.839   6.489
 8978SOL     OW27832   5.022   6.419   5.028
 8978SOL    HW127833   5.038   6.403   4.930
 8978SOL    HW227834   5.015   6.517   5.045
 8979SOL     OW27835   1.012   5.149   6.351
 8979SOL    HW127836   1.108   5.176   6.352
 8979SOL    HW227837   0.956   5.223   6.316
 8980SOL     OW27838   4.467   2.241   5.504
 8980SOL    HW127839   4.421   2.223   5.591
 8980SOL    HW227840   4.564   2.262   5.520
 8981SOL     OW27841   4.721   2.367   5.585
 8981SOL    HW127842   4.739   2.466   5.589
 8981SOL    HW227843   4.765   2.329   5.504
 8982SOL     OW27844   6.676   1.656   1.821
 8982SOL    HW127845   6.632   1.655   1.732
 8982SOL    HW227846   6.767   1.615   1.814
 8983SOL     OW27847   1.447   5.408   1.505
 8983SOL    HW127848   1.390   5.381   1.427
 8983SOL    HW227849   1.422   5.501   1.534
 8984SOL     OW27850   6.144   0.070   4.624
 8984SOL    HW127851   6.218   0.137   4.619
 8984SOL    HW227852   6.057   0.115   4.606
 8985SOL     OW27853   4.409   2.102   0.796
 8985SOL    HW127854   4.444   2.195   0.807
 8985SOL    HW227855   4.442   2.064   0.709
 8986SOL     OW27856   5.380   4.188   2.212
 8986SOL    HW127857   5.418   4.280   2.225
 8986SOL    HW227858   5.425   4.124   2.274
 8987SOL     OW27859   3.187   0.571   1.284
 8987SOL    HW127860   3.226   0.509   1.217
 8987SOL    HW227861   3.249   0.649   1.297
 8988SOL     OW27862   2.162   5.350   0.504
 8988SOL    HW127863   2.248   5.384   0.542
 8988SOL    HW227864   2.170   5.252   0.484
 8989SOL     OW27865   5.107   2.845   3.137
 8989SOL    HW127866   5.121   2.902   3.056
 8989SOL    HW227867   5.048   2.767   3.114
 8990SOL     OW27868   2.379   6.164   1.111
 8990SOL    HW127869   2.470   6.205   1.122
 8990SOL    HW227870   2.329   6.212   1.039
 8991SOL     OW27871   2.530   2.568   1.873
 8991SOL    HW127872   2.568   2.476   1.868
 8991SOL    HW227873   2.443   2.566   1.923
 8992SOL     OW27874   0.323   2.911   0.504
 8992SOL    HW127875   0.247   2.851   0.480
 8992SOL    HW227876   0.371   2.939   0.421
 8993SOL     OW27877   4.798   2.362   3.596
 8993SOL    HW127878   4.732   2.435   3.577
 8993SOL    HW227879   4.879   2.376   3.539
 8994SOL     OW27880   1.999   5.005   4.527
 8994SOL    HW127881   2.023   5.099   4.505
 8994SOL    HW227882   2.072   4.944   4.498
 8995SOL     OW27883   1.271   2.157   5.359
 8995SOL    HW127884   1.339   2.154   5.432
 8995SOL    HW227885   1.179   2.152   5.399
 8996SOL     OW27886   0.436   3.680   1.272
 8996SOL    HW127887   0.378   3.653   1.349
 8996SOL    HW227888   0.516   3.729   1.306
 8997SOL     OW27889   5.212   0.935   6.138
 8997SOL    HW127890   5.287   0.874   6.115
 8997SOL    HW227891   5.212   1.014   6.076
 8998SOL     OW27892   6.680   2.068   5.190
 8998SOL    HW127893   6.687   2.022   5.278
 8998SOL    HW227894   6.744   2.027   5.125
 8999SOL     OW27895   4.986   0.724   6.108
 8999SOL    HW127896   4.894   0.749   6.139
 8999SOL    HW227897   5.048   0.800   6.124
 9000SOL     OW27898   2.737   4.493   6.534
 9000SOL    HW127899   2.817   4.509   6.475
 9000SOL    HW227900   2.761   4.512   6.629
 9001SOL     OW27901   1.286   4.603   2.733
 9001SOL    HW127902   1.293   4.524   2.672
 9001SOL    HW227903   1.194   4.605   2.774
 9002SOL     OW27904   6.920   5.467   5.549
 9002SOL    HW127905   6.936   5.438   5.643
 9002SOL    HW227906   6.849   5.537   5.548
 9003SOL     OW27907   6.140   2.452   0.865
 9003SOL    HW127908   6.063   2.508   0.896
 9003SOL    HW227909   6.154   2.377   0.929
 9004SOL     OW27910   5.407   6.635   1.734
 9004SOL    HW127911   5.441   6.676   1.819
 9004SOL    HW227912   5.471   6.655   1.659
 9005SOL     OW27913   5.201   2.289   3.773
 9005SOL    HW127914   5.163   2.197   3.774
 9005SOL    HW227915   5.149   2.347   3.710
 9006SOL     OW27916   1.285   5.553   1.114
 9006SOL    HW127917   1.280   5.564   1.015
 9006SOL    HW227918   1.360   5.607   1.150
 9007SOL     OW27919   3.313   5.300   3.490
 9007SOL    HW127920   3.254   5.221   3.476
 9007SOL    HW227921   3.297   5.338   3.581
 9008SOL     OW27922   6.317   4.692   2.145
 9008SOL    HW127923   6.356   4.769   2.195
 9008SOL    HW227924   6.386   4.621   2.134
 9009SOL     OW27925   2.632   6.525   1.257
 9009SOL    HW127926   2.701   6.596   1.239
 9009SOL    HW227927   2.629   6.462   1.180
 9010SOL     OW27928   1.062   6.674   4.684
 9010SOL    HW127929   1.070   6.590   4.632
 9010SOL    HW227930   1.056   6.653   4.782
 9011SOL     OW27931   3.832   2.294   1.496
 9011SOL    HW127932   3.910   2.271   1.437
 9011SOL    HW227933   3.865   2.314   1.588
 9012SOL     OW27934   2.184   5.750   0.509
 9012SOL    HW127935   2.168   5.676   0.574
 9012SOL    HW227936   2.104   5.759   0.449
 9013SOL     OW27937   6.059   5.889   4.736
 9013SOL    HW127938   6.110   5.974   4.727
 9013SOL    HW227939   6.022   5.862   4.646
 9014SOL     OW27940   1.648   1.305   0.233
 9014SOL    HW127941   1.683   1.369   0.302
 9014SOL    HW227942   1.724   1.254   0.193
 9015SOL     OW27943   6.899   1.407   6.887
 9015SOL    HW127944   6.997   1.394   6.903
 9015SOL    HW227945   6.881   1.504   6.871
 9016SOL     OW27946   6.606   6.311   5.590
 9016SOL    HW127947   6.515   6.334   5.623
 9016SOL    HW227948   6.650   6.394   5.555
 9017SOL     OW27949   6.007   2.348   3.436
 9017SOL    HW127950   6.030   2.284   3.510
 9017SOL    HW227951   6.083   2.411   3.422
 9018SOL     OW27952   3.562   1.509   5.419
 9018SOL    HW127953   3.654   1.523   5.382
 9018SOL    HW227954   3.532   1.591   5.467
 9019SOL     OW27955   1.930   6.602   0.027
 9019SOL    HW127956   2.021   6.626   7.019
 9019SOL    HW227957   1.907   6.509   7.023
 9020SOL     OW27958   1.973   4.062   2.320
 9020SOL    HW127959   1.980   4.155   2.356
 9020SOL    HW227960   1.891   4.018   2.356
 9021SOL     OW27961   6.908   6.026   3.523
 9021SOL    HW127962   6.977   5.955   3.512
 9021SOL    HW227963   6.858   6.012   3.608
 9022SOL     OW27964   2.772   0.250   0.378
 9022SOL    HW127965   2.719   0.331   0.351
 9022SOL    HW227966   2.769   0.240   0.477
 9023SOL     OW27967   3.808   3.668   3.087
 9023SOL    HW127968   3.879   3.732   3.060
 9023SOL    HW227969   3.770   3.695   3.176
 9024SOL     OW27970   1.380   5.994   6.195
 9024SOL    HW127971   1.367   6.041   6.108
 9024SOL    HW227972   1.456   5.929   6.187
 9025SOL     OW27973   5.993   5.802   1.279
 9025SOL    HW127974   5.923   5.808   1.207
 9025SOL    HW227975   6.082   5.827   1.241
 9026SOL     OW27976   3.577   3.320   4.024
 9026SOL    HW127977   3.478   3.305   4.021
 9026SOL    HW227978   3.623   3.232   4.033
 9027SOL     OW27979   2.757   1.774   3.436
 9027SOL    HW127980   2.701   1.855   3.454
 9027SOL    HW227981   2.707   1.693   3.466
 9028SOL     OW27982   1.697   4.618   6.466
 9028SOL    HW127983   1.730   4.566   6.545
 9028SOL    HW227984   1.653   4.555   6.402
 9029SOL     OW27985   3.869   5.022   4.916
 9029SOL    HW127986   3.920   5.060   4.992
 9029SOL    HW227987   3.773   5.047   4.924
 9030SOL     OW27988   1.964   0.339   2.611
 9030SOL    HW127989   1.947   0.246   2.576
 9030SOL    HW227990   1.947   0.340   2.710
 9031SOL     OW27991   3.030   5.246   5.729
 9031SOL    HW127992   3.036   5.344   5.714
 9031SOL    HW227993   3.116   5.213   5.767
 9032SOL     OW27994   3.755   2.908   1.207
 9032SOL    HW127995   3.658   2.932   1.200
 9032SOL    HW227996   3.777   2.839   1.138
 9033SOL     OW27997   2.232   3.059   4.124
 9033SOL    HW127998   2.211   3.146   4.079
 9033SOL    HW227999   2.264   2.993   4.056
 9034SOL     OW28000   2.741   6.966   5.136
 9034SOL    HW128001   2.720   6.889   5.196
 9034SOL    HW228002   2.831   6.952   5.093
 9035SOL     OW28003   0.699   6.871   5.199
 9035SOL    HW128004   0.788   6.847   5.238
 9035SOL    HW228005   0.712   6.913   5.109
 9036SOL     OW28006   2.311   2.406   5.219
 9036SOL    HW128007   2.248   2.481   5.241
 9036SOL    HW228008   2.389   2.408   5.281
 9037SOL     OW28009   2.205   3.907   6.344
 9037SOL    HW128010   2.247   3.875   6.428
 9037SOL    HW228011   2.273   3.957   6.289
 9038SOL     OW28012   5.824   0.953   5.953
 9038SOL    HW128013   5.826   1.006   6.038
 9038SOL    HW228014   5.913   0.910   5.939
 9039SOL     OW28015   2.014   4.347   5.113
 9039SOL    HW128016   2.103   4.315   5.147
 9039SOL    HW228017   1.961   4.383   5.189
 9040SOL     OW28018   2.805   0.510   3.447
 9040SOL    HW128019   2.884   0.492   3.505
 9040SOL    HW228020   2.812   0.601   3.408
 9041SOL     OW28021   0.681   1.829   2.032
 9041SOL    HW128022   0.626   1.747   2.016
 9041SOL    HW228023   0.636   1.886   2.100
 9042SOL     OW28024   2.504   6.493   3.675
 9042SOL    HW128025   2.602   6.472   3.680
 9042SOL    HW228026   2.483   6.536   3.588
 9043SOL     OW28027   2.116   2.008   5.638
 9043SOL    HW128028   2.082   1.988   5.729
 9043SOL    HW228029   2.118   2.107   5.624
 9044SOL     OW28030   6.366   1.444   0.473
 9044SOL    HW128031   6.338   1.364   0.527
 9044SOL    HW228032   6.443   1.489   0.518
 9045SOL     OW28033   4.108   0.828   2.800
 9045SOL    HW128034   4.080   0.924   2.811
 9045SOL    HW228035   4.079   0.776   2.880
 9046SOL     OW28036   3.549   3.780   5.320
 9046SOL    HW128037   3.628   3.796   5.260
 9046SOL    HW228038   3.492   3.707   5.281
 9047SOL     OW28039   2.148   4.128   5.467
 9047SOL    HW128040   2.126   4.070   5.389
 9047SOL    HW228041   2.248   4.135   5.476
 9048SOL     OW28042   1.691   3.736   6.130
 9048SOL    HW128043   1.769   3.771   6.077
 9048SOL    HW228044   1.649   3.660   6.080
 9049SOL     OW28045   4.752   6.258   6.710
 9049SOL    HW128046   4.726   6.162   6.707
 9049SOL    HW228047   4.671   6.315   6.720
 9050SOL     OW28048   1.016   5.234   6.724
 9050SOL    HW128049   0.973   5.144   6.725
 9050SOL    HW228050   1.115   5.225   6.737
 9051SOL     OW28051   4.146   6.279   1.018
 9051SOL    HW128052   4.226   6.228   1.052
 9051SOL    HW228053   4.072   6.273   1.085
 9052SOL     OW28054   2.723   4.788   4.712
 9052SOL    HW128055   2.629   4.820   4.713
 9052SOL    HW228056   2.761   4.797   4.620
 9053SOL     OW28057   2.429   2.143   4.019
 9053SOL    HW128058   2.443   2.146   3.920
 9053SOL    HW228059   2.516   2.128   4.065
 9054SOL     OW28060   1.884   0.594   2.509
 9054SOL    HW128061   1.918   0.509   2.549
 9054SOL    HW228062   1.867   0.580   2.411
 9055SOL     OW28063   0.636   3.957   3.284
 9055SOL    HW128064   0.692   4.034   3.312
 9055SOL    HW228065   0.675   3.915   3.202
 9056SOL     OW28066   4.764   0.497   1.467
 9056SOL    HW128067   4.744   0.406   1.430
 9056SOL    HW228068   4.789   0.558   1.391
 9057SOL     OW28069   6.178   4.713   6.227
 9057SOL    HW128070   6.116   4.766   6.169
 9057SOL    HW228071   6.257   4.683   6.174
 9058SOL     OW28072   2.149   2.175   4.956
 9058SOL    HW128073   2.075   2.241   4.970
 9058SOL    HW228074   2.120   2.085   4.987
 9059SOL     OW28075   6.487   0.735   3.268
 9059SOL    HW128076   6.407   0.736   3.209
 9059SOL    HW228077   6.543   0.816   3.251
 9060SOL     OW28078   6.418   3.535   2.583
 9060SOL    HW128079   6.462   3.500   2.500
 9060SOL    HW228080   6.464   3.618   2.614
 9061SOL     OW28081   4.886   5.718   2.976
 9061SOL    HW128082   4.791   5.686   2.980
 9061SOL    HW228083   4.942   5.649   2.930
 9062SOL     OW28084   1.274   4.747   2.102
 9062SOL    HW128085   1.252   4.719   2.008
 9062SOL    HW228086   1.362   4.707   2.129
 9063SOL     OW28087   3.004   1.178   2.564
 9063SOL    HW128088   2.949   1.182   2.480
 9063SOL    HW228089   2.968   1.105   2.623
 9064SOL     OW28090   6.298   4.310   4.248
 9064SOL    HW128091   6.385   4.273   4.216
 9064SOL    HW228092   6.313   4.399   4.290
 9065SOL     OW28093   2.775   5.843   5.695
 9065SOL    HW128094   2.841   5.770   5.677
 9065SOL    HW228095   2.742   5.836   5.789
 9066SOL     OW28096   6.240   0.232   6.171
 9066SOL    HW128097   6.332   0.227   6.211
 9066SOL    HW228098   6.232   0.164   6.099
 9067SOL     OW28099   6.494   6.110   4.258
 9067SOL    HW128100   6.584   6.066   4.254
 9067SOL    HW228101   6.425   6.042   4.282
 9068SOL     OW28102   3.643   6.864   5.292
 9068SOL    HW128103   3.725   6.868   5.348
 9068SOL    HW228104   3.572   6.811   5.339
 9069SOL     OW28105   4.856   2.104   2.920
 9069SOL    HW128106   4.810   2.056   2.845
 9069SOL    HW228107   4.817   2.195   2.930
 9070SOL     OW28108   1.638   2.136   6.101
 9070SOL    HW128109   1.558   2.153   6.160
 9070SOL    HW228110   1.715   2.108   6.157
 9071SOL     OW28111   5.393   0.351   6.343
 9071SOL    HW128112   5.374   0.436   6.393
 9071SOL    HW228113   5.479   0.361   6.292
 9072SOL     OW28114   4.961   6.523   1.453
 9072SOL    HW128115   4.868   6.516   1.491
 9072SOL    HW228116   5.019   6.573   1.517
 9073SOL     OW28117   3.784   6.323   0.904
 9073SOL    HW128118   3.826   6.276   0.982
 9073SOL    HW228119   3.783   6.422   0.921
 9074SOL     OW28120   1.563   0.979   1.511
 9074SOL    HW128121   1.483   1.032   1.540
 9074SOL    HW228122   1.601   1.019   1.427
 9075SOL     OW28123   0.399   0.286   2.313
 9075SOL    HW128124   0.398   0.378   2.274
 9075SOL    HW228125   0.311   0.242   2.297
 9076SOL     OW28126   4.703   1.359   3.827
 9076SOL    HW128127   4.614   1.320   3.852
 9076SOL    HW228128   4.773   1.328   3.891
 9077SOL     OW28129   4.567   1.484   6.469
 9077SOL    HW128130   4.599   1.555   6.531
 9077SOL    HW228131   4.472   1.502   6.444
 9078SOL     OW28132   5.546   5.370   6.467
 9078SOL    HW128133   5.593   5.387   6.380
 9078SOL    HW228134   5.449   5.391   6.457
 9079SOL     OW28135   1.788   0.011   4.925
 9079SOL    HW128136   1.791   0.051   5.016
 9079SOL    HW228137   1.879   6.998   4.902
 9080SOL     OW28138   6.416   2.731   6.978
 9080SOL    HW128139   6.434   2.775   6.890
 9080SOL    HW228140   6.494   2.746   0.015
 9081SOL     OW28141   3.342   1.680   1.629
 9081SOL    HW128142   3.243   1.694   1.631
 9081SOL    HW228143   3.384   1.729   1.706
 9082SOL     OW28144   2.508   6.714   4.749
 9082SOL    HW128145   2.487   6.755   4.660
 9082SOL    HW228146   2.556   6.781   4.806
 9083SOL     OW28147   4.433   4.228   6.333
 9083SOL    HW128148   4.377   4.194   6.258
 9083SOL    HW228149   4.520   4.178   6.335
 9084SOL     OW28150   1.020   2.402   6.102
 9084SOL    HW128151   1.083   2.435   6.032
 9084SOL    HW228152   1.003   2.475   6.169
 9085SOL     OW28153   2.423   5.737   1.353
 9085SOL    HW128154   2.368   5.658   1.378
 9085SOL    HW228155   2.491   5.755   1.425
 9086SOL     OW28156   6.083   4.032   0.840
 9086SOL    HW128157   6.042   4.013   0.929
 9086SOL    HW228158   6.011   4.044   0.772
 9087SOL     OW28159   5.378   2.800   2.363
 9087SOL    HW128160   5.413   2.883   2.406
 9087SOL    HW228161   5.280   2.811   2.344
 9088SOL     OW28162   5.916   6.920   1.892
 9088SOL    HW128163   5.966   6.986   1.948
 9088SOL    HW228164   5.962   6.908   1.804
 9089SOL     OW28165   4.017   5.739   5.043
 9089SOL    HW128166   4.043   5.685   5.123
 9089SOL    HW228167   4.095   5.744   4.980
 9090SOL     OW28168   5.159   0.478   4.389
 9090SOL    HW128169   5.102   0.399   4.413
 9090SOL    HW228170   5.143   0.502   4.293
 9091SOL     OW28171   3.140   3.330   0.911
 9091SOL    HW128172   3.133   3.234   0.939
 9091SOL    HW228173   3.123   3.389   0.990
 9092SOL     OW28174   0.968   1.203   6.801
 9092SOL    HW128175   0.974   1.230   6.705
 9092SOL    HW228176   0.942   1.282   6.857
 9093SOL     OW28177   1.147   6.137   6.820
 9093SOL    HW128178   1.229   6.192   6.808
 9093SOL    HW228179   1.146   6.097   6.911
 9094SOL     OW28180   0.740   5.139   2.544
 9094SOL    HW128181   0.713   5.218   2.600
 9094SOL    HW228182   0.741   5.057   2.601
 9095SOL     OW28183   5.266   3.855   5.826
 9095SOL    HW128184   5.243   3.948   5.854
 9095SOL    HW228185   5.256   3.793   5.903
 9096SOL     OW28186   5.154   3.564   2.933
 9096SOL    HW128187   5.137   3.555   2.835
 9096SOL    HW228188   5.099   3.639   2.970
 9097SOL     OW28189   0.248   3.343   6.963
 9097SOL    HW128190   0.292   3.255   6.953
 9097SOL    HW228191   0.186   3.341   0.017
 9098SOL     OW28192   3.701   3.108   0.127
 9098SOL    HW128193   3.654   3.180   0.076
 9098SOL    HW228194   3.660   3.100   0.218
 9099SOL     OW28195   3.493   3.699   0.447
 9099SOL    HW128196   3.471   3.786   0.404
 9099SOL    HW228197   3.410   3.656   0.482
 9100SOL     OW28198   1.278   3.277   2.883
 9100SOL    HW128199   1.322   3.234   2.804
 9100SOL    HW228200   1.275   3.212   2.959
 9101SOL     OW28201   1.973   2.949   3.082
 9101SOL    HW128202   2.048   2.990   3.031
 9101SOL    HW228203   2.002   2.861   3.119
 9102SOL     OW28204   3.676   6.352   1.823
 9102SOL    HW128205   3.593   6.311   1.859
 9102SOL    HW228206   3.712   6.295   1.749
 9103SOL     OW28207   6.530   3.755   6.599
 9103SOL    HW128208   6.521   3.778   6.696
 9103SOL    HW228209   6.573   3.666   6.590
 9104SOL     OW28210   4.417   6.219   2.533
 9104SOL    HW128211   4.472   6.190   2.611
 9104SOL    HW228212   4.476   6.227   2.452
 9105SOL     OW28213   1.412   1.076   0.686
 9105SOL    HW128214   1.435   1.157   0.632
 9105SOL    HW228215   1.421   0.995   0.629
 9106SOL     OW28216   5.791   3.685   6.767
 9106SOL    HW128217   5.815   3.770   6.719
 9106SOL    HW228218   5.873   3.628   6.777
 9107SOL     OW28219   3.913   0.707   5.744
 9107SOL    HW128220   3.957   0.637   5.688
 9107SOL    HW228221   3.814   0.692   5.743
 9108SOL     OW28222   4.764   4.025   5.947
 9108SOL    HW128223   4.854   4.059   5.974
 9108SOL    HW228224   4.755   4.027   5.847
 9109SOL     OW28225   1.463   2.542   3.169
 9109SOL    HW128226   1.500   2.450   3.166
 9109SOL    HW228227   1.409   2.554   3.252
 9110SOL     OW28228   1.928   4.237   4.132
 9110SOL    HW128229   1.910   4.156   4.076
 9110SOL    HW228230   2.017   4.227   4.177
 9111SOL     OW28231   4.490   3.547   0.003
 9111SOL    HW128232   4.504   3.618   0.071
 9111SOL    HW228233   4.476   3.459   0.048
 9112SOL     OW28234   0.582   4.186   4.827
 9112SOL    HW128235   0.504   4.135   4.864
 9112SOL    HW228236   0.559   4.221   4.737
 9113SOL     OW28237   4.386   6.661   0.957
 9113SOL    HW128238   4.301   6.615   0.929
 9113SOL    HW228239   4.426   6.613   1.034
 9114SOL     OW28240   1.797   5.106   1.420
 9114SOL    HW128241   1.822   5.147   1.508
 9114SOL    HW228242   1.759   5.176   1.361
 9115SOL     OW28243   0.808   5.767   6.091
 9115SOL    HW128244   0.847   5.707   6.021
 9115SOL    HW228245   0.710   5.751   6.098
 9116SOL     OW28246   6.521   1.966   0.578
 9116SOL    HW128247   6.612   1.987   0.541
 9116SOL    HW228248   6.457   1.950   0.503
 9117SOL     OW28249   6.064   2.720   0.254
 9117SOL    HW128250   5.965   2.707   0.243
 9117SOL    HW228251   6.094   2.793   0.192
 9118SOL     OW28252   6.745   5.902   0.585
 9118SOL    HW128253   6.805   5.855   0.650
 9118SOL    HW228254   6.722   5.992   0.621
 9119SOL     OW28255   5.764   1.464   1.574
 9119SOL    HW128256   5.723   1.373   1.585
 9119SOL    HW228257   5.855   1.455   1.533
 9120SOL     OW28258   5.581   2.845   5.984
 9120SOL    HW128259   5.662   2.789   5.969
 9120SOL    HW228260   5.606   2.929   6.033
 9121SOL     OW28261   2.348   2.467   6.096
 9121SOL    HW128262   2.282   2.517   6.040
 9121SOL    HW228263   2.376   2.384   6.047
 9122SOL     OW28264   1.938   3.896   2.060
 9122SOL    HW128265   2.025   3.848   2.045
 9122SOL    HW228266   1.945   3.953   2.142
 9123SOL     OW28267   3.698   0.273   4.643
 9123SOL    HW128268   3.749   0.341   4.591
 9123SOL    HW228269   3.624   0.236   4.586
 9124SOL     OW28270   5.626   0.458   5.699
 9124SOL    HW128271   5.674   0.374   5.725
 9124SOL    HW228272   5.570   0.489   5.775
 9125SOL     OW28273   5.241   4.174   1.847
 9125SOL    HW128274   5.274   4.265   1.873
 9125SOL    HW228275   5.221   4.121   1.930
 9126SOL     OW28276   5.740   2.297   1.740
 9126SOL    HW128277   5.824   2.345   1.761
 9126SOL    HW228278   5.668   2.362   1.717
 9127SOL     OW28279   6.837   1.319   5.955
 9127SOL    HW128280   6.845   1.340   6.052
 9127SOL    HW228281   6.817   1.403   5.904
 9128SOL     OW28282   4.395   1.560   5.015
 9128SOL    HW128283   4.464   1.602   4.956
 9128SOL    HW228284   4.319   1.624   5.028
 9129SOL     OW28285   0.095   2.775   1.128
 9129SOL    HW128286   0.146   2.849   1.173
 9129SOL    HW228287   0.114   2.777   1.030
 9130SOL     OW28288   7.010   3.271   0.375
 9130SOL    HW128289   0.011   3.254   0.470
 9130SOL    HW228290   6.928   3.218   0.352
 9131SOL     OW28291   6.865   3.024   5.782
 9131SOL    HW128292   6.946   3.000   5.729
 9131SOL    HW228293   6.845   3.121   5.769
 9132SOL     OW28294   0.077   4.890   4.352
 9132SOL    HW128295   7.024   4.896   4.289
 9132SOL    HW228296   0.160   4.867   4.300
 9133SOL     OW28297   4.043   6.237   1.293
 9133SOL    HW128298   4.056   6.171   1.367
 9133SOL    HW228299   3.946   6.241   1.269
 9134SOL     OW28300   4.501   6.016   0.193
 9134SOL    HW128301   4.432   6.071   0.144
 9134SOL    HW228302   4.463   5.984   0.279
 9135SOL     OW28303   6.221   6.562   2.086
 9135SOL    HW128304   6.141   6.505   2.103
 9135SOL    HW228305   6.214   6.604   1.995
 9136SOL     OW28306   5.354   5.502   6.117
 9136SOL    HW128307   5.353   5.402   6.110
 9136SOL    HW228308   5.285   5.540   6.055
 9137SOL     OW28309   5.273   1.862   1.119
 9137SOL    HW128310   5.303   1.783   1.172
 9137SOL    HW228311   5.346   1.930   1.116
 9138SOL     OW28312   0.007   6.035   5.492
 9138SOL    HW128313   6.946   5.984   5.492
 9138SOL    HW228314   0.009   6.095   5.572
 9139SOL     OW28315   2.302   1.753   5.002
 9139SOL    HW128316   2.372   1.808   4.957
 9139SOL    HW228317   2.235   1.813   5.045
 9140SOL     OW28318   6.025   3.454   3.085
 9140SOL    HW128319   6.005   3.356   3.094
 9140SOL    HW228320   5.998   3.485   2.994
 9141SOL     OW28321   5.948   0.893   6.939
 9141SOL    HW128322   5.997   0.813   6.903
 9141SOL    HW228323   6.000   0.932   7.015
 9142SOL     OW28324   0.807   2.369   1.376
 9142SOL    HW128325   0.810   2.388   1.474
 9142SOL    HW228326   0.711   2.363   1.346
 9143SOL     OW28327   5.796   2.999   1.072
 9143SOL    HW128328   5.743   2.928   1.118
 9143SOL    HW228329   5.845   3.053   1.140
 9144SOL     OW28330   2.496   5.243   5.726
 9144SOL    HW128331   2.439   5.190   5.663
 9144SOL    HW228332   2.518   5.188   5.806
 9145SOL     OW28333   0.091   5.667   0.499
 9145SOL    HW128334   0.068   5.751   0.448
 9145SOL    HW228335   0.165   5.685   0.562
 9146SOL     OW28336   5.412   3.041   3.010
 9146SOL    HW128337   5.482   3.107   2.981
 9146SOL    HW228338   5.456   2.967   3.061
 9147SOL     OW28339   5.924   0.454   4.405
 9147SOL    HW128340   5.968   0.467   4.316
 9147SOL    HW228341   5.829   0.485   4.400
 9148SOL     OW28342   5.378   6.477   0.535
 9148SOL    HW128343   5.349   6.572   0.535
 9148SOL    HW228344   5.310   6.421   0.489
 9149SOL     OW28345   5.931   3.620   3.593
 9149SOL    HW128346   5.995   3.586   3.524
 9149SOL    HW228347   5.959   3.588   3.683
 9150SOL     OW28348   2.818   4.977   2.092
 9150SOL    HW128349   2.867   4.892   2.113
 9150SOL    HW228350   2.878   5.055   2.110
 9151SOL     OW28351   1.704   4.185   3.609
 9151SOL    HW128352   1.777   4.180   3.678
 9151SOL    HW228353   1.741   4.158   3.520
 9152SOL     OW28354   2.297   4.490   4.883
 9152SOL    HW128355   2.279   4.391   4.880
 9152SOL    HW228356   2.374   4.508   4.943
 9153SOL     OW28357   1.329   3.546   0.404
 9153SOL    HW128358   1.372   3.593   0.481
 9153SOL    HW228359   1.233   3.572   0.398
 9154SOL     OW28360   4.268   4.594   6.129
 9154SOL    HW128361   4.343   4.650   6.161
 9154SOL    HW228362   4.246   4.618   6.034
 9155SOL     OW28363   1.883   3.847   1.386
 9155SOL    HW128364   1.802   3.856   1.328
 9155SOL    HW228365   1.883   3.919   1.455
 9156SOL     OW28366   1.079   2.410   0.695
 9156SOL    HW128367   1.147   2.342   0.722
 9156SOL    HW228368   0.991   2.387   0.737
 9157SOL     OW28369   6.363   4.505   5.656
 9157SOL    HW128370   6.396   4.479   5.565
 9157SOL    HW228371   6.348   4.423   5.711
 9158SOL     OW28372   6.318   3.597   4.797
 9158SOL    HW128373   6.406   3.607   4.842
 9158SOL    HW228374   6.264   3.527   4.844
 9159SOL     OW28375   1.934   0.096   2.494
 9159SOL    HW128376   1.899   0.006   2.521
 9159SOL    HW228377   1.942   0.099   2.394
 9160SOL     OW28378   6.259   0.620   5.263
 9160SOL    HW128379   6.196   0.674   5.207
 9160SOL    HW228380   6.289   0.675   5.341
 9161SOL     OW28381   4.893   4.242   4.771
 9161SOL    HW128382   4.833   4.301   4.824
 9161SOL    HW228383   4.845   4.210   4.689
 9162SOL     OW28384   4.486   0.617   4.702
 9162SOL    HW128385   4.428   0.537   4.713
 9162SOL    HW228386   4.429   0.699   4.697
 9163SOL     OW28387   1.633   2.904   4.549
 9163SOL    HW128388   1.675   2.985   4.509
 9163SOL    HW228389   1.553   2.931   4.603
 9164SOL     OW28390   2.686   0.748   6.198
 9164SOL    HW128391   2.683   0.848   6.200
 9164SOL    HW228392   2.612   0.714   6.140
 9165SOL     OW28393   6.193   2.168   5.894
 9165SOL    HW128394   6.290   2.146   5.892
 9165SOL    HW228395   6.175   2.247   5.836
 9166SOL     OW28396   4.104   5.804   1.075
 9166SOL    HW128397   4.078   5.716   1.037
 9166SOL    HW228398   4.127   5.867   1.001
 9167SOL     OW28399   2.171   2.530   6.881
 9167SOL    HW128400   2.073   2.545   6.868
 9167SOL    HW228401   2.185   2.443   6.929
 9168SOL     OW28402   6.918   0.176   6.701
 9168SOL    HW128403   6.981   0.248   6.674
 9168SOL    HW228404   6.833   0.218   6.736
 9169SOL     OW28405   5.742   0.871   5.167
 9169SOL    HW128406   5.689   0.912   5.241
 9169SOL    HW228407   5.682   0.852   5.090
 9170SOL     OW28408   1.505   5.922   6.975
 9170SOL    HW128409   1.439   5.849   6.959
 9170SOL    HW228410   1.531   5.964   6.887
 9171SOL     OW28411   4.417   4.969   0.809
 9171SOL    HW128412   4.397   4.973   0.711
 9171SOL    HW228413   4.333   4.984   0.861
 9172SOL     OW28414   4.035   1.135   3.044
 9172SOL    HW128415   3.959   1.070   3.050
 9172SOL    HW228416   3.999   1.226   3.023
 9173SOL     OW28417   6.784   3.320   5.063
 9173SOL    HW128418   6.806   3.270   4.979
 9173SOL    HW228419   6.805   3.263   5.142
 9174SOL     OW28420   5.212   3.814   1.415
 9174SOL    HW128421   5.123   3.845   1.382
 9174SOL    HW228422   5.221   3.832   1.513
 9175SOL     OW28423   0.817   0.348   5.147
 9175SOL    HW128424   0.855   0.439   5.165
 9175SOL    HW228425   0.718   0.356   5.133
 9176SOL     OW28426   2.872   1.033   4.925
 9176SOL    HW128427   2.972   1.033   4.929
 9176SOL    HW228428   2.837   1.112   4.976
 9177SOL     OW28429   0.684   4.940   4.941
 9177SOL    HW128430   0.715   5.009   5.006
 9177SOL    HW228431   0.589   4.917   4.960
 9178SOL     OW28432   1.768   5.205   0.151
 9178SOL    HW128433   1.672   5.229   0.167
 9178SOL    HW228434   1.777   5.155   0.065
 9179SOL     OW28435   2.816   4.844   4.455
 9179SOL    HW128436   2.907   4.801   4.454
 9179SOL    HW228437   2.779   4.845   4.362
 9180SOL     OW28438   6.070   2.736   3.152
 9180SOL    HW128439   6.065   2.787   3.066
 9180SOL    HW228440   5.998   2.667   3.155
 9181SOL     OW28441   4.378   1.992   5.401
 9181SOL    HW128442   4.405   2.079   5.443
 9181SOL    HW228443   4.279   1.982   5.406
 9182SOL     OW28444   3.146   6.709   1.678
 9182SOL    HW128445   3.050   6.730   1.694
 9182SOL    HW228446   3.172   6.628   1.732
 9183SOL     OW28447   4.805   5.893   0.475
 9183SOL    HW128448   4.733   5.828   0.500
 9183SOL    HW228449   4.782   5.938   0.389
 9184SOL     OW28450   4.509   1.723   0.541
 9184SOL    HW128451   4.570   1.708   0.620
 9184SOL    HW228452   4.433   1.658   0.545
 9185SOL     OW28453   4.361   6.492   4.424
 9185SOL    HW128454   4.377   6.492   4.325
 9185SOL    HW228455   4.433   6.438   4.469
 9186SOL     OW28456   5.276   6.011   4.991
 9186SOL    HW128457   5.274   6.067   4.908
 9186SOL    HW228458   5.341   6.052   5.056
 9187SOL     OW28459   2.348   2.111   0.623
 9187SOL    HW128460   2.304   2.024   0.604
 9187SOL    HW228461   2.445   2.106   0.599
 9188SOL     OW28462   1.549   6.327   0.590
 9188SOL    HW128463   1.522   6.231   0.581
 9188SOL    HW228464   1.525   6.376   0.506
 9189SOL     OW28465   3.480   5.841   2.164
 9189SOL    HW128466   3.415   5.846   2.088
 9189SOL    HW228467   3.546   5.915   2.156
 9190SOL     OW28468   2.921   4.387   6.037
 9190SOL    HW128469   2.977   4.451   6.090
 9190SOL    HW228470   2.974   4.304   6.020
 9191SOL     OW28471   6.455   2.096   6.391
 9191SOL    HW128472   6.434   2.091   6.489
 9191SOL    HW228473   6.403   2.171   6.350
 9192SOL     OW28474   1.071   3.330   5.694
 9192SOL    HW128475   1.010   3.409   5.688
 9192SOL    HW228476   1.157   3.350   5.646
 9193SOL     OW28477   4.071   4.276   6.657
 9193SOL    HW128478   3.976   4.271   6.626
 9193SOL    HW228479   4.101   4.185   6.686
 9194SOL     OW28480   3.368   0.941   3.462
 9194SOL    HW128481   3.302   0.868   3.443
 9194SOL    HW228482   3.321   1.016   3.509
 9195SOL     OW28483   1.469   1.386   3.409
 9195SOL    HW128484   1.439   1.480   3.426
 9195SOL    HW228485   1.425   1.325   3.475
 9196SOL     OW28486   5.346   0.531   2.635
 9196SOL    HW128487   5.434   0.567   2.602
 9196SOL    HW228488   5.273   0.594   2.609
 9197SOL     OW28489   1.966   5.450   1.251
 9197SOL    HW128490   1.968   5.537   1.301
 9197SOL    HW228491   2.060   5.423   1.230
 9198SOL     OW28492   6.254   4.764   6.774
 9198SOL    HW128493   6.248   4.792   6.678
 9198SOL    HW228494   6.184   4.812   6.827
 9199SOL     OW28495   0.924   3.875   5.666
 9199SOL    HW128496   1.018   3.849   5.646
 9199SOL    HW228497   0.878   3.903   5.581
 9200SOL     OW28498   2.858   6.440   6.799
 9200SOL    HW128499   2.878   6.345   6.774
 9200SOL    HW228500   2.943   6.489   6.819
 9201SOL     OW28501   6.626   2.758   0.141
 9201SOL    HW128502   6.709   2.708   0.169
 9201SOL    HW228503   6.569   2.774   0.222
 9202SOL     OW28504   1.002   6.458   2.520
 9202SOL    HW128505   0.946   6.456   2.603
 9202SOL    HW228506   1.035   6.366   2.500
 9203SOL     OW28507   0.324   3.872   5.760
 9203SOL    HW128508   0.390   3.946   5.772
 9203SOL    HW228509   0.247   3.886   5.822
 9204SOL     OW28510   5.118   3.240   6.227
 9204SOL    HW128511   5.061   3.295   6.287
 9204SOL    HW228512   5.203   3.216   6.274
 9205SOL     OW28513   5.705   5.372   3.403
 9205SOL    HW128514   5.632   5.303   3.408
 9205SOL    HW228515   5.755   5.362   3.317
 9206SOL     OW28516   3.809   5.359   3.250
 9206SOL    HW128517   3.861   5.407   3.321
 9206SOL    HW228518   3.727   5.412   3.227
 9207SOL     OW28519   5.255   4.338   5.553
 9207SOL    HW128520   5.180   4.283   5.589
 9207SOL    HW228521   5.223   4.431   5.537
 9208SOL     OW28522   5.676   4.576   3.757
 9208SOL    HW128523   5.584   4.540   3.774
 9208SOL    HW228524   5.713   4.614   3.842
 9209SOL     OW28525   3.711   0.441   6.604
 9209SOL    HW128526   3.631   0.500   6.615
 9209SOL    HW228527   3.691   0.370   6.536
 9210SOL     OW28528   0.185   0.927   2.436
 9210SOL    HW128529   0.206   1.023   2.455
 9210SOL    HW228530   0.236   0.897   2.355
 9211SOL     OW28531   0.755   2.864   5.851
 9211SOL    HW128532   0.792   2.773   5.867
 9211SOL    HW228533   0.777   2.924   5.928
 9212SOL     OW28534   4.262   6.099   4.357
 9212SOL    HW128535   4.172   6.087   4.399
 9212SOL    HW228536   4.259   6.178   4.295
 9213SOL     OW28537   5.507   3.196   5.103
 9213SOL    HW128538   5.479   3.220   5.196
 9213SOL    HW228539   5.606   3.180   5.101
 9214SOL     OW28540   6.916   3.803   6.573
 9214SOL    HW128541   6.855   3.806   6.494
 9214SOL    HW228542   6.957   3.712   6.579
 9215SOL     OW28543   0.562   2.577   1.526
 9215SOL    HW128544   0.504   2.575   1.444
 9215SOL    HW228545   0.641   2.636   1.509
 9216SOL     OW28546   3.268   6.608   2.312
 9216SOL    HW128547   3.206   6.672   2.356
 9216SOL    HW228548   3.363   6.637   2.325
 9217SOL     OW28549   7.022   2.940   6.477
 9217SOL    HW128550   0.058   2.861   6.486
 9217SOL    HW228551   6.964   2.947   6.558
 9218SOL     OW28552   1.671   0.211   6.983
 9218SOL    HW128553   1.759   0.164   6.978
 9218SOL    HW228554   1.662   0.255   0.049
 9219SOL     OW28555   6.128   3.226   1.322
 9219SOL    HW128556   6.149   3.315   1.283
 9219SOL    HW228557   6.031   3.207   1.311
 9220SOL     OW28558   1.774   6.330   1.526
 9220SOL    HW128559   1.796   6.260   1.459
 9220SOL    HW228560   1.691   6.378   1.498
 9221SOL     OW28561   3.290   0.521   3.339
 9221SOL    HW128562   3.295   0.455   3.415
 9221SOL    HW228563   3.372   0.512   3.282
 9222SOL     OW28564   2.150   6.044   6.428
 9222SOL    HW128565   2.073   6.007   6.480
 9222SOL    HW228566   2.176   5.980   6.356
 9223SOL     OW28567   0.638   1.725   3.604
 9223SOL    HW128568   0.558   1.743   3.661
 9223SOL    HW228569   0.658   1.627   3.605
 9224SOL     OW28570   1.304   4.845   4.398
 9224SOL    HW128571   1.248   4.905   4.454
 9224SOL    HW228572   1.314   4.756   4.442
 9225SOL     OW28573   2.952   6.692   6.216
 9225SOL    HW128574   3.021   6.635   6.172
 9225SOL    HW228575   2.991   6.735   6.297
 9226SOL     OW28576   6.132   7.017   1.500
 9226SOL    HW128577   6.105   6.937   1.554
 9226SOL    HW228578   6.065   0.008   1.427
 9227SOL     OW28579   1.293   5.723   0.884
 9227SOL    HW128580   1.392   5.730   0.880
 9227SOL    HW228581   1.261   5.658   0.814
 9228SOL     OW28582   1.699   1.785   5.735
 9228SOL    HW128583   1.719   1.695   5.695
 9228SOL    HW228584   1.621   1.777   5.796
 9229SOL     OW28585   1.194   5.841   5.503
 9229SOL    HW128586   1.233   5.905   5.437
 9229SOL    HW228587   1.096   5.859   5.512
 9230SOL     OW28588   4.557   2.009   3.830
 9230SOL    HW128589   4.578   1.983   3.925
 9230SOL    HW228590   4.624   2.077   3.799
 9231SOL     OW28591   0.426   4.092   4.574
 9231SOL    HW128592   0.361   4.168   4.573
 9231SOL    HW228593   0.381   4.010   4.608
 9232SOL     OW28594   3.679   4.915   0.239
 9232SOL    HW128595   3.738   4.959   0.307
 9232SOL    HW228596   3.631   4.838   0.281
 9233SOL     OW28597   5.671   5.235   1.991
 9233SOL    HW128598   5.724   5.160   1.952
 9233SOL    HW228599   5.610   5.199   2.063
 9234SOL     OW28600   3.459   6.130   5.806
 9234SOL    HW128601   3.423   6.162   5.893
 9234SOL    HW228602   3.557   6.146   5.803
 9235SOL     OW28603   1.532   3.234   3.551
 9235SOL    HW128604   1.585   3.283   3.482
 9235SOL    HW228605   1.465   3.296   3.593
 9236SOL     OW28606   1.933   4.626   5.749
 9236SOL    HW128607   1.932   4.670   5.659
 9236SOL    HW228608   2.028   4.612   5.778
 9237SOL     OW28609   1.767   5.675   4.537
 9237SOL    HW128610   1.802   5.759   4.496
 9237SOL    HW228611   1.707   5.629   4.471
 9238SOL     OW28612   3.728   1.029   0.141
 9238SOL    HW128613   3.701   1.109   0.195
 9238SOL    HW228614   3.647   0.987   0.101
 9239SOL     OW28615   6.413   4.446   0.292
 9239SOL    HW128616   6.337   4.505   0.315
 9239SOL    HW228617   6.488   4.459   0.357
 9240SOL     OW28618   5.108   1.346   1.317
 9240SOL    HW128619   5.012   1.333   1.290
 9240SOL    HW228620   5.122   1.442   1.342
 9241SOL     OW28621   0.818   5.246   5.618
 9241SOL    HW128622   0.804   5.187   5.698
 9241SOL    HW228623   0.885   5.317   5.641
 9242SOL     OW28624   1.011   4.946   0.301
 9242SOL    HW128625   1.057   5.025   0.259
 9242SOL    HW228626   0.952   4.977   0.375
 9243SOL     OW28627   5.955   0.067   1.295
 9243SOL    HW128628   5.874   0.011   1.277
 9243SOL    HW228629   6.001   0.086   1.208
 9244SOL     OW28630   4.547   5.479   6.114
 9244SOL    HW128631   4.537   5.384   6.083
 9244SOL    HW228632   4.460   5.511   6.150
 9245SOL     OW28633   1.765   4.843   3.408
 9245SOL    HW128634   1.719   4.760   3.377
 9245SOL    HW228635   1.757   4.850   3.507
 9246SOL     OW28636   0.065   5.685   2.411
 9246SOL    HW128637   0.027   5.632   2.487
 9246SOL    HW228638   0.047   5.637   2.325
 9247SOL     OW28639   1.508   6.991   2.380
 9247SOL    HW128640   1.455   6.931   2.441
 9247SOL    HW228641   1.594   6.946   2.356
 9248SOL     OW28642   1.887   1.819   4.623
 9248SOL    HW128643   1.897   1.826   4.722
 9248SOL    HW228644   1.963   1.865   4.578
 9249SOL     OW28645   4.375   4.020   0.129
 9249SOL    HW128646   4.422   4.039   0.043
 9249SOL    HW228647   4.327   3.933   0.123
 9250SOL     OW28648   5.543   3.367   4.257
 9250SOL    HW128649   5.578   3.459   4.240
 9250SOL    HW228650   5.443   3.370   4.261
 9251SOL     OW28651   4.240   1.944   2.721
 9251SOL    HW128652   4.258   1.979   2.813
 9251SOL    HW228653   4.205   2.017   2.664
 9252SOL     OW28654   5.660   0.535   4.749
 9252SOL    HW128655   5.702   0.542   4.659
 9252SOL    HW228656   5.731   0.536   4.819
 9253SOL     OW28657   5.572   6.351   5.322
 9253SOL    HW128658   5.548   6.441   5.287
 9253SOL    HW228659   5.546   6.344   5.419
 9254SOL     OW28660   6.115   4.609   2.821
 9254SOL    HW128661   6.016   4.610   2.840
 9254SOL    HW228662   6.164   4.645   2.900
 9255SOL     OW28663   4.546   3.524   6.774
 9255SOL    HW128664   4.540   3.508   6.872
 9255SOL    HW228665   4.468   3.481   6.728
 9256SOL     OW28666   4.589   0.014   3.086
 9256SOL    HW128667   4.501   0.042   3.048
 9256SOL    HW228668   4.652   0.092   3.084
 9257SOL     OW28669   0.093   3.935   2.876
 9257SOL    HW128670   0.131   3.952   2.785
 9257SOL    HW228671   7.017   3.931   2.870
 9258SOL     OW28672   3.010   3.321   3.239
 9258SOL    HW128673   2.998   3.298   3.142
 9258SOL    HW228674   3.058   3.247   3.285
 9259SOL     OW28675   1.084   2.706   6.526
 9259SOL    HW128676   1.091   2.806   6.518
 9259SOL    HW228677   1.092   2.665   6.435
 9260SOL     OW28678   4.947   1.927   4.899
 9260SOL    HW128679   5.019   1.884   4.844
 9260SOL    HW228680   4.938   2.023   4.872
 9261SOL     OW28681   4.462   0.819   6.948
 9261SOL    HW128682   4.425   0.903   6.909
 9261SOL    HW228683   4.550   0.798   6.906
 9262SOL     OW28684   0.212   3.596   5.799
 9262SOL    HW128685   0.245   3.662   5.732
 9262SOL    HW228686   0.287   3.536   5.827
 9263SOL     OW28687   5.158   5.853   1.865
 9263SOL    HW128688   5.236   5.834   1.804
 9263SOL    HW228689   5.192   5.891   1.951
 9264SOL     OW28690   5.677   4.410   0.550
 9264SOL    HW128691   5.771   4.417   0.582
 9264SOL    HW228692   5.647   4.315   0.555
 9265SOL     OW28693   3.602   2.010   0.001
 9265SOL    HW128694   3.665   1.954   0.054
 9265SOL    HW228695   3.619   2.107   0.020
 9266SOL     OW28696   2.393   0.005   1.912
 9266SOL    HW128697   2.352   0.093   1.889
 9266SOL    HW228698   2.480   7.019   1.864
 9267SOL     OW28699   0.487   3.623   5.206
 9267SOL    HW128700   0.435   3.543   5.176
 9267SOL    HW228701   0.484   3.630   5.306
 9268SOL     OW28702   1.397   5.637   1.880
 9268SOL    HW128703   1.309   5.677   1.908
 9268SOL    HW228704   1.420   5.563   1.943
 9269SOL     OW28705   2.787   1.332   6.047
 9269SOL    HW128706   2.759   1.425   6.023
 9269SOL    HW228707   2.826   1.287   5.967
 9270SOL     OW28708   4.456   6.461   6.141
 9270SOL    HW128709   4.415   6.395   6.078
 9270SOL    HW228710   4.449   6.426   6.235
 9271SOL     OW28711   0.481   6.928   6.915
 9271SOL    HW128712   0.492   7.015   6.963
 9271SOL    HW228713   0.558   6.915   6.852
 9272SOL     OW28714   1.760   5.154   4.280
 9272SOL    HW128715   1.698   5.077   4.293
 9272SOL    HW228716   1.751   5.189   4.187
 9273SOL     OW28717   5.774   6.064   3.550
 9273SOL    HW128718   5.789   5.967   3.571
 9273SOL    HW228719   5.717   6.105   3.621
 9274SOL     OW28720   6.320   2.553   0.159
 9274SOL    HW128721   6.237   2.575   0.210
 9274SOL    HW228722   6.330   2.617   0.083
 9275SOL     OW28723   0.068   1.836   6.693
 9275SOL    HW128724   0.022   1.871   6.612
 9275SOL    HW228725   0.027   1.749   6.720
 9276SOL     OW28726   2.027   4.277   2.490
 9276SOL    HW128727   2.123   4.257   2.471
 9276SOL    HW228728   2.020   4.353   2.554
 9277SOL     OW28729   5.393   2.927   6.897
 9277SOL    HW128730   5.375   3.012   6.947
 9277SOL    HW228731   5.451   2.947   6.818
 9278SOL     OW28732   1.186   0.514   5.952
 9278SOL    HW128733   1.115   0.572   5.912
 9278SOL    HW228734   1.174   0.420   5.921
 9279SOL     OW28735   5.353   0.839   1.726
 9279SOL    HW128736   5.300   0.922   1.744
 9279SOL    HW228737   5.427   0.831   1.794
 9280SOL     OW28738   1.941   1.596   3.452
 9280SOL    HW128739   1.853   1.587   3.405
 9280SOL    HW228740   1.994   1.669   3.410
 9281SOL     OW28741   2.872   4.610   0.807
 9281SOL    HW128742   2.898   4.634   0.900
 9281SOL    HW228743   2.775   4.584   0.805
 9282SOL     OW28744   5.085   0.791   4.344
 9282SOL    HW128745   5.049   0.753   4.258
 9282SOL    HW228746   5.018   0.778   4.417
 9283SOL     OW28747   5.637   0.448   3.914
 9283SOL    HW128748   5.711   0.382   3.924
 9283SOL    HW228749   5.674   0.536   3.886
 9284SOL     OW28750   3.029   4.131   6.077
 9284SOL    HW128751   3.126   4.131   6.104
 9284SOL    HW228752   2.994   4.037   6.082
 9285SOL     OW28753   5.032   2.442   1.328
 9285SOL    HW128754   5.042   2.345   1.353
 9285SOL    HW228755   4.971   2.449   1.249
 9286SOL     OW28756   5.209   6.132   0.076
 9286SOL    HW128757   5.208   6.190   7.018
 9286SOL    HW228758   5.285   6.068   0.071
 9287SOL     OW28759   3.466   5.269   6.190
 9287SOL    HW128760   3.539   5.232   6.247
 9287SOL    HW228761   3.421   5.344   6.238
 9288SOL     OW28762   4.369   1.385   3.546
 9288SOL    HW128763   4.303   1.441   3.495
 9288SOL    HW228764   4.391   1.304   3.492
 9289SOL     OW28765   4.326   1.649   2.343
 9289SOL    HW128766   4.422   1.649   2.318
 9289SOL    HW228767   4.274   1.594   2.278
 9290SOL     OW28768   5.291   1.059   3.003
 9290SOL    HW128769   5.217   0.992   3.000
 9290SOL    HW228770   5.263   1.136   3.061
 9291SOL     OW28771   1.822   6.763   4.124
 9291SOL    HW128772   1.894   6.831   4.124
 9291SOL    HW228773   1.781   6.757   4.033
 9292SOL     OW28774   0.649   3.415   6.898
 9292SOL    HW128775   0.578   3.473   6.938
 9292SOL    HW228776   0.657   3.331   6.951
 9293SOL     OW28777   5.647   4.013   6.750
 9293SOL    HW128778   5.693   3.969   6.827
 9293SOL    HW228779   5.672   3.966   6.665
 9294SOL     OW28780   3.312   0.585   4.925
 9294SOL    HW128781   3.358   0.498   4.939
 9294SOL    HW228782   3.374   0.660   4.949
 9295SOL     OW28783   5.258   2.115   4.284
 9295SOL    HW128784   5.238   2.063   4.200
 9295SOL    HW228785   5.207   2.201   4.283
 9296SOL     OW28786   7.012   6.378   6.738
 9296SOL    HW128787   6.918   6.405   6.760
 9296SOL    HW228788   0.050   6.454   6.760
 9297SOL     OW28789   6.637   1.040   0.261
 9297SOL    HW128790   6.542   1.053   0.233
 9297SOL    HW228791   6.692   1.012   0.183
 9298SOL     OW28792   1.297   0.485   4.943
 9298SOL    HW128793   1.283   0.493   5.042
 9298SOL    HW228794   1.235   0.415   4.906
 9299SOL     OW28795   0.748   2.743   4.326
 9299SOL    HW128796   0.783   2.758   4.419
 9299SOL    HW228797   0.822   2.755   4.260
 9300SOL     OW28798   0.235   4.634   5.282
 9300SOL    HW128799   0.281   4.559   5.234
 9300SOL    HW228800   0.214   4.605   5.376
 9301SOL     OW28801   4.696   4.415   3.860
 9301SOL    HW128802   4.711   4.514   3.872
 9301SOL    HW228803   4.760   4.379   3.793
 9302SOL     OW28804   2.332   2.734   4.021
 9302SOL    HW128805   2.398   2.698   4.086
 9302SOL    HW228806   2.246   2.754   4.068
 9303SOL     OW28807   3.200   5.061   0.888
 9303SOL    HW128808   3.157   4.981   0.930
 9303SOL    HW228809   3.300   5.053   0.897
 9304SOL     OW28810   4.659   4.329   2.239
 9304SOL    HW128811   4.592   4.352   2.169
 9304SOL    HW228812   4.702   4.241   2.217
 9305SOL     OW28813   2.987   0.803   1.491
 9305SOL    HW128814   2.989   0.703   1.493
 9305SOL    HW228815   3.043   0.835   1.414
 9306SOL     OW28816   6.974   4.361   4.653
 9306SOL    HW128817   7.000   4.383   4.748
 9306SOL    HW228818   6.955   4.263   4.646
 9307SOL     OW28819   1.725   3.732   1.910
 9307SOL    HW128820   1.781   3.662   1.867
 9307SOL    HW228821   1.783   3.791   1.967
 9308SOL     OW28822   2.051   4.343   0.335
 9308SOL    HW128823   1.963   4.332   0.288
 9308SOL    HW228824   2.098   4.424   0.300
 9309SOL     OW28825   3.836   5.086   5.753
 9309SOL    HW128826   3.786   5.105   5.669
 9309SOL    HW228827   3.889   5.002   5.742
 9310SOL     OW28828   4.864   5.179   6.592
 9310SOL    HW128829   4.782   5.133   6.560
 9310SOL    HW228830   4.839   5.253   6.655
 9311SOL     OW28831   3.954   4.819   2.164
 9311SOL    HW128832   4.037   4.765   2.173
 9311SOL    HW228833   3.930   4.827   2.068
 9312SOL     OW28834   1.314   3.780   1.523
 9312SOL    HW128835   1.327   3.827   1.611
 9312SOL    HW228836   1.295   3.683   1.539
 9313SOL     OW28837   0.608   0.132   1.378
 9313SOL    HW128838   0.699   0.101   1.349
 9313SOL    HW228839   0.605   0.232   1.375
 9314SOL     OW28840   5.018   5.798   6.087
 9314SOL    HW128841   5.057   5.844   6.166
 9314SOL    HW228842   4.938   5.745   6.116
 9315SOL     OW28843   6.455   0.695   5.011
 9315SOL    HW128844   6.375   0.663   5.061
 9315SOL    HW228845   6.491   0.778   5.054
 9316SOL     OW28846   4.037   5.611   5.344
 9316SOL    HW128847   4.017   5.645   5.436
 9316SOL    HW228848   4.133   5.585   5.338
 9317SOL     OW28849   6.238   5.311   3.244
 9317SOL    HW128850   6.165   5.313   3.312
 9317SOL    HW228851   6.201   5.278   3.157
 9318SOL     OW28852   6.365   0.283   5.835
 9318SOL    HW128853   6.446   0.310   5.887
 9318SOL    HW228854   6.302   0.360   5.830
 9319SOL     OW28855   1.736   3.082   6.965
 9319SOL    HW128856   1.666   3.063   6.896
 9319SOL    HW228857   1.747   3.003   0.000
 9320SOL     OW28858   3.658   0.500   5.098
 9320SOL    HW128859   3.685   0.497   5.002
 9320SOL    HW228860   3.711   0.570   5.146
 9321SOL     OW28861   6.538   0.203   4.057
 9321SOL    HW128862   6.538   0.291   4.011
 9321SOL    HW228863   6.629   0.185   4.095
 9322SOL     OW28864   0.927   4.188   6.936
 9322SOL    HW128865   0.905   4.243   6.855
 9322SOL    HW228866   1.026   4.174   6.940
 9323SOL     OW28867   1.464   0.795   5.524
 9323SOL    HW128868   1.473   0.795   5.425
 9323SOL    HW228869   1.551   0.767   5.565
 9324SOL     OW28870   1.814   4.793   0.647
 9324SOL    HW128871   1.860   4.706   0.631
 9324SOL    HW228872   1.774   4.794   0.739
 9325SOL     OW28873   4.745   0.525   0.150
 9325SOL    HW128874   4.649   0.532   0.176
 9325SOL    HW228875   4.753   0.465   0.070
 9326SOL     OW28876   2.429   5.435   0.572
 9326SOL    HW128877   2.463   5.457   0.663
 9326SOL    HW228878   2.495   5.377   0.525
 9327SOL     OW28879   5.338   0.441   3.288
 9327SOL    HW128880   5.272   0.377   3.249
 9327SOL    HW228881   5.379   0.495   3.215
 9328SOL     OW28882   2.464   0.315   5.791
 9328SOL    HW128883   2.394   0.369   5.837
 9328SOL    HW228884   2.523   0.271   5.859
 9329SOL     OW28885   5.748   4.234   1.669
 9329SOL    HW128886   5.823   4.245   1.604
 9329SOL    HW228887   5.668   4.284   1.636
 9330SOL     OW28888   5.853   6.988   6.608
 9330SOL    HW128889   5.870   6.972   6.706
 9330SOL    HW228890   5.759   7.021   6.596
 9331SOL     OW28891   2.391   0.998   6.902
 9331SOL    HW128892   2.399   1.053   6.985
 9331SOL    HW228893   2.480   0.962   6.877
 9332SOL     OW28894   3.938   4.061   1.767
 9332SOL    HW128895   3.879   4.125   1.716
 9332SOL    HW228896   3.881   3.994   1.814
 9333SOL     OW28897   3.530   3.290   0.622
 9333SOL    HW128898   3.500   3.339   0.540
 9333SOL    HW228899   3.618   3.246   0.605
 9334SOL     OW28900   5.928   5.783   3.652
 9334SOL    HW128901   5.987   5.752   3.578
 9334SOL    HW228902   5.972   5.859   3.701
 9335SOL     OW28903   0.862   1.131   6.251
 9335SOL    HW128904   0.874   1.039   6.215
 9335SOL    HW228905   0.804   1.184   6.190
 9336SOL     OW28906   2.949   5.620   5.689
 9336SOL    HW128907   3.037   5.574   5.701
 9336SOL    HW228908   2.877   5.551   5.677
 9337SOL     OW28909   4.597   1.889   4.541
 9337SOL    HW128910   4.598   1.791   4.524
 9337SOL    HW228911   4.683   1.929   4.510
 9338SOL     OW28912   5.096   0.679   2.123
 9338SOL    HW128913   5.110   0.656   2.027
 9338SOL    HW228914   5.128   0.772   2.140
 9339SOL     OW28915   5.714   6.937   1.543
 9339SOL    HW128916   5.735   6.959   1.447
 9339SOL    HW228917   5.628   6.981   1.569
 9340SOL     OW28918   5.789   4.198   4.561
 9340SOL    HW128919   5.831   4.246   4.484
 9340SOL    HW228920   5.727   4.127   4.526
 9341SOL     OW28921   6.955   5.937   0.903
 9341SOL    HW128922   6.969   5.873   0.827
 9341SOL    HW228923   6.861   5.930   0.936
 9342SOL     OW28924   2.078   6.330   3.906
 9342SOL    HW128925   2.065   6.235   3.875
 9342SOL    HW228926   1.989   6.375   3.913
 9343SOL     OW28927   5.755   4.173   2.487
 9343SOL    HW128928   5.696   4.232   2.542
 9343SOL    HW228929   5.762   4.083   2.530
 9344SOL     OW28930   4.853   6.405   2.693
 9344SOL    HW128931   4.776   6.414   2.629
 9344SOL    HW228932   4.826   6.347   2.770
 9345SOL     OW28933   6.155   5.162   2.488
 9345SOL    HW128934   6.075   5.110   2.459
 9345SOL    HW228935   6.225   5.099   2.522
 9346SOL     OW28936   6.497   0.998   1.119
 9346SOL    HW128937   6.436   0.994   1.039
 9346SOL    HW228938   6.538   1.089   1.124
 9347SOL     OW28939   2.072   3.847   0.662
 9347SOL    HW128940   2.028   3.784   0.727
 9347SOL    HW228941   2.051   3.941   0.687
 9348SOL     OW28942   3.640   6.056   2.096
 9348SOL    HW128943   3.706   6.035   2.024
 9348SOL    HW228944   3.685   6.107   2.169
 9349SOL     OW28945   6.455   5.611   3.744
 9349SOL    HW128946   6.544   5.658   3.745
 9349SOL    HW228947   6.444   5.561   3.658
 9350SOL     OW28948   0.486   3.193   5.011
 9350SOL    HW128949   0.424   3.265   4.980
 9350SOL    HW228950   0.466   3.171   5.107
 9351SOL     OW28951   2.693   0.331   6.743
 9351SOL    HW128952   2.784   0.372   6.738
 9351SOL    HW228953   2.673   0.282   6.658
 9352SOL     OW28954   3.740   1.823   6.400
 9352SOL    HW128955   3.680   1.760   6.448
 9352SOL    HW228956   3.822   1.774   6.369
 9353SOL     OW28957   0.498   4.232   0.810
 9353SOL    HW128958   0.530   4.204   0.720
 9353SOL    HW228959   0.559   4.195   0.880
 9354SOL     OW28960   0.096   2.083   6.429
 9354SOL    HW128961   0.184   2.041   6.405
 9354SOL    HW228962   0.109   2.146   6.505
 9355SOL     OW28963   0.437   2.254   4.596
 9355SOL    HW128964   0.390   2.168   4.578
 9355SOL    HW228965   0.509   2.269   4.527
 9356SOL     OW28966   4.975   0.757   1.801
 9356SOL    HW128967   4.974   0.666   1.760
 9356SOL    HW228968   4.910   0.761   1.877
 9357SOL     OW28969   1.624   2.765   5.684
 9357SOL    HW128970   1.543   2.777   5.741
 9357SOL    HW228971   1.601   2.712   5.602
 9358SOL     OW28972   5.995   3.739   1.978
 9358SOL    HW128973   6.001   3.834   2.008
 9358SOL    HW228974   6.074   3.689   2.010
 9359SOL     OW28975   1.166   4.475   6.070
 9359SOL    HW128976   1.189   4.554   6.127
 9359SOL    HW228977   1.118   4.407   6.125
 9360SOL     OW28978   0.901   4.663   6.215
 9360SOL    HW128979   0.966   4.737   6.229
 9360SOL    HW228980   0.947   4.575   6.228
 9361SOL     OW28981   1.758   4.627   3.720
 9361SOL    HW128982   1.849   4.603   3.754
 9361SOL    HW228983   1.729   4.714   3.761
 9362SOL     OW28984   1.201   1.293   2.723
 9362SOL    HW128985   1.258   1.362   2.769
 9362SOL    HW228986   1.260   1.230   2.672
 9363SOL     OW28987   2.784   5.538   1.913
 9363SOL    HW128988   2.689   5.559   1.934
 9363SOL    HW228989   2.799   5.543   1.815
 9364SOL     OW28990   2.509   2.079   6.982
 9364SOL    HW128991   2.521   2.177   6.966
 9364SOL    HW228992   2.463   2.065   0.045
 9365SOL     OW28993   2.824   2.120   3.319
 9365SOL    HW128994   2.811   2.040   3.378
 9365SOL    HW228995   2.888   2.184   3.363
 9366SOL     OW28996   2.962   5.434   6.601
 9366SOL    HW128997   3.031   5.398   6.539
 9366SOL    HW228998   2.943   5.530   6.579
 9367SOL     OW28999   6.768   6.558   2.306
 9367SOL    HW129000   6.788   6.618   2.383
 9367SOL    HW229001   6.748   6.614   2.225
 9368SOL     OW29002   3.343   0.270   2.397
 9368SOL    HW129003   3.258   0.302   2.439
 9368SOL    HW229004   3.378   0.191   2.447
 9369SOL     OW29005   6.704   6.513   3.379
 9369SOL    HW129006   6.651   6.596   3.363
 9369SOL    HW229007   6.647   6.433   3.361
 9370SOL     OW29008   5.482   0.033   4.909
 9370SOL    HW129009   5.522   0.118   4.876
 9370SOL    HW229010   5.409   0.053   4.974
 9371SOL     OW29011   2.533   5.974   0.423
 9371SOL    HW129012   2.479   5.942   0.346
 9371SOL    HW229013   2.543   5.901   0.490
 9372SOL     OW29014   5.605   6.711   1.485
 9372SOL    HW129015   5.529   6.747   1.430
 9372SOL    HW229016   5.668   6.786   1.507
 9373SOL     OW29017   4.595   2.411   1.154
 9373SOL    HW129018   4.685   2.454   1.159
 9373SOL    HW229019   4.529   2.477   1.120
 9374SOL     OW29020   0.656   3.380   6.357
 9374SOL    HW129021   0.750   3.370   6.326
 9374SOL    HW229022   0.654   3.402   6.454
 9375SOL     OW29023   0.777   2.140   0.965
 9375SOL    HW129024   0.695   2.100   0.922
 9375SOL    HW229025   0.767   2.137   1.064
 9376SOL     OW29026   2.191   3.752   1.712
 9376SOL    HW129027   2.233   3.669   1.676
 9376SOL    HW229028   2.188   3.822   1.640
 9377SOL     OW29029   2.035   4.804   3.362
 9377SOL    HW129030   1.939   4.822   3.382
 9377SOL    HW229031   2.089   4.885   3.381
 9378SOL     OW29032   3.542   1.198   3.501
 9378SOL    HW129033   3.455   1.176   3.545
 9378SOL    HW229034   3.540   1.166   3.406
 9379SOL     OW29035   5.232   0.330   4.873
 9379SOL    HW129036   5.294   0.404   4.846
 9379SOL    HW229037   5.225   0.263   4.799
 9380SOL     OW29038   3.792   5.827   5.394
 9380SOL    HW129039   3.838   5.853   5.309
 9380SOL    HW229040   3.810   5.730   5.413
 9381SOL     OW29041   5.490   2.731   5.740
 9381SOL    HW129042   5.562   2.763   5.801
 9381SOL    HW229043   5.449   2.809   5.692
 9382SOL     OW29044   4.415   1.306   3.807
 9382SOL    HW129045   4.341   1.308   3.874
 9382SOL    HW229046   4.380   1.337   3.718
 9383SOL     OW29047   5.645   5.035   4.229
 9383SOL    HW129048   5.648   5.054   4.131
 9383SOL    HW229049   5.556   5.061   4.266
 9384SOL     OW29050   3.477   6.986   2.178
 9384SOL    HW129051   3.440   6.933   2.101
 9384SOL    HW229052   3.402   0.007   2.226
 9385SOL     OW29053   4.858   1.236   4.043
 9385SOL    HW129054   4.914   1.159   4.074
 9385SOL    HW229055   4.900   1.322   4.072
 9386SOL     OW29056   3.221   5.631   5.063
 9386SOL    HW129057   3.168   5.552   5.032
 9386SOL    HW229058   3.245   5.619   5.159
 9387SOL     OW29059   3.102   2.629   0.599
 9387SOL    HW129060   3.098   2.533   0.572
 9387SOL    HW229061   3.096   2.635   0.699
 9388SOL     OW29062   1.900   6.201   3.281
 9388SOL    HW129063   1.834   6.276   3.285
 9388SOL    HW229064   1.862   6.120   3.326
 9389SOL     OW29065   3.105   6.490   2.683
 9389SOL    HW129066   3.099   6.451   2.591
 9389SOL    HW229067   3.141   6.421   2.746
 9390SOL     OW29068   5.955   5.749   5.815
 9390SOL    HW129069   5.863   5.772   5.783
 9390SOL    HW229070   5.949   5.693   5.897
 9391SOL     OW29071   0.235   0.141   5.987
 9391SOL    HW129072   0.310   0.075   5.990
 9391SOL    HW229073   0.268   0.228   5.950
 9392SOL     OW29074   5.097   4.328   4.961
 9392SOL    HW129075   5.047   4.267   4.900
 9392SOL    HW229076   5.103   4.419   4.920
 9393SOL     OW29077   3.037   6.752   5.706
 9393SOL    HW129078   2.991   6.780   5.791
 9393SOL    HW229079   3.099   6.677   5.726
 9394SOL     OW29080   6.062   0.615   1.092
 9394SOL    HW129081   6.043   0.539   1.030
 9394SOL    HW229082   5.999   0.690   1.073
 9395SOL     OW29083   2.005   1.268   0.962
 9395SOL    HW129084   1.968   1.202   1.029
 9395SOL    HW229085   2.041   1.218   0.884
 9396SOL     OW29086   1.395   4.235   4.715
 9396SOL    HW129087   1.367   4.189   4.631
 9396SOL    HW229088   1.495   4.237   4.720
 9397SOL     OW29089   2.380   6.388   5.731
 9397SOL    HW129090   2.364   6.296   5.697
 9397SOL    HW229091   2.408   6.384   5.827
 9398SOL     OW29092   6.088   1.144   5.980
 9398SOL    HW129093   6.090   1.125   6.078
 9398SOL    HW229094   6.158   1.212   5.958
 9399SOL     OW29095   0.920   3.065   4.111
 9399SOL    HW129096   0.837   3.041   4.161
 9399SOL    HW229097   0.936   3.164   4.117
 9400SOL     OW29098   4.551   0.680   0.948
 9400SOL    HW129099   4.581   0.751   1.011
 9400SOL    HW229100   4.461   0.646   0.977
 9401SOL     OW29101   6.975   2.004   2.680
 9401SOL    HW129102   0.023   1.953   2.633
 9401SOL    HW229103   6.893   1.947   2.688
 9402SOL     OW29104   1.210   4.141   2.880
 9402SOL    HW129105   1.164   4.096   2.804
 9402SOL    HW229106   1.280   4.203   2.845
 9403SOL     OW29107   6.674   1.421   2.132
 9403SOL    HW129108   6.615   1.478   2.075
 9403SOL    HW229109   6.634   1.330   2.140
 9404SOL     OW29110   0.110   1.693   1.144
 9404SOL    HW129111   0.047   1.649   1.081
 9404SOL    HW229112   0.154   1.624   1.202
 9405SOL     OW29113   1.517   4.176   4.288
 9405SOL    HW129114   1.464   4.091   4.287
 9405SOL    HW229115   1.502   4.226   4.203
 9406SOL     OW29116   0.920   3.350   0.300
 9406SOL    HW129117   0.961   3.259   0.311
 9406SOL    HW229118   0.821   3.341   0.292
 9407SOL     OW29119   2.342   5.174   4.391
 9407SOL    HW129120   2.283   5.254   4.395
 9407SOL    HW229121   2.313   5.108   4.460
 9408SOL     OW29122   0.947   2.135   6.211
 9408SOL    HW129123   0.971   2.193   6.133
 9408SOL    HW229124   0.848   2.132   6.220
 9409SOL     OW29125   6.275   5.667   1.628
 9409SOL    HW129126   6.350   5.646   1.566
 9409SOL    HW229127   6.285   5.761   1.662
 9410SOL     OW29128   3.831   1.261   1.856
 9410SOL    HW129129   3.919   1.221   1.884
 9410SOL    HW229130   3.842   1.359   1.844
 9411SOL     OW29131   3.766   3.403   2.951
 9411SOL    HW129132   3.667   3.388   2.945
 9411SOL    HW229133   3.783   3.494   2.989
 9412SOL     OW29134   1.699   0.101   2.064
 9412SOL    HW129135   1.744   0.128   1.979
 9412SOL    HW229136   1.640   0.022   2.047
 9413SOL     OW29137   4.721   5.299   4.360
 9413SOL    HW129138   4.683   5.280   4.450
 9413SOL    HW229139   4.821   5.301   4.366
 9414SOL     OW29140   3.226   1.990   4.240
 9414SOL    HW129141   3.184   2.075   4.206
 9414SOL    HW229142   3.232   1.923   4.167
 9415SOL     OW29143   2.474   0.188   1.590
 9415SOL    HW129144   2.416   0.199   1.671
 9415SOL    HW229145   2.456   0.262   1.525
 9416SOL     OW29146   0.171   0.523   5.272
 9416SOL    HW129147   0.085   0.511   5.322
 9416SOL    HW229148   0.169   0.611   5.224
 9417SOL     OW29149   3.820   6.858   1.706
 9417SOL    HW129150   3.780   6.814   1.626
 9417SOL    HW229151   3.774   6.945   1.722
 9418SOL     OW29152   2.405   1.321   2.562
 9418SOL    HW129153   2.430   1.293   2.469
 9418SOL    HW229154   2.487   1.349   2.612
 9419SOL     OW29155   1.832   3.334   6.604
 9419SOL    HW129156   1.822   3.307   6.508
 9419SOL    HW229157   1.919   3.383   6.615
 9420SOL     OW29158   5.229   4.431   6.984
 9420SOL    HW129159   5.297   4.504   6.978
 9420SOL    HW229160   5.263   4.360   0.021
 9421SOL     OW29161   2.962   5.277   4.035
 9421SOL    HW129162   3.029   5.332   3.986
 9421SOL    HW229163   2.871   5.293   3.997
 9422SOL     OW29164   2.704   6.351   4.033
 9422SOL    HW129165   2.635   6.300   3.983
 9422SOL    HW229166   2.745   6.293   4.103
 9423SOL     OW29167   3.893   6.006   2.943
 9423SOL    HW129168   3.888   6.085   2.882
 9423SOL    HW229169   3.980   6.008   2.992
 9424SOL     OW29170   5.373   2.000   4.767
 9424SOL    HW129171   5.315   1.924   4.796
 9424SOL    HW229172   5.464   1.990   4.808
 9425SOL     OW29173   5.680   5.348   1.122
 9425SOL    HW129174   5.766   5.301   1.144
 9425SOL    HW229175   5.645   5.313   1.035
 9426SOL     OW29176   2.422   1.580   6.066
 9426SOL    HW129177   2.362   1.543   5.995
 9426SOL    HW229178   2.366   1.606   6.145
 9427SOL     OW29179   2.147   5.849   3.526
 9427SOL    HW129180   2.142   5.894   3.615
 9427SOL    HW229181   2.124   5.752   3.537
 9428SOL     OW29182   6.585   0.069   0.834
 9428SOL    HW129183   6.665   0.077   0.775
 9428SOL    HW229184   6.554   0.161   0.861
 9429SOL     OW29185   2.124   2.339   4.072
 9429SOL    HW129186   2.064   2.364   3.996
 9429SOL    HW229187   2.181   2.262   4.045
 9430SOL     OW29188   0.296   2.484   4.274
 9430SOL    HW129189   0.302   2.458   4.177
 9430SOL    HW229190   0.374   2.542   4.298
 9431SOL     OW29191   6.588   5.001   1.022
 9431SOL    HW129192   6.620   4.949   0.942
 9431SOL    HW229193   6.636   4.969   1.104
 9432SOL     OW29194   5.815   1.488   4.832
 9432SOL    HW129195   5.829   1.424   4.757
 9432SOL    HW229196   5.736   1.546   4.812
 9433SOL     OW29197   3.876   6.214   3.164
 9433SOL    HW129198   3.964   6.207   3.116
 9433SOL    HW229199   3.809   6.257   3.104
 9434SOL     OW29200   6.067   5.719   3.407
 9434SOL    HW129201   6.139   5.649   3.406
 9434SOL    HW229202   6.013   5.711   3.324
 9435SOL     OW29203   0.188   1.887   2.584
 9435SOL    HW129204   0.273   1.909   2.631
 9435SOL    HW229205   0.185   1.934   2.496
 9436SOL     OW29206   1.378   1.458   2.822
 9436SOL    HW129207   1.447   1.423   2.886
 9436SOL    HW229208   1.363   1.555   2.839
 9437SOL     OW29209   0.806   4.903   3.705
 9437SOL    HW129210   0.801   4.885   3.607
 9437SOL    HW229211   0.901   4.894   3.737
 9438SOL     OW29212   1.494   0.418   2.049
 9438SOL    HW129213   1.506   0.326   2.085
 9438SOL    HW229214   1.489   0.483   2.125
 9439SOL     OW29215   0.503   3.395   1.314
 9439SOL    HW129216   0.478   3.392   1.217
 9439SOL    HW229217   0.541   3.485   1.336
 9440SOL     OW29218   3.595   4.985   3.707
 9440SOL    HW129219   3.539   4.919   3.656
 9440SOL    HW229220   3.571   4.981   3.804
 9441SOL     OW29221   6.458   6.117   5.477
 9441SOL    HW129222   6.499   6.191   5.530
 9441SOL    HW229223   6.470   6.030   5.525
 9442SOL     OW29224   4.756   3.276   1.636
 9442SOL    HW129225   4.727   3.320   1.551
 9442SOL    HW229226   4.747   3.177   1.627
 9443SOL     OW29227   2.754   5.612   1.033
 9443SOL    HW129228   2.654   5.607   1.024
 9443SOL    HW229229   2.786   5.538   1.092
 9444SOL     OW29230   1.890   4.507   0.596
 9444SOL    HW129231   1.975   4.497   0.648
 9444SOL    HW229232   1.855   4.417   0.572
 9445SOL     OW29233   6.826   2.543   3.172
 9445SOL    HW129234   6.770   2.552   3.090
 9445SOL    HW229235   6.868   2.452   3.175
 9446SOL     OW29236   0.633   5.303   4.274
 9446SOL    HW129237   0.667   5.315   4.181
 9446SOL    HW229238   0.688   5.233   4.320
 9447SOL     OW29239   5.129   4.573   3.447
 9447SOL    HW129240   5.190   4.638   3.402
 9447SOL    HW229241   5.152   4.568   3.544
 9448SOL     OW29242   6.490   7.016   6.694
 9448SOL    HW129243   6.466   7.004   6.791
 9448SOL    HW229244   6.588   6.999   6.682
 9449SOL     OW29245   5.663   6.849   0.030
 9449SOL    HW129246   5.593   6.918   0.047
 9449SOL    HW229247   5.625   6.774   7.000
 9450SOL     OW29248   2.290   5.199   3.612
 9450SOL    HW129249   2.375   5.215   3.663
 9450SOL    HW229250   2.212   5.216   3.672
 9451SOL     OW29251   4.313   5.920   5.943
 9451SOL    HW129252   4.331   5.834   5.990
 9451SOL    HW229253   4.363   5.994   5.988
 9452SOL     OW29254   0.757   3.987   0.018
 9452SOL    HW129255   0.740   3.916   6.974
 9452SOL    HW229256   0.838   4.040   7.015
 9453SOL     OW29257   2.735   5.050   2.401
 9453SOL    HW129258   2.820   5.006   2.431
 9453SOL    HW229259   2.683   5.078   2.481
 9454SOL     OW29260   3.940   3.327   6.777
 9454SOL    HW129261   3.850   3.328   6.820
 9454SOL    HW229262   3.960   3.236   6.742
 9455SOL     OW29263   2.601   2.053   2.674
 9455SOL    HW129264   2.621   2.024   2.580
 9455SOL    HW229265   2.623   2.150   2.684
 9456SOL     OW29266   5.919   4.225   1.886
 9456SOL    HW129267   5.890   4.255   1.977
 9456SOL    HW229268   5.844   4.238   1.821
 9457SOL     OW29269   0.173   4.503   4.270
 9457SOL    HW129270   0.097   4.439   4.258
 9457SOL    HW229271   0.259   4.458   4.244
 9458SOL     OW29272   6.856   3.754   0.193
 9458SOL    HW129273   6.845   3.755   0.094
 9458SOL    HW229274   6.767   3.736   0.236
 9459SOL     OW29275   5.412   4.499   3.766
 9459SOL    HW129276   5.335   4.541   3.717
 9459SOL    HW229277   5.379   4.455   3.849
 9460SOL     OW29278   2.179   2.928   4.414
 9460SOL    HW129279   2.180   2.974   4.326
 9460SOL    HW229280   2.220   2.988   4.483
 9461SOL     OW29281   0.766   1.329   1.545
 9461SOL    HW129282   0.830   1.376   1.605
 9461SOL    HW229283   0.735   1.244   1.588
 9462SOL     OW29284   2.106   3.081   3.720
 9462SOL    HW129285   2.110   3.124   3.630
 9462SOL    HW229286   2.013   3.049   3.739
 9463SOL     OW29287   5.371   6.806   1.360
 9463SOL    HW129288   5.308   6.728   1.366
 9463SOL    HW229289   5.333   6.875   1.300
 9464SOL     OW29290   5.640   0.106   0.811
 9464SOL    HW129291   5.585   0.023   0.825
 9464SOL    HW229292   5.580   0.186   0.812
 9465SOL     OW29293   6.780   4.163   1.403
 9465SOL    HW129294   6.744   4.228   1.470
 9465SOL    HW229295   6.750   4.190   1.312
 9466SOL     OW29296   3.686   4.178   5.965
 9466SOL    HW129297   3.693   4.139   5.873
 9466SOL    HW229298   3.734   4.265   5.968
 9467SOL     OW29299   0.934   2.704   1.072
 9467SOL    HW129300   1.003   2.656   1.017
 9467SOL    HW229301   0.930   2.664   1.164
 9468SOL     OW29302   6.663   4.005   6.488
 9468SOL    HW129303   6.752   4.011   6.532
 9468SOL    HW229304   6.620   3.918   6.511
 9469SOL     OW29305   0.304   5.948   1.496
 9469SOL    HW129306   0.295   5.909   1.588
 9469SOL    HW229307   0.291   5.876   1.428
 9470SOL     OW29308   4.791   3.596   6.715
 9470SOL    HW129309   4.703   3.555   6.738
 9470SOL    HW229310   4.781   3.654   6.634
 9471SOL     OW29311   5.943   1.883   5.543
 9471SOL    HW129312   5.950   1.853   5.638
 9471SOL    HW229313   6.026   1.934   5.518
 9472SOL     OW29314   1.028   4.172   5.660
 9472SOL    HW129315   0.990   4.236   5.726
 9472SOL    HW229316   1.101   4.119   5.704
 9473SOL     OW29317   2.797   4.206   6.538
 9473SOL    HW129318   2.888   4.201   6.496
 9473SOL    HW229319   2.776   4.301   6.561
 9474SOL     OW29320   5.937   3.389   2.053
 9474SOL    HW129321   5.883   3.305   2.059
 9474SOL    HW229322   6.030   3.367   2.022
 9475SOL     OW29323   4.886   3.569   0.029
 9475SOL    HW129324   4.908   3.665   0.046
 9475SOL    HW229325   4.815   3.563   6.984
 9476SOL     OW29326   4.105   3.848   5.112
 9476SOL    HW129327   4.128   3.781   5.041
 9476SOL    HW229328   4.181   3.854   5.177
 9477SOL     OW29329   1.249   3.116   0.871
 9477SOL    HW129330   1.201   3.091   0.787
 9477SOL    HW229331   1.270   3.034   0.923
 9478SOL     OW29332   4.810   2.597   1.163
 9478SOL    HW129333   4.751   2.620   1.086
 9478SOL    HW229334   4.891   2.655   1.161
 9479SOL     OW29335   3.958   6.724   0.707
 9479SOL    HW129336   3.997   6.782   0.779
 9479SOL    HW229337   4.011   6.640   0.699
 9480SOL     OW29338   5.881   5.372   0.414
 9480SOL    HW129339   5.833   5.367   0.326
 9480SOL    HW229340   5.844   5.448   0.468
 9481SOL     OW29341   5.408   2.193   2.780
 9481SOL    HW129342   5.430   2.183   2.877
 9481SOL    HW229343   5.422   2.287   2.752
 9482SOL     OW29344   6.346   0.266   2.551
 9482SOL    HW129345   6.311   0.345   2.601
 9482SOL    HW229346   6.373   0.194   2.615
 9483SOL     OW29347   1.429   1.244   0.419
 9483SOL    HW129348   1.399   1.332   0.456
 9483SOL    HW229349   1.523   1.251   0.387
 9484SOL     OW29350   2.773   0.187   4.814
 9484SOL    HW129351   2.726   0.207   4.900
 9484SOL    HW229352   2.779   0.270   4.758
 9485SOL     OW29353   0.093   1.784   0.722
 9485SOL    HW129354   0.167   1.726   0.756
 9485SOL    HW229355   0.046   1.738   0.647
 9486SOL     OW29356   4.664   6.312   1.264
 9486SOL    HW129357   4.725   6.293   1.340
 9486SOL    HW229358   4.635   6.225   1.222
 9487SOL     OW29359   3.335   4.007   4.423
 9487SOL    HW129360   3.337   4.062   4.506
 9487SOL    HW229361   3.293   3.919   4.443
 9488SOL     OW29362   2.486   0.498   0.857
 9488SOL    HW129363   2.421   0.430   0.823
 9488SOL    HW229364   2.437   0.580   0.885
 9489SOL     OW29365   5.031   4.415   1.029
 9489SOL    HW129366   5.103   4.473   0.993
 9489SOL    HW229367   4.942   4.446   0.994
 9490SOL     OW29368   0.230   6.302   3.809
 9490SOL    HW129369   0.276   6.271   3.727
 9490SOL    HW229370   0.298   6.322   3.880
 9491SOL     OW29371   5.867   5.519   4.502
 9491SOL    HW129372   5.868   5.462   4.584
 9491SOL    HW229373   5.877   5.460   4.421
 9492SOL     OW29374   3.930   3.370   5.359
 9492SOL    HW129375   3.898   3.454   5.315
 9492SOL    HW229376   3.924   3.294   5.294
 9493SOL     OW29377   3.201   5.540   4.185
 9493SOL    HW129378   3.283   5.482   4.187
 9493SOL    HW229379   3.136   5.507   4.253
 9494SOL     OW29380   5.450   3.045   2.474
 9494SOL    HW129381   5.367   3.094   2.447
 9494SOL    HW229382   5.519   3.111   2.502
 9495SOL     OW29383   6.908   1.522   2.445
 9495SOL    HW129384   6.924   1.538   2.542
 9495SOL    HW229385   6.984   1.468   2.407
 9496SOL     OW29386   4.796   2.373   1.830
 9496SOL    HW129387   4.802   2.458   1.778
 9496SOL    HW229388   4.794   2.393   1.928
 9497SOL     OW29389   5.094   6.265   5.610
 9497SOL    HW129390   5.030   6.198   5.571
 9497SOL    HW229391   5.088   6.351   5.559
 9498SOL     OW29392   6.577   4.282   5.034
 9498SOL    HW129393   6.635   4.276   5.116
 9498SOL    HW229394   6.635   4.285   4.953
 9499SOL     OW29395   0.619   5.577   5.171
 9499SOL    HW129396   0.686   5.550   5.240
 9499SOL    HW229397   0.545   5.509   5.167
 9500SOL     OW29398   4.088   6.434   0.614
 9500SOL    HW129399   4.105   6.335   0.616
 9500SOL    HW229400   4.012   6.452   0.550
 9501SOL     OW29401   1.992   1.298   4.263
 9501SOL    HW129402   1.986   1.228   4.334
 9501SOL    HW229403   2.088   1.323   4.250
 9502SOL     OW29404   6.414   4.234   4.631
 9502SOL    HW129405   6.418   4.185   4.545
 9502SOL    HW229406   6.329   4.287   4.636
 9503SOL     OW29407   6.793   2.589   0.284
 9503SOL    HW129408   6.758   2.535   0.360
 9503SOL    HW229409   6.882   2.627   0.309
 9504SOL     OW29410   6.486   3.908   1.672
 9504SOL    HW129411   6.585   3.904   1.684
 9504SOL    HW229412   6.464   3.929   1.577
 9505SOL     OW29413   5.477   4.538   5.473
 9505SOL    HW129414   5.463   4.447   5.434
 9505SOL    HW229415   5.502   4.529   5.570
 9506SOL     OW29416   1.683   2.784   0.591
 9506SOL    HW129417   1.772   2.814   0.624
 9506SOL    HW229418   1.613   2.851   0.616
 9507SOL     OW29419   6.859   0.528   1.336
 9507SOL    HW129420   6.862   0.536   1.236
 9507SOL    HW229421   6.774   0.568   1.370
 9508SOL     OW29422   5.726   2.033   2.955
 9508SOL    HW129423   5.714   2.004   2.861
 9508SOL    HW229424   5.638   2.056   2.995
 9509SOL     OW29425   0.098   0.428   3.579
 9509SOL    HW129426   0.050   0.340   3.582
 9509SOL    HW229427   0.040   0.495   3.532
 9510SOL     OW29428   1.231   3.409   3.349
 9510SOL    HW129429   1.270   3.409   3.441
 9510SOL    HW229430   1.243   3.499   3.307
 9511SOL     OW29431   2.057   0.841   2.071
 9511SOL    HW129432   2.149   0.822   2.038
 9511SOL    HW229433   2.062   0.873   2.166
 9512SOL     OW29434   6.536   2.350   1.198
 9512SOL    HW129435   6.537   2.450   1.205
 9512SOL    HW229436   6.453   2.314   1.240
 9513SOL     OW29437   2.834   4.872   6.166
 9513SOL    HW129438   2.737   4.879   6.142
 9513SOL    HW229439   2.856   4.941   6.235
 9514SOL     OW29440   2.661   4.783   6.632
 9514SOL    HW129441   2.752   4.790   6.591
 9514SOL    HW229442   2.664   4.718   6.708
 9515SOL     OW29443   2.137   5.939   2.393
 9515SOL    HW129444   2.221   5.926   2.340
 9515SOL    HW229445   2.082   5.856   2.387
 9516SOL     OW29446   5.705   4.494   0.192
 9516SOL    HW129447   5.624   4.502   0.250
 9516SOL    HW229448   5.701   4.562   0.119
 9517SOL     OW29449   1.498   3.884   1.727
 9517SOL    HW129450   1.490   3.818   1.802
 9517SOL    HW229451   1.544   3.841   1.649
 9518SOL     OW29452   2.411   1.711   0.809
 9518SOL    HW129453   2.425   1.668   0.898
 9518SOL    HW229454   2.321   1.686   0.774
 9519SOL     OW29455   2.924   2.905   5.402
 9519SOL    HW129456   2.900   2.811   5.425
 9519SOL    HW229457   2.996   2.905   5.333
 9520SOL     OW29458   2.796   0.394   3.156
 9520SOL    HW129459   2.787   0.437   3.246
 9520SOL    HW229460   2.810   0.295   3.168
 9521SOL     OW29461   5.687   5.330   2.425
 9521SOL    HW129462   5.779   5.306   2.393
 9521SOL    HW229463   5.682   5.318   2.524
 9522SOL     OW29464   3.481   5.404   0.631
 9522SOL    HW129465   3.580   5.414   0.623
 9522SOL    HW229466   3.443   5.370   0.545
 9523SOL     OW29467   3.296   5.410   4.794
 9523SOL    HW129468   3.225   5.457   4.846
 9523SOL    HW229469   3.370   5.383   4.855
 9524SOL     OW29470   3.894   2.625   1.664
 9524SOL    HW129471   3.867   2.665   1.751
 9524SOL    HW229472   3.835   2.659   1.591
 9525SOL     OW29473   2.383   2.669   6.286
 9525SOL    HW129474   2.403   2.626   6.198
 9525SOL    HW229475   2.347   2.601   6.349
 9526SOL     OW29476   5.478   5.510   1.955
 9526SOL    HW129477   5.557   5.483   2.011
 9526SOL    HW229478   5.396   5.512   2.013
 9527SOL     OW29479   0.891   0.403   1.347
 9527SOL    HW129480   0.844   0.323   1.383
 9527SOL    HW229481   0.948   0.377   1.269
 9528SOL     OW29482   0.062   0.939   0.064
 9528SOL    HW129483   0.045   1.034   0.038
 9528SOL    HW229484   0.074   0.933   0.163
 9529SOL     OW29485   0.094   3.156   5.058
 9529SOL    HW129486   0.071   3.239   5.109
 9529SOL    HW229487   0.132   3.181   4.969
 9530SOL     OW29488   1.876   2.995   3.851
 9530SOL    HW129489   1.809   3.060   3.815
 9530SOL    HW229490   1.851   2.971   3.945
 9531SOL     OW29491   3.568   5.203   3.500
 9531SOL    HW129492   3.622   5.240   3.575
 9531SOL    HW229493   3.477   5.244   3.501
 9532SOL     OW29494   0.689   5.903   2.062
 9532SOL    HW129495   0.780   5.923   2.098
 9532SOL    HW229496   0.656   5.817   2.101
 9533SOL     OW29497   6.811   0.677   5.316
 9533SOL    HW129498   6.852   0.683   5.225
 9533SOL    HW229499   6.730   0.618   5.312
 9534SOL     OW29500   6.045   3.254   5.462
 9534SOL    HW129501   6.086   3.165   5.483
 9534SOL    HW229502   5.947   3.242   5.442
 9535SOL     OW29503   2.434   1.219   5.917
 9535SOL    HW129504   2.501   1.225   5.843
 9535SOL    HW229505   2.483   1.212   6.005
 9536SOL     OW29506   2.342   5.023   5.245
 9536SOL    HW129507   2.403   5.101   5.260
 9536SOL    HW229508   2.252   5.044   5.283
 9537SOL     OW29509   2.843   0.316   2.662
 9537SOL    HW129510   2.755   0.329   2.617
 9537SOL    HW229511   2.838   0.350   2.756
 9538SOL     OW29512   6.620   1.480   4.182
 9538SOL    HW129513   6.581   1.433   4.103
 9538SOL    HW229514   6.641   1.575   4.157
 9539SOL     OW29515   1.991   4.614   6.420
 9539SOL    HW129516   2.061   4.562   6.468
 9539SOL    HW229517   1.901   4.578   6.445
 9540SOL     OW29518   4.659   4.252   5.127
 9540SOL    HW129519   4.703   4.188   5.064
 9540SOL    HW229520   4.613   4.201   5.200
 9541SOL     OW29521   2.030   2.299   5.419
 9541SOL    HW129522   2.115   2.267   5.461
 9541SOL    HW229523   2.050   2.348   5.334
 9542SOL     OW29524   4.608   3.852   5.323
 9542SOL    HW129525   4.634   3.780   5.258
 9542SOL    HW229526   4.689   3.904   5.350
 9543SOL     OW29527   4.864   0.831   4.486
 9543SOL    HW129528   4.797   0.871   4.424
 9543SOL    HW229529   4.830   0.839   4.580
 9544SOL     OW29530   5.585   0.770   1.838
 9544SOL    HW129531   5.629   0.850   1.879
 9544SOL    HW229532   5.654   0.709   1.800
 9545SOL     OW29533   6.709   5.274   2.801
 9545SOL    HW129534   6.806   5.287   2.822
 9545SOL    HW229535   6.654   5.293   2.881
 9546SOL     OW29536   2.325   4.024   6.752
 9546SOL    HW129537   2.375   3.938   6.765
 9546SOL    HW229538   2.329   4.050   6.655
 9547SOL     OW29539   2.230   6.048   4.551
 9547SOL    HW129540   2.297   6.118   4.571
 9547SOL    HW229541   2.141   6.075   4.589
 9548SOL     OW29542   6.803   5.325   5.113
 9548SOL    HW129543   6.736   5.287   5.049
 9548SOL    HW229544   6.884   5.355   5.062
 9549SOL     OW29545   3.415   4.596   1.014
 9549SOL    HW129546   3.449   4.661   0.946
 9549SOL    HW229547   3.381   4.646   1.093
 9550SOL     OW29548   6.942   1.262   6.370
 9550SOL    HW129549   6.967   1.165   6.358
 9550SOL    HW229550   6.963   1.290   6.463
 9551SOL     OW29551   0.127   6.396   4.240
 9551SOL    HW129552   0.034   6.408   4.205
 9551SOL    HW229553   0.193   6.412   4.166
 9552SOL     OW29554   1.882   6.217   2.732
 9552SOL    HW129555   1.893   6.136   2.790
 9552SOL    HW229556   1.918   6.197   2.641
 9553SOL     OW29557   5.983   4.678   6.524
 9553SOL    HW129558   6.066   4.732   6.518
 9553SOL    HW229559   5.905   4.733   6.495
 9554SOL     OW29560   2.970   1.020   1.686
 9554SOL    HW129561   2.871   1.017   1.701
 9554SOL    HW229562   2.999   0.937   1.639
 9555SOL     OW29563   6.363   2.574   1.002
 9555SOL    HW129564   6.337   2.595   1.096
 9555SOL    HW229565   6.289   2.522   0.958
 9556SOL     OW29566   2.475   1.769   1.547
 9556SOL    HW129567   2.414   1.825   1.491
 9556SOL    HW229568   2.569   1.782   1.518
 9557SOL     OW29569   5.994   0.508   2.665
 9557SOL    HW129570   6.006   0.485   2.569
 9557SOL    HW229571   6.070   0.472   2.718
 9558SOL     OW29572   6.974   5.266   3.388
 9558SOL    HW129573   6.903   5.240   3.454
 9558SOL    HW229574   0.003   5.342   3.426
 9559SOL     OW29575   6.696   4.111   2.576
 9559SOL    HW129576   6.792   4.091   2.557
 9559SOL    HW229577   6.643   4.101   2.492
 9560SOL     OW29578   2.220   1.507   2.588
 9560SOL    HW129579   2.242   1.532   2.682
 9560SOL    HW229580   2.287   1.442   2.554
 9561SOL     OW29581   2.637   6.808   0.787
 9561SOL    HW129582   2.665   6.785   0.694
 9561SOL    HW229583   2.708   6.781   0.852
 9562SOL     OW29584   3.453   5.692   4.465
 9562SOL    HW129585   3.419   5.760   4.530
 9562SOL    HW229586   3.523   5.733   4.407
 9563SOL     OW29587   6.468   6.542   6.860
 9563SOL    HW129588   6.484   6.587   6.948
 9563SOL    HW229589   6.370   6.539   6.842
 9564SOL     OW29590   2.550   0.671   6.482
 9564SOL    HW129591   2.648   0.676   6.497
 9564SOL    HW229592   2.529   0.682   6.385
 9565SOL     OW29593   4.448   6.083   5.612
 9565SOL    HW129594   4.447   5.984   5.630
 9565SOL    HW229595   4.356   6.119   5.623
 9566SOL     OW29596   3.561   4.630   6.660
 9566SOL    HW129597   3.565   4.712   6.716
 9566SOL    HW229598   3.652   4.590   6.653
 9567SOL     OW29599   6.434   5.719   6.306
 9567SOL    HW129600   6.382   5.656   6.248
 9567SOL    HW229601   6.412   5.813   6.280
 9568SOL     OW29602   4.817   3.503   6.368
 9568SOL    HW129603   4.898   3.460   6.406
 9568SOL    HW229604   4.785   3.575   6.430
 9569SOL     OW29605   6.369   0.988   0.265
 9569SOL    HW129606   6.331   1.008   0.355
 9569SOL    HW229607   6.296   0.983   0.197
 9570SOL     OW29608   0.728   1.591   1.487
 9570SOL    HW129609   0.629   1.583   1.494
 9570SOL    HW229610   0.769   1.500   1.495
 9571SOL     OW29611   3.141   3.371   0.062
 9571SOL    HW129612   3.200   3.364   0.142
 9571SOL    HW229613   3.047   3.385   0.091
 9572SOL     OW29614   1.476   4.734   0.964
 9572SOL    HW129615   1.428   4.669   0.903
 9572SOL    HW229616   1.408   4.785   1.017
 9573SOL     OW29617   0.606   0.875   6.734
 9573SOL    HW129618   0.593   0.974   6.726
 9573SOL    HW229619   0.703   0.853   6.722
 9574SOL     OW29620   3.439   3.345   5.117
 9574SOL    HW129621   3.347   3.366   5.083
 9574SOL    HW229622   3.479   3.272   5.062
 9575SOL     OW29623   6.010   1.090   0.869
 9575SOL    HW129624   6.100   1.126   0.847
 9575SOL    HW229625   5.999   1.082   0.968
 9576SOL     OW29626   3.980   1.143   3.578
 9576SOL    HW129627   3.918   1.083   3.527
 9576SOL    HW229628   4.046   1.087   3.629
 9577SOL     OW29629   0.819   0.512   2.265
 9577SOL    HW129630   0.891   0.531   2.331
 9577SOL    HW229631   0.730   0.530   2.306
 9578SOL     OW29632   6.001   3.167   3.124
 9578SOL    HW129633   6.014   3.102   3.199
 9578SOL    HW229634   6.022   3.122   3.037
 9579SOL     OW29635   1.059   6.713   2.513
 9579SOL    HW129636   1.084   6.745   2.422
 9579SOL    HW229637   1.046   6.614   2.510
 9580SOL     OW29638   5.108   3.511   6.908
 9580SOL    HW129639   5.069   3.449   6.839
 9580SOL    HW229640   5.037   3.538   6.973
 9581SOL     OW29641   1.847   5.013   6.286
 9581SOL    HW129642   1.911   5.066   6.232
 9581SOL    HW229643   1.808   4.939   6.230
 9582SOL     OW29644   4.429   4.584   3.895
 9582SOL    HW129645   4.485   4.591   3.977
 9582SOL    HW229646   4.462   4.509   3.838
 9583SOL     OW29647   1.919   3.496   1.857
 9583SOL    HW129648   1.920   3.489   1.757
 9583SOL    HW229649   2.012   3.514   1.890
 9584SOL     OW29650   6.047   5.558   0.125
 9584SOL    HW129651   6.127   5.538   0.069
 9584SOL    HW229652   6.019   5.475   0.174
 9585SOL     OW29653   5.549   0.217   2.656
 9585SOL    HW129654   5.495   0.272   2.591
 9585SOL    HW229655   5.501   0.213   2.744
 9586SOL     OW29656   5.192   3.630   3.663
 9586SOL    HW129657   5.217   3.588   3.575
 9586SOL    HW229658   5.265   3.615   3.729
 9587SOL     OW29659   6.093   0.452   1.317
 9587SOL    HW129660   6.028   0.460   1.393
 9587SOL    HW229661   6.075   0.524   1.250
 9588SOL     OW29662   0.180   0.904   1.203
 9588SOL    HW129663   0.127   0.848   1.140
 9588SOL    HW229664   0.131   0.912   1.290
 9589SOL     OW29665   1.989   6.311   6.402
 9589SOL    HW129666   2.020   6.333   6.310
 9589SOL    HW229667   2.031   6.225   6.432
 9590SOL     OW29668   0.566   3.880   2.470
 9590SOL    HW129669   0.532   3.827   2.392
 9590SOL    HW229670   0.495   3.944   2.501
 9591SOL     OW29671   2.051   6.750   0.579
 9591SOL    HW129672   2.035   6.848   0.592
 9591SOL    HW229673   2.136   6.723   0.625
 9592SOL     OW29674   3.911   5.133   3.099
 9592SOL    HW129675   3.824   5.155   3.145
 9592SOL    HW229676   3.910   5.173   3.008
 9593SOL     OW29677   5.431   2.516   4.329
 9593SOL    HW129678   5.490   2.477   4.259
 9593SOL    HW229679   5.480   2.519   4.416
 9594SOL     OW29680   6.810   6.544   3.116
 9594SOL    HW129681   6.721   6.536   3.070
 9594SOL    HW229682   6.797   6.537   3.215
 9595SOL     OW29683   2.224   5.802   4.817
 9595SOL    HW129684   2.222   5.754   4.905
 9595SOL    HW229685   2.143   5.860   4.808
 9596SOL     OW29686   0.219   5.401   5.638
 9596SOL    HW129687   0.260   5.433   5.724
 9596SOL    HW229688   0.130   5.445   5.625
 9597SOL     OW29689   6.928   4.233   1.938
 9597SOL    HW129690   7.020   4.212   1.971
 9597SOL    HW229691   6.932   4.263   1.843
 9598SOL     OW29692   0.474   4.609   5.669
 9598SOL    HW129693   0.484   4.603   5.769
 9598SOL    HW229694   0.422   4.530   5.636
 9599SOL     OW29695   3.698   0.181   5.596
 9599SOL    HW129696   3.611   0.133   5.583
 9599SOL    HW229697   3.691   0.274   5.559
 9600SOL     OW29698   1.366   0.608   5.778
 9600SOL    HW129699   1.390   0.701   5.809
 9600SOL    HW229700   1.306   0.566   5.846
 9601SOL     OW29701   0.243   4.422   6.466
 9601SOL    HW129702   0.172   4.491   6.450
 9601SOL    HW229703   0.244   4.357   6.390
 9602SOL     OW29704   6.784   4.766   6.250
 9602SOL    HW129705   6.732   4.702   6.307
 9602SOL    HW229706   6.847   4.818   6.307
 9603SOL     OW29707   2.605   6.107   4.930
 9603SOL    HW129708   2.524   6.162   4.952
 9603SOL    HW229709   2.596   6.070   4.838
 9604SOL     OW29710   5.090   1.134   0.264
 9604SOL    HW129711   5.069   1.201   0.335
 9604SOL    HW229712   5.028   1.057   0.272
 9605SOL     OW29713   1.434   4.985   5.388
 9605SOL    HW129714   1.480   5.062   5.344
 9605SOL    HW229715   1.484   4.959   5.471
 9606SOL     OW29716   0.721   6.721   3.270
 9606SOL    HW129717   0.634   6.740   3.316
 9606SOL    HW229718   0.792   6.706   3.339
 9607SOL     OW29719   1.075   0.972   1.530
 9607SOL    HW129720   0.975   0.974   1.537
 9607SOL    HW229721   1.112   0.905   1.595
 9608SOL     OW29722   6.767   0.140   2.350
 9608SOL    HW129723   6.768   0.141   2.450
 9608SOL    HW229724   6.856   0.108   2.317
 9609SOL     OW29725   1.998   4.085   4.736
 9609SOL    HW129726   1.931   4.136   4.682
 9609SOL    HW229727   1.951   4.029   4.805
 9610SOL     OW29728   1.764   2.492   5.732
 9610SOL    HW129729   1.789   2.449   5.819
 9610SOL    HW229730   1.682   2.548   5.745
 9611SOL     OW29731   6.338   0.433   0.862
 9611SOL    HW129732   6.341   0.525   0.900
 9611SOL    HW229733   6.426   0.412   0.818
 9612SOL     OW29734   0.133   3.133   0.583
 9612SOL    HW129735   0.124   3.151   0.681
 9612SOL    HW229736   0.200   3.060   0.568
 9613SOL     OW29737   5.705   6.796   4.441
 9613SOL    HW129738   5.792   6.749   4.457
 9613SOL    HW229739   5.705   6.883   4.491
 9614SOL     OW29740   3.827   4.003   2.174
 9614SOL    HW129741   3.734   3.974   2.195
 9614SOL    HW229742   3.832   4.103   2.172
 9615SOL     OW29743   2.203   5.524   2.920
 9615SOL    HW129744   2.214   5.427   2.941
 9615SOL    HW229745   2.138   5.534   2.844
 9616SOL     OW29746   3.534   2.580   1.082
 9616SOL    HW129747   3.624   2.600   1.120
 9616SOL    HW229748   3.470   2.560   1.157
 9617SOL     OW29749   0.975   3.329   3.509
 9617SOL    HW129750   1.039   3.399   3.540
 9617SOL    HW229751   1.023   3.242   3.500
 9618SOL     OW29752   3.930   6.806   6.659
 9618SOL    HW129753   4.000   6.846   6.719
 9618SOL    HW229754   3.840   6.835   6.691
 9619SOL     OW29755   1.642   5.524   0.185
 9619SOL    HW129756   1.704   5.468   0.241
 9619SOL    HW229757   1.691   5.604   0.151
 9620SOL     OW29758   3.670   0.236   6.403
 9620SOL    HW129759   3.738   0.260   6.333
 9620SOL    HW229760   3.677   0.139   6.424
 9621SOL     OW29761   0.959   0.449   2.624
 9621SOL    HW129762   1.042   0.460   2.569
 9621SOL    HW229763   0.984   0.421   2.717
 9622SOL     OW29764   6.811   1.193   6.696
 9622SOL    HW129765   6.713   1.189   6.678
 9622SOL    HW229766   6.832   1.272   6.754
 9623SOL     OW29767   4.927   5.720   6.550
 9623SOL    HW129768   4.975   5.634   6.566
 9623SOL    HW229769   4.977   5.773   6.481
 9624SOL     OW29770   5.633   5.405   5.226
 9624SOL    HW129771   5.562   5.339   5.201
 9624SOL    HW229772   5.723   5.365   5.208
 9625SOL     OW29773   5.504   4.699   6.404
 9625SOL    HW129774   5.496   4.733   6.498
 9625SOL    HW229775   5.551   4.611   6.405
 9626SOL     OW29776   1.605   4.556   4.848
 9626SOL    HW129777   1.513   4.571   4.811
 9626SOL    HW229778   1.630   4.460   4.837
 9627SOL     OW29779   1.450   4.619   5.839
 9627SOL    HW129780   1.379   4.672   5.791
 9627SOL    HW229781   1.455   4.649   5.934
 9628SOL     OW29782   5.714   4.312   7.001
 9628SOL    HW129783   5.626   4.312   6.953
 9628SOL    HW229784   5.701   4.344   0.071
 9629SOL     OW29785   6.640   6.280   2.871
 9629SOL    HW129786   6.718   6.225   2.842
 9629SOL    HW229787   6.576   6.224   2.922
 9630SOL     OW29788   5.990   6.484   5.756
 9630SOL    HW129789   5.992   6.400   5.703
 9630SOL    HW229790   5.952   6.558   5.700
 9631SOL     OW29791   4.538   1.149   1.347
 9631SOL    HW129792   4.490   1.168   1.262
 9631SOL    HW229793   4.475   1.109   1.413
 9632SOL     OW29794   2.168   5.011   1.407
 9632SOL    HW129795   2.094   5.021   1.474
 9632SOL    HW229796   2.187   4.914   1.393
 9633SOL     OW29797   3.986   3.322   2.024
 9633SOL    HW129798   4.016   3.316   2.119
 9633SOL    HW229799   4.022   3.244   1.973
 9634SOL     OW29800   5.222   4.592   2.324
 9634SOL    HW129801   5.213   4.534   2.404
 9634SOL    HW229802   5.149   4.660   2.324
 9635SOL     OW29803   0.581   3.838   4.212
 9635SOL    HW129804   0.591   3.785   4.128
 9635SOL    HW229805   0.498   3.894   4.207
 9636SOL     OW29806   3.956   1.488   5.797
 9636SOL    HW129807   4.029   1.543   5.836
 9636SOL    HW229808   3.876   1.546   5.779
 9637SOL     OW29809   2.552   2.761   1.202
 9637SOL    HW129810   2.490   2.739   1.276
 9637SOL    HW229811   2.633   2.807   1.239
 9638SOL     OW29812   0.105   4.559   5.988
 9638SOL    HW129813   0.081   4.551   5.892
 9638SOL    HW229814   0.196   4.521   6.003
 9639SOL     OW29815   4.593   2.566   1.988
 9639SOL    HW129816   4.502   2.547   1.950
 9639SOL    HW229817   4.642   2.629   1.929
 9640SOL     OW29818   4.121   1.534   2.178
 9640SOL    HW129819   4.043   1.596   2.166
 9640SOL    HW229820   4.118   1.462   2.110
 9641SOL     OW29821   5.542   4.840   2.739
 9641SOL    HW129822   5.454   4.797   2.719
 9641SOL    HW229823   5.563   4.906   2.667
 9642SOL     OW29824   1.544   0.061   4.484
 9642SOL    HW129825   1.578   0.083   4.575
 9642SOL    HW229826   1.577   6.995   4.456
 9643SOL     OW29827   5.016   3.999   4.331
 9643SOL    HW129828   5.011   3.918   4.272
 9643SOL    HW229829   4.957   4.071   4.293
 9644SOL     OW29830   2.450   6.195   5.208
 9644SOL    HW129831   2.370   6.242   5.170
 9644SOL    HW229832   2.425   6.148   5.292
 9645SOL     OW29833   0.864   4.729   4.908
 9645SOL    HW129834   0.807   4.811   4.920
 9645SOL    HW229835   0.858   4.672   4.990
 9646SOL     OW29836   2.947   6.953   4.503
 9646SOL    HW129837   2.913   0.005   4.449
 9646SOL    HW229838   2.922   6.867   4.458
 9647SOL     OW29839   6.496   5.815   2.821
 9647SOL    HW129840   6.440   5.746   2.868
 9647SOL    HW229841   6.457   5.905   2.838
 9648SOL     OW29842   5.049   2.542   1.564
 9648SOL    HW129843   4.962   2.556   1.613
 9648SOL    HW229844   5.030   2.512   1.471
 9649SOL     OW29845   2.237   3.597   6.448
 9649SOL    HW129846   2.185   3.584   6.363
 9649SOL    HW229847   2.263   3.508   6.485
 9650SOL     OW29848   6.272   5.045   3.813
 9650SOL    HW129849   6.214   5.115   3.772
 9650SOL    HW229850   6.358   5.086   3.842
 9651SOL     OW29851   3.314   1.284   0.191
 9651SOL    HW129852   3.302   1.196   0.145
 9651SOL    HW229853   3.325   1.357   0.123
 9652SOL     OW29854   0.741   4.184   1.272
 9652SOL    HW129855   0.796   4.267   1.273
 9652SOL    HW229856   0.652   4.202   1.315
 9653SOL     OW29857   4.493   4.370   5.577
 9653SOL    HW129858   4.508   4.362   5.675
 9653SOL    HW229859   4.395   4.384   5.559
 9654SOL     OW29860   3.641   2.863   3.016
 9654SOL    HW129861   3.628   2.772   3.056
 9654SOL    HW229862   3.627   2.933   3.086
 9655SOL     OW29863   6.687   1.451   0.919
 9655SOL    HW129864   6.775   1.497   0.933
 9655SOL    HW229865   6.619   1.489   0.981
 9656SOL     OW29866   4.901   3.132   0.611
 9656SOL    HW129867   4.974   3.187   0.572
 9656SOL    HW229868   4.888   3.157   0.707
 9657SOL     OW29869   5.035   4.177   3.931
 9657SOL    HW129870   5.082   4.183   3.843
 9657SOL    HW229871   4.997   4.266   3.955
 9658SOL     OW29872   5.318   2.085   2.525
 9658SOL    HW129873   5.354   2.118   2.612
 9658SOL    HW229874   5.226   2.047   2.539
 9659SOL     OW29875   2.934   1.702   0.501
 9659SOL    HW129876   3.001   1.750   0.445
 9659SOL    HW229877   2.864   1.661   0.442
 9660SOL     OW29878   0.589   6.270   0.785
 9660SOL    HW129879   0.489   6.272   0.787
 9660SOL    HW229880   0.623   6.220   0.865
 9661SOL     OW29881   4.408   5.584   1.043
 9661SOL    HW129882   4.357   5.579   1.129
 9661SOL    HW229883   4.385   5.505   0.986
 9662SOL     OW29884   5.512   4.255   6.800
 9662SOL    HW129885   5.417   4.248   6.769
 9662SOL    HW229886   5.556   4.165   6.793
 9663SOL     OW29887   0.166   4.837   2.773
 9663SOL    HW129888   0.104   4.760   2.758
 9663SOL    HW229889   0.192   4.841   2.870
 9664SOL     OW29890   5.241   4.136   3.749
 9664SOL    HW129891   5.202   4.051   3.785
 9664SOL    HW229892   5.225   4.142   3.651
 9665SOL     OW29893   6.211   6.236   5.406
 9665SOL    HW129894   6.203   6.213   5.503
 9665SOL    HW229895   6.277   6.174   5.363
 9666SOL     OW29896   6.535   4.708   1.241
 9666SOL    HW129897   6.622   4.684   1.284
 9666SOL    HW229898   6.460   4.684   1.301
 9667SOL     OW29899   4.815   4.474   0.872
 9667SOL    HW129900   4.755   4.465   0.793
 9667SOL    HW229901   4.762   4.506   0.950
 9668SOL     OW29902   1.416   0.512   6.100
 9668SOL    HW129903   1.338   0.508   6.037
 9668SOL    HW229904   1.384   0.536   6.191
 9669SOL     OW29905   2.794   0.110   0.845
 9669SOL    HW129906   2.849   0.030   0.820
 9669SOL    HW229907   2.811   0.134   0.940
 9670SOL     OW29908   0.505   6.133   5.207
 9670SOL    HW129909   0.419   6.097   5.169
 9670SOL    HW229910   0.578   6.122   5.140
 9671SOL     OW29911   0.574   4.748   0.593
 9671SOL    HW129912   0.526   4.669   0.552
 9671SOL    HW229913   0.524   4.832   0.571
 9672SOL     OW29914   1.265   4.984   2.795
 9672SOL    HW129915   1.210   4.905   2.770
 9672SOL    HW229916   1.339   4.995   2.729
 9673SOL     OW29917   3.513   4.102   1.474
 9673SOL    HW129918   3.477   4.093   1.567
 9673SOL    HW229919   3.459   4.171   1.425
 9674SOL     OW29920   3.835   6.263   2.823
 9674SOL    HW129921   3.841   6.216   2.735
 9674SOL    HW229922   3.890   6.347   2.819
 9675SOL     OW29923   5.253   3.791   0.311
 9675SOL    HW129924   5.284   3.857   0.242
 9675SOL    HW229925   5.166   3.822   0.349
 9676SOL     OW29926   1.532   3.007   6.800
 9676SOL    HW129927   1.522   2.911   6.828
 9676SOL    HW229928   1.449   3.038   6.755
 9677SOL     OW29929   6.436   5.015   6.530
 9677SOL    HW129930   6.354   5.071   6.536
 9677SOL    HW229931   6.451   4.968   6.617
 9678SOL     OW29932   3.360   3.575   4.645
 9678SOL    HW129933   3.279   3.541   4.693
 9678SOL    HW229934   3.333   3.641   4.575
 9679SOL     OW29935   2.747   1.795   4.613
 9679SOL    HW129936   2.771   1.879   4.564
 9679SOL    HW229937   2.649   1.778   4.602
 9680SOL     OW29938   5.243   6.920   4.609
 9680SOL    HW129939   5.298   6.871   4.541
 9680SOL    HW229940   5.160   6.869   4.629
 9681SOL     OW29941   2.889   1.371   1.812
 9681SOL    HW129942   2.861   1.286   1.857
 9681SOL    HW229943   2.813   1.436   1.814
 9682SOL     OW29944   5.119   4.556   3.732
 9682SOL    HW129945   5.084   4.628   3.793
 9682SOL    HW229946   5.043   4.504   3.696
 9683SOL     OW29947   1.799   6.502   0.528
 9683SOL    HW129948   1.740   6.491   0.608
 9683SOL    HW229949   1.752   6.467   0.447
 9684SOL     OW29950   0.830   3.376   4.783
 9684SOL    HW129951   0.843   3.474   4.800
 9684SOL    HW229952   0.823   3.328   4.870
 9685SOL     OW29953   4.471   3.736   0.444
 9685SOL    HW129954   4.452   3.639   0.428
 9685SOL    HW229955   4.386   3.783   0.466
 9686SOL     OW29956   0.260   2.528   0.112
 9686SOL    HW129957   0.215   2.495   0.029
 9686SOL    HW229958   0.323   2.602   0.088
 9687SOL     OW29959   6.440   6.896   2.172
 9687SOL    HW129960   6.399   6.927   2.257
 9687SOL    HW229961   6.475   6.803   2.184
 9688SOL     OW29962   0.766   3.672   0.850
 9688SOL    HW129963   0.758   3.604   0.777
 9688SOL    HW229964   0.737   3.632   0.937
 9689SOL     OW29965   0.790   4.687   5.972
 9689SOL    HW129966   0.858   4.677   5.899
 9689SOL    HW229967   0.834   4.669   6.060
 9690SOL     OW29968   4.383   5.824   5.677
 9690SOL    HW129969   4.422   5.733   5.688
 9690SOL    HW229970   4.351   5.858   5.765
 9691SOL     OW29971   3.540   3.538   2.619
 9691SOL    HW129972   3.501   3.608   2.678
 9691SOL    HW229973   3.513   3.447   2.653
 9692SOL     OW29974   5.098   5.512   0.457
 9692SOL    HW129975   5.122   5.424   0.496
 9692SOL    HW229976   5.181   5.558   0.423
 9693SOL     OW29977   5.636   4.337   4.157
 9693SOL    HW129978   5.579   4.297   4.085
 9693SOL    HW229979   5.727   4.354   4.120
 9694SOL     OW29980   3.713   0.659   1.361
 9694SOL    HW129981   3.726   0.757   1.371
 9694SOL    HW229982   3.706   0.616   1.451
 9695SOL     OW29983   0.049   3.732   2.544
 9695SOL    HW129984   0.065   3.821   2.588
 9695SOL    HW229985   6.992   3.738   2.487
 9696SOL     OW29986   6.127   1.939   2.427
 9696SOL    HW129987   6.158   2.033   2.409
 9696SOL    HW229988   6.137   1.920   2.525
 9697SOL     OW29989   0.212   6.771   0.626
 9697SOL    HW129990   0.213   6.836   0.550
 9697SOL    HW229991   0.230   6.679   0.592
 9698SOL     OW29992   5.752   2.933   6.320
 9698SOL    HW129993   5.709   2.974   6.239
 9698SOL    HW229994   5.738   2.834   6.319
 9699SOL     OW29995   0.982   5.958   0.227
 9699SOL    HW129996   0.938   5.898   0.160
 9699SOL    HW229997   0.934   5.950   0.315
 9700SOL     OW29998   6.410   5.550   3.440
 9700SOL    HW129999   6.426   5.647   3.456
 9700SOL    HW230000   6.415   5.532   3.342
 9701SOL     OW30001   4.323   3.455   6.100
 9701SOL    HW130002   4.252   3.402   6.053
 9701SOL    HW230003   4.286   3.545   6.124
 9702SOL     OW30004   3.900   2.793   0.563
 9702SOL    HW130005   3.883   2.864   0.495
 9702SOL    HW230006   3.992   2.755   0.548
 9703SOL     OW30007   5.689   3.943   4.521
 9703SOL    HW130008   5.713   3.861   4.572
 9703SOL    HW230009   5.681   3.921   4.424
 9704SOL     OW30010   3.300   4.878   2.320
 9704SOL    HW130011   3.322   4.920   2.408
 9704SOL    HW230012   3.364   4.803   2.302
 9705SOL     OW30013   6.084   4.131   5.615
 9705SOL    HW130014   6.027   4.205   5.650
 9705SOL    HW230015   6.181   4.154   5.627
 9706SOL     OW30016   2.238   2.201   1.348
 9706SOL    HW130017   2.329   2.158   1.344
 9706SOL    HW230018   2.212   2.232   1.256
 9707SOL     OW30019   5.611   5.151   2.243
 9707SOL    HW130020   5.569   5.069   2.282
 9707SOL    HW230021   5.634   5.215   2.317
 9708SOL     OW30022   1.476   1.709   2.026
 9708SOL    HW130023   1.543   1.674   1.960
 9708SOL    HW230024   1.405   1.760   1.978
 9709SOL     OW30025   4.719   4.646   1.903
 9709SOL    HW130026   4.688   4.740   1.890
 9709SOL    HW230027   4.754   4.610   1.816
 9710SOL     OW30028   6.729   0.584   0.298
 9710SOL    HW130029   6.723   0.487   0.321
 9710SOL    HW230030   6.652   0.634   0.338
 9711SOL     OW30031   3.803   5.949   6.016
 9711SOL    HW130032   3.754   5.878   5.965
 9711SOL    HW230033   3.892   5.966   5.973
 9712SOL     OW30034   6.108   3.264   0.203
 9712SOL    HW130035   6.153   3.226   0.284
 9712SOL    HW230036   6.176   3.306   0.143
 9713SOL     OW30037   2.414   5.825   3.404
 9713SOL    HW130038   2.339   5.887   3.429
 9713SOL    HW230039   2.376   5.738   3.374
 9714SOL     OW30040   4.168   6.088   5.583
 9714SOL    HW130041   4.161   6.141   5.499
 9714SOL    HW230042   4.162   5.991   5.563
 9715SOL     OW30043   6.222   5.111   6.893
 9715SOL    HW130044   6.173   5.190   6.857
 9715SOL    HW230045   6.184   5.027   6.854
 9716SOL     OW30046   3.756   4.063   6.859
 9716SOL    HW130047   3.762   4.151   6.905
 9716SOL    HW230048   3.846   4.018   6.861
 9717SOL     OW30049   4.586   6.288   0.236
 9717SOL    HW130050   4.585   6.192   0.264
 9717SOL    HW230051   4.550   6.296   0.143
 9718SOL     OW30052   3.795   2.906   0.341
 9718SOL    HW130053   3.695   2.919   0.341
 9718SOL    HW230054   3.837   2.981   0.289
 9719SOL     OW30055   5.504   6.841   5.502
 9719SOL    HW130056   5.574   6.835   5.573
 9719SOL    HW230057   5.462   6.932   5.505
 9720SOL     OW30058   0.855   3.743   2.451
 9720SOL    HW130059   0.859   3.646   2.427
 9720SOL    HW230060   0.769   3.781   2.417
 9721SOL     OW30061   0.594   1.755   7.010
 9721SOL    HW130062   0.582   1.850   0.015
 9721SOL    HW230063   0.620   1.752   6.913
 9722SOL     OW30064   3.567   1.523   5.091
 9722SOL    HW130065   3.660   1.510   5.123
 9722SOL    HW230066   3.556   1.481   5.001
 9723SOL     OW30067   5.437   5.244   4.034
 9723SOL    HW130068   5.412   5.265   3.939
 9723SOL    HW230069   5.534   5.219   4.038
 9724SOL     OW30070   2.212   4.831   6.804
 9724SOL    HW130071   2.256   4.805   6.718
 9724SOL    HW230072   2.231   4.927   6.823
 9725SOL     OW30073   4.679   6.211   5.544
 9725SOL    HW130074   4.608   6.155   5.586
 9725SOL    HW230075   4.652   6.233   5.450
 9726SOL     OW30076   4.789   1.437   4.468
 9726SOL    HW130077   4.888   1.438   4.454
 9726SOL    HW230078   4.753   1.530   4.460
 9727SOL     OW30079   0.444   2.648   0.398
 9727SOL    HW130080   0.350   2.615   0.408
 9727SOL    HW230081   0.475   2.685   0.485
 9728SOL     OW30082   0.169   2.054   5.775
 9728SOL    HW130083   0.162   2.028   5.871
 9728SOL    HW230084   0.191   2.152   5.768
 9729SOL     OW30085   1.555   3.865   4.233
 9729SOL    HW130086   1.582   3.805   4.157
 9729SOL    HW230087   1.614   3.849   4.311
 9730SOL     OW30088   1.022   4.594   2.869
 9730SOL    HW130089   0.997   4.508   2.826
 9730SOL    HW230090   1.066   4.577   2.957
 9731SOL     OW30091   4.867   5.693   1.849
 9731SOL    HW130092   4.907   5.654   1.766
 9731SOL    HW230093   4.768   5.691   1.842
 9732SOL     OW30094   6.759   3.173   1.818
 9732SOL    HW130095   6.779   3.125   1.733
 9732SOL    HW230096   6.837   3.168   1.880
 9733SOL     OW30097   5.638   5.655   0.975
 9733SOL    HW130098   5.544   5.644   1.008
 9733SOL    HW230099   5.676   5.565   0.952
 9734SOL     OW30100   6.393   0.287   0.563
 9734SOL    HW130101   6.490   0.271   0.582
 9734SOL    HW230102   6.344   0.200   0.566
 9735SOL     OW30103   1.536   2.738   3.551
 9735SOL    HW130104   1.624   2.783   3.567
 9735SOL    HW230105   1.513   2.680   3.629
 9736SOL     OW30106   5.120   1.752   6.059
 9736SOL    HW130107   5.152   1.842   6.029
 9736SOL    HW230108   5.191   1.684   6.040
 9737SOL     OW30109   5.755   2.034   3.350
 9737SOL    HW130110   5.827   2.025   3.281
 9737SOL    HW230111   5.751   2.129   3.381
 9738SOL     OW30112   1.487   6.876   0.497
 9738SOL    HW130113   1.463   6.795   0.550
 9738SOL    HW230114   1.405   6.910   0.449
 9739SOL     OW30115   4.939   6.258   0.222
 9739SOL    HW130116   4.914   6.250   0.126
 9739SOL    HW230117   4.860   6.288   0.275
 9740SOL     OW30118   5.728   1.184   2.881
 9740SOL    HW130119   5.816   1.142   2.857
 9740SOL    HW230120   5.689   1.137   2.960
 9741SOL     OW30121   2.356   0.479   3.904
 9741SOL    HW130122   2.387   0.458   3.811
 9741SOL    HW230123   2.425   0.534   3.950
 9742SOL     OW30124   4.032   0.860   0.648
 9742SOL    HW130125   4.042   0.803   0.729
 9742SOL    HW230126   3.966   0.933   0.666
 9743SOL     OW30127   7.007   4.255   3.327
 9743SOL    HW130128   6.970   4.233   3.237
 9743SOL    HW230129   0.021   4.348   3.325
 9744SOL     OW30130   2.624   6.880   3.253
 9744SOL    HW130131   2.558   6.890   3.179
 9744SOL    HW230132   2.577   6.881   3.341
 9745SOL     OW30133   5.404   2.775   6.393
 9745SOL    HW130134   5.336   2.821   6.336
 9745SOL    HW230135   5.438   2.840   6.461
 9746SOL     OW30136   5.696   6.290   6.219
 9746SOL    HW130137   5.699   6.364   6.286
 9746SOL    HW230138   5.747   6.317   6.138
 9747SOL     OW30139   2.936   2.117   1.613
 9747SOL    HW130140   3.022   2.067   1.619
 9747SOL    HW230141   2.955   2.214   1.596
 9748SOL     OW30142   0.370   6.673   2.926
 9748SOL    HW130143   0.460   6.715   2.919
 9748SOL    HW230144   0.379   6.575   2.940
 9749SOL     OW30145   0.961   1.188   2.738
 9749SOL    HW130146   1.052   1.224   2.758
 9749SOL    HW230147   0.951   1.174   2.639
 9750SOL     OW30148   6.298   5.627   3.958
 9750SOL    HW130149   6.275   5.530   3.967
 9750SOL    HW230150   6.336   5.644   3.867
 9751SOL     OW30151   1.342   0.302   0.782
 9751SOL    HW130152   1.329   0.245   0.863
 9751SOL    HW230153   1.338   0.398   0.808
 9752SOL     OW30154   3.654   2.082   6.319
 9752SOL    HW130155   3.694   1.999   6.358
 9752SOL    HW230156   3.718   2.123   6.254
 9753SOL     OW30157   1.359   6.079   6.525
 9753SOL    HW130158   1.352   6.165   6.474
 9753SOL    HW230159   1.340   6.003   6.464
 9754SOL     OW30160   2.849   6.744   0.922
 9754SOL    HW130161   2.888   6.658   0.891
 9754SOL    HW230162   2.922   6.805   0.953
 9755SOL     OW30163   3.464   3.776   4.825
 9755SOL    HW130164   3.419   3.716   4.758
 9755SOL    HW230165   3.514   3.721   4.891
 9756SOL     OW30166   5.890   2.084   6.385
 9756SOL    HW130167   5.845   2.078   6.475
 9756SOL    HW230168   5.850   2.160   6.334
 9757SOL     OW30169   5.959   4.561   4.788
 9757SOL    HW130170   5.889   4.495   4.814
 9757SOL    HW230171   5.987   4.545   4.693
 9758SOL     OW30172   1.917   1.182   0.191
 9758SOL    HW130173   1.915   1.095   0.143
 9758SOL    HW230174   2.000   1.187   0.247
 9759SOL     OW30175   0.984   1.814   0.471
 9759SOL    HW130176   0.932   1.745   0.520
 9759SOL    HW230177   0.942   1.904   0.485
 9760SOL     OW30178   5.043   3.387   6.447
 9760SOL    HW130179   5.017   3.376   6.543
 9760SOL    HW230180   5.131   3.433   6.441
 9761SOL     OW30181   1.305   2.276   2.375
 9761SOL    HW130182   1.289   2.286   2.277
 9761SOL    HW230183   1.235   2.326   2.425
 9762SOL     OW30184   3.398   1.675   4.693
 9762SOL    HW130185   3.330   1.734   4.736
 9762SOL    HW230186   3.419   1.709   4.602
 9763SOL     OW30187   5.828   0.961   3.090
 9763SOL    HW130188   5.896   1.025   3.054
 9763SOL    HW230189   5.741   1.009   3.105
 9764SOL     OW30190   6.652   2.244   2.233
 9764SOL    HW130191   6.578   2.224   2.297
 9764SOL    HW230192   6.686   2.159   2.193
 9765SOL     OW30193   6.808   0.104   3.198
 9765SOL    HW130194   6.799   0.027   3.260
 9765SOL    HW230195   6.888   0.092   3.140
 9766SOL     OW30196   2.389   6.684   2.571
 9766SOL    HW130197   2.308   6.719   2.524
 9766SOL    HW230198   2.401   6.734   2.657
 9767SOL     OW30199   2.482   2.743   5.289
 9767SOL    HW130200   2.449   2.761   5.381
 9767SOL    HW230201   2.515   2.828   5.248
 9768SOL     OW30202   4.271   1.571   1.232
 9768SOL    HW130203   4.254   1.607   1.323
 9768SOL    HW230204   4.366   1.541   1.225
 9769SOL     OW30205   3.641   0.946   4.612
 9769SOL    HW130206   3.623   0.982   4.703
 9769SOL    HW230207   3.702   0.867   4.618
 9770SOL     OW30208   4.334   1.608   5.288
 9770SOL    HW130209   4.238   1.621   5.315
 9770SOL    HW230210   4.341   1.608   5.189
 9771SOL     OW30211   2.053   5.966   0.911
 9771SOL    HW130212   2.147   5.935   0.895
 9771SOL    HW230213   2.032   6.043   0.850
 9772SOL     OW30214   2.088   5.945   1.664
 9772SOL    HW130215   2.061   5.910   1.754
 9772SOL    HW230216   2.144   6.027   1.675
 9773SOL     OW30217   5.551   5.618   3.447
 9773SOL    HW130218   5.587   5.525   3.441
 9773SOL    HW230219   5.605   5.679   3.390
 9774SOL     OW30220   0.611   4.931   3.164
 9774SOL    HW130221   0.704   4.929   3.127
 9774SOL    HW230222   0.612   4.970   3.255
 9775SOL     OW30223   2.659   6.920   3.675
 9775SOL    HW130224   2.620   6.869   3.751
 9775SOL    HW230225   2.595   6.921   3.598
 9776SOL     OW30226   1.337   4.355   5.888
 9776SOL    HW130227   1.252   4.385   5.931
 9776SOL    HW230228   1.386   4.435   5.852
 9777SOL     OW30229   5.465   6.042   0.661
 9777SOL    HW130230   5.378   6.029   0.709
 9777SOL    HW230231   5.541   6.022   0.724
 9778SOL     OW30232   0.194   1.681   4.628
 9778SOL    HW130233   0.170   1.615   4.557
 9778SOL    HW230234   0.190   1.636   4.717
 9779SOL     OW30235   0.128   2.476   3.403
 9779SOL    HW130236   0.043   2.527   3.416
 9779SOL    HW230237   0.132   2.444   3.308
 9780SOL     OW30238   1.956   1.818   1.056
 9780SOL    HW130239   1.949   1.719   1.062
 9780SOL    HW230240   2.052   1.845   1.051
 9781SOL     OW30241   2.211   3.092   4.632
 9781SOL    HW130242   2.145   3.068   4.703
 9781SOL    HW230243   2.212   3.191   4.618
 9782SOL     OW30244   0.720   1.739   0.248
 9782SOL    HW130245   0.707   1.656   0.303
 9782SOL    HW230246   0.691   1.722   0.154
 9783SOL     OW30247   4.291   2.211   3.617
 9783SOL    HW130248   4.219   2.175   3.676
 9783SOL    HW230249   4.338   2.135   3.571
 9784SOL     OW30250   3.615   0.903   6.221
 9784SOL    HW130251   3.678   0.829   6.241
 9784SOL    HW230252   3.533   0.867   6.177
 9785SOL     OW30253   6.156   2.645   5.427
 9785SOL    HW130254   6.078   2.707   5.432
 9785SOL    HW230255   6.126   2.551   5.448
 9786SOL     OW30256   2.546   3.825   0.481
 9786SOL    HW130257   2.604   3.841   0.401
 9786SOL    HW230258   2.490   3.743   0.466
 9787SOL     OW30259   2.977   3.533   2.974
 9787SOL    HW130260   3.070   3.497   2.974
 9787SOL    HW230261   2.965   3.593   3.054
 9788SOL     OW30262   0.532   0.079   1.980
 9788SOL    HW130263   0.533   0.020   2.060
 9788SOL    HW230264   0.467   0.153   1.994
 9789SOL     OW30265   2.128   6.222   0.014
 9789SOL    HW130266   2.170   6.227   6.948
 9789SOL    HW230267   2.132   6.312   0.058
 9790SOL     OW30268   6.429   4.645   6.139
 9790SOL    HW130269   6.493   4.700   6.191
 9790SOL    HW230270   6.436   4.669   6.042
 9791SOL     OW30271   0.553   0.458   0.056
 9791SOL    HW130272   0.635   0.515   0.049
 9791SOL    HW230273   0.486   0.504   0.116
 9792SOL     OW30274   3.367   5.266   0.409
 9792SOL    HW130275   3.287   5.281   0.467
 9792SOL    HW230276   3.386   5.168   0.404
 9793SOL     OW30277   4.145   0.103   2.795
 9793SOL    HW130278   4.183   0.017   2.830
 9793SOL    HW230279   4.219   0.158   2.756
 9794SOL     OW30280   6.154   4.493   5.469
 9794SOL    HW130281   6.063   4.505   5.507
 9794SOL    HW230282   6.223   4.526   5.534
 9795SOL     OW30283   1.251   2.968   4.380
 9795SOL    HW130284   1.305   3.034   4.329
 9795SOL    HW230285   1.227   3.005   4.470
 9796SOL     OW30286   3.956   3.887   3.078
 9796SOL    HW130287   3.932   3.933   2.992
 9796SOL    HW230288   3.939   3.949   3.154
 9797SOL     OW30289   2.094   5.506   6.758
 9797SOL    HW130290   2.115   5.458   6.843
 9797SOL    HW230291   1.996   5.503   6.741
 9798SOL     OW30292   2.528   0.842   2.244
 9798SOL    HW130293   2.609   0.899   2.228
 9798SOL    HW230294   2.546   0.749   2.213
 9799SOL     OW30295   3.289   3.845   5.882
 9799SOL    HW130296   3.276   3.826   5.785
 9799SOL    HW230297   3.324   3.938   5.894
 9800SOL     OW30298   5.547   4.623   4.111
 9800SOL    HW130299   5.517   4.685   4.184
 9800SOL    HW230300   5.627   4.572   4.142
 9801SOL     OW30301   5.121   4.633   0.329
 9801SOL    HW130302   5.134   4.534   0.330
 9801SOL    HW230303   5.122   4.667   0.423
 9802SOL     OW30304   4.709   5.201   0.290
 9802SOL    HW130305   4.714   5.294   0.327
 9802SOL    HW230306   4.801   5.169   0.269
 9803SOL     OW30307   2.172   3.709   6.156
 9803SOL    HW130308   2.166   3.793   6.209
 9803SOL    HW230309   2.255   3.709   6.101
 9804SOL     OW30310   0.461   6.047   2.978
 9804SOL    HW130311   0.379   6.066   2.923
 9804SOL    HW230312   0.466   5.949   2.998
 9805SOL     OW30313   0.461   6.847   3.367
 9805SOL    HW130314   0.424   6.925   3.418
 9805SOL    HW230315   0.435   6.855   3.271
 9806SOL     OW30316   1.607   1.244   6.891
 9806SOL    HW130317   1.672   1.252   6.815
 9806SOL    HW230318   1.600   1.149   6.920
 9807SOL     OW30319   3.044   3.629   1.506
 9807SOL    HW130320   3.115   3.604   1.572
 9807SOL    HW230321   3.053   3.571   1.425
 9808SOL     OW30322   3.588   5.819   4.273
 9808SOL    HW130323   3.634   5.904   4.246
 9808SOL    HW230324   3.643   5.741   4.243
 9809SOL     OW30325   0.651   3.598   0.429
 9809SOL    HW130326   0.695   3.671   0.482
 9809SOL    HW230327   0.640   3.627   0.334
 9810SOL     OW30328   3.224   2.129   4.780
 9810SOL    HW130329   3.161   2.052   4.775
 9810SOL    HW230330   3.202   2.186   4.859
 9811SOL     OW30331   5.785   4.769   3.596
 9811SOL    HW130332   5.876   4.733   3.580
 9811SOL    HW230333   5.731   4.703   3.649
 9812SOL     OW30334   3.231   1.585   5.125
 9812SOL    HW130335   3.326   1.568   5.100
 9812SOL    HW230336   3.218   1.683   5.141
 9813SOL     OW30337   5.229   1.893   0.826
 9813SOL    HW130338   5.229   1.990   0.803
 9813SOL    HW230339   5.240   1.882   0.925
 9814SOL     OW30340   6.128   1.466   6.981
 9814SOL    HW130341   6.142   1.450   0.054
 9814SOL    HW230342   6.115   1.379   6.934
 9815SOL     OW30343   4.513   2.539   4.158
 9815SOL    HW130344   4.434   2.507   4.209
 9815SOL    HW230345   4.514   2.496   4.067
 9816SOL     OW30346   0.676   1.244   6.457
 9816SOL    HW130347   0.764   1.266   6.415
 9816SOL    HW230348   0.633   1.170   6.407
 9817SOL     OW30349   1.354   0.334   3.551
 9817SOL    HW130350   1.269   0.315   3.501
 9817SOL    HW230351   1.340   0.315   3.648
 9818SOL     OW30352   6.688   2.356   4.576
 9818SOL    HW130353   6.785   2.331   4.586
 9818SOL    HW230354   6.682   2.449   4.541
 9819SOL     OW30355   4.886   3.012   3.615
 9819SOL    HW130356   4.877   3.076   3.692
 9819SOL    HW230357   4.858   2.921   3.644
 9820SOL     OW30358   4.152   3.207   7.000
 9820SOL    HW130359   4.215   3.148   6.951
 9820SOL    HW230360   4.113   3.275   6.938
 9821SOL     OW30361   5.944   1.396   6.648
 9821SOL    HW130362   5.932   1.310   6.697
 9821SOL    HW230363   5.864   1.414   6.591
 9822SOL     OW30364   1.831   6.713   3.536
 9822SOL    HW130365   1.790   6.785   3.479
 9822SOL    HW230366   1.931   6.717   3.528
 9823SOL     OW30367   3.676   6.976   0.956
 9823SOL    HW130368   3.594   6.931   0.990
 9823SOL    HW230369   3.739   6.992   1.031
 9824SOL     OW30370   1.733   4.693   5.296
 9824SOL    HW130371   1.784   4.767   5.340
 9824SOL    HW230372   1.769   4.605   5.325
 9825SOL     OW30373   3.652   5.239   5.918
 9825SOL    HW130374   3.591   5.170   5.958
 9825SOL    HW230375   3.733   5.194   5.881
 9826SOL     OW30376   5.199   5.214   6.217
 9826SOL    HW130377   5.157   5.161   6.291
 9826SOL    HW230378   5.244   5.152   6.154
 9827SOL     OW30379   2.140   3.230   3.938
 9827SOL    HW130380   2.134   3.325   3.908
 9827SOL    HW230381   2.150   3.171   3.858
 9828SOL     OW30382   2.424   3.116   6.392
 9828SOL    HW130383   2.400   3.197   6.339
 9828SOL    HW230384   2.516   3.086   6.368
 9829SOL     OW30385   2.759   6.294   0.598
 9829SOL    HW130386   2.834   6.236   0.566
 9829SOL    HW230387   2.684   6.289   0.532
 9830SOL     OW30388   5.264   2.378   1.675
 9830SOL    HW130389   5.182   2.407   1.626
 9830SOL    HW230390   5.303   2.297   1.630
 9831SOL     OW30391   1.557   5.939   1.090
 9831SOL    HW130392   1.524   5.910   1.180
 9831SOL    HW230393   1.651   5.909   1.077
 9832SOL     OW30394   5.031   5.854   2.422
 9832SOL    HW130395   5.043   5.855   2.521
 9832SOL    HW230396   5.034   5.760   2.389
 9833SOL     OW30397   3.814   2.953   4.770
 9833SOL    HW130398   3.815   2.939   4.869
 9833SOL    HW230399   3.901   2.922   4.731
 9834SOL     OW30400   3.127   4.579   5.651
 9834SOL    HW130401   3.092   4.636   5.578
 9834SOL    HW230402   3.064   4.504   5.668
 9835SOL     OW30403   3.512   2.316   6.113
 9835SOL    HW130404   3.515   2.222   6.080
 9835SOL    HW230405   3.596   2.337   6.162
 9836SOL     OW30406   6.009   4.666   3.543
 9836SOL    HW130407   6.102   4.660   3.508
 9836SOL    HW230408   6.001   4.607   3.624
 9837SOL     OW30409   3.302   6.942   2.753
 9837SOL    HW130410   3.391   6.922   2.793
 9837SOL    HW230411   3.234   6.954   2.826
 9838SOL     OW30412   0.266   6.867   5.959
 9838SOL    HW130413   0.347   6.925   5.968
 9838SOL    HW230414   0.196   6.915   5.906
 9839SOL     OW30415   5.585   1.101   3.104
 9839SOL    HW130416   5.620   1.132   3.193
 9839SOL    HW230417   5.486   1.113   3.101
 9840SOL     OW30418   0.765   1.331   1.245
 9840SOL    HW130419   0.792   1.344   1.341
 9840SOL    HW230420   0.755   1.234   1.227
 9841SOL     OW30421   1.493   3.883   5.022
 9841SOL    HW130422   1.476   3.825   4.943
 9841SOL    HW230423   1.493   3.827   5.105
 9842SOL     OW30424   4.117   3.651   2.935
 9842SOL    HW130425   4.157   3.569   2.977
 9842SOL    HW230426   4.117   3.726   3.000
 9843SOL     OW30427   5.966   1.042   1.172
 9843SOL    HW130428   5.914   1.093   1.241
 9843SOL    HW230429   6.063   1.040   1.199
 9844SOL     OW30430   5.818   0.761   2.298
 9844SOL    HW130431   5.828   0.741   2.396
 9844SOL    HW230432   5.886   0.829   2.271
 9845SOL     OW30433   3.096   1.214   3.460
 9845SOL    HW130434   3.010   1.195   3.508
 9845SOL    HW230435   3.091   1.179   3.366
 9846SOL     OW30436   3.998   3.744   1.672
 9846SOL    HW130437   4.072   3.684   1.645
 9846SOL    HW230438   4.021   3.839   1.650
 9847SOL     OW30439   3.164   2.980   4.772
 9847SOL    HW130440   3.123   2.889   4.764
 9847SOL    HW230441   3.259   2.971   4.801
 9848SOL     OW30442   3.319   2.478   6.028
 9848SOL    HW130443   3.406   2.430   6.042
 9848SOL    HW230444   3.317   2.515   5.935
 9849SOL     OW30445   6.756   0.310   0.377
 9849SOL    HW130446   6.837   0.316   0.319
 9849SOL    HW230447   6.694   0.242   0.339
 9850SOL     OW30448   5.947   6.316   3.247
 9850SOL    HW130449   5.926   6.268   3.332
 9850SOL    HW230450   5.948   6.251   3.172
 9851SOL     OW30451   4.556   1.975   5.750
 9851SOL    HW130452   4.605   1.926   5.822
 9851SOL    HW230453   4.620   1.995   5.675
 9852SOL     OW30454   4.330   2.133   2.549
 9852SOL    HW130455   4.428   2.155   2.545
 9852SOL    HW230456   4.305   2.078   2.469
 9853SOL     OW30457   4.740   4.683   3.891
 9853SOL    HW130458   4.707   4.763   3.941
 9853SOL    HW230459   4.840   4.685   3.887
 9854SOL     OW30460   0.602   5.465   4.655
 9854SOL    HW130461   0.534   5.474   4.582
 9854SOL    HW230462   0.675   5.404   4.626
 9855SOL     OW30463   2.174   3.870   1.480
 9855SOL    HW130464   2.239   3.810   1.433
 9855SOL    HW230465   2.081   3.849   1.448
 9856SOL     OW30466   5.033   4.123   6.029
 9856SOL    HW130467   5.085   4.059   6.086
 9856SOL    HW230468   5.085   4.143   5.946
 9857SOL     OW30469   4.601   2.224   4.409
 9857SOL    HW130470   4.601   2.311   4.360
 9857SOL    HW230471   4.510   2.182   4.403
 9858SOL     OW30472   0.619   0.751   1.155
 9858SOL    HW130473   0.572   0.672   1.115
 9858SOL    HW230474   0.692   0.719   1.215
 9859SOL     OW30475   5.976   6.447   1.986
 9859SOL    HW130476   5.913   6.506   1.935
 9859SOL    HW230477   5.925   6.397   2.056
 9860SOL     OW30478   0.015   1.423   3.244
 9860SOL    HW130479   0.095   1.377   3.282
 9860SOL    HW230480   0.024   1.429   3.144
 9861SOL     OW30481   3.499   6.948   2.972
 9861SOL    HW130482   3.542   6.904   3.050
 9861SOL    HW230483   3.449   0.005   3.002
 9862SOL     OW30484   3.013   4.285   0.374
 9862SOL    HW130485   3.002   4.325   0.465
 9862SOL    HW230486   3.109   4.265   0.357
 9863SOL     OW30487   3.751   0.422   3.681
 9863SOL    HW130488   3.823   0.358   3.654
 9863SOL    HW230489   3.788   0.515   3.685
 9864SOL     OW30490   3.615   6.212   3.986
 9864SOL    HW130491   3.637   6.244   3.894
 9864SOL    HW230492   3.518   6.230   4.005
 9865SOL     OW30493   1.623   0.734   4.089
 9865SOL    HW130494   1.545   0.702   4.143
 9865SOL    HW230495   1.708   0.709   4.135
 9866SOL     OW30496   5.512   4.948   5.801
 9866SOL    HW130497   5.514   4.964   5.900
 9866SOL    HW230498   5.584   4.883   5.777
 9867SOL     OW30499   5.629   0.700   1.029
 9867SOL    HW130500   5.631   0.630   1.100
 9867SOL    HW230501   5.536   0.736   1.020
 9868SOL     OW30502   1.110   4.134   5.374
 9868SOL    HW130503   1.134   4.207   5.309
 9868SOL    HW230504   1.076   4.175   5.458
 9869SOL     OW30505   1.664   3.205   2.546
 9869SOL    HW130506   1.612   3.290   2.546
 9869SOL    HW230507   1.750   3.218   2.497
 9870SOL     OW30508   4.109   5.627   2.410
 9870SOL    HW130509   4.171   5.663   2.480
 9870SOL    HW230510   4.080   5.535   2.435
 9871SOL     OW30511   0.314   6.070   6.608
 9871SOL    HW130512   0.301   6.079   6.509
 9871SOL    HW230513   0.337   6.159   6.646
 9872SOL     OW30514   2.467   4.742   4.411
 9872SOL    HW130515   2.467   4.677   4.335
 9872SOL    HW230516   2.467   4.692   4.497
 9873SOL     OW30517   3.132   2.313   1.085
 9873SOL    HW130518   3.205   2.277   1.144
 9873SOL    HW230519   3.047   2.315   1.137
 9874SOL     OW30520   1.303   3.249   4.275
 9874SOL    HW130521   1.369   3.321   4.298
 9874SOL    HW230522   1.232   3.287   4.215
 9875SOL     OW30523   6.801   6.740   2.086
 9875SOL    HW130524   6.889   6.785   2.099
 9875SOL    HW230525   6.805   6.682   2.005
 9876SOL     OW30526   6.587   1.038   2.926
 9876SOL    HW130527   6.503   1.037   2.981
 9876SOL    HW230528   6.659   1.084   2.978
 9877SOL     OW30529   0.454   6.408   3.481
 9877SOL    HW130530   0.399   6.401   3.398
 9877SOL    HW230531   0.444   6.500   3.520
 9878SOL     OW30532   2.793   4.975   5.151
 9878SOL    HW130533   2.764   4.888   5.192
 9878SOL    HW230534   2.835   4.957   5.062
 9879SOL     OW30535   5.157   5.689   4.504
 9879SOL    HW130536   5.219   5.745   4.559
 9879SOL    HW230537   5.202   5.603   4.481
 9880SOL     OW30538   2.762   0.990   5.433
 9880SOL    HW130539   2.800   0.983   5.340
 9880SOL    HW230540   2.834   1.016   5.496
 9881SOL     OW30541   0.843   1.275   4.928
 9881SOL    HW130542   0.904   1.330   4.986
 9881SOL    HW230543   0.844   1.312   4.835
 9882SOL     OW30544   1.011   2.926   3.661
 9882SOL    HW130545   0.933   2.887   3.710
 9882SOL    HW230546   1.092   2.924   3.719
 9883SOL     OW30547   1.423   6.236   0.219
 9883SOL    HW130548   1.484   6.214   0.295
 9883SOL    HW230549   1.328   6.227   0.249
 9884SOL     OW30550   4.957   1.956   2.231
 9884SOL    HW130551   5.044   2.001   2.212
 9884SOL    HW230552   4.883   2.024   2.224
 9885SOL     OW30553   0.100   2.262   5.109
 9885SOL    HW130554   0.175   2.201   5.135
 9885SOL    HW230555   0.130   2.323   5.036
 9886SOL     OW30556   1.219   4.287   2.490
 9886SOL    HW130557   1.212   4.271   2.391
 9886SOL    HW230558   1.297   4.347   2.508
 9887SOL     OW30559   3.658   0.416   5.468
 9887SOL    HW130560   3.580   0.391   5.410
 9887SOL    HW230561   3.691   0.507   5.442
 9888SOL     OW30562   6.175   4.605   2.540
 9888SOL    HW130563   6.244   4.534   2.528
 9888SOL    HW230564   6.158   4.620   2.637
 9889SOL     OW30565   0.074   5.067   1.718
 9889SOL    HW130566   0.155   5.034   1.670
 9889SOL    HW230567   0.100   5.097   1.810
 9890SOL     OW30568   1.480   2.006   0.762
 9890SOL    HW130569   1.421   1.981   0.685
 9890SOL    HW230570   1.544   2.077   0.732
 9891SOL     OW30571   4.955   3.331   2.065
 9891SOL    HW130572   5.002   3.266   2.006
 9891SOL    HW230573   4.925   3.410   2.010
 9892SOL     OW30574   0.241   4.832   0.847
 9892SOL    HW130575   0.197   4.743   0.837
 9892SOL    HW230576   0.297   4.832   0.930
 9893SOL     OW30577   0.794   0.602   0.896
 9893SOL    HW130578   0.864   0.554   0.843
 9893SOL    HW230579   0.708   0.552   0.891
 9894SOL     OW30580   2.905   2.337   1.209
 9894SOL    HW130581   2.809   2.344   1.180
 9894SOL    HW230582   2.911   2.344   1.308
 9895SOL     OW30583   6.000   4.950   4.636
 9895SOL    HW130584   5.959   4.943   4.545
 9895SOL    HW230585   5.971   4.873   4.692
 9896SOL     OW30586   6.967   0.944   6.431
 9896SOL    HW130587   6.890   0.922   6.491
 9896SOL    HW230588   0.007   0.868   6.431
 9897SOL     OW30589   5.700   5.987   2.720
 9897SOL    HW130590   5.670   5.986   2.625
 9897SOL    HW230591   5.624   6.013   2.780
 9898SOL     OW30592   1.741   5.853   4.130
 9898SOL    HW130593   1.703   5.941   4.104
 9898SOL    HW230594   1.786   5.860   4.219
 9899SOL     OW30595   0.725   5.996   0.693
 9899SOL    HW130596   0.785   5.959   0.764
 9899SOL    HW230597   0.738   6.095   0.687
 9900SOL     OW30598   1.870   3.165   3.224
 9900SOL    HW130599   1.897   3.082   3.176
 9900SOL    HW230600   1.946   3.231   3.223
 9901SOL     OW30601   2.720   0.859   0.020
 9901SOL    HW130602   2.628   0.837   0.054
 9901SOL    HW230603   2.765   0.775   7.013
 9902SOL     OW30604   3.408   4.694   0.720
 9902SOL    HW130605   3.480   4.761   0.699
 9902SOL    HW230606   3.450   4.610   0.753
 9903SOL     OW30607   5.730   2.222   2.032
 9903SOL    HW130608   5.745   2.250   1.937
 9903SOL    HW230609   5.647   2.266   2.067
 9904SOL     OW30610   1.042   3.987   6.569
 9904SOL    HW130611   1.053   4.076   6.613
 9904SOL    HW230612   1.061   3.996   6.471
 9905SOL     OW30613   2.010   0.309   6.183
 9905SOL    HW130614   1.941   0.326   6.113
 9905SOL    HW230615   2.096   0.281   6.139
 9906SOL     OW30616   2.256   3.495   1.627
 9906SOL    HW130617   2.278   3.460   1.718
 9906SOL    HW230618   2.255   3.420   1.561
 9907SOL     OW30619   0.219   0.446   1.225
 9907SOL    HW130620   0.150   0.382   1.191
 9907SOL    HW230621   0.294   0.452   1.159
 9908SOL     OW30622   6.052   1.631   4.832
 9908SOL    HW130623   5.954   1.616   4.820
 9908SOL    HW230624   6.097   1.637   4.743
 9909SOL     OW30625   4.413   0.823   2.923
 9909SOL    HW130626   4.475   0.860   2.854
 9909SOL    HW230627   4.329   0.878   2.925
 9910SOL     OW30628   1.536   4.699   2.152
 9910SOL    HW130629   1.501   4.699   2.245
 9910SOL    HW230630   1.616   4.760   2.147
 9911SOL     OW30631   2.592   6.033   1.868
 9911SOL    HW130632   2.663   6.026   1.937
 9911SOL    HW230633   2.628   6.004   1.779
 9912SOL     OW30634   3.637   0.591   1.617
 9912SOL    HW130635   3.644   0.506   1.669
 9912SOL    HW230636   3.711   0.653   1.643
 9913SOL     OW30637   6.173   3.822   1.141
 9913SOL    HW130638   6.208   3.774   1.061
 9913SOL    HW230639   6.117   3.760   1.196
 9914SOL     OW30640   5.754   1.379   5.074
 9914SOL    HW130641   5.768   1.283   5.098
 9914SOL    HW230642   5.775   1.392   4.977
 9915SOL     OW30643   5.611   0.570   3.475
 9915SOL    HW130644   5.672   0.567   3.396
 9915SOL    HW230645   5.579   0.477   3.495
 9916SOL     OW30646   2.348   2.107   2.592
 9916SOL    HW130647   2.323   2.054   2.511
 9916SOL    HW230648   2.441   2.083   2.620
 9917SOL     OW30649   5.227   4.575   6.705
 9917SOL    HW130650   5.162   4.537   6.639
 9917SOL    HW230651   5.310   4.604   6.657
 9918SOL     OW30652   3.285   1.802   3.063
 9918SOL    HW130653   3.217   1.750   3.011
 9918SOL    HW230654   3.284   1.897   3.032
 9919SOL     OW30655   1.091   5.192   1.184
 9919SOL    HW130656   1.042   5.156   1.104
 9919SOL    HW230657   1.030   5.191   1.263
 9920SOL     OW30658   5.207   1.284   2.156
 9920SOL    HW130659   5.109   1.267   2.145
 9920SOL    HW230660   5.258   1.199   2.142
 9921SOL     OW30661   4.077   6.916   5.003
 9921SOL    HW130662   4.065   6.870   5.091
 9921SOL    HW230663   4.056   6.853   4.929
 9922SOL     OW30664   2.449   4.349   1.012
 9922SOL    HW130665   2.509   4.421   0.979
 9922SOL    HW230666   2.384   4.387   1.078
 9923SOL     OW30667   5.697   4.974   6.965
 9923SOL    HW130668   5.647   5.029   0.008
 9923SOL    HW230669   5.795   4.987   6.978
 9924SOL     OW30670   6.546   1.349   3.923
 9924SOL    HW130671   6.461   1.311   3.961
 9924SOL    HW230672   6.525   1.400   3.840
 9925SOL     OW30673   0.134   3.909   4.205
 9925SOL    HW130674   0.191   3.989   4.183
 9925SOL    HW230675   0.061   3.901   4.137
 9926SOL     OW30676   4.351   3.023   1.499
 9926SOL    HW130677   4.307   3.031   1.409
 9926SOL    HW230678   4.331   2.933   1.538
 9927SOL     OW30679   0.532   6.998   0.870
 9927SOL    HW130680   0.449   0.014   0.832
 9927SOL    HW230681   0.596   6.979   0.796
 9928SOL     OW30682   5.162   4.612   2.993
 9928SOL    HW130683   5.133   4.558   2.915
 9928SOL    HW230684   5.232   4.678   2.964
 9929SOL     OW30685   3.466   4.040   5.210
 9929SOL    HW130686   3.404   4.017   5.134
 9929SOL    HW230687   3.479   3.959   5.267
 9930SOL     OW30688   6.382   6.416   4.728
 9930SOL    HW130689   6.304   6.438   4.788
 9930SOL    HW230690   6.465   6.407   4.782
 9931SOL     OW30691   0.785   5.688   4.421
 9931SOL    HW130692   0.775   5.589   4.417
 9931SOL    HW230693   0.797   5.724   4.329
 9932SOL     OW30694   3.523   2.926   6.668
 9932SOL    HW130695   3.508   2.838   6.712
 9932SOL    HW230696   3.614   2.960   6.693
 9933SOL     OW30697   0.310   5.908   3.411
 9933SOL    HW130698   0.379   5.838   3.389
 9933SOL    HW230699   0.333   5.949   3.499
 9934SOL     OW30700   6.411   2.435   5.689
 9934SOL    HW130701   6.320   2.412   5.726
 9934SOL    HW230702   6.478   2.370   5.725
 9935SOL     OW30703   2.901   6.333   0.052
 9935SOL    HW130704   2.869   6.368   6.988
 9935SOL    HW230705   2.851   6.379   0.126
 9936SOL     OW30706   0.127   4.707   0.071
 9936SOL    HW130707   0.181   4.758   0.137
 9936SOL    HW230708   0.186   4.676   7.021
 9937SOL     OW30709   0.431   1.583   1.449
 9937SOL    HW130710   0.393   1.518   1.383
 9937SOL    HW230711   0.428   1.675   1.412
 9938SOL     OW30712   6.619   4.908   3.592
 9938SOL    HW130713   6.547   4.903   3.661
 9938SOL    HW230714   6.606   4.836   3.524
 9939SOL     OW30715   4.225   1.961   1.466
 9939SOL    HW130716   4.235   1.862   1.454
 9939SOL    HW230717   4.249   1.985   1.560
 9940SOL     OW30718   1.059   0.334   1.143
 9940SOL    HW130719   1.033   0.385   1.061
 9940SOL    HW230720   1.156   0.346   1.161
 9941SOL     OW30721   3.628   3.143   4.716
 9941SOL    HW130722   3.706   3.080   4.723
 9941SOL    HW230723   3.585   3.133   4.627
 9942SOL     OW30724   2.543   5.654   2.571
 9942SOL    HW130725   2.547   5.715   2.650
 9942SOL    HW230726   2.556   5.560   2.601
 9943SOL     OW30727   7.024   4.560   5.738
 9943SOL    HW130728   6.938   4.592   5.697
 9943SOL    HW230729   7.013   4.465   5.767
 9944SOL     OW30730   0.967   4.343   6.720
 9944SOL    HW130731   1.063   4.324   6.701
 9944SOL    HW230732   0.915   4.339   6.635
 9945SOL     OW30733   4.990   5.464   6.868
 9945SOL    HW130734   4.912   5.407   6.896
 9945SOL    HW230735   5.075   5.415   6.886
 9946SOL     OW30736   6.151   0.863   3.234
 9946SOL    HW130737   6.139   0.786   3.296
 9946SOL    HW230738   6.113   0.839   3.144
 9947SOL     OW30739   2.311   2.365   4.801
 9947SOL    HW130740   2.249   2.437   4.833
 9947SOL    HW230741   2.259   2.282   4.783
 9948SOL     OW30742   6.045   3.848   5.783
 9948SOL    HW130743   6.135   3.875   5.749
 9948SOL    HW230744   5.974   3.897   5.732
 9949SOL     OW30745   6.543   5.441   4.308
 9949SOL    HW130746   6.623   5.382   4.294
 9949SOL    HW230747   6.505   5.426   4.399
 9950SOL     OW30748   5.542   6.159   5.828
 9950SOL    HW130749   5.461   6.103   5.847
 9950SOL    HW230750   5.624   6.105   5.843
 9951SOL     OW30751   0.055   1.540   3.771
 9951SOL    HW130752   0.088   1.496   3.688
 9951SOL    HW230753   0.122   1.529   3.844
 9952SOL     OW30754   1.343   4.725   0.644
 9952SOL    HW130755   1.317   4.654   0.710
 9952SOL    HW230756   1.411   4.688   0.580
 9953SOL     OW30757   5.230   2.700   4.363
 9953SOL    HW130758   5.259   2.748   4.446
 9953SOL    HW230759   5.284   2.617   4.352
 9954SOL     OW30760   0.141   0.591   6.129
 9954SOL    HW130761   0.224   0.647   6.119
 9954SOL    HW230762   0.112   0.559   6.039
 9955SOL     OW30763   5.819   3.155   5.601
 9955SOL    HW130764   5.732   3.204   5.599
 9955SOL    HW230765   5.878   3.194   5.672
 9956SOL     OW30766   1.497   6.792   1.599
 9956SOL    HW130767   1.490   6.892   1.598
 9956SOL    HW230768   1.593   6.765   1.600
 9957SOL     OW30769   5.462   5.809   2.212
 9957SOL    HW130770   5.502   5.828   2.302
 9957SOL    HW230771   5.418   5.719   2.214
 9958SOL     OW30772   2.876   5.379   6.869
 9958SOL    HW130773   2.882   5.418   6.777
 9958SOL    HW230774   2.829   5.290   6.865
 9959SOL     OW30775   4.083   3.785   4.729
 9959SOL    HW130776   4.037   3.868   4.759
 9959SOL    HW230777   4.106   3.728   4.808
 9960SOL     OW30778   0.338   0.515   2.186
 9960SOL    HW130779   0.241   0.528   2.209
 9960SOL    HW230780   0.352   0.535   2.089
 9961SOL     OW30781   1.590   4.885   4.420
 9961SOL    HW130782   1.490   4.880   4.418
 9961SOL    HW230783   1.621   4.912   4.511
 9962SOL     OW30784   5.427   5.785   1.851
 9962SOL    HW130785   5.434   5.690   1.880
 9962SOL    HW230786   5.491   5.842   1.903
 9963SOL     OW30787   2.737   3.810   6.836
 9963SOL    HW130788   2.760   3.891   6.783
 9963SOL    HW230789   2.662   3.761   6.791
 9964SOL     OW30790   5.548   4.563   5.752
 9964SOL    HW130791   5.453   4.585   5.774
 9964SOL    HW230792   5.581   4.491   5.814
 9965SOL     OW30793   3.859   6.304   6.266
 9965SOL    HW130794   3.892   6.320   6.173
 9965SOL    HW230795   3.793   6.374   6.291
 9966SOL     OW30796   1.889   5.657   2.102
 9966SOL    HW130797   1.863   5.639   2.007
 9966SOL    HW230798   1.986   5.682   2.106
 9967SOL     OW30799   6.191   6.925   2.422
 9967SOL    HW130800   6.176   6.926   2.521
 9967SOL    HW230801   6.202   6.830   2.391
 9968SOL     OW30802   3.016   3.804   0.050
 9968SOL    HW130803   3.011   3.734   7.003
 9968SOL    HW230804   2.974   3.770   0.133
 9969SOL     OW30805   1.681   2.661   3.101
 9969SOL    HW130806   1.732   2.709   3.172
 9969SOL    HW230807   1.591   2.634   3.136
 9970SOL     OW30808   5.201   3.824   2.643
 9970SOL    HW130809   5.206   3.858   2.549
 9970SOL    HW230810   5.108   3.793   2.662
 9971SOL     OW30811   2.549   5.143   1.194
 9971SOL    HW130812   2.535   5.048   1.167
 9971SOL    HW230813   2.480   5.170   1.261
 9972SOL     OW30814   3.887   4.620   1.172
 9972SOL    HW130815   3.891   4.542   1.234
 9972SOL    HW230816   3.887   4.587   1.078
 9973SOL     OW30817   4.351   2.235   4.088
 9973SOL    HW130818   4.367   2.139   4.112
 9973SOL    HW230819   4.414   2.262   4.015
 9974SOL     OW30820   6.783   3.099   3.655
 9974SOL    HW130821   6.838   3.162   3.600
 9974SOL    HW230822   6.687   3.127   3.652
 9975SOL     OW30823   6.231   4.816   0.126
 9975SOL    HW130824   6.213   4.906   0.167
 9975SOL    HW230825   6.230   4.746   0.198
 9976SOL     OW30826   0.627   6.604   5.461
 9976SOL    HW130827   0.603   6.519   5.508
 9976SOL    HW230828   0.590   6.602   5.368
 9977SOL     OW30829   0.015   5.442   5.008
 9977SOL    HW130830   0.033   5.497   5.089
 9977SOL    HW230831   0.072   5.360   5.010
 9978SOL     OW30832   6.739   3.075   3.101
 9978SOL    HW130833   6.684   3.072   3.017
 9978SOL    HW230834   6.833   3.047   3.080
 9979SOL     OW30835   5.844   4.776   5.446
 9979SOL    HW130836   5.793   4.851   5.405
 9979SOL    HW230837   5.935   4.808   5.472
 9980SOL     OW30838   2.050   1.710   5.841
 9980SOL    HW130839   2.073   1.772   5.916
 9980SOL    HW230840   1.980   1.646   5.871
 9981SOL     OW30841   2.232   1.973   1.659
 9981SOL    HW130842   2.159   1.922   1.704
 9981SOL    HW230843   2.306   1.989   1.724
 9982SOL     OW30844   6.977   0.149   3.535
 9982SOL    HW130845   0.050   0.128   3.540
 9982SOL    HW230846   6.925   0.072   3.572
 9983SOL     OW30847   0.244   2.640   3.052
 9983SOL    HW130848   0.341   2.659   3.040
 9983SOL    HW230849   0.232   2.544   3.079
 9984SOL     OW30850   2.082   0.963   0.053
 9984SOL    HW130851   2.147   0.907   0.104
 9984SOL    HW230852   2.129   1.045   0.019
 9985SOL     OW30853   2.161   1.096   1.545
 9985SOL    HW130854   2.076   1.043   1.549
 9985SOL    HW230855   2.189   1.120   1.638
 9986SOL     OW30856   5.671   4.297   5.726
 9986SOL    HW130857   5.704   4.212   5.769
 9986SOL    HW230858   5.597   4.275   5.663
 9987SOL     OW30859   6.720   2.941   3.935
 9987SOL    HW130860   6.728   2.895   4.023
 9987SOL    HW230861   6.805   2.929   3.883
 9988SOL     OW30862   0.132   5.503   5.250
 9988SOL    HW130863   0.132   5.404   5.244
 9988SOL    HW230864   0.210   5.534   5.305
 9989SOL     OW30865   6.243   4.269   3.280
 9989SOL    HW130866   6.247   4.231   3.372
 9989SOL    HW230867   6.282   4.204   3.215
 9990SOL     OW30868   2.620   5.704   1.624
 9990SOL    HW130869   2.700   5.644   1.622
 9990SOL    HW230870   2.542   5.652   1.659
 9991SOL     OW30871   1.978   2.727   3.984
 9991SOL    HW130872   2.035   2.746   4.064
 9991SOL    HW230873   1.983   2.804   3.921
 9992SOL     OW30874   5.597   4.809   0.588
 9992SOL    HW130875   5.562   4.717   0.607
 9992SOL    HW230876   5.529   4.877   0.614
 9993SOL     OW30877   3.233   0.216   0.759
 9993SOL    HW130878   3.246   0.135   0.817
 9993SOL    HW230879   3.323   0.251   0.731
 9994SOL     OW30880   0.312   5.008   3.259
 9994SOL    HW130881   0.338   4.914   3.238
 9994SOL    HW230882   0.250   5.009   3.337
 9995SOL     OW30883   4.533   1.084   3.130
 9995SOL    HW130884   4.473   1.008   3.106
 9995SOL    HW230885   4.494   1.170   3.095
 9996SOL     OW30886   2.388   2.894   1.465
 9996SOL    HW130887   2.444   2.890   1.548
 9996SOL    HW230888   2.421   2.968   1.406
 9997SOL     OW30889   3.642   1.576   0.661
 9997SOL    HW130890   3.677   1.595   0.753
 9997SOL    HW230891   3.557   1.626   0.647
 9998SOL     OW30892   5.536   4.534   6.765
 9998SOL    HW130893   5.496   4.570   6.849
 9998SOL    HW230894   5.526   4.435   6.763
 9999SOL     OW30895   0.240   3.080   5.325
 9999SOL    HW130896   0.336   3.101   5.307
 9999SOL    HW230897   0.190   3.079   5.239
10000SOL     OW30898   6.990   4.161   0.150
10000SOL    HW130899   0.048   4.185   0.098
10000SOL    HW230900   6.909   4.199   0.104
10001SOL     OW30901   4.674   0.165   2.334
10001SOL    HW130902   4.696   0.068   2.350
10001SOL    HW230903   4.580   0.182   2.361
10002SOL     OW30904   2.183   6.794   2.399
10002SOL    HW130905   2.249   6.855   2.356
10002SOL    HW230906   2.146   6.731   2.331
10003SOL     OW30907   3.949   1.370   3.426
10003SOL    HW130908   3.852   1.395   3.423
10003SOL    HW230909   3.958   1.281   3.469
10004SOL     OW30910   6.015   2.094   4.391
10004SOL    HW130911   5.929   2.064   4.432
10004SOL    HW230912   6.026   2.049   4.302
10005SOL     OW30913   4.842   0.584   4.426
10005SOL    HW130914   4.833   0.681   4.449
10005SOL    HW230915   4.900   0.539   4.493
10006SOL     OW30916   5.297   6.133   4.313
10006SOL    HW130917   5.271   6.041   4.344
10006SOL    HW230918   5.257   6.151   4.223
10007SOL     OW30919   6.634   4.834   5.722
10007SOL    HW130920   6.683   4.912   5.682
10007SOL    HW230921   6.573   4.867   5.794
10008SOL     OW30922   4.379   1.153   4.326
10008SOL    HW130923   4.471   1.189   4.307
10008SOL    HW230924   4.316   1.184   4.255
10009SOL     OW30925   1.969   3.599   1.562
10009SOL    HW130926   2.006   3.672   1.619
10009SOL    HW230927   1.930   3.638   1.479
10010SOL     OW30928   2.157   0.767   5.752
10010SOL    HW130929   2.111   0.846   5.792
10010SOL    HW230930   2.135   0.762   5.654
10011SOL     OW30931   5.067   1.100   5.480
10011SOL    HW130932   5.023   1.089   5.569
10011SOL    HW230933   4.998   1.094   5.408
10012SOL     OW30934   6.047   1.383   2.800
10012SOL    HW130935   5.953   1.418   2.794
10012SOL    HW230936   6.047   1.284   2.783
10013SOL     OW30937   0.513   1.133   3.306
10013SOL    HW130938   0.553   1.041   3.302
10013SOL    HW230939   0.478   1.158   3.216
10014SOL     OW30940   6.949   3.578   0.744
10014SOL    HW130941   0.022   3.584   0.768
10014SOL    HW230942   6.922   3.659   0.693
10015SOL     OW30943   2.254   4.793   0.356
10015SOL    HW130944   2.200   4.848   0.419
10015SOL    HW230945   2.350   4.820   0.362
10016SOL     OW30946   1.408   0.584   6.868
10016SOL    HW130947   1.389   0.506   6.808
10016SOL    HW230948   1.433   0.552   6.959
10017SOL     OW30949   2.736   1.364   3.371
10017SOL    HW130950   2.664   1.380   3.438
10017SOL    HW230951   2.706   1.397   3.281
10018SOL     OW30952   4.188   0.298   5.704
10018SOL    HW130953   4.102   0.312   5.656
10018SOL    HW230954   4.225   0.386   5.733
10019SOL     OW30955   0.562   1.986   2.906
10019SOL    HW130956   0.503   1.977   2.826
10019SOL    HW230957   0.657   1.994   2.876
10020SOL     OW30958   1.181   2.754   1.292
10020SOL    HW130959   1.124   2.672   1.293
10020SOL    HW230960   1.277   2.728   1.304
10021SOL     OW30961   6.863   2.936   1.416
10021SOL    HW130962   6.779   2.902   1.374
10021SOL    HW230963   6.923   2.860   1.438
10022SOL     OW30964   2.681   1.021   6.213
10022SOL    HW130965   2.598   1.068   6.186
10022SOL    HW230966   2.749   1.087   6.243
10023SOL     OW30967   0.727   5.255   0.395
10023SOL    HW130968   0.634   5.293   0.393
10023SOL    HW230969   0.792   5.323   0.361
10024SOL     OW30970   2.483   6.355   2.275
10024SOL    HW130971   2.528   6.287   2.217
10024SOL    HW230972   2.551   6.419   2.309
10025SOL     OW30973   1.229   2.383   1.201
10025SOL    HW130974   1.323   2.396   1.171
10025SOL    HW230975   1.186   2.312   1.145
10026SOL     OW30976   5.458   6.197   3.465
10026SOL    HW130977   5.490   6.219   3.558
10026SOL    HW230978   5.358   6.202   3.462
10027SOL     OW30979   6.334   4.698   4.667
10027SOL    HW130980   6.306   4.783   4.712
10027SOL    HW230981   6.389   4.720   4.587
10028SOL     OW30982   1.550   0.973   2.061
10028SOL    HW130983   1.624   0.936   2.117
10028SOL    HW230984   1.580   1.058   2.018
10029SOL     OW30985   5.040   1.510   5.011
10029SOL    HW130986   5.093   1.516   5.095
10029SOL    HW230987   4.994   1.421   5.007
10030SOL     OW30988   2.050   0.052   3.985
10030SOL    HW130989   2.033   7.022   4.068
10030SOL    HW230990   1.963   0.086   3.950
10031SOL     OW30991   5.405   4.908   4.963
10031SOL    HW130992   5.352   4.823   4.952
10031SOL    HW230993   5.420   4.925   5.061
10032SOL     OW30994   3.115   1.501   4.787
10032SOL    HW130995   3.089   1.469   4.879
10032SOL    HW230996   3.139   1.598   4.792
10033SOL     OW30997   6.704   2.855   4.727
10033SOL    HW130998   6.799   2.879   4.708
10033SOL    HW230999   6.701   2.778   4.791
10034SOL     OW31000   3.593   0.876   4.130
10034SOL    HW131001   3.684   0.919   4.131
10034SOL    HW231002   3.590   0.802   4.197
10035SOL     OW31003   6.850   4.942   1.637
10035SOL    HW131004   6.929   4.969   1.692
10035SOL    HW231005   6.877   4.875   1.569
10036SOL     OW31006   6.300   2.534   1.299
10036SOL    HW131007   6.327   2.582   1.383
10036SOL    HW231008   6.285   2.437   1.320
10037SOL     OW31009   0.296   1.588   0.032
10037SOL    HW131010   0.378   1.603   7.001
10037SOL    HW231011   0.323   1.559   0.124
10038SOL     OW31012   5.688   0.998   6.866
10038SOL    HW131013   5.677   1.072   6.932
10038SOL    HW231014   5.778   0.956   6.877
10039SOL     OW31015   3.830   0.708   3.710
10039SOL    HW131016   3.767   0.757   3.649
10039SOL    HW231017   3.824   0.747   3.802
10040SOL     OW31018   5.727   5.558   6.320
10040SOL    HW131019   5.810   5.614   6.325
10040SOL    HW231020   5.651   5.607   6.364
10041SOL     OW31021   4.321   5.895   6.879
10041SOL    HW131022   4.308   5.962   6.806
10041SOL    HW231023   4.406   5.845   6.864
10042SOL     OW31024   0.554   1.774   3.917
10042SOL    HW131025   0.618   1.849   3.935
10042SOL    HW231026   0.462   1.801   3.947
10043SOL     OW31027   5.988   1.996   5.045
10043SOL    HW131028   5.980   2.041   4.956
10043SOL    HW231029   5.914   2.026   5.105
10044SOL     OW31030   2.572   2.468   5.019
10044SOL    HW131031   2.601   2.478   4.923
10044SOL    HW231032   2.490   2.524   5.035
10045SOL     OW31033   3.583   0.974   1.669
10045SOL    HW131034   3.581   0.994   1.767
10045SOL    HW231035   3.489   0.960   1.637
10046SOL     OW31036   1.819   3.259   0.742
10046SOL    HW131037   1.776   3.277   0.653
10046SOL    HW231038   1.770   3.186   0.788
10047SOL     OW31039   0.920   3.059   5.123
10047SOL    HW131040   0.867   3.133   5.080
10047SOL    HW231041   0.985   3.099   5.188
10048SOL     OW31042   6.599   6.815   2.784
10048SOL    HW131043   6.571   6.856   2.697
10048SOL    HW231044   6.517   6.791   2.837
10049SOL     OW31045   1.763   1.451   5.645
10049SOL    HW131046   1.815   1.461   5.561
10049SOL    HW231047   1.791   1.367   5.692
10050SOL     OW31048   5.530   3.649   4.849
10050SOL    HW131049   5.438   3.656   4.887
10050SOL    HW231050   5.559   3.739   4.817
10051SOL     OW31051   1.029   4.314   4.644
10051SOL    HW131052   1.067   4.404   4.622
10051SOL    HW231053   0.929   4.317   4.633
10052SOL     OW31054   1.754   1.085   3.227
10052SOL    HW131055   1.834   1.138   3.202
10052SOL    HW231056   1.677   1.147   3.242
10053SOL     OW31057   4.298   6.069   4.008
10053SOL    HW131058   4.236   6.033   4.078
10053SOL    HW231059   4.374   6.117   4.052
10054SOL     OW31060   5.578   4.091   5.281
10054SOL    HW131061   5.623   4.042   5.206
10054SOL    HW231062   5.630   4.175   5.300
10055SOL     OW31063   6.274   2.757   6.032
10055SOL    HW131064   6.289   2.673   6.084
10055SOL    HW231065   6.360   2.809   6.029
10056SOL     OW31066   4.992   4.369   3.304
10056SOL    HW131067   4.980   4.443   3.238
10056SOL    HW231068   5.030   4.406   3.389
10057SOL     OW31069   5.906   3.589   5.594
10057SOL    HW131070   5.856   3.531   5.659
10057SOL    HW231071   5.956   3.659   5.644
10058SOL     OW31072   6.467   3.826   4.459
10058SOL    HW131073   6.482   3.734   4.425
10058SOL    HW231074   6.373   3.834   4.493
10059SOL     OW31075   6.919   2.006   1.029
10059SOL    HW131076   6.841   2.068   1.034
10059SOL    HW231077   6.890   1.919   0.990
10060SOL     OW31078   2.312   2.347   2.438
10060SOL    HW131079   2.336   2.269   2.495
10060SOL    HW231080   2.392   2.406   2.428
10061SOL     OW31081   4.436   1.051   3.777
10061SOL    HW131082   4.425   1.150   3.767
10061SOL    HW231083   4.519   1.032   3.831
10062SOL     OW31084   6.261   6.951   4.314
10062SOL    HW131085   6.359   6.974   4.316
10062SOL    HW231086   6.217   6.990   4.395
10063SOL     OW31087   2.542   1.813   4.078
10063SOL    HW131088   2.464   1.753   4.070
10063SOL    HW231089   2.531   1.872   4.158
10064SOL     OW31090   4.462   5.849   6.540
10064SOL    HW131091   4.380   5.846   6.483
10064SOL    HW231092   4.496   5.756   6.554
10065SOL     OW31093   1.565   0.737   1.799
10065SOL    HW131094   1.481   0.686   1.818
10065SOL    HW231095   1.590   0.792   1.879
10066SOL     OW31096   0.751   3.265   5.051
10066SOL    HW131097   0.653   3.246   5.044
10066SOL    HW231098   0.766   3.339   5.117
10067SOL     OW31099   0.833   2.960   6.193
10067SOL    HW131100   0.762   2.998   6.133
10067SOL    HW231101   0.791   2.932   6.279
10068SOL     OW31102   1.561   3.448   3.092
10068SOL    HW131103   1.569   3.440   2.993
10068SOL    HW231104   1.540   3.543   3.116
10069SOL     OW31105   3.623   4.948   1.548
10069SOL    HW131106   3.697   4.905   1.495
10069SOL    HW231107   3.552   4.980   1.485
10070SOL     OW31108   1.357   5.500   4.784
10070SOL    HW131109   1.345   5.403   4.808
10070SOL    HW231110   1.273   5.534   4.742
10071SOL     OW31111   0.715   0.323   3.882
10071SOL    HW131112   0.698   0.224   3.877
10071SOL    HW231113   0.775   0.351   3.807
10072SOL     OW31114   0.553   1.321   2.541
10072SOL    HW131115   0.509   1.397   2.587
10072SOL    HW231116   0.617   1.356   2.472
10073SOL     OW31117   6.129   3.271   3.627
10073SOL    HW131118   6.159   3.323   3.707
10073SOL    HW231119   6.209   3.231   3.582
10074SOL     OW31120   0.920   5.498   0.511
10074SOL    HW131121   0.823   5.524   0.507
10074SOL    HW231122   0.931   5.421   0.574
10075SOL     OW31123   2.248   0.477   2.724
10075SOL    HW131124   2.171   0.428   2.683
10075SOL    HW231125   2.267   0.560   2.671
10076SOL     OW31126   4.900   5.436   3.308
10076SOL    HW131127   4.913   5.454   3.211
10076SOL    HW231128   4.936   5.513   3.362
10077SOL     OW31129   5.780   2.757   0.240
10077SOL    HW131130   5.697   2.766   0.185
10077SOL    HW231131   5.799   2.843   0.287
10078SOL     OW31132   0.107   6.259   4.700
10078SOL    HW131133   0.018   6.299   4.677
10078SOL    HW231134   0.147   6.310   4.776
10079SOL     OW31135   5.625   2.425   3.604
10079SOL    HW131136   5.571   2.356   3.653
10079SOL    HW231137   5.592   2.516   3.628
10080SOL     OW31138   5.548   1.018   6.278
10080SOL    HW131139   5.642   1.044   6.255
10080SOL    HW231140   5.485   1.090   6.249
10081SOL     OW31141   1.426   1.722   6.939
10081SOL    HW131142   1.433   1.623   6.925
10081SOL    HW231143   1.402   1.741   0.010
10082SOL     OW31144   1.269   5.140   3.294
10082SOL    HW131145   1.274   5.219   3.232
10082SOL    HW231146   1.359   5.097   3.300
10083SOL     OW31147   3.650   6.076   3.525
10083SOL    HW131148   3.558   6.038   3.515
10083SOL    HW231149   3.716   6.013   3.486
10084SOL     OW31150   0.169   6.427   4.929
10084SOL    HW131151   0.092   6.486   4.904
10084SOL    HW231152   0.220   6.469   5.004
10085SOL     OW31153   4.016   6.734   0.138
10085SOL    HW131154   4.006   6.634   0.144
10085SOL    HW231155   4.066   6.767   0.218
10086SOL     OW31156   5.939   6.429   2.501
10086SOL    HW131157   5.975   6.486   2.574
10086SOL    HW231158   5.955   6.473   2.413
10087SOL     OW31159   0.654   6.724   4.869
10087SOL    HW131160   0.561   6.699   4.894
10087SOL    HW231161   0.672   6.697   4.774
10088SOL     OW31162   6.888   1.880   0.087
10088SOL    HW131163   6.894   1.964   0.032
10088SOL    HW231164   6.976   1.833   0.085
10089SOL     OW31165   3.808   1.244   2.612
10089SOL    HW131166   3.749   1.235   2.692
10089SOL    HW231167   3.902   1.262   2.642
10090SOL     OW31168   0.491   4.619   1.905
10090SOL    HW131169   0.417   4.669   1.949
10090SOL    HW231170   0.576   4.633   1.956
10091SOL     OW31171   6.567   5.963   6.510
10091SOL    HW131172   6.617   6.007   6.585
10091SOL    HW231173   6.580   5.864   6.516
10092SOL     OW31174   1.485   3.382   5.332
10092SOL    HW131175   1.387   3.362   5.328
10092SOL    HW231176   1.536   3.300   5.305
10093SOL     OW31177   5.104   3.295   5.566
10093SOL    HW131178   5.104   3.274   5.664
10093SOL    HW231179   5.104   3.394   5.553
10094SOL     OW31180   2.633   6.804   1.113
10094SOL    HW131181   2.708   6.786   1.050
10094SOL    HW231182   2.569   6.727   1.111
10095SOL     OW31183   5.506   2.340   4.591
10095SOL    HW131184   5.411   2.362   4.609
10095SOL    HW231185   5.512   2.283   4.508
10096SOL     OW31186   4.902   0.527   2.270
10096SOL    HW131187   4.911   0.435   2.232
10096SOL    HW231188   4.970   0.587   2.228
10097SOL     OW31189   2.017   1.917   6.463
10097SOL    HW131190   1.991   1.948   6.555
10097SOL    HW231191   1.962   1.966   6.395
10098SOL     OW31192   3.054   5.565   4.673
10098SOL    HW131193   3.125   5.516   4.623
10098SOL    HW231194   3.059   5.662   4.652
10099SOL     OW31195   6.444   4.260   1.429
10099SOL    HW131196   6.451   4.354   1.462
10099SOL    HW231197   6.393   4.258   1.343
10100SOL     OW31198   5.648   5.344   5.502
10100SOL    HW131199   5.635   5.246   5.518
10100SOL    HW231200   5.667   5.360   5.405
10101SOL     OW31201   6.532   3.035   1.857
10101SOL    HW131202   6.617   3.082   1.833
10101SOL    HW231203   6.543   2.937   1.844
10102SOL     OW31204   5.214   0.524   0.513
10102SOL    HW131205   5.276   0.445   0.518
10102SOL    HW231206   5.132   0.498   0.462
10103SOL     OW31207   0.680   0.123   6.119
10103SOL    HW131208   0.746   0.196   6.140
10103SOL    HW231209   0.593   0.144   6.163
10104SOL     OW31210   2.214   1.089   6.161
10104SOL    HW131211   2.186   1.042   6.244
10104SOL    HW231212   2.162   1.174   6.151
10105SOL     OW31213   2.765   1.295   5.774
10105SOL    HW131214   2.713   1.381   5.772
10105SOL    HW231215   2.733   1.235   5.701
10106SOL     OW31216   4.826   6.253   1.480
10106SOL    HW131217   4.773   6.290   1.556
10106SOL    HW231218   4.903   6.314   1.460
10107SOL     OW31219   4.982   4.462   6.613
10107SOL    HW131220   4.955   4.379   6.661
10107SOL    HW231221   4.931   4.540   6.649
10108SOL     OW31222   1.870   2.985   0.398
10108SOL    HW131223   1.933   3.050   0.357
10108SOL    HW231224   1.892   2.973   0.494
10109SOL     OW31225   0.487   1.226   0.194
10109SOL    HW131226   0.512   1.175   0.111
10109SOL    HW231227   0.550   1.303   0.205
10110SOL     OW31228   4.742   4.741   2.169
10110SOL    HW131229   4.780   4.658   2.129
10110SOL    HW231230   4.718   4.805   2.096
10111SOL     OW31231   0.745   2.934   1.960
10111SOL    HW131232   0.828   2.954   2.011
10111SOL    HW231233   0.760   2.854   1.901
10112SOL     OW31234   6.584   3.236   3.263
10112SOL    HW131235   6.656   3.225   3.195
10112SOL    HW231236   6.502   3.188   3.234
10113SOL     OW31237   4.750   0.999   6.669
10113SOL    HW131238   4.782   1.054   6.746
10113SOL    HW231239   4.828   0.956   6.624
10114SOL     OW31240   4.160   2.237   2.745
10114SOL    HW131241   4.190   2.327   2.775
10114SOL    HW231242   4.224   2.200   2.678
10115SOL     OW31243   3.641   1.384   4.070
10115SOL    HW131244   3.628   1.446   3.993
10115SOL    HW231245   3.582   1.413   4.146
10116SOL     OW31246   6.016   0.260   5.681
10116SOL    HW131247   6.057   0.332   5.626
10116SOL    HW231248   5.954   0.300   5.748
10117SOL     OW31249   6.627   5.308   5.348
10117SOL    HW131250   6.572   5.231   5.316
10117SOL    HW231251   6.693   5.333   5.277
10118SOL     OW31252   2.540   5.032   4.656
10118SOL    HW131253   2.474   4.966   4.694
10118SOL    HW231254   2.494   5.119   4.640
10119SOL     OW31255   0.284   4.732   3.973
10119SOL    HW131256   0.340   4.796   3.919
10119SOL    HW231257   0.327   4.642   3.972
10120SOL     OW31258   1.354   2.711   2.987
10120SOL    HW131259   1.385   2.630   3.036
10120SOL    HW231260   1.343   2.787   3.051
10121SOL     OW31261   6.465   4.750   0.555
10121SOL    HW131262   6.459   4.656   0.589
10121SOL    HW231263   6.487   4.749   0.457
10122SOL     OW31264   6.665   1.904   3.664
10122SOL    HW131265   6.691   1.871   3.573
10122SOL    HW231266   6.608   1.835   3.709
10123SOL     OW31267   5.575   6.292   1.020
10123SOL    HW131268   5.550   6.373   1.072
10123SOL    HW231269   5.672   6.271   1.034
10124SOL     OW31270   1.291   5.211   2.466
10124SOL    HW131271   1.216   5.212   2.401
10124SOL    HW231272   1.369   5.263   2.429
10125SOL     OW31273   2.121   1.508   1.210
10125SOL    HW131274   2.091   1.414   1.227
10125SOL    HW231275   2.129   1.557   1.296
10126SOL     OW31276   6.308   0.787   6.615
10126SOL    HW131277   6.330   0.690   6.621
10126SOL    HW231278   6.381   0.835   6.565
10127SOL     OW31279   1.060   4.407   5.836
10127SOL    HW131280   1.096   4.426   5.927
10127SOL    HW231281   1.134   4.373   5.778
10128SOL     OW31282   3.117   0.868   0.051
10128SOL    HW131283   3.066   0.819   0.122
10128SOL    HW231284   3.154   0.802   7.010
10129SOL     OW31285   6.078   1.630   2.668
10129SOL    HW131286   6.083   1.536   2.704
10129SOL    HW231287   5.990   1.670   2.694
10130SOL     OW31288   0.790   2.602   2.204
10130SOL    HW131289   0.697   2.621   2.234
10130SOL    HW231290   0.847   2.581   2.283
10131SOL     OW31291   2.414   0.961   4.770
10131SOL    HW131292   2.510   0.949   4.744
10131SOL    HW231293   2.360   0.884   4.735
10132SOL     OW31294   6.767   0.066   2.636
10132SOL    HW131295   6.746   0.129   2.711
10132SOL    HW231296   6.854   0.019   2.657
10133SOL     OW31297   4.639   5.602   0.560
10133SOL    HW131298   4.725   5.577   0.516
10133SOL    HW231299   4.616   5.534   0.629
10134SOL     OW31300   5.932   0.555   2.139
10134SOL    HW131301   5.842   0.566   2.180
10134SOL    HW231302   5.991   0.631   2.168
10135SOL     OW31303   5.597   0.683   4.131
10135SOL    HW131304   5.521   0.735   4.170
10135SOL    HW231305   5.566   0.633   4.051
10136SOL     OW31306   5.047   2.147   2.679
10136SOL    HW131307   5.037   2.154   2.778
10136SOL    HW231308   5.050   2.051   2.652
10137SOL     OW31309   0.361   5.528   5.884
10137SOL    HW131310   0.439   5.569   5.931
10137SOL    HW231311   0.285   5.517   5.948
10138SOL     OW31312   5.913   1.630   0.370
10138SOL    HW131313   5.892   1.698   0.300
10138SOL    HW231314   6.011   1.610   0.368
10139SOL     OW31315   3.030   3.543   5.864
10139SOL    HW131316   3.098   3.471   5.847
10139SOL    HW231317   3.065   3.604   5.935
10140SOL     OW31318   0.100   6.164   6.160
10140SOL    HW131319   0.142   6.087   6.209
10140SOL    HW231320   0.001   6.152   6.157
10141SOL     OW31321   4.024   1.346   3.798
10141SOL    HW131322   4.013   1.438   3.760
10141SOL    HW231323   4.032   1.280   3.723
10142SOL     OW31324   5.618   6.343   4.895
10142SOL    HW131325   5.569   6.275   4.841
10142SOL    HW231326   5.699   6.374   4.846
10143SOL     OW31327   5.307   3.248   0.655
10143SOL    HW131328   5.386   3.310   0.653
10143SOL    HW231329   5.245   3.270   0.579
10144SOL     OW31330   3.911   6.449   5.422
10144SOL    HW131331   3.931   6.509   5.500
10144SOL    HW231332   3.824   6.476   5.381
10145SOL     OW31333   4.629   5.868   1.189
10145SOL    HW131334   4.687   5.918   1.254
10145SOL    HW231335   4.686   5.808   1.133
10146SOL     OW31336   0.320   3.854   3.813
10146SOL    HW131337   0.304   3.953   3.819
10146SOL    HW231338   0.340   3.818   3.904
10147SOL     OW31339   4.557   5.390   6.467
10147SOL    HW131340   4.488   5.451   6.428
10147SOL    HW231341   4.641   5.395   6.413
10148SOL     OW31342   0.808   4.715   0.408
10148SOL    HW131343   0.729   4.720   0.470
10148SOL    HW231344   0.849   4.806   0.400
10149SOL     OW31345   4.672   5.367   1.736
10149SOL    HW131346   4.727   5.352   1.653
10149SOL    HW231347   4.596   5.303   1.737
10150SOL     OW31348   4.701   3.751   0.790
10150SOL    HW131349   4.763   3.701   0.729
10150SOL    HW231350   4.607   3.720   0.773
10151SOL     OW31351   6.746   0.183   6.012
10151SOL    HW131352   6.698   0.270   6.006
10151SOL    HW231353   6.845   0.199   6.016
10152SOL     OW31354   6.139   6.073   2.632
10152SOL    HW131355   6.053   6.081   2.581
10152SOL    HW231356   6.168   6.164   2.662
10153SOL     OW31357   4.591   5.810   4.048
10153SOL    HW131358   4.502   5.781   4.083
10153SOL    HW231359   4.641   5.730   4.015
10154SOL     OW31360   4.124   5.024   5.852
10154SOL    HW131361   4.061   4.960   5.808
10154SOL    HW231362   4.217   5.004   5.822
10155SOL     OW31363   4.561   2.248   5.794
10155SOL    HW131364   4.541   2.152   5.776
10155SOL    HW231365   4.627   2.281   5.726
10156SOL     OW31366   5.208   0.305   1.096
10156SOL    HW131367   5.258   0.279   1.013
10156SOL    HW231368   5.118   0.340   1.071
10157SOL     OW31369   6.828   2.416   1.225
10157SOL    HW131370   6.814   2.510   1.194
10157SOL    HW231371   6.740   2.373   1.243
10158SOL     OW31372   4.956   6.881   2.510
10158SOL    HW131373   4.857   6.888   2.522
10158SOL    HW231374   4.983   6.785   2.514
10159SOL     OW31375   3.389   3.182   2.931
10159SOL    HW131376   3.447   3.122   2.987
10159SOL    HW231377   3.316   3.128   2.890
10160SOL     OW31378   2.062   4.468   2.686
10160SOL    HW131379   2.141   4.488   2.628
10160SOL    HW231380   2.073   4.515   2.774
10161SOL     OW31381   3.782   4.653   6.382
10161SOL    HW131382   3.686   4.628   6.396
10161SOL    HW231383   3.805   4.731   6.440
10162SOL     OW31384   1.843   4.447   1.760
10162SOL    HW131385   1.813   4.474   1.669
10162SOL    HW231386   1.787   4.491   1.829
10163SOL     OW31387   1.791   6.301   4.963
10163SOL    HW131388   1.767   6.370   4.894
10163SOL    HW231389   1.752   6.213   4.935
10164SOL     OW31390   6.476   3.197   3.711
10164SOL    HW131391   6.521   3.259   3.647
10164SOL    HW231392   6.516   3.208   3.802
10165SOL     OW31393   5.795   2.466   3.942
10165SOL    HW131394   5.827   2.480   3.849
10165SOL    HW231395   5.849   2.523   4.005
10166SOL     OW31396   0.635   2.663   1.056
10166SOL    HW131397   0.730   2.693   1.052
10166SOL    HW231398   0.611   2.617   0.970
10167SOL     OW31399   0.434   5.250   6.125
10167SOL    HW131400   0.461   5.290   6.038
10167SOL    HW231401   0.370   5.175   6.109
10168SOL     OW31402   5.991   1.708   6.471
10168SOL    HW131403   5.914   1.656   6.509
10168SOL    HW231404   6.037   1.757   6.545
10169SOL     OW31405   6.703   3.911   3.288
10169SOL    HW131406   6.667   3.915   3.381
10169SOL    HW231407   6.710   3.815   3.259
10170SOL     OW31408   6.401   5.971   0.119
10170SOL    HW131409   6.302   5.979   0.127
10170SOL    HW231410   6.445   6.032   0.184
10171SOL     OW31411   1.924   2.909   5.214
10171SOL    HW131412   2.023   2.918   5.225
10171SOL    HW231413   1.904   2.870   5.124
10172SOL     OW31414   6.563   0.028   2.975
10172SOL    HW131415   6.610   6.978   2.927
10172SOL    HW231416   6.624   0.066   3.045
10173SOL     OW31417   3.850   5.023   6.665
10173SOL    HW131418   3.770   4.986   6.618
10173SOL    HW231419   3.899   4.948   6.709
10174SOL     OW31420   5.266   6.794   3.256
10174SOL    HW131421   5.324   6.861   3.210
10174SOL    HW231422   5.297   6.701   3.234
10175SOL     OW31423   6.626   1.914   3.270
10175SOL    HW131424   6.685   1.833   3.267
10175SOL    HW231425   6.553   1.904   3.202
10176SOL     OW31426   6.554   3.409   5.839
10176SOL    HW131427   6.617   3.455   5.901
10176SOL    HW231428   6.460   3.423   5.870
10177SOL     OW31429   2.526   0.567   1.707
10177SOL    HW131430   2.493   0.514   1.629
10177SOL    HW231431   2.623   0.548   1.722
10178SOL     OW31432   1.939   1.818   0.258
10178SOL    HW131433   1.923   1.731   0.212
10178SOL    HW231434   1.851   1.860   0.281
10179SOL     OW31435   6.818   4.276   0.538
10179SOL    HW131436   6.918   4.284   0.544
10179SOL    HW231437   6.791   4.182   0.557
10180SOL     OW31438   4.158   6.590   6.386
10180SOL    HW131439   4.072   6.570   6.433
10180SOL    HW231440   4.146   6.577   6.288
10181SOL     OW31441   6.451   3.966   1.386
10181SOL    HW131442   6.469   4.060   1.414
10181SOL    HW231443   6.410   3.966   1.295
10182SOL     OW31444   5.366   1.688   0.063
10182SOL    HW131445   5.289   1.649   0.012
10182SOL    HW231446   5.410   1.616   0.117
10183SOL     OW31447   6.696   2.428   6.121
10183SOL    HW131448   6.794   2.433   6.101
10183SOL    HW231449   6.650   2.507   6.079
10184SOL     OW31450   6.096   3.821   6.547
10184SOL    HW131451   6.190   3.836   6.517
10184SOL    HW231452   6.088   3.848   6.643
10185SOL     OW31453   3.945   5.883   2.224
10185SOL    HW131454   3.897   5.813   2.170
10185SOL    HW231455   3.936   5.862   2.321
10186SOL     OW31456   5.041   4.155   5.623
10186SOL    HW131457   4.946   4.186   5.621
10186SOL    HW231458   5.056   4.088   5.551
10187SOL     OW31459   2.293   4.502   5.689
10187SOL    HW131460   2.388   4.474   5.679
10187SOL    HW231461   2.284   4.599   5.667
10188SOL     OW31462   2.605   6.586   6.872
10188SOL    HW131463   2.631   6.638   6.953
10188SOL    HW231464   2.687   6.549   6.829
10189SOL     OW31465   1.308   1.216   6.691
10189SOL    HW131466   1.209   1.221   6.679
10189SOL    HW231467   1.329   1.206   6.788
10190SOL     OW31468   2.827   3.724   1.201
10190SOL    HW131469   2.750   3.780   1.232
10190SOL    HW231470   2.811   3.695   1.107
10191SOL     OW31471   6.097   5.565   0.486
10191SOL    HW131472   6.043   5.498   0.435
10191SOL    HW231473   6.123   5.640   0.426
10192SOL     OW31474   2.446   1.897   5.280
10192SOL    HW131475   2.397   1.977   5.245
10192SOL    HW231476   2.386   1.818   5.282
10193SOL     OW31477   3.866   3.315   2.520
10193SOL    HW131478   3.785   3.368   2.495
10193SOL    HW231479   3.937   3.377   2.554
10194SOL     OW31480   3.997   0.304   4.898
10194SOL    HW131481   3.953   0.254   4.972
10194SOL    HW231482   4.027   0.240   4.827
10195SOL     OW31483   5.516   0.195   1.863
10195SOL    HW131484   5.575   0.200   1.943
10195SOL    HW231485   5.566   0.231   1.783
10196SOL     OW31486   5.547   1.943   3.524
10196SOL    HW131487   5.525   1.874   3.593
10196SOL    HW231488   5.646   1.950   3.514
10197SOL     OW31489   5.736   0.210   3.211
10197SOL    HW131490   5.660   0.252   3.161
10197SOL    HW231491   5.700   0.149   3.282
10198SOL     OW31492   2.925   6.302   1.187
10198SOL    HW131493   2.942   6.288   1.285
10198SOL    HW231494   2.998   6.258   1.134
10199SOL     OW31495   1.387   1.999   6.967
10199SOL    HW131496   1.412   1.919   6.913
10199SOL    HW231497   1.288   1.998   6.985
10200SOL     OW31498   5.820   3.990   6.099
10200SOL    HW131499   5.753   3.916   6.110
10200SOL    HW231500   5.889   3.982   6.170
10201SOL     OW31501   0.325   5.525   2.273
10201SOL    HW131502   0.271   5.608   2.284
10201SOL    HW231503   0.359   5.519   2.179
10202SOL     OW31504   6.930   4.111   1.102
10202SOL    HW131505   6.849   4.153   1.143
10202SOL    HW231506   7.013   4.151   1.143
10203SOL     OW31507   1.932   3.224   2.434
10203SOL    HW131508   2.003   3.171   2.480
10203SOL    HW231509   1.959   3.320   2.430
10204SOL     OW31510   3.176   4.678   5.910
10204SOL    HW131511   3.159   4.658   5.813
10204SOL    HW231512   3.252   4.621   5.942
10205SOL     OW31513   4.999   1.607   3.603
10205SOL    HW131514   4.954   1.650   3.681
10205SOL    HW231515   4.943   1.620   3.521
10206SOL     OW31516   5.579   6.574   6.198
10206SOL    HW131517   5.557   6.670   6.186
10206SOL    HW231518   5.579   6.528   6.109
10207SOL     OW31519   2.311   1.184   2.012
10207SOL    HW131520   2.333   1.279   2.033
10207SOL    HW231521   2.247   1.148   2.080
10208SOL     OW31522   6.097   5.779   5.114
10208SOL    HW131523   6.074   5.841   5.039
10208SOL    HW231524   6.019   5.770   5.175
10209SOL     OW31525   0.338   1.017   6.062
10209SOL    HW131526   0.321   1.039   5.966
10209SOL    HW231527   0.365   0.921   6.070
10210SOL     OW31528   5.654   0.059   2.078
10210SOL    HW131529   5.695   0.060   2.169
10210SOL    HW231530   5.725   0.044   2.009
10211SOL     OW31531   3.506   6.512   5.577
10211SOL    HW131532   3.599   6.508   5.613
10211SOL    HW231533   3.458   6.427   5.598
10212SOL     OW31534   0.468   1.148   4.413
10212SOL    HW131535   0.470   1.130   4.315
10212SOL    HW231536   0.449   1.245   4.428
10213SOL     OW31537   5.377   1.767   2.856
10213SOL    HW131538   5.304   1.815   2.904
10213SOL    HW231539   5.403   1.818   2.774
10214SOL     OW31540   6.504   0.721   2.011
10214SOL    HW131541   6.532   0.628   2.038
10214SOL    HW231542   6.527   0.736   1.915
10215SOL     OW31543   2.937   3.428   5.622
10215SOL    HW131544   2.961   3.476   5.707
10215SOL    HW231545   2.983   3.473   5.545
10216SOL     OW31546   6.336   6.942   0.830
10216SOL    HW131547   6.276   7.020   0.849
10216SOL    HW231548   6.432   6.973   0.829
10217SOL     OW31549   2.626   1.458   4.542
10217SOL    HW131550   2.590   1.546   4.509
10217SOL    HW231551   2.707   1.474   4.598
10218SOL     OW31552   1.067   1.895   1.457
10218SOL    HW131553   1.008   1.849   1.391
10218SOL    HW231554   1.053   1.994   1.450
10219SOL     OW31555   0.371   2.344   2.140
10219SOL    HW131556   0.285   2.331   2.189
10219SOL    HW231557   0.443   2.290   2.184
10220SOL     OW31558   3.995   1.565   1.621
10220SOL    HW131559   3.916   1.556   1.681
10220SOL    HW231560   4.077   1.534   1.668
10221SOL     OW31561   2.450   1.264   4.702
10221SOL    HW131562   2.361   1.303   4.728
10221SOL    HW231563   2.455   1.170   4.734
10222SOL     OW31564   1.055   3.904   5.216
10222SOL    HW131565   1.152   3.900   5.195
10222SOL    HW231566   1.036   3.984   5.274
10223SOL     OW31567   1.277   5.103   6.722
10223SOL    HW131568   1.364   5.152   6.733
10223SOL    HW231569   1.265   5.077   6.627
10224SOL     OW31570   1.605   0.931   4.710
10224SOL    HW131571   1.579   1.021   4.746
10224SOL    HW231572   1.652   0.879   4.782
10225SOL     OW31573   0.800   5.863   4.679
10225SOL    HW131574   0.718   5.893   4.727
10225SOL    HW231575   0.775   5.805   4.602
10226SOL     OW31576   3.190   1.342   6.798
10226SOL    HW131577   3.262   1.283   6.834
10226SOL    HW231578   3.230   1.427   6.764
10227SOL     OW31579   4.775   4.445   0.594
10227SOL    HW131580   4.735   4.486   0.512
10227SOL    HW231581   4.864   4.404   0.571
10228SOL     OW31582   0.681   5.398   2.165
10228SOL    HW131583   0.685   5.462   2.088
10228SOL    HW231584   0.592   5.354   2.167
10229SOL     OW31585   0.978   1.017   3.591
10229SOL    HW131586   1.034   1.042   3.670
10229SOL    HW231587   0.886   1.057   3.600
10230SOL     OW31588   0.078   0.200   3.291
10230SOL    HW131589   0.020   0.190   3.371
10230SOL    HW231590   0.048   0.280   3.238
10231SOL     OW31591   6.936   6.715   5.201
10231SOL    HW131592   6.882   6.678   5.125
10231SOL    HW231593   7.004   6.648   5.230
10232SOL     OW31594   4.147   1.122   4.512
10232SOL    HW131595   4.207   1.081   4.581
10232SOL    HW231596   4.058   1.144   4.553
10233SOL     OW31597   4.516   3.028   5.576
10233SOL    HW131598   4.519   3.100   5.506
10233SOL    HW231599   4.458   3.058   5.652
10234SOL     OW31600   4.779   0.619   0.554
10234SOL    HW131601   4.709   0.673   0.508
10234SOL    HW231602   4.797   0.658   0.645
10235SOL     OW31603   4.366   0.947   0.638
10235SOL    HW131604   4.365   1.021   0.571
10235SOL    HW231605   4.316   0.868   0.602
10236SOL     OW31606   1.743   6.713   1.686
10236SOL    HW131607   1.736   6.663   1.599
10236SOL    HW231608   1.807   6.665   1.747
10237SOL     OW31609   6.275   4.193   1.632
10237SOL    HW131610   6.262   4.094   1.632
10237SOL    HW231611   6.326   4.221   1.551
10238SOL     OW31612   3.697   3.818   5.118
10238SOL    HW131613   3.668   3.749   5.051
10238SOL    HW231614   3.745   3.892   5.071
10239SOL     OW31615   1.216   4.418   5.570
10239SOL    HW131616   1.233   4.508   5.608
10239SOL    HW231617   1.135   4.421   5.511
10240SOL     OW31618   0.999   4.372   2.731
10240SOL    HW131619   0.998   4.276   2.703
10240SOL    HW231620   1.027   4.429   2.654
10241SOL     OW31621   0.383   1.054   1.845
10241SOL    HW131622   0.371   1.083   1.751
10241SOL    HW231623   0.333   1.116   1.906
10242SOL     OW31624   0.837   1.858   6.023
10242SOL    HW131625   0.828   1.769   5.979
10242SOL    HW231626   0.856   1.845   6.121
10243SOL     OW31627   0.017   5.432   1.330
10243SOL    HW131628   6.984   5.350   1.327
10243SOL    HW231629   0.082   5.423   1.406
10244SOL     OW31630   2.075   4.600   6.824
10244SOL    HW131631   2.115   4.692   6.822
10244SOL    HW231632   2.052   4.575   6.918
10245SOL     OW31633   2.312   3.545   6.970
10245SOL    HW131634   2.263   3.626   6.939
10245SOL    HW231635   2.277   3.464   6.925
10246SOL     OW31636   3.014   3.874   4.596
10246SOL    HW131637   3.066   3.930   4.660
10246SOL    HW231638   2.967   3.801   4.646
10247SOL     OW31639   0.599   5.289   5.456
10247SOL    HW131640   0.523   5.228   5.480
10247SOL    HW231641   0.681   5.261   5.506
10248SOL     OW31642   3.123   0.346   2.574
10248SOL    HW131643   3.130   0.445   2.585
10248SOL    HW231644   3.048   0.311   2.630
10249SOL     OW31645   3.218   0.910   5.345
10249SOL    HW131646   3.210   0.886   5.248
10249SOL    HW231647   3.155   0.855   5.399
10250SOL     OW31648   6.938   1.577   0.966
10250SOL    HW131649   6.895   1.585   1.056
10250SOL    HW231650   6.894   1.638   0.901
10251SOL     OW31651   2.381   2.939   5.848
10251SOL    HW131652   2.370   2.925   5.946
10251SOL    HW231653   2.341   3.027   5.822
10252SOL     OW31654   6.047   6.922   0.513
10252SOL    HW131655   5.948   6.936   0.517
10252SOL    HW231656   6.070   6.838   0.563
10253SOL     OW31657   5.165   5.285   0.250
10253SOL    HW131658   5.234   5.298   0.179
10253SOL    HW231659   5.148   5.373   0.296
10254SOL     OW31660   3.492   1.978   4.390
10254SOL    HW131661   3.422   1.951   4.323
10254SOL    HW231662   3.451   2.041   4.456
10255SOL     OW31663   1.826   6.177   1.314
10255SOL    HW131664   1.764   6.155   1.238
10255SOL    HW231665   1.915   6.134   1.297
10256SOL     OW31666   5.226   0.302   0.767
10256SOL    HW131667   5.253   0.266   0.678
10256SOL    HW231668   5.149   0.365   0.756
10257SOL     OW31669   0.817   4.514   5.096
10257SOL    HW131670   0.734   4.492   5.046
10257SOL    HW231671   0.793   4.561   5.181
10258SOL     OW31672   5.363   6.712   3.537
10258SOL    HW131673   5.314   6.743   3.456
10258SOL    HW231674   5.405   6.623   3.519
10259SOL     OW31675   1.078   5.058   3.496
10259SOL    HW131676   1.107   5.101   3.582
10259SOL    HW231677   1.144   5.080   3.424
10260SOL     OW31678   6.857   6.777   2.991
10260SOL    HW131679   6.875   6.699   3.051
10260SOL    HW231680   6.772   6.760   2.941
10261SOL     OW31681   0.009   6.356   2.188
10261SOL    HW131682   6.994   6.444   2.213
10261SOL    HW231683   7.006   6.333   2.095
10262SOL     OW31684   3.279   5.477   4.530
10262SOL    HW131685   3.315   5.566   4.503
10262SOL    HW231686   3.328   5.444   4.611
10263SOL     OW31687   4.917   1.549   6.747
10263SOL    HW131688   4.949   1.495   6.669
10263SOL    HW231689   4.885   1.488   6.819
10264SOL     OW31690   6.048   1.868   6.714
10264SOL    HW131691   5.970   1.868   6.777
10264SOL    HW231692   6.074   1.962   6.693
10265SOL     OW31693   3.122   1.632   2.913
10265SOL    HW131694   3.158   1.636   2.820
10265SOL    HW231695   3.036   1.580   2.914
10266SOL     OW31696   3.779   3.790   5.814
10266SOL    HW131697   3.807   3.726   5.742
10266SOL    HW231698   3.861   3.825   5.861
10267SOL     OW31699   6.616   2.042   6.910
10267SOL    HW131700   6.553   2.118   6.927
10267SOL    HW231701   6.705   2.063   6.949
10268SOL     OW31702   5.160   6.374   1.366
10268SOL    HW131703   5.077   6.428   1.384
10268SOL    HW231704   5.238   6.418   1.410
10269SOL     OW31705   2.227   1.463   5.561
10269SOL    HW131706   2.244   1.366   5.545
10269SOL    HW231707   2.135   1.486   5.530
10270SOL     OW31708   2.164   5.865   1.389
10270SOL    HW131709   2.250   5.815   1.385
10270SOL    HW231710   2.157   5.912   1.477
10271SOL     OW31711   3.256   3.396   0.315
10271SOL    HW131712   3.256   3.474   0.378
10271SOL    HW231713   3.340   3.398   0.259
10272SOL     OW31714   0.858   0.852   4.173
10272SOL    HW131715   0.864   0.883   4.078
10272SOL    HW231716   0.859   0.931   4.234
10273SOL     OW31717   4.083   5.825   4.051
10273SOL    HW131718   4.073   5.836   3.952
10273SOL    HW231719   4.111   5.731   4.072
10274SOL     OW31720   1.290   4.681   5.616
10274SOL    HW131721   1.212   4.731   5.577
10274SOL    HW231722   1.362   4.673   5.547
10275SOL     OW31723   1.208   0.112   2.620
10275SOL    HW131724   1.152   0.092   2.540
10275SOL    HW231725   1.165   0.185   2.674
10276SOL     OW31726   6.708   5.431   6.176
10276SOL    HW131727   6.775   5.422   6.250
10276SOL    HW231728   6.710   5.348   6.120
10277SOL     OW31729   2.839   6.172   4.167
10277SOL    HW131730   2.907   6.140   4.100
10277SOL    HW231731   2.886   6.219   4.242
10278SOL     OW31732   6.452   1.426   5.629
10278SOL    HW131733   6.508   1.366   5.685
10278SOL    HW231734   6.367   1.448   5.678
10279SOL     OW31735   3.734   0.588   4.003
10279SOL    HW131736   3.724   0.542   4.092
10279SOL    HW231737   3.658   0.561   3.944
10280SOL     OW31738   2.227   4.437   1.160
10280SOL    HW131739   2.245   4.400   1.251
10280SOL    HW231740   2.129   4.453   1.149
10281SOL     OW31741   5.117   2.402   2.682
10281SOL    HW131742   5.107   2.303   2.679
10281SOL    HW231743   5.214   2.426   2.685
10282SOL     OW31744   6.564   3.283   4.365
10282SOL    HW131745   6.554   3.367   4.312
10282SOL    HW231746   6.502   3.213   4.330
10283SOL     OW31747   1.253   3.302   1.092
10283SOL    HW131748   1.200   3.268   1.170
10283SOL    HW231749   1.236   3.242   1.013
10284SOL     OW31750   5.767   4.279   5.346
10284SOL    HW131751   5.845   4.217   5.342
10284SOL    HW231752   5.799   4.373   5.333
10285SOL     OW31753   4.572   0.297   1.665
10285SOL    HW131754   4.566   0.350   1.581
10285SOL    HW231755   4.609   0.354   1.738
10286SOL     OW31756   3.576   1.846   2.891
10286SOL    HW131757   3.514   1.818   2.818
10286SOL    HW231758   3.573   1.946   2.901
10287SOL     OW31759   1.899   6.977   1.709
10287SOL    HW131760   1.980   6.958   1.763
10287SOL    HW231761   1.859   6.891   1.678
10288SOL     OW31762   5.811   5.908   2.196
10288SOL    HW131763   5.883   5.967   2.161
10288SOL    HW231764   5.738   5.899   2.129
10289SOL     OW31765   3.170   0.935   1.319
10289SOL    HW131766   3.147   1.030   1.295
10289SOL    HW231767   3.268   0.921   1.310
10290SOL     OW31768   3.523   4.012   2.896
10290SOL    HW131769   3.455   4.044   2.830
10290SOL    HW231770   3.477   3.971   2.975
10291SOL     OW31771   4.034   0.502   3.839
10291SOL    HW131772   4.000   0.596   3.844
10291SOL    HW231773   3.975   0.443   3.894
10292SOL     OW31774   0.709   2.057   4.805
10292SOL    HW131775   0.694   2.082   4.710
10292SOL    HW231776   0.715   1.958   4.813
10293SOL     OW31777   1.439   6.578   2.939
10293SOL    HW131778   1.470   6.612   3.028
10293SOL    HW231779   1.367   6.510   2.953
10294SOL     OW31780   4.857   3.124   3.309
10294SOL    HW131781   4.869   3.088   3.401
10294SOL    HW231782   4.830   3.220   3.314
10295SOL     OW31783   5.682   4.778   5.680
10295SOL    HW131784   5.717   4.760   5.588
10295SOL    HW231785   5.639   4.696   5.717
10296SOL     OW31786   5.613   4.554   6.073
10296SOL    HW131787   5.701   4.568   6.027
10296SOL    HW231788   5.563   4.641   6.075
10297SOL     OW31789   2.607   6.429   4.472
10297SOL    HW131790   2.511   6.445   4.450
10297SOL    HW231791   2.616   6.413   4.571
10298SOL     OW31792   4.576   4.433   3.321
10298SOL    HW131793   4.502   4.434   3.388
10298SOL    HW231794   4.622   4.344   3.323
10299SOL     OW31795   4.577   4.434   3.021
10299SOL    HW131796   4.657   4.377   3.001
10299SOL    HW231797   4.573   4.451   3.119
10300SOL     OW31798   1.680   4.114   2.020
10300SOL    HW131799   1.750   4.043   2.017
10300SOL    HW231800   1.691   4.169   2.102
10301SOL     OW31801   5.880   1.698   2.994
10301SOL    HW131802   5.781   1.705   3.008
10301SOL    HW231803   5.928   1.736   3.073
10302SOL     OW31804   1.510   6.346   2.349
10302SOL    HW131805   1.586   6.411   2.355
10302SOL    HW231806   1.473   6.329   2.440
10303SOL     OW31807   3.885   3.994   1.239
10303SOL    HW131808   3.936   4.026   1.319
10303SOL    HW231809   3.795   3.961   1.267
10304SOL     OW31810   6.028   0.466   4.141
10304SOL    HW131811   6.082   0.386   4.166
10304SOL    HW231812   6.089   0.543   4.122
10305SOL     OW31813   1.365   6.285   6.944
10305SOL    HW131814   1.313   6.370   6.961
10305SOL    HW231815   1.386   6.241   0.007
10306SOL     OW31816   4.743   5.301   6.882
10306SOL    HW131817   4.664   5.245   6.859
10306SOL    HW231818   4.728   5.345   6.971
10307SOL     OW31819   1.291   1.009   4.851
10307SOL    HW131820   1.321   1.011   4.756
10307SOL    HW231821   1.240   1.093   4.872
10308SOL     OW31822   3.371   5.172   3.837
10308SOL    HW131823   3.364   5.270   3.816
10308SOL    HW231824   3.443   5.157   3.904
10309SOL     OW31825   6.102   6.682   3.428
10309SOL    HW131826   6.171   6.625   3.384
10309SOL    HW231827   6.065   6.747   3.362
10310SOL     OW31828   2.938   3.686   1.821
10310SOL    HW131829   2.960   3.634   1.739
10310SOL    HW231830   2.848   3.729   1.810
10311SOL     OW31831   0.800   5.538   1.397
10311SOL    HW131832   0.854   5.615   1.365
10311SOL    HW231833   0.705   5.567   1.411
10312SOL     OW31834   3.580   4.885   0.634
10312SOL    HW131835   3.538   4.938   0.560
10312SOL    HW231836   3.677   4.873   0.615
10313SOL     OW31837   4.158   0.075   2.429
10313SOL    HW131838   4.109   0.014   2.490
10313SOL    HW231839   4.133   0.170   2.449
10314SOL     OW31840   6.308   0.786   0.644
10314SOL    HW131841   6.360   0.712   0.602
10314SOL    HW231842   6.227   0.748   0.689
10315SOL     OW31843   5.862   6.317   5.507
10315SOL    HW131844   5.930   6.384   5.478
10315SOL    HW231845   5.773   6.361   5.514
10316SOL     OW31846   0.450   3.391   4.707
10316SOL    HW131847   0.427   3.387   4.610
10316SOL    HW231848   0.528   3.331   4.725
10317SOL     OW31849   3.843   4.937   6.172
10317SOL    HW131850   3.834   5.031   6.139
10317SOL    HW231851   3.913   4.933   6.243
10318SOL     OW31852   6.064   5.488   1.632
10318SOL    HW131853   6.154   5.530   1.641
10318SOL    HW231854   6.073   5.388   1.634
10319SOL     OW31855   0.232   4.670   4.559
10319SOL    HW131856   0.175   4.645   4.481
10319SOL    HW231857   0.222   4.602   4.631
10320SOL     OW31858   0.974   0.115   0.963
10320SOL    HW131859   1.037   0.161   1.026
10320SOL    HW231860   0.969   0.167   0.878
10321SOL     OW31861   3.783   6.296   5.105
10321SOL    HW131862   3.730   6.243   5.039
10321SOL    HW231863   3.810   6.237   5.181
10322SOL     OW31864   6.411   6.267   0.557
10322SOL    HW131865   6.394   6.222   0.469
10322SOL    HW231866   6.476   6.213   0.610
10323SOL     OW31867   6.697   3.524   6.542
10323SOL    HW131868   6.663   3.452   6.481
10323SOL    HW231869   6.765   3.486   6.604
10324SOL     OW31870   3.641   3.044   3.244
10324SOL    HW131871   3.600   3.134   3.258
10324SOL    HW231872   3.734   3.044   3.282
10325SOL     OW31873   6.807   4.308   3.737
10325SOL    HW131874   6.819   4.394   3.787
10325SOL    HW231875   6.772   4.238   3.799
10326SOL     OW31876   4.937   2.467   0.240
10326SOL    HW131877   5.009   2.533   0.224
10326SOL    HW231878   4.976   2.383   0.278
10327SOL     OW31879   2.201   1.287   2.976
10327SOL    HW131880   2.140   1.316   2.902
10327SOL    HW231881   2.244   1.367   3.018
10328SOL     OW31882   5.586   3.502   2.357
10328SOL    HW131883   5.685   3.503   2.348
10328SOL    HW231884   5.549   3.592   2.336
10329SOL     OW31885   2.789   0.570   3.844
10329SOL    HW131886   2.762   0.665   3.830
10329SOL    HW231887   2.727   0.510   3.794
10330SOL     OW31888   3.506   5.145   3.226
10330SOL    HW131889   3.565   5.065   3.210
10330SOL    HW231890   3.530   5.187   3.313
10331SOL     OW31891   5.741   0.829   3.339
10331SOL    HW131892   5.754   0.867   3.248
10331SOL    HW231893   5.673   0.884   3.388
10332SOL     OW31894   0.087   2.040   0.811
10332SOL    HW131895   0.043   2.030   0.900
10332SOL    HW231896   0.091   1.950   0.766
10333SOL     OW31897   5.599   4.851   3.951
10333SOL    HW131898   5.571   4.772   4.006
10333SOL    HW231899   5.520   4.887   3.903
10334SOL     OW31900   1.979   4.893   3.667
10334SOL    HW131901   1.987   4.802   3.626
10334SOL    HW231902   1.999   4.887   3.765
10335SOL     OW31903   2.241   5.277   6.654
10335SOL    HW131904   2.245   5.215   6.732
10335SOL    HW231905   2.173   5.348   6.671
10336SOL     OW31906   4.285   6.860   2.308
10336SOL    HW131907   4.236   6.931   2.360
10336SOL    HW231908   4.355   6.903   2.251
10337SOL     OW31909   0.160   5.225   5.026
10337SOL    HW131910   0.225   5.205   5.100
10337SOL    HW231911   0.194   5.185   4.941
10338SOL     OW31912   3.774   6.589   0.951
10338SOL    HW131913   3.846   6.606   1.018
10338SOL    HW231914   3.767   6.668   0.890
10339SOL     OW31915   3.979   5.592   0.953
10339SOL    HW131916   3.911   5.631   0.890
10339SOL    HW231917   3.937   5.519   1.006
10340SOL     OW31918   2.468   5.494   6.716
10340SOL    HW131919   2.513   5.418   6.668
10340SOL    HW231920   2.373   5.501   6.685
10341SOL     OW31921   2.556   2.483   2.410
10341SOL    HW131922   2.625   2.431   2.460
10341SOL    HW231923   2.569   2.470   2.311
10342SOL     OW31924   2.060   6.588   6.540
10342SOL    HW131925   2.029   6.498   6.509
10342SOL    HW231926   2.093   6.641   6.461
10343SOL     OW31927   1.982   4.214   6.621
10343SOL    HW131928   2.023   4.229   6.711
10343SOL    HW231929   2.040   4.256   6.551
10344SOL     OW31930   4.122   3.693   4.470
10344SOL    HW131931   4.217   3.663   4.459
10344SOL    HW231932   4.112   3.743   4.555
10345SOL     OW31933   2.844   1.278   0.300
10345SOL    HW131934   2.808   1.242   0.214
10345SOL    HW231935   2.796   1.236   0.377
10346SOL     OW31936   5.415   0.140   0.348
10346SOL    HW131937   5.355   0.180   0.278
10346SOL    HW231938   5.509   0.139   0.314
10347SOL     OW31939   5.180   1.623   0.767
10347SOL    HW131940   5.271   1.588   0.790
10347SOL    HW231941   5.183   1.723   0.760
10348SOL     OW31942   6.176   1.119   6.232
10348SOL    HW131943   6.266   1.080   6.249
10348SOL    HW231944   6.175   1.215   6.261
10349SOL     OW31945   5.803   0.941   0.771
10349SOL    HW131946   5.898   0.971   0.784
10349SOL    HW231947   5.748   0.968   0.850
10350SOL     OW31948   3.725   6.088   4.204
10350SOL    HW131949   3.815   6.071   4.164
10350SOL    HW231950   3.667   6.134   4.137
10351SOL     OW31951   6.133   5.161   5.111
10351SOL    HW131952   6.096   5.086   5.166
10351SOL    HW231953   6.122   5.140   5.014
10352SOL     OW31954   5.478   2.111   6.931
10352SOL    HW131955   5.434   2.021   6.926
10352SOL    HW231956   5.461   2.152   7.020
10353SOL     OW31957   6.968   3.356   3.561
10353SOL    HW131958   6.997   3.296   3.486
10353SOL    HW231959   6.902   3.423   3.526
10354SOL     OW31960   0.423   3.803   0.739
10354SOL    HW131961   0.342   3.777   0.685
10354SOL    HW231962   0.497   3.738   0.721
10355SOL     OW31963   1.065   1.731   1.205
10355SOL    HW131964   1.031   1.637   1.205
10355SOL    HW231965   1.163   1.731   1.184
10356SOL     OW31966   0.432   3.192   6.416
10356SOL    HW131967   0.510   3.250   6.392
10356SOL    HW231968   0.466   3.105   6.453
10357SOL     OW31969   1.712   2.247   6.488
10357SOL    HW131970   1.795   2.282   6.531
10357SOL    HW231971   1.691   2.156   6.524
10358SOL     OW31972   1.741   2.405   2.592
10358SOL    HW131973   1.711   2.411   2.687
10358SOL    HW231974   1.668   2.367   2.536
10359SOL     OW31975   4.976   2.656   2.607
10359SOL    HW131976   5.001   2.559   2.615
10359SOL    HW231977   4.937   2.673   2.516
10360SOL     OW31978   5.408   5.168   3.158
10360SOL    HW131979   5.500   5.130   3.152
10360SOL    HW231980   5.341   5.095   3.154
10361SOL     OW31981   2.146   1.646   1.475
10361SOL    HW131982   2.178   1.589   1.551
10361SOL    HW231983   2.051   1.673   1.492
10362SOL     OW31984   0.424   5.356   1.884
10362SOL    HW131985   0.425   5.301   1.968
10362SOL    HW231986   0.397   5.449   1.906
10363SOL     OW31987   4.725   3.340   0.294
10363SOL    HW131988   4.809   3.341   0.239
10363SOL    HW231989   4.746   3.372   0.386
10364SOL     OW31990   5.100   5.024   1.004
10364SOL    HW131991   5.039   5.104   1.000
10364SOL    HW231992   5.090   4.980   1.093
10365SOL     OW31993   6.082   5.288   0.161
10365SOL    HW131994   6.121   5.256   0.075
10365SOL    HW231995   6.101   5.221   0.233
10366SOL     OW31996   4.123   6.634   3.141
10366SOL    HW131997   4.063   6.713   3.123
10366SOL    HW231998   4.213   6.651   3.100
10367SOL     OW31999   6.574   1.916   1.838
10367SOL    HW132000   6.597   1.825   1.802
10367SOL    HW232001   6.499   1.908   1.903
10368SOL     OW32002   2.801   0.907   2.582
10368SOL    HW132003   2.851   0.846   2.644
10368SOL    HW232004   2.703   0.889   2.589
10369SOL     OW32005   2.802   6.272   5.509
10369SOL    HW132006   2.790   6.176   5.486
10369SOL    HW232007   2.743   6.328   5.450
10370SOL     OW32008   6.178   1.462   4.254
10370SOL    HW132009   6.234   1.500   4.181
10370SOL    HW232010   6.104   1.407   4.215
10371SOL     OW32011   3.663   6.374   3.006
10371SOL    HW132012   3.731   6.351   2.937
10371SOL    HW232013   3.575   6.389   2.963
10372SOL     OW32014   3.126   0.628   1.790
10372SOL    HW132015   3.066   0.621   1.710
10372SOL    HW232016   3.197   0.558   1.784
10373SOL     OW32017   0.617   7.011   4.914
10373SOL    HW132018   0.527   6.988   4.949
10373SOL    HW232019   0.662   6.929   4.879
10374SOL     OW32020   2.861   6.584   4.491
10374SOL    HW132021   2.915   6.598   4.575
10374SOL    HW232022   2.771   6.546   4.516
10375SOL     OW32023   2.864   2.253   5.951
10375SOL    HW132024   2.864   2.352   5.937
10375SOL    HW232025   2.959   2.220   5.950
10376SOL     OW32026   1.401   6.370   3.414
10376SOL    HW132027   1.356   6.338   3.497
10376SOL    HW232028   1.462   6.300   3.379
10377SOL     OW32029   7.022   1.891   1.873
10377SOL    HW132030   0.030   1.973   1.825
10377SOL    HW232031   0.033   1.810   1.827
10378SOL     OW32032   0.195   5.685   5.739
10378SOL    HW132033   0.234   5.773   5.715
10378SOL    HW232034   0.265   5.627   5.781
10379SOL     OW32035   2.584   6.020   4.653
10379SOL    HW132036   2.681   5.999   4.652
10379SOL    HW232037   2.561   6.076   4.574
10380SOL     OW32038   1.227   2.181   4.718
10380SOL    HW132039   1.143   2.138   4.751
10380SOL    HW232040   1.236   2.272   4.759
10381SOL     OW32041   4.025   4.073   1.477
10381SOL    HW132042   3.945   4.126   1.502
10381SOL    HW232043   4.098   4.089   1.544
10382SOL     OW32044   2.374   5.826   2.028
10382SOL    HW132045   2.389   5.902   2.091
10382SOL    HW232046   2.434   5.835   1.949
10383SOL     OW32047   1.867   4.211   0.139
10383SOL    HW132048   1.924   4.150   0.193
10383SOL    HW232049   1.895   4.205   0.043
10384SOL     OW32050   6.113   6.535   1.019
10384SOL    HW132051   6.176   6.608   0.993
10384SOL    HW232052   6.105   6.469   0.944
10385SOL     OW32053   3.458   5.057   6.016
10385SOL    HW132054   3.415   4.973   6.049
10385SOL    HW232055   3.462   5.124   6.090
10386SOL     OW32056   0.315   1.032   5.778
10386SOL    HW132057   0.307   1.128   5.752
10386SOL    HW232058   0.249   0.977   5.727
10387SOL     OW32059   5.272   3.138   3.678
10387SOL    HW132060   5.362   3.160   3.640
10387SOL    HW232061   5.201   3.189   3.629
10388SOL     OW32062   2.801   0.155   0.102
10388SOL    HW132063   2.727   0.114   0.050
10388SOL    HW232064   2.770   0.173   0.196
10389SOL     OW32065   6.330   3.677   0.105
10389SOL    HW132066   6.424   3.674   0.071
10389SOL    HW232067   6.284   3.757   0.067
10390SOL     OW32068   1.674   2.563   0.457
10390SOL    HW132069   1.629   2.501   0.521
10390SOL    HW232070   1.676   2.655   0.496
10391SOL     OW32071   1.128   6.464   3.749
10391SOL    HW132072   1.048   6.477   3.690
10391SOL    HW232073   1.183   6.547   3.750
10392SOL     OW32074   5.558   5.094   5.567
10392SOL    HW132075   5.477   5.143   5.536
10392SOL    HW232076   5.539   5.049   5.655
10393SOL     OW32077   1.888   3.731   3.875
10393SOL    HW132078   1.985   3.746   3.856
10393SOL    HW232079   1.840   3.709   3.789
10394SOL     OW32080   2.733   5.488   4.450
10394SOL    HW132081   2.730   5.587   4.439
10394SOL    HW232082   2.736   5.465   4.547
10395SOL     OW32083   0.529   6.300   1.579
10395SOL    HW132084   0.446   6.356   1.577
10395SOL    HW232085   0.523   6.230   1.507
10396SOL     OW32086   4.346   1.718   4.052
10396SOL    HW132087   4.438   1.702   4.017
10396SOL    HW232088   4.322   1.646   4.118
10397SOL     OW32089   3.049   2.211   3.098
10397SOL    HW132090   3.077   2.180   3.189
10397SOL    HW232091   2.953   2.240   3.101
10398SOL     OW32092   5.797   2.414   1.101
10398SOL    HW132093   5.861   2.483   1.134
10398SOL    HW232094   5.819   2.392   1.005
10399SOL     OW32095   5.070   2.054   3.685
10399SOL    HW132096   5.118   1.980   3.637
10399SOL    HW232097   4.971   2.040   3.677
10400SOL     OW32098   4.321   6.574   0.274
10400SOL    HW132099   4.290   6.666   0.296
10400SOL    HW232100   4.307   6.514   0.353
10401SOL     OW32101   6.591   0.277   3.485
10401SOL    HW132102   6.620   0.362   3.441
10401SOL    HW232103   6.492   0.268   3.477
10402SOL     OW32104   6.393   3.151   5.516
10402SOL    HW132105   6.398   3.172   5.418
10402SOL    HW232106   6.328   3.075   5.530
10403SOL     OW32107   4.886   1.333   3.556
10403SOL    HW132108   4.795   1.338   3.598
10403SOL    HW232109   4.944   1.406   3.592
10404SOL     OW32110   6.255   6.711   5.353
10404SOL    HW132111   6.275   6.808   5.368
10404SOL    HW232112   6.169   6.687   5.399
10405SOL     OW32113   0.910   0.872   5.101
10405SOL    HW132114   0.998   0.848   5.140
10405SOL    HW232115   0.924   0.915   5.012
10406SOL     OW32116   3.125   4.867   2.991
10406SOL    HW132117   3.038   4.915   2.978
10406SOL    HW232118   3.174   4.908   3.068
10407SOL     OW32119   2.864   6.780   5.961
10407SOL    HW132120   2.800   6.708   5.935
10407SOL    HW232121   2.894   6.766   6.056
10408SOL     OW32122   4.285   0.171   1.524
10408SOL    HW132123   4.357   0.115   1.483
10408SOL    HW232124   4.320   0.213   1.608
10409SOL     OW32125   0.108   4.568   0.883
10409SOL    HW132126   0.170   4.490   0.886
10409SOL    HW232127   0.021   4.540   0.840
10410SOL     OW32128   5.521   2.108   0.946
10410SOL    HW132129   5.434   2.121   0.900
10410SOL    HW232130   5.512   2.131   1.043
10411SOL     OW32131   3.572   6.787   3.659
10411SOL    HW132132   3.537   6.797   3.566
10411SOL    HW232133   3.615   6.873   3.688
10412SOL     OW32134   0.308   1.549   0.326
10412SOL    HW132135   0.264   1.460   0.312
10412SOL    HW232136   0.377   1.541   0.397
10413SOL     OW32137   6.522   2.681   0.659
10413SOL    HW132138   6.430   2.654   0.629
10413SOL    HW232139   6.534   2.657   0.755
10414SOL     OW32140   4.105   4.169   5.818
10414SOL    HW132141   4.061   4.212   5.739
10414SOL    HW232142   4.080   4.219   5.901
10415SOL     OW32143   1.731   3.502   4.499
10415SOL    HW132144   1.758   3.435   4.569
10415SOL    HW232145   1.794   3.496   4.422
10416SOL     OW32146   5.978   0.077   4.889
10416SOL    HW132147   5.957   0.166   4.930
10416SOL    HW232148   6.061   0.085   4.834
10417SOL     OW32149   3.141   5.275   4.398
10417SOL    HW132150   3.192   5.350   4.439
10417SOL    HW232151   3.049   5.271   4.438
10418SOL     OW32152   0.052   4.427   6.761
10418SOL    HW132153   0.121   4.494   6.788
10418SOL    HW232154   0.097   4.352   6.713
10419SOL     OW32155   1.490   6.980   6.165
10419SOL    HW132156   1.394   7.008   6.167
10419SOL    HW232157   1.506   6.913   6.238
10420SOL     OW32158   6.202   3.913   3.257
10420SOL    HW132159   6.230   3.827   3.215
10420SOL    HW232160   6.270   3.984   3.236
10421SOL     OW32161   0.449   1.800   3.392
10421SOL    HW132162   0.532   1.848   3.419
10421SOL    HW232163   0.465   1.701   3.393
10422SOL     OW32164   6.852   3.295   5.320
10422SOL    HW132165   6.918   3.228   5.354
10422SOL    HW232166   6.777   3.304   5.385
10423SOL     OW32167   6.082   5.611   4.810
10423SOL    HW132168   6.027   5.585   4.889
10423SOL    HW232169   6.068   5.708   4.790
10424SOL     OW32170   5.696   2.733   0.738
10424SOL    HW132171   5.636   2.690   0.670
10424SOL    HW232172   5.675   2.695   0.829
10425SOL     OW32173   1.016   0.267   1.720
10425SOL    HW132174   0.936   0.309   1.764
10425SOL    HW232175   1.095   0.277   1.780
10426SOL     OW32176   6.563   4.802   0.305
10426SOL    HW132177   6.584   4.897   0.282
10426SOL    HW232178   6.529   4.755   0.223
10427SOL     OW32179   3.799   0.363   6.152
10427SOL    HW132180   3.875   0.308   6.189
10427SOL    HW232181   3.833   0.453   6.124
10428SOL     OW32182   3.031   1.271   3.869
10428SOL    HW132183   3.036   1.307   3.961
10428SOL    HW232184   3.068   1.178   3.867
10429SOL     OW32185   0.303   5.060   0.730
10429SOL    HW132186   0.274   4.973   0.769
10429SOL    HW232187   0.395   5.082   0.762
10430SOL     OW32188   5.031   6.448   4.093
10430SOL    HW132189   4.971   6.370   4.077
10430SOL    HW232190   5.003   6.495   4.177
10431SOL     OW32191   3.153   5.822   4.093
10431SOL    HW132192   3.143   5.723   4.086
10431SOL    HW232193   3.087   5.857   4.160
10432SOL     OW32194   6.120   6.681   5.123
10432SOL    HW132195   6.047   6.616   5.146
10432SOL    HW232196   6.162   6.714   5.207
10433SOL     OW32197   2.066   6.064   1.202
10433SOL    HW132198   2.112   5.986   1.244
10433SOL    HW232199   2.080   6.061   1.103
10434SOL     OW32200   4.087   6.800   3.623
10434SOL    HW132201   4.102   6.818   3.526
10434SOL    HW232202   3.998   6.757   3.636
10435SOL     OW32203   0.392   0.102   4.698
10435SOL    HW132204   0.325   0.136   4.765
10435SOL    HW232205   0.433   0.017   4.732
10436SOL     OW32206   0.733   5.177   6.065
10436SOL    HW132207   0.729   5.077   6.067
10436SOL    HW232208   0.669   5.211   5.996
10437SOL     OW32209   5.930   5.531   6.083
10437SOL    HW132210   5.909   5.502   6.177
10437SOL    HW232211   5.965   5.454   6.031
10438SOL     OW32212   6.095   6.684   0.653
10438SOL    HW132213   6.016   6.633   0.686
10438SOL    HW232214   6.169   6.680   0.720
10439SOL     OW32215   3.817   1.312   6.097
10439SOL    HW132216   3.723   1.295   6.126
10439SOL    HW232217   3.870   1.227   6.103
10440SOL     OW32218   0.842   6.610   0.248
10440SOL    HW132219   0.823   6.511   0.250
10440SOL    HW232220   0.858   6.638   0.153
10441SOL     OW32221   3.941   0.496   0.472
10441SOL    HW132222   3.868   0.556   0.507
10441SOL    HW232223   4.019   0.498   0.534
10442SOL     OW32224   3.379   6.256   6.031
10442SOL    HW132225   3.295   6.306   6.008
10442SOL    HW232226   3.362   6.198   6.110
10443SOL     OW32227   5.099   4.055   4.789
10443SOL    HW132228   5.175   4.106   4.749
10443SOL    HW232229   5.012   4.097   4.762
10444SOL     OW32230   3.773   6.382   4.446
10444SOL    HW132231   3.766   6.431   4.359
10444SOL    HW232232   3.846   6.314   4.440
10445SOL     OW32233   1.239   5.471   4.337
10445SOL    HW132234   1.163   5.445   4.278
10445SOL    HW232235   1.315   5.407   4.322
10446SOL     OW32236   1.017   2.859   5.684
10446SOL    HW132237   0.986   2.834   5.592
10446SOL    HW232238   0.942   2.902   5.734
10447SOL     OW32239   6.965   1.055   2.401
10447SOL    HW132240   0.010   0.994   2.364
10447SOL    HW232241   6.923   1.013   2.482
10448SOL     OW32242   3.483   1.653   1.368
10448SOL    HW132243   3.445   1.671   1.459
10448SOL    HW232244   3.571   1.607   1.377
10449SOL     OW32245   2.157   5.431   4.402
10449SOL    HW132246   2.168   5.480   4.488
10449SOL    HW232247   2.064   5.396   4.396
10450SOL     OW32248   0.445   2.064   0.403
10450SOL    HW132249   0.542   2.047   0.418
10450SOL    HW232250   0.430   2.088   0.307
10451SOL     OW32251   2.122   5.132   2.715
10451SOL    HW132252   2.107   5.038   2.747
10451SOL    HW232253   2.155   5.188   2.791
10452SOL     OW32254   5.705   3.456   3.370
10452SOL    HW132255   5.746   3.511   3.297
10452SOL    HW232256   5.622   3.500   3.402
10453SOL     OW32257   4.680   5.728   1.555
10453SOL    HW132258   4.769   5.774   1.558
10453SOL    HW232259   4.693   5.630   1.567
10454SOL     OW32260   4.402   2.882   1.082
10454SOL    HW132261   4.435   2.861   1.174
10454SOL    HW232262   4.303   2.875   1.080
10455SOL     OW32263   6.735   5.387   2.154
10455SOL    HW132264   6.775   5.459   2.097
10455SOL    HW232265   6.797   5.308   2.155
10456SOL     OW32266   3.130   6.186   1.047
10456SOL    HW132267   3.208   6.246   1.030
10456SOL    HW232268   3.160   6.091   1.047
10457SOL     OW32269   3.215   3.074   2.549
10457SOL    HW132270   3.292   3.020   2.583
10457SOL    HW232271   3.198   3.052   2.453
10458SOL     OW32272   0.216   1.120   6.278
10458SOL    HW132273   0.244   1.053   6.347
10458SOL    HW232274   0.254   1.095   6.190
10459SOL     OW32275   4.941   4.896   2.715
10459SOL    HW132276   4.979   4.975   2.665
10459SOL    HW232277   5.016   4.841   2.751
10460SOL     OW32278   1.496   5.179   1.696
10460SOL    HW132279   1.481   5.261   1.639
10460SOL    HW232280   1.484   5.098   1.639
10461SOL     OW32281   1.398   5.867   5.267
10461SOL    HW132282   1.335   5.810   5.215
10461SOL    HW232283   1.412   5.828   5.358
10462SOL     OW32284   5.693   1.974   2.657
10462SOL    HW132285   5.629   1.920   2.603
10462SOL    HW232286   5.690   2.070   2.627
10463SOL     OW32287   4.021   2.949   5.502
10463SOL    HW132288   4.059   2.974   5.591
10463SOL    HW232289   4.083   2.979   5.430
10464SOL     OW32290   5.846   6.600   0.947
10464SOL    HW132291   5.934   6.573   0.986
10464SOL    HW232292   5.845   6.578   0.849
10465SOL     OW32293   5.789   6.994   0.615
10465SOL    HW132294   5.716   6.927   0.597
10465SOL    HW232295   5.757   0.034   0.685
10466SOL     OW32296   4.672   4.956   5.211
10466SOL    HW132297   4.609   4.890   5.252
10466SOL    HW232298   4.641   5.049   5.230
10467SOL     OW32299   0.956   1.878   5.496
10467SOL    HW132300   1.035   1.845   5.444
10467SOL    HW232301   0.886   1.806   5.499
10468SOL     OW32302   3.708   4.951   3.217
10468SOL    HW132303   3.659   4.927   3.133
10468SOL    HW232304   3.788   4.892   3.226
10469SOL     OW32305   3.396   2.445   6.648
10469SOL    HW132306   3.353   2.419   6.562
10469SOL    HW232307   3.328   2.493   6.705
10470SOL     OW32308   2.780   1.706   3.158
10470SOL    HW132309   2.744   1.776   3.096
10470SOL    HW232310   2.767   1.735   3.253
10471SOL     OW32311   2.004   3.263   1.070
10471SOL    HW132312   2.079   3.295   1.128
10471SOL    HW232313   2.004   3.313   0.984
10472SOL     OW32314   3.299   5.589   0.752
10472SOL    HW132315   3.341   5.525   0.687
10472SOL    HW232316   3.355   5.594   0.834
10473SOL     OW32317   5.478   0.489   0.301
10473SOL    HW132318   5.427   0.535   0.228
10473SOL    HW232319   5.574   0.515   0.296
10474SOL     OW32320   4.478   1.385   4.630
10474SOL    HW132321   4.387   1.348   4.647
10474SOL    HW232322   4.540   1.355   4.703
10475SOL     OW32323   4.425   6.210   2.173
10475SOL    HW132324   4.377   6.125   2.192
10475SOL    HW232325   4.417   6.232   2.076
10476SOL     OW32326   0.047   5.419   6.239
10476SOL    HW132327   0.085   5.426   6.331
10476SOL    HW232328   0.051   5.324   6.208
10477SOL     OW32329   5.928   2.553   5.044
10477SOL    HW132330   5.856   2.522   5.107
10477SOL    HW232331   5.992   2.478   5.027
10478SOL     OW32332   0.230   0.179   0.626
10478SOL    HW132333   0.328   0.180   0.606
10478SOL    HW232334   0.214   0.125   0.708
10479SOL     OW32335   0.065   2.877   1.951
10479SOL    HW132336   0.161   2.850   1.948
10479SOL    HW232337   0.043   2.932   1.871
10480SOL     OW32338   5.751   0.313   1.335
10480SOL    HW132339   5.834   0.283   1.288
10480SOL    HW232340   5.683   0.240   1.331
10481SOL     OW32341   2.428   0.777   5.672
10481SOL    HW132342   2.439   0.691   5.622
10481SOL    HW232343   2.337   0.781   5.713
10482SOL     OW32344   0.949   6.065   4.586
10482SOL    HW132345   0.980   6.134   4.651
10482SOL    HW232346   0.897   5.994   4.634
10483SOL     OW32347   0.210   5.205   0.256
10483SOL    HW132348   0.261   5.200   0.342
10483SOL    HW232349   0.117   5.170   0.269
10484SOL     OW32350   6.898   0.540   1.060
10484SOL    HW132351   6.868   0.614   1.000
10484SOL    HW232352   6.984   0.502   1.027
10485SOL     OW32353   3.380   2.891   2.633
10485SOL    HW132354   3.410   2.845   2.550
10485SOL    HW232355   3.459   2.905   2.694
10486SOL     OW32356   6.435   0.800   6.106
10486SOL    HW132357   6.366   0.745   6.153
10486SOL    HW232358   6.519   0.802   6.161
10487SOL     OW32359   4.501   2.003   1.315
10487SOL    HW132360   4.432   1.949   1.363
10487SOL    HW232361   4.561   2.048   1.381
10488SOL     OW32362   2.020   2.219   6.149
10488SOL    HW132363   2.024   2.226   6.049
10488SOL    HW232364   2.112   2.228   6.187
10489SOL     OW32365   5.582   6.077   4.305
10489SOL    HW132366   5.485   6.100   4.310
10489SOL    HW232367   5.624   6.085   4.395
10490SOL     OW32368   5.970   1.327   0.489
10490SOL    HW132369   5.927   1.255   0.544
10490SOL    HW232370   5.941   1.416   0.522
10491SOL     OW32371   2.098   2.711   6.254
10491SOL    HW132372   2.031   2.694   6.327
10491SOL    HW232373   2.190   2.713   6.294
10492SOL     OW32374   3.970   5.729   0.548
10492SOL    HW132375   3.885   5.678   0.561
10492SOL    HW232376   3.959   5.822   0.582
10493SOL     OW32377   3.143   5.380   1.176
10493SOL    HW132378   3.228   5.418   1.139
10493SOL    HW232379   3.097   5.326   1.106
10494SOL     OW32380   6.907   4.271   5.512
10494SOL    HW132381   6.979   4.215   5.552
10494SOL    HW232382   6.828   4.273   5.573
10495SOL     OW32383   6.178   6.582   0.104
10495SOL    HW132384   6.135   6.595   0.194
10495SOL    HW232385   6.261   6.637   0.099
10496SOL     OW32386   6.343   4.371   5.139
10496SOL    HW132387   6.424   4.327   5.101
10496SOL    HW232388   6.300   4.427   5.068
10497SOL     OW32389   1.146   6.510   2.275
10497SOL    HW132390   1.096   6.453   2.339
10497SOL    HW232391   1.084   6.546   2.206
10498SOL     OW32392   5.454   6.021   1.014
10498SOL    HW132393   5.520   6.089   0.983
10498SOL    HW232394   5.378   6.016   0.949
10499SOL     OW32395   4.937   6.151   1.171
10499SOL    HW132396   4.979   6.200   1.094
10499SOL    HW232397   4.850   6.194   1.194
10500SOL     OW32398   5.463   2.327   5.622
10500SOL    HW132399   5.556   2.336   5.656
10500SOL    HW232400   5.442   2.403   5.561
10501SOL     OW32401   2.371   5.788   2.880
10501SOL    HW132402   2.378   5.828   2.971
10501SOL    HW232403   2.297   5.720   2.879
10502SOL     OW32404   2.357   3.890   0.786
10502SOL    HW132405   2.282   3.891   0.721
10502SOL    HW232406   2.326   3.850   0.872
10503SOL     OW32407   6.225   4.220   6.749
10503SOL    HW132408   6.187   4.308   6.778
10503SOL    HW232409   6.163   4.178   6.682
10504SOL     OW32410   0.496   2.427   5.461
10504SOL    HW132411   0.430   2.496   5.430
10504SOL    HW232412   0.455   2.373   5.535
10505SOL     OW32413   5.061   6.251   1.730
10505SOL    HW132414   5.042   6.283   1.637
10505SOL    HW232415   5.129   6.310   1.773
10506SOL     OW32416   0.459   3.386   0.392
10506SOL    HW132417   0.525   3.461   0.393
10506SOL    HW232418   0.366   3.423   0.394
10507SOL     OW32419   1.807   5.539   6.686
10507SOL    HW132420   1.748   5.546   6.766
10507SOL    HW232421   1.802   5.625   6.634
10508SOL     OW32422   1.063   6.045   4.009
10508SOL    HW132423   1.094   5.979   4.078
10508SOL    HW232424   1.013   5.997   3.937
10509SOL     OW32425   6.042   4.530   4.532
10509SOL    HW132426   6.116   4.578   4.485
10509SOL    HW232427   6.038   4.435   4.500
10510SOL     OW32428   4.651   6.720   0.178
10510SOL    HW132429   4.619   6.722   0.084
10510SOL    HW232430   4.751   6.723   0.180
10511SOL     OW32431   2.714   1.670   2.026
10511SOL    HW132432   2.624   1.698   2.057
10511SOL    HW232433   2.743   1.588   2.075
10512SOL     OW32434   4.063   6.663   5.944
10512SOL    HW132435   3.974   6.672   5.988
10512SOL    HW232436   4.078   6.739   5.881
10513SOL     OW32437   6.455   2.682   3.410
10513SOL    HW132438   6.519   2.733   3.353
10513SOL    HW232439   6.368   2.733   3.415
10514SOL     OW32440   1.535   1.969   1.728
10514SOL    HW132441   1.451   1.977   1.675
10514SOL    HW232442   1.613   1.998   1.673
10515SOL     OW32443   2.623   2.450   3.920
10515SOL    HW132444   2.593   2.474   4.012
10515SOL    HW232445   2.573   2.506   3.853
10516SOL     OW32446   2.656   1.755   0.226
10516SOL    HW132447   2.695   1.811   0.152
10516SOL    HW232448   2.705   1.669   0.231
10517SOL     OW32449   1.478   4.237   1.264
10517SOL    HW132450   1.448   4.176   1.190
10517SOL    HW232451   1.434   4.326   1.253
10518SOL     OW32452   0.303   5.585   1.968
10518SOL    HW132453   0.302   5.671   2.018
10518SOL    HW232454   0.212   5.565   1.933
10519SOL     OW32455   2.756   4.393   1.153
10519SOL    HW132456   2.692   4.391   1.229
10519SOL    HW232457   2.715   4.441   1.075
10520SOL     OW32458   6.910   2.094   6.209
10520SOL    HW132459   6.825   2.131   6.246
10520SOL    HW232460   6.984   2.105   6.276
10521SOL     OW32461   6.471   5.007   1.350
10521SOL    HW132462   6.422   4.976   1.269
10521SOL    HW232463   6.409   5.010   1.428
10522SOL     OW32464   0.527   2.653   2.980
10522SOL    HW132465   0.510   2.718   3.054
10522SOL    HW232466   0.568   2.701   2.902
10523SOL     OW32467   0.082   4.505   2.959
10523SOL    HW132468   0.174   4.467   2.959
10523SOL    HW232469   0.060   4.541   2.869
10524SOL     OW32470   0.635   5.652   4.033
10524SOL    HW132471   0.588   5.600   4.105
10524SOL    HW232472   0.616   5.611   3.944
10525SOL     OW32473   3.916   6.889   5.401
10525SOL    HW132474   3.963   6.830   5.336
10525SOL    HW232475   3.982   6.952   5.442
10526SOL     OW32476   0.574   6.495   1.286
10526SOL    HW132477   0.631   6.421   1.322
10526SOL    HW232478   0.615   6.531   1.202
10527SOL     OW32479   0.899   0.307   6.212
10527SOL    HW132480   0.990   0.269   6.225
10527SOL    HW232481   0.905   0.406   6.198
10528SOL     OW32482   0.618   4.150   6.614
10528SOL    HW132483   0.649   4.058   6.592
10528SOL    HW232484   0.592   4.154   6.710
10529SOL     OW32485   1.403   5.945   4.903
10529SOL    HW132486   1.338   6.010   4.866
10529SOL    HW232487   1.356   5.880   4.963
10530SOL     OW32488   0.810   6.327   5.866
10530SOL    HW132489   0.898   6.337   5.819
10530SOL    HW232490   0.826   6.302   5.961
10531SOL     OW32491   2.858   2.332   4.049
10531SOL    HW132492   2.819   2.370   4.133
10531SOL    HW232493   2.798   2.352   3.972
10532SOL     OW32494   5.883   6.934   6.869
10532SOL    HW132495   5.944   6.982   6.933
10532SOL    HW232496   5.805   6.897   6.919
10533SOL     OW32497   3.093   5.810   4.566
10533SOL    HW132498   3.160   5.848   4.631
10533SOL    HW232499   3.114   5.842   4.474
10534SOL     OW32500   6.835   5.636   2.093
10534SOL    HW132501   6.887   5.719   2.073
10534SOL    HW232502   6.790   5.646   2.182
10535SOL     OW32503   1.979   1.490   1.769
10535SOL    HW132504   2.065   1.473   1.720
10535SOL    HW232505   1.902   1.456   1.715
10536SOL     OW32506   4.301   6.975   3.997
10536SOL    HW132507   4.225   6.918   3.969
10536SOL    HW232508   4.364   6.922   4.054
10537SOL     OW32509   5.072   6.417   3.688
10537SOL    HW132510   5.080   6.497   3.747
10537SOL    HW232511   5.092   6.335   3.741
10538SOL     OW32512   5.468   4.209   2.632
10538SOL    HW132513   5.533   4.193   2.705
10538SOL    HW232514   5.461   4.307   2.614
10539SOL     OW32515   5.727   5.483   1.353
10539SOL    HW132516   5.700   5.436   1.269
10539SOL    HW232517   5.818   5.523   1.340
10540SOL     OW32518   2.496   4.301   5.979
10540SOL    HW132519   2.507   4.400   5.969
10540SOL    HW232520   2.398   4.279   5.978
10541SOL     OW32521   3.630   2.865   3.898
10541SOL    HW132522   3.541   2.892   3.863
10541SOL    HW232523   3.657   2.777   3.858
10542SOL     OW32524   6.694   0.133   4.818
10542SOL    HW132525   6.698   0.143   4.917
10542SOL    HW232526   6.636   0.056   4.794
10543SOL     OW32527   0.708   1.788   4.756
10543SOL    HW132528   0.655   1.760   4.836
10543SOL    HW232529   0.668   1.748   4.673
10544SOL     OW32530   2.086   6.331   3.141
10544SOL    HW132531   2.017   6.268   3.177
10544SOL    HW232532   2.085   6.416   3.192
10545SOL     OW32533   1.089   2.916   1.938
10545SOL    HW132534   1.049   2.979   1.871
10545SOL    HW232535   1.168   2.870   1.896
10546SOL     OW32536   3.877   5.906   1.185
10546SOL    HW132537   3.808   5.862   1.128
10546SOL    HW232538   3.968   5.870   1.162
10547SOL     OW32539   5.091   1.380   4.434
10547SOL    HW132540   5.093   1.285   4.467
10547SOL    HW232541   5.139   1.439   4.500
10548SOL     OW32542   0.646   4.188   4.412
10548SOL    HW132543   0.723   4.129   4.438
10548SOL    HW232544   0.562   4.153   4.454
10549SOL     OW32545   0.336   1.098   0.634
10549SOL    HW132546   0.311   1.194   0.651
10549SOL    HW232547   0.419   1.095   0.578
10550SOL     OW32548   4.117   6.859   3.362
10550SOL    HW132549   4.099   6.774   3.313
10550SOL    HW232550   4.114   6.935   3.298
10551SOL     OW32551   2.005   1.655   6.192
10551SOL    HW132552   1.958   1.641   6.279
10551SOL    HW232553   1.950   1.615   6.118
10552SOL     OW32554   2.584   0.610   5.484
10552SOL    HW132555   2.620   0.599   5.392
10552SOL    HW232556   2.484   0.615   5.481
10553SOL     OW32557   6.882   4.501   0.780
10553SOL    HW132558   6.901   4.403   0.776
10553SOL    HW232559   6.884   4.540   0.687
10554SOL     OW32560   5.436   5.470   2.483
10554SOL    HW132561   5.477   5.529   2.552
10554SOL    HW232562   5.497   5.393   2.465
10555SOL     OW32563   2.896   2.271   0.874
10555SOL    HW132564   2.916   2.178   0.907
10555SOL    HW232565   2.921   2.337   0.945
10556SOL     OW32566   3.116   1.519   3.861
10556SOL    HW132567   3.031   1.559   3.897
10556SOL    HW232568   3.098   1.428   3.825
10557SOL     OW32569   1.983   3.260   4.380
10557SOL    HW132570   1.963   3.350   4.343
10557SOL    HW232571   2.050   3.214   4.321
10558SOL     OW32572   3.426   5.434   5.941
10558SOL    HW132573   3.421   5.490   6.024
10558SOL    HW232574   3.494   5.362   5.954
10559SOL     OW32575   3.563   0.824   0.730
10559SOL    HW132576   3.588   0.921   0.731
10559SOL    HW232577   3.634   0.771   0.776
10560SOL     OW32578   4.103   6.494   1.425
10560SOL    HW132579   4.053   6.472   1.509
10560SOL    HW232580   4.093   6.419   1.359
10561SOL     OW32581   3.674   4.622   1.588
10561SOL    HW132582   3.635   4.608   1.679
10561SOL    HW232583   3.650   4.544   1.529
10562SOL     OW32584   3.692   5.730   0.123
10562SOL    HW132585   3.648   5.652   0.079
10562SOL    HW232586   3.776   5.753   0.075
10563SOL     OW32587   1.125   0.857   0.986
10563SOL    HW132588   1.118   0.788   0.914
10563SOL    HW232589   1.187   0.930   0.956
10564SOL     OW32590   6.064   5.962   3.802
10564SOL    HW132591   6.017   6.047   3.829
10564SOL    HW232592   6.161   5.968   3.826
10565SOL     OW32593   6.497   6.689   5.777
10565SOL    HW132594   6.566   6.722   5.712
10565SOL    HW232595   6.538   6.621   5.837
10566SOL     OW32596   2.761   2.474   6.998
10566SOL    HW132597   2.672   2.451   0.013
10566SOL    HW232598   2.805   2.392   6.963
10567SOL     OW32599   2.295   2.453   5.789
10567SOL    HW132600   2.375   2.479   5.843
10567SOL    HW232601   2.257   2.533   5.744
10568SOL     OW32602   6.052   2.501   6.976
10568SOL    HW132603   6.081   2.435   0.021
10568SOL    HW232604   6.008   2.453   6.900
10569SOL     OW32605   5.476   1.139   1.595
10569SOL    HW132606   5.574   1.120   1.593
10569SOL    HW232607   5.427   1.064   1.551
10570SOL     OW32608   1.613   4.631   3.330
10570SOL    HW132609   1.578   4.540   3.353
10570SOL    HW232610   1.615   4.642   3.231
10571SOL     OW32611   0.395   3.882   5.498
10571SOL    HW132612   0.364   3.898   5.591
10571SOL    HW232613   0.412   3.969   5.453
10572SOL     OW32614   6.926   5.143   2.187
10572SOL    HW132615   6.886   5.077   2.251
10572SOL    HW232616   7.018   5.114   2.162
10573SOL     OW32617   4.697   0.516   5.289
10573SOL    HW132618   4.733   0.606   5.266
10573SOL    HW232619   4.714   0.453   5.213
10574SOL     OW32620   6.661   1.144   3.696
10574SOL    HW132621   6.623   1.195   3.773
10574SOL    HW232622   6.752   1.111   3.720
10575SOL     OW32623   6.066   0.979   3.700
10575SOL    HW132624   6.053   0.939   3.609
10575SOL    HW232625   6.015   1.066   3.706
10576SOL     OW32626   1.079   5.213   2.849
10576SOL    HW132627   1.163   5.161   2.834
10576SOL    HW232628   1.060   5.271   2.770
10577SOL     OW32629   2.242   5.133   0.745
10577SOL    HW132630   2.151   5.175   0.757
10577SOL    HW232631   2.269   5.140   0.649
10578SOL     OW32632   5.121   0.814   3.036
10578SOL    HW132633   5.066   0.742   3.079
10578SOL    HW232634   5.072   0.849   2.957
10579SOL     OW32635   3.146   2.606   1.423
10579SOL    HW132636   3.159   2.648   1.513
10579SOL    HW232637   3.072   2.653   1.375
10580SOL     OW32638   6.387   6.541   6.411
10580SOL    HW132639   6.353   6.604   6.341
10580SOL    HW232640   6.405   6.591   6.495
10581SOL     OW32641   4.894   0.103   3.105
10581SOL    HW132642   4.827   0.173   3.081
10581SOL    HW232643   4.948   0.080   3.023
10582SOL     OW32644   5.738   4.839   6.457
10582SOL    HW132645   5.719   4.886   6.543
10582SOL    HW232646   5.652   4.814   6.413
10583SOL     OW32647   4.523   0.209   4.572
10583SOL    HW132648   4.574   0.261   4.503
10583SOL    HW232649   4.574   0.208   4.658
10584SOL     OW32650   6.598   0.388   6.476
10584SOL    HW132651   6.625   0.310   6.420
10584SOL    HW232652   6.557   0.458   6.417
10585SOL     OW32653   1.688   2.028   5.592
10585SOL    HW132654   1.781   2.060   5.610
10585SOL    HW232655   1.663   1.957   5.659
10586SOL     OW32656   4.998   4.496   5.331
10586SOL    HW132657   5.080   4.553   5.327
10586SOL    HW232658   4.921   4.548   5.294
10587SOL     OW32659   7.020   5.726   6.558
10587SOL    HW132660   7.004   5.690   6.466
10587SOL    HW232661   6.991   5.659   6.626
10588SOL     OW32662   1.856   1.886   5.254
10588SOL    HW132663   1.872   1.794   5.217
10588SOL    HW232664   1.787   1.881   5.326
10589SOL     OW32665   5.349   6.627   4.206
10589SOL    HW132666   5.339   6.661   4.112
10589SOL    HW232667   5.444   6.639   4.236
10590SOL     OW32668   0.394   6.158   1.829
10590SOL    HW132669   0.440   6.132   1.914
10590SOL    HW232670   0.463   6.178   1.759
10591SOL     OW32671   2.435   1.882   1.184
10591SOL    HW132672   2.438   1.787   1.154
10591SOL    HW232673   2.389   1.889   1.272
10592SOL     OW32674   5.926   2.584   4.147
10592SOL    HW132675   5.864   2.554   4.220
10592SOL    HW232676   5.922   2.683   4.139
10593SOL     OW32677   1.306   6.390   0.795
10593SOL    HW132678   1.273   6.304   0.757
10593SOL    HW232679   1.405   6.385   0.808
10594SOL     OW32680   4.252   1.563   3.019
10594SOL    HW132681   4.196   1.499   3.073
10594SOL    HW232682   4.328   1.596   3.076
10595SOL     OW32683   6.220   0.481   6.971
10595SOL    HW132684   6.203   0.424   0.027
10595SOL    HW232685   6.186   0.434   6.889
10596SOL     OW32686   5.258   0.989   6.773
10596SOL    HW132687   5.312   0.949   6.847
10596SOL    HW232688   5.161   0.976   6.792
10597SOL     OW32689   2.259   0.627   5.449
10597SOL    HW132690   2.241   0.528   5.446
10597SOL    HW232691   2.176   0.676   5.474
10598SOL     OW32692   2.621   2.434   6.297
10598SOL    HW132693   2.570   2.415   6.381
10598SOL    HW232694   2.641   2.348   6.250
10599SOL     OW32695   6.447   4.219   6.332
10599SOL    HW132696   6.504   4.161   6.390
10599SOL    HW232697   6.351   4.201   6.351
10600SOL     OW32698   3.702   1.775   1.584
10600SOL    HW132699   3.686   1.862   1.537
10600SOL    HW232700   3.742   1.793   1.674
10601SOL     OW32701   1.085   5.372   5.606
10601SOL    HW132702   1.077   5.335   5.513
10601SOL    HW232703   1.135   5.459   5.602
10602SOL     OW32704   0.889   1.124   0.866
10602SOL    HW132705   0.820   1.070   0.915
10602SOL    HW232706   0.961   1.152   0.929
10603SOL     OW32707   4.727   6.803   3.064
10603SOL    HW132708   4.816   6.824   3.023
10603SOL    HW232709   4.676   6.888   3.079
10604SOL     OW32710   0.015   5.927   4.934
10604SOL    HW132711   0.010   6.014   4.983
10604SOL    HW232712   6.953   5.878   4.945
10605SOL     OW32713   1.680   0.147   6.519
10605SOL    HW132714   1.708   0.053   6.495
10605SOL    HW232715   1.737   0.212   6.468
10606SOL     OW32716   6.690   0.905   1.791
10606SOL    HW132717   6.611   0.898   1.731
10606SOL    HW232718   6.721   0.813   1.816
10607SOL     OW32719   4.102   4.310   0.666
10607SOL    HW132720   4.097   4.227   0.720
10607SOL    HW232721   4.170   4.372   0.707
10608SOL     OW32722   6.531   3.604   3.528
10608SOL    HW132723   6.433   3.602   3.508
10608SOL    HW232724   6.559   3.698   3.545
10609SOL     OW32725   2.365   6.693   6.834
10609SOL    HW132726   2.387   6.791   6.836
10609SOL    HW232727   2.448   6.640   6.849
10610SOL     OW32728   6.953   2.258   4.527
10610SOL    HW132729   6.980   2.340   4.476
10610SOL    HW232730   6.973   2.177   4.472
10611SOL     OW32731   2.750   5.449   5.676
10611SOL    HW132732   2.742   5.471   5.579
10611SOL    HW232733   2.705   5.361   5.694
10612SOL     OW32734   5.147   1.835   4.163
10612SOL    HW132735   5.120   1.823   4.258
10612SOL    HW232736   5.199   1.755   4.133
10613SOL     OW32737   5.884   5.948   4.978
10613SOL    HW132738   5.911   5.942   4.882
10613SOL    HW232739   5.793   5.909   4.989
10614SOL     OW32740   5.292   1.300   4.748
10614SOL    HW132741   5.222   1.242   4.790
10614SOL    HW232742   5.358   1.328   4.818
10615SOL     OW32743   3.706   1.043   5.888
10615SOL    HW132744   3.632   0.977   5.872
10615SOL    HW232745   3.667   1.129   5.921
10616SOL     OW32746   2.925   6.191   6.688
10616SOL    HW132747   2.950   6.186   6.591
10616SOL    HW232748   2.973   6.118   6.738
10617SOL     OW32749   2.288   4.357   1.461
10617SOL    HW132750   2.261   4.269   1.500
10617SOL    HW232751   2.237   4.430   1.506
10618SOL     OW32752   0.792   5.250   5.279
10618SOL    HW132753   0.809   5.155   5.251
10618SOL    HW232754   0.710   5.253   5.336
10619SOL     OW32755   0.454   2.832   3.175
10619SOL    HW132756   0.527   2.896   3.196
10619SOL    HW232757   0.418   2.793   3.260
10620SOL     OW32758   1.362   6.874   5.230
10620SOL    HW132759   1.332   6.806   5.162
10620SOL    HW232760   1.315   6.858   5.316
10621SOL     OW32761   0.025   4.563   2.167
10621SOL    HW132762   0.030   4.657   2.131
10621SOL    HW232763   0.117   4.523   2.166
10622SOL     OW32764   4.471   2.548   1.406
10622SOL    HW132765   4.516   2.491   1.475
10622SOL    HW232766   4.420   2.491   1.343
10623SOL     OW32767   6.253   6.101   5.161
10623SOL    HW132768   6.168   6.154   5.154
10623SOL    HW232769   6.270   6.055   5.074
10624SOL     OW32770   0.228   2.704   5.063
10624SOL    HW132771   0.225   2.684   4.965
10624SOL    HW232772   0.322   2.702   5.095
10625SOL     OW32773   0.624   3.858   1.364
10625SOL    HW132774   0.675   3.858   1.450
10625SOL    HW232775   0.686   3.875   1.287
10626SOL     OW32776   3.384   2.562   1.303
10626SOL    HW132777   3.301   2.580   1.356
10626SOL    HW232778   3.426   2.477   1.335
10627SOL     OW32779   6.186   1.493   6.558
10627SOL    HW132780   6.091   1.478   6.584
10627SOL    HW232781   6.239   1.522   6.638
10628SOL     OW32782   4.625   0.018   0.902
10628SOL    HW132783   4.660   6.964   0.850
10628SOL    HW232784   4.622   0.099   0.843
10629SOL     OW32785   3.345   5.014   5.001
10629SOL    HW132786   3.322   5.098   5.050
10629SOL    HW232787   3.298   5.013   4.913
10630SOL     OW32788   6.031   1.279   2.128
10630SOL    HW132789   6.093   1.335   2.183
10630SOL    HW232790   5.941   1.278   2.170
10631SOL     OW32791   3.888   4.272   5.259
10631SOL    HW132792   3.843   4.343   5.312
10631SOL    HW232793   3.968   4.311   5.212
10632SOL     OW32794   4.832   6.064   3.058
10632SOL    HW132795   4.738   6.080   3.088
10632SOL    HW232796   4.881   6.009   3.126
10633SOL     OW32797   2.500   2.436   1.468
10633SOL    HW132798   2.511   2.343   1.434
10633SOL    HW232799   2.453   2.435   1.556
10634SOL     OW32800   1.864   5.403   0.301
10634SOL    HW132801   1.864   5.390   0.401
10634SOL    HW232802   1.819   5.325   0.258
10635SOL     OW32803   2.163   3.319   6.839
10635SOL    HW132804   2.199   3.232   6.871
10635SOL    HW232805   2.109   3.303   6.756
10636SOL     OW32806   0.203   1.872   1.508
10636SOL    HW132807   0.122   1.824   1.540
10636SOL    HW232808   0.178   1.937   1.437
10637SOL     OW32809   1.271   5.235   6.300
10637SOL    HW132810   1.328   5.163   6.260
10637SOL    HW232811   1.264   5.312   6.237
10638SOL     OW32812   5.513   6.111   2.417
10638SOL    HW132813   5.585   6.180   2.424
10638SOL    HW232814   5.554   6.020   2.414
10639SOL     OW32815   1.757   3.573   2.245
10639SOL    HW132816   1.784   3.605   2.336
10639SOL    HW232817   1.830   3.594   2.180
10640SOL     OW32818   4.893   0.386   3.286
10640SOL    HW132819   4.910   0.328   3.366
10640SOL    HW232820   4.820   0.346   3.231
10641SOL     OW32821   2.185   1.739   3.301
10641SOL    HW132822   2.199   1.654   3.352
10641SOL    HW232823   2.269   1.793   3.303
10642SOL     OW32824   6.267   1.769   0.564
10642SOL    HW132825   6.202   1.755   0.489
10642SOL    HW232826   6.234   1.842   0.623
10643SOL     OW32827   2.318   6.069   5.417
10643SOL    HW132828   2.278   5.987   5.376
10643SOL    HW232829   2.302   6.068   5.515
10644SOL     OW32830   5.506   3.367   1.374
10644SOL    HW132831   5.551   3.340   1.290
10644SOL    HW232832   5.575   3.376   1.447
10645SOL     OW32833   2.368   2.344   4.195
10645SOL    HW132834   2.408   2.262   4.154
10645SOL    HW232835   2.286   2.370   4.144
10646SOL     OW32836   6.758   0.480   5.653
10646SOL    HW132837   6.826   0.411   5.676
10646SOL    HW232838   6.768   0.559   5.713
10647SOL     OW32839   3.497   5.385   4.968
10647SOL    HW132840   3.565   5.406   4.898
10647SOL    HW232841   3.511   5.446   5.046
10648SOL     OW32842   5.937   5.534   6.627
10648SOL    HW132843   6.037   5.535   6.635
10648SOL    HW232844   5.907   5.617   6.581
10649SOL     OW32845   0.912   3.567   3.078
10649SOL    HW132846   0.961   3.535   2.997
10649SOL    HW232847   0.815   3.547   3.068
10650SOL     OW32848   0.713   0.275   4.164
10650SOL    HW132849   0.730   0.288   4.066
10650SOL    HW232850   0.622   0.311   4.187
10651SOL     OW32851   6.434   6.000   5.917
10651SOL    HW132852   6.372   5.942   5.865
10651SOL    HW232853   6.509   6.030   5.859
10652SOL     OW32854   1.960   6.803   6.155
10652SOL    HW132855   1.869   6.838   6.179
10652SOL    HW232856   1.992   6.851   6.073
10653SOL     OW32857   3.559   5.929   5.279
10653SOL    HW132858   3.643   5.888   5.315
10653SOL    HW232859   3.577   5.967   5.189
10654SOL     OW32860   5.042   0.578   5.886
10654SOL    HW132861   5.019   0.616   5.976
10654SOL    HW232862   5.048   0.652   5.819
10655SOL     OW32863   1.798   4.678   7.017
10655SOL    HW132864   1.838   4.589   0.015
10655SOL    HW232865   1.860   4.750   0.023
10656SOL     OW32866   6.760   1.224   2.368
10656SOL    HW132867   6.807   1.293   2.424
10656SOL    HW232868   6.820   1.144   2.357
10657SOL     OW32869   6.207   0.862   4.609
10657SOL    HW132870   6.123   0.824   4.570
10657SOL    HW232871   6.274   0.789   4.623
10658SOL     OW32872   6.233   4.444   4.738
10658SOL    HW132873   6.271   4.520   4.686
10658SOL    HW232874   6.139   4.464   4.764
10659SOL     OW32875   1.221   4.909   0.983
10659SOL    HW132876   1.271   4.995   0.975
10659SOL    HW232877   1.242   4.851   0.904
10660SOL     OW32878   5.840   4.112   5.843
10660SOL    HW132879   5.840   4.068   5.933
10660SOL    HW232880   5.840   4.041   5.772
10661SOL     OW32881   1.709   6.271   0.850
10661SOL    HW132882   1.793   6.259   0.796
10661SOL    HW232883   1.643   6.200   0.825
10662SOL     OW32884   4.614   0.881   2.424
10662SOL    HW132885   4.621   0.859   2.521
10662SOL    HW232886   4.651   0.806   2.369
10663SOL     OW32887   0.735   1.268   2.879
10663SOL    HW132888   0.654   1.230   2.835
10663SOL    HW232889   0.815   1.253   2.821
10664SOL     OW32890   6.459   4.151   5.405
10664SOL    HW132891   6.360   4.138   5.408
10664SOL    HW232892   6.480   4.238   5.360
10665SOL     OW32893   1.597   2.175   6.873
10665SOL    HW132894   1.528   2.116   6.914
10665SOL    HW232895   1.615   2.145   6.779
10666SOL     OW32896   3.209   3.997   1.970
10666SOL    HW132897   3.172   4.049   1.893
10666SOL    HW232898   3.142   3.929   1.999
10667SOL     OW32899   4.786   2.182   3.800
10667SOL    HW132900   4.793   2.250   3.726
10667SOL    HW232901   4.855   2.201   3.869
10668SOL     OW32902   3.496   1.445   4.799
10668SOL    HW132903   3.470   1.526   4.748
10668SOL    HW232904   3.595   1.434   4.796
10669SOL     OW32905   6.568   0.563   1.370
10669SOL    HW132906   6.559   0.613   1.283
10669SOL    HW232907   6.549   0.466   1.355
10670SOL     OW32908   5.655   4.766   4.936
10670SOL    HW132909   5.567   4.814   4.936
10670SOL    HW232910   5.641   4.671   4.964
10671SOL     OW32911   1.358   1.768   4.334
10671SOL    HW132912   1.388   1.746   4.427
10671SOL    HW232913   1.367   1.867   4.319
10672SOL     OW32914   6.497   4.203   1.792
10672SOL    HW132915   6.432   4.188   1.717
10672SOL    HW232916   6.456   4.176   1.878
10673SOL     OW32917   0.568   0.856   0.232
10673SOL    HW132918   0.629   0.878   0.157
10673SOL    HW232919   0.620   0.814   0.306
10674SOL     OW32920   3.980   3.409   3.808
10674SOL    HW132921   3.934   3.472   3.746
10674SOL    HW232922   4.035   3.344   3.756
10675SOL     OW32923   2.154   0.206   6.484
10675SOL    HW132924   2.087   0.236   6.552
10675SOL    HW232925   2.111   0.204   6.394
10676SOL     OW32926   0.305   5.988   5.102
10676SOL    HW132927   0.275   5.910   5.157
10676SOL    HW232928   0.334   5.956   5.011
10677SOL     OW32929   1.654   0.705   1.542
10677SOL    HW132930   1.623   0.731   1.451
10677SOL    HW232931   1.596   0.749   1.611
10678SOL     OW32932   4.318   5.103   4.328
10678SOL    HW132933   4.379   5.033   4.291
10678SOL    HW232934   4.302   5.086   4.425
10679SOL     OW32935   4.004   5.558   6.271
10679SOL    HW132936   3.916   5.510   6.277
10679SOL    HW232937   4.059   5.516   6.199
10680SOL     OW32938   3.788   1.961   3.851
10680SOL    HW132939   3.748   1.900   3.782
10680SOL    HW232940   3.818   2.046   3.808
10681SOL     OW32941   6.842   3.531   0.449
10681SOL    HW132942   6.922   3.535   0.510
10681SOL    HW232943   6.831   3.620   0.403
10682SOL     OW32944   7.014   2.408   5.332
10682SOL    HW132945   0.011   2.505   5.316
10682SOL    HW232946   7.024   2.358   5.247
10683SOL     OW32947   4.977   0.729   3.802
10683SOL    HW132948   5.032   0.788   3.744
10683SOL    HW232949   4.943   0.652   3.748
10684SOL     OW32950   4.448   4.578   2.606
10684SOL    HW132951   4.515   4.513   2.640
10684SOL    HW232952   4.459   4.588   2.507
10685SOL     OW32953   0.690   5.923   1.325
10685SOL    HW132954   0.707   5.976   1.408
10685SOL    HW232955   0.762   5.854   1.314
10686SOL     OW32956   1.464   3.853   5.846
10686SOL    HW132957   1.458   3.755   5.866
10686SOL    HW232958   1.526   3.896   5.913
10687SOL     OW32959   6.017   5.474   4.226
10687SOL    HW132960   6.111   5.454   4.198
10687SOL    HW232961   5.954   5.425   4.166
10688SOL     OW32962   5.738   3.168   3.100
10688SOL    HW132963   5.835   3.193   3.106
10688SOL    HW232964   5.691   3.233   3.040
10689SOL     OW32965   6.513   0.327   3.013
10689SOL    HW132966   6.444   0.255   3.027
10689SOL    HW232967   6.590   0.311   3.074
10690SOL     OW32968   0.035   5.638   3.742
10690SOL    HW132969   6.982   5.690   3.779
10690SOL    HW232970   0.061   5.567   3.808
10691SOL     OW32971   1.626   1.972   2.193
10691SOL    HW132972   1.646   1.874   2.191
10691SOL    HW232973   1.572   1.996   2.112
10692SOL     OW32974   2.326   6.978   4.037
10692SOL    HW132975   2.234   7.006   4.009
10692SOL    HW232976   2.362   6.912   3.972
10693SOL     OW32977   1.498   6.122   1.442
10693SOL    HW132978   1.412   6.091   1.484
10693SOL    HW232979   1.544   6.044   1.400
10694SOL     OW32980   5.254   6.332   6.873
10694SOL    HW132981   5.341   6.316   6.919
10694SOL    HW232982   5.271   6.362   6.779
10695SOL     OW32983   1.693   2.051   2.789
10695SOL    HW132984   1.767   1.993   2.755
10695SOL    HW232985   1.616   2.048   2.726
10696SOL     OW32986   6.293   4.562   3.543
10696SOL    HW132987   6.370   4.526   3.491
10696SOL    HW232988   6.245   4.485   3.587
10697SOL     OW32989   0.409   6.803   5.213
10697SOL    HW132990   0.379   6.880   5.157
10697SOL    HW232991   0.509   6.795   5.208
10698SOL     OW32992   5.435   4.620   0.008
10698SOL    HW132993   5.534   4.626   0.001
10698SOL    HW232994   5.403   4.676   0.084
10699SOL     OW32995   3.912   4.503   1.676
10699SOL    HW132996   3.975   4.545   1.741
10699SOL    HW232997   3.848   4.573   1.643
10700SOL     OW32998   5.648   6.576   0.468
10700SOL    HW132999   5.564   6.538   0.506
10700SOL    HW233000   5.634   6.672   0.444
10701SOL     OW33001   2.534   6.626   6.537
10701SOL    HW133002   2.587   6.700   6.578
10701SOL    HW233003   2.445   6.621   6.583
10702SOL     OW33004   5.597   3.210   1.869
10702SOL    HW133005   5.597   3.252   1.960
10702SOL    HW233006   5.503   3.186   1.844
10703SOL     OW33007   2.705   3.042   5.363
10703SOL    HW133008   2.641   3.028   5.287
10703SOL    HW233009   2.796   3.009   5.336
10704SOL     OW33010   6.188   5.388   1.960
10704SOL    HW133011   6.192   5.302   1.909
10704SOL    HW233012   6.093   5.420   1.964
10705SOL     OW33013   6.072   5.194   1.629
10705SOL    HW133014   6.157   5.161   1.589
10705SOL    HW233015   6.049   5.138   1.709
10706SOL     OW33016   4.427   0.346   2.980
10706SOL    HW133017   4.423   0.444   2.996
10706SOL    HW233018   4.350   0.302   3.028
10707SOL     OW33019   0.250   6.603   4.405
10707SOL    HW133020   0.318   6.649   4.348
10707SOL    HW233021   0.206   6.530   4.352
10708SOL     OW33022   3.533   1.335   1.241
10708SOL    HW133023   3.571   1.311   1.330
10708SOL    HW233024   3.477   1.418   1.250
10709SOL     OW33025   5.463   5.406   5.689
10709SOL    HW133026   5.475   5.494   5.735
10709SOL    HW233027   5.536   5.392   5.623
10710SOL     OW33028   6.292   0.553   4.388
10710SOL    HW133029   6.337   0.466   4.370
10710SOL    HW233030   6.289   0.569   4.487
10711SOL     OW33031   2.109   6.501   4.380
10711SOL    HW133032   2.067   6.423   4.335
10711SOL    HW233033   2.051   6.531   4.456
10712SOL     OW33034   2.954   0.714   2.217
10712SOL    HW133035   2.967   0.673   2.127
10712SOL    HW233036   3.016   0.670   2.282
10713SOL     OW33037   0.656   3.522   1.887
10713SOL    HW133038   0.706   3.435   1.883
10713SOL    HW233039   0.563   3.505   1.918
10714SOL     OW33040   5.705   3.444   5.412
10714SOL    HW133041   5.789   3.481   5.451
10714SOL    HW233042   5.722   3.417   5.317
10715SOL     OW33043   4.653   0.670   2.251
10715SOL    HW133044   4.624   0.652   2.157
10715SOL    HW233045   4.739   0.624   2.269
10716SOL     OW33046   6.093   1.773   3.673
10716SOL    HW133047   6.003   1.757   3.714
10716SOL    HW233048   6.133   1.856   3.712
10717SOL     OW33049   1.300   2.445   1.465
10717SOL    HW133050   1.359   2.526   1.466
10717SOL    HW233051   1.260   2.435   1.374
10718SOL     OW33052   0.900   3.007   0.113
10718SOL    HW133053   0.957   3.001   0.195
10718SOL    HW233054   0.869   2.915   0.088
10719SOL     OW33055   6.541   5.466   2.635
10719SOL    HW133056   6.479   5.414   2.578
10719SOL    HW233057   6.602   5.404   2.684
10720SOL     OW33058   0.373   4.456   5.117
10720SOL    HW133059   0.319   4.380   5.081
10720SOL    HW233060   0.463   4.457   5.073
10721SOL     OW33061   5.656   3.951   5.078
10721SOL    HW133062   5.614   3.956   4.987
10721SOL    HW233063   5.657   3.856   5.108
10722SOL     OW33064   0.922   4.985   6.722
10722SOL    HW133065   0.933   4.977   6.623
10722SOL    HW233066   0.941   4.897   6.765
10723SOL     OW33067   0.646   2.997   5.611
10723SOL    HW133068   0.678   2.957   5.697
10723SOL    HW233069   0.664   2.934   5.536
10724SOL     OW33070   6.619   1.843   6.705
10724SOL    HW133071   6.589   1.828   6.611
10724SOL    HW233072   6.600   1.938   6.731
10725SOL     OW33073   1.365   5.684   4.038
10725SOL    HW133074   1.361   5.680   4.138
10725SOL    HW233075   1.356   5.591   4.001
10726SOL     OW33076   5.516   0.189   5.225
10726SOL    HW133077   5.467   0.276   5.214
10726SOL    HW233078   5.612   0.207   5.243
10727SOL     OW33079   0.343   5.097   5.202
10727SOL    HW133080   0.345   5.001   5.174
10727SOL    HW233081   0.349   5.103   5.302
10728SOL     OW33082   0.065   5.967   6.641
10728SOL    HW133083   0.154   6.009   6.622
10728SOL    HW233084   0.061   5.877   6.599
10729SOL     OW33085   5.550   1.650   2.087
10729SOL    HW133086   5.518   1.637   2.181
10729SOL    HW233087   5.508   1.582   2.028
10730SOL     OW33088   2.068   1.317   1.410
10730SOL    HW133089   1.972   1.341   1.395
10730SOL    HW233090   2.074   1.247   1.482
10731SOL     OW33091   3.132   6.390   0.670
10731SOL    HW133092   3.052   6.443   0.641
10731SOL    HW233093   3.105   6.323   0.739
10732SOL     OW33094   5.868   5.213   4.647
10732SOL    HW133095   5.903   5.119   4.650
10732SOL    HW233096   5.849   5.239   4.553
10733SOL     OW33097   6.814   1.800   0.844
10733SOL    HW133098   6.855   1.866   0.780
10733SOL    HW233099   6.721   1.780   0.815
10734SOL     OW33100   0.960   0.974   0.139
10734SOL    HW133101   0.946   0.993   0.236
10734SOL    HW233102   0.883   0.920   0.104
10735SOL     OW33103   1.016   3.128   2.818
10735SOL    HW133104   1.096   3.168   2.772
10735SOL    HW233105   1.042   3.098   2.910
10736SOL     OW33106   1.586   0.168   3.437
10736SOL    HW133107   1.641   0.249   3.416
10736SOL    HW233108   1.495   0.196   3.469
10737SOL     OW33109   1.814   2.175   1.120
10737SOL    HW133110   1.886   2.142   1.181
10737SOL    HW233111   1.835   2.268   1.092
10738SOL     OW33112   2.601   0.292   3.431
10738SOL    HW133113   2.629   0.388   3.439
10738SOL    HW233114   2.630   0.242   3.513
10739SOL     OW33115   1.127   1.817   0.765
10739SOL    HW133116   1.208   1.792   0.817
10739SOL    HW233117   1.057   1.747   0.774
10740SOL     OW33118   0.041   4.456   5.088
10740SOL    HW133119   0.063   4.546   5.125
10740SOL    HW233120   6.988   4.464   5.025
10741SOL     OW33121   5.536   0.089   1.107
10741SOL    HW133122   5.561   0.165   1.047
10741SOL    HW233123   5.531   0.121   1.201
10742SOL     OW33124   5.206   0.669   0.786
10742SOL    HW133125   5.120   0.623   0.807
10742SOL    HW233126   5.227   0.657   0.689
10743SOL     OW33127   2.575   1.079   5.698
10743SOL    HW133128   2.572   1.008   5.627
10743SOL    HW233129   2.606   1.039   5.784
10744SOL     OW33130   3.656   1.665   1.082
10744SOL    HW133131   3.692   1.657   1.175
10744SOL    HW233132   3.584   1.734   1.080
10745SOL     OW33133   0.190   5.690   6.899
10745SOL    HW133134   0.201   5.622   6.971
10745SOL    HW233135   0.167   5.778   6.940
10746SOL     OW33136   1.744   4.355   1.149
10746SOL    HW133137   1.658   4.304   1.151
10746SOL    HW233138   1.799   4.331   1.229
10747SOL     OW33139   4.117   1.163   4.246
10747SOL    HW133140   4.151   1.148   4.340
10747SOL    HW233141   4.046   1.233   4.247
10748SOL     OW33142   4.954   1.031   1.035
10748SOL    HW133143   4.989   1.125   1.040
10748SOL    HW233144   4.992   0.986   0.954
10749SOL     OW33145   1.079   5.657   2.729
10749SOL    HW133146   1.147   5.677   2.800
10749SOL    HW233147   1.116   5.682   2.640
10750SOL     OW33148   4.456   6.071   5.232
10750SOL    HW133149   4.536   6.016   5.255
10750SOL    HW233150   4.373   6.016   5.245
10751SOL     OW33151   1.899   3.838   4.353
10751SOL    HW133152   1.843   3.919   4.368
10751SOL    HW233153   1.942   3.842   4.263
10752SOL     OW33154   6.026   3.973   6.282
10752SOL    HW133155   6.061   4.064   6.304
10752SOL    HW233156   6.075   3.904   6.335
10753SOL     OW33157   4.508   6.224   4.120
10753SOL    HW133158   4.550   6.178   4.042
10753SOL    HW233159   4.563   6.303   4.147
10754SOL     OW33160   0.689   1.533   2.876
10754SOL    HW133161   0.652   1.554   2.966
10754SOL    HW233162   0.728   1.441   2.876
10755SOL     OW33163   6.628   0.877   6.294
10755SOL    HW133164   6.721   0.907   6.316
10755SOL    HW233165   6.568   0.957   6.288
10756SOL     OW33166   6.871   4.749   0.103
10756SOL    HW133167   6.970   4.735   0.098
10756SOL    HW233168   6.827   4.703   0.025
10757SOL     OW33169   2.126   2.933   0.135
10757SOL    HW133170   2.082   3.018   0.165
10757SOL    HW233171   2.171   2.890   0.213
10758SOL     OW33172   0.296   6.891   4.113
10758SOL    HW133173   0.229   6.914   4.184
10758SOL    HW233174   0.273   6.802   4.074
10759SOL     OW33175   1.808   3.431   1.189
10759SOL    HW133176   1.882   3.387   1.138
10759SOL    HW233177   1.744   3.361   1.221
10760SOL     OW33178   6.435   1.612   2.257
10760SOL    HW133179   6.456   1.600   2.160
10760SOL    HW233180   6.397   1.703   2.272
10761SOL     OW33181   1.079   0.042   6.439
10761SOL    HW133182   1.098   0.051   6.537
10761SOL    HW233183   1.130   0.113   6.389
10762SOL     OW33184   3.918   2.165   4.396
10762SOL    HW133185   3.872   2.161   4.307
10762SOL    HW233186   3.873   2.103   4.460
10763SOL     OW33187   5.264   6.586   2.560
10763SOL    HW133188   5.272   6.523   2.637
10763SOL    HW233189   5.170   6.584   2.525
10764SOL     OW33190   4.864   2.536   5.887
10764SOL    HW133191   4.855   2.567   5.792
10764SOL    HW233192   4.944   2.580   5.928
10765SOL     OW33193   5.393   2.257   0.139
10765SOL    HW133194   5.431   2.199   0.212
10765SOL    HW233195   5.296   2.238   0.128
10766SOL     OW33196   4.977   3.853   0.319
10766SOL    HW133197   4.906   3.790   0.352
10766SOL    HW233198   4.942   3.947   0.323
10767SOL     OW33199   1.211   0.904   0.228
10767SOL    HW133200   1.197   0.845   0.307
10767SOL    HW233201   1.124   0.916   0.179
10768SOL     OW33202   4.469   4.102   1.618
10768SOL    HW133203   4.461   4.138   1.711
10768SOL    HW233204   4.514   4.013   1.620
10769SOL     OW33205   2.430   4.504   5.248
10769SOL    HW133206   2.341   4.459   5.254
10769SOL    HW233207   2.429   4.588   5.303
10770SOL     OW33208   5.615   0.939   5.403
10770SOL    HW133209   5.660   0.889   5.478
10770SOL    HW233210   5.538   0.991   5.439
10771SOL     OW33211   6.102   0.628   3.369
10771SOL    HW133212   6.067   0.542   3.334
10771SOL    HW233213   6.189   0.612   3.416
10772SOL     OW33214   5.940   6.456   4.069
10772SOL    HW133215   5.974   6.547   4.049
10772SOL    HW233216   5.875   6.460   4.145
10773SOL     OW33217   6.383   5.708   6.988
10773SOL    HW133218   6.423   5.783   0.016
10773SOL    HW233219   6.309   5.743   6.930
10774SOL     OW33220   2.377   1.455   0.166
10774SOL    HW133221   2.414   1.409   0.247
10774SOL    HW233222   2.384   1.554   0.177
10775SOL     OW33223   0.434   4.510   1.515
10775SOL    HW133224   0.509   4.568   1.482
10775SOL    HW233225   0.348   4.542   1.477
10776SOL     OW33226   0.050   1.108   6.613
10776SOL    HW133227   0.019   1.050   6.538
10776SOL    HW233228   6.995   1.142   6.664
10777SOL     OW33229   3.298   5.398   2.970
10777SOL    HW133230   3.331   5.452   3.047
10777SOL    HW233231   3.268   5.308   3.003
10778SOL     OW33232   5.899   0.070   4.355
10778SOL    HW133233   5.913   6.995   4.351
10778SOL    HW233234   5.985   0.116   4.332
10779SOL     OW33235   6.514   3.451   4.086
10779SOL    HW133236   6.525   3.374   4.023
10779SOL    HW233237   6.419   3.483   4.084
10780SOL     OW33238   2.093   0.490   3.971
10780SOL    HW133239   2.086   0.407   4.026
10780SOL    HW233240   2.184   0.496   3.931
10781SOL     OW33241   4.677   0.996   3.898
10781SOL    HW133242   4.709   1.016   3.990
10781SOL    HW233243   4.684   0.898   3.880
10782SOL     OW33244   6.242   1.928   1.783
10782SOL    HW133245   6.310   1.978   1.836
10782SOL    HW233246   6.161   1.912   1.840
10783SOL     OW33247   0.656   3.255   2.960
10783SOL    HW133248   0.718   3.308   2.902
10783SOL    HW233249   0.575   3.310   2.980
10784SOL     OW33250   3.461   6.527   4.393
10784SOL    HW133251   3.543   6.476   4.366
10784SOL    HW233252   3.463   6.618   4.351
10785SOL     OW33253   0.143   4.514   1.201
10785SOL    HW133254   0.225   4.550   1.157
10785SOL    HW233255   0.065   4.573   1.180
10786SOL     OW33256   6.019   4.288   3.505
10786SOL    HW133257   6.097   4.312   3.564
10786SOL    HW233258   5.939   4.341   3.532
10787SOL     OW33259   2.282   1.522   5.137
10787SOL    HW133260   2.297   1.598   5.074
10787SOL    HW233261   2.260   1.558   5.228
10788SOL     OW33262   1.874   4.558   6.098
10788SOL    HW133263   1.818   4.535   6.019
10788SOL    HW233264   1.913   4.475   6.137
10789SOL     OW33265   0.144   3.184   6.462
10789SOL    HW133266   0.105   3.095   6.439
10789SOL    HW233267   0.243   3.181   6.452
10790SOL     OW33268   1.363   0.586   1.886
10790SOL    HW133269   1.416   0.518   1.936
10790SOL    HW233270   1.273   0.597   1.930
10791SOL     OW33271   6.666   0.135   1.528
10791SOL    HW133272   6.717   0.072   1.586
10791SOL    HW233273   6.595   0.180   1.582
10792SOL     OW33274   2.990   3.815   4.037
10792SOL    HW133275   3.039   3.902   4.036
10792SOL    HW233276   2.974   3.787   4.131
10793SOL     OW33277   5.511   3.375   4.652
10793SOL    HW133278   5.430   3.402   4.705
10793SOL    HW233279   5.534   3.447   4.587
10794SOL     OW33280   2.977   3.813   3.475
10794SOL    HW133281   2.919   3.833   3.554
10794SOL    HW233282   3.038   3.890   3.458
10795SOL     OW33283   6.624   4.903   1.787
10795SOL    HW133284   6.547   4.967   1.786
10795SOL    HW233285   6.692   4.932   1.719
10796SOL     OW33286   5.665   0.357   6.278
10796SOL    HW133287   5.726   0.280   6.300
10796SOL    HW233288   5.718   0.442   6.278
10797SOL     OW33289   3.768   2.728   1.472
10797SOL    HW133290   3.688   2.788   1.461
10797SOL    HW233291   3.786   2.682   1.385
10798SOL     OW33292   3.047   0.310   0.384
10798SOL    HW133293   2.953   0.282   0.364
10798SOL    HW233294   3.052   0.410   0.389
10799SOL     OW33295   3.832   0.851   1.677
10799SOL    HW133296   3.855   0.857   1.774
10799SOL    HW233297   3.735   0.871   1.664
10800SOL     OW33298   7.023   6.683   6.371
10800SOL    HW133299   0.016   6.585   6.371
10800SOL    HW233300   0.064   6.729   6.309
10801SOL     OW33301   0.476   6.112   6.068
10801SOL    HW133302   0.531   6.029   6.054
10801SOL    HW233303   0.537   6.190   6.081
10802SOL     OW33304   0.951   0.843   3.050
10802SOL    HW133305   1.021   0.804   3.108
10802SOL    HW233306   0.954   0.943   3.055
10803SOL     OW33307   2.174   4.656   5.896
10803SOL    HW133308   2.175   4.679   5.993
10803SOL    HW233309   2.247   4.591   5.876
10804SOL     OW33310   5.552   3.315   2.110
10804SOL    HW133311   5.617   3.353   2.176
10804SOL    HW233312   5.459   3.335   2.140
10805SOL     OW33313   4.409   6.465   6.429
10805SOL    HW133314   4.493   6.458   6.482
10805SOL    HW233315   4.372   6.558   6.437
10806SOL     OW33316   4.127   4.056   6.361
10806SOL    HW133317   4.108   4.154   6.371
10806SOL    HW233318   4.186   4.042   6.282
10807SOL     OW33319   1.295   0.028   2.175
10807SOL    HW133320   1.264   0.116   2.211
10807SOL    HW233321   1.375   7.022   2.226
10808SOL     OW33322   0.269   2.899   5.523
10808SOL    HW133323   0.177   2.899   5.564
10808SOL    HW233324   0.269   2.960   5.444
10809SOL     OW33325   3.269   4.956   3.565
10809SOL    HW133326   3.267   4.906   3.651
10809SOL    HW233327   3.364   4.961   3.532
10810SOL     OW33328   1.550   6.931   4.111
10810SOL    HW133329   1.544   6.889   4.201
10810SOL    HW233330   1.542   6.860   4.041
10811SOL     OW33331   4.299   4.090   6.122
10811SOL    HW133332   4.359   4.023   6.078
10811SOL    HW233333   4.301   4.175   6.070
10812SOL     OW33334   0.790   3.835   0.471
10812SOL    HW133335   0.815   3.867   0.563
10812SOL    HW233336   0.709   3.884   0.439
10813SOL     OW33337   1.729   3.876   6.705
10813SOL    HW133338   1.778   3.858   6.620
10813SOL    HW233339   1.714   3.790   6.754
10814SOL     OW33340   1.043   6.830   6.329
10814SOL    HW133341   0.961   6.797   6.282
10814SOL    HW233342   1.036   6.929   6.344
10815SOL     OW33343   4.749   4.199   3.306
10815SOL    HW133344   4.832   4.252   3.323
10815SOL    HW233345   4.775   4.108   3.272
10816SOL     OW33346   3.264   3.473   2.356
10816SOL    HW133347   3.248   3.379   2.387
10816SOL    HW233348   3.346   3.509   2.400
10817SOL     OW33349   4.182   0.514   3.621
10817SOL    HW133350   4.203   0.608   3.596
10817SOL    HW233351   4.149   0.511   3.715
10818SOL     OW33352   4.795   4.684   5.191
10818SOL    HW133353   4.856   4.761   5.208
10818SOL    HW233354   4.703   4.717   5.173
10819SOL     OW33355   6.689   5.100   6.124
10819SOL    HW133356   6.638   5.030   6.175
10819SOL    HW233357   6.783   5.068   6.110
10820SOL     OW33358   6.969   5.269   4.540
10820SOL    HW133359   0.034   5.298   4.504
10820SOL    HW233360   6.959   5.304   4.633
10821SOL     OW33361   4.380   0.606   3.374
10821SOL    HW133362   4.469   0.626   3.415
10821SOL    HW233363   4.367   0.506   3.371
10822SOL     OW33364   6.650   2.523   2.941
10822SOL    HW133365   6.704   2.533   2.857
10822SOL    HW233366   6.560   2.563   2.927
10823SOL     OW33367   1.130   0.614   2.045
10823SOL    HW133368   1.108   0.685   2.112
10823SOL    HW233369   1.055   0.548   2.039
10824SOL     OW33370   6.783   1.142   3.098
10824SOL    HW133371   6.769   1.229   3.145
10824SOL    HW233372   6.735   1.069   3.147
10825SOL     OW33373   2.304   1.961   6.463
10825SOL    HW133374   2.211   1.932   6.488
10825SOL    HW233375   2.315   1.955   6.364
10826SOL     OW33376   0.802   2.665   3.488
10826SOL    HW133377   0.880   2.616   3.448
10826SOL    HW233378   0.832   2.712   3.570
10827SOL     OW33379   0.202   3.369   4.832
10827SOL    HW133380   0.296   3.380   4.799
10827SOL    HW233381   0.151   3.312   4.768
10828SOL     OW33382   1.644   4.252   0.829
10828SOL    HW133383   1.676   4.248   0.735
10828SOL    HW233384   1.618   4.346   0.851
10829SOL     OW33385   4.684   2.969   0.276
10829SOL    HW133386   4.694   2.870   0.271
10829SOL    HW233387   4.674   2.997   0.371
10830SOL     OW33388   5.053   1.790   2.847
10830SOL    HW133389   5.105   1.813   2.929
10830SOL    HW233390   4.969   1.742   2.874
10831SOL     OW33391   2.675   6.258   3.196
10831SOL    HW133392   2.696   6.240   3.292
10831SOL    HW233393   2.726   6.194   3.138
10832SOL     OW33394   0.850   3.276   5.869
10832SOL    HW133395   0.804   3.260   5.781
10832SOL    HW233396   0.949   3.271   5.856
10833SOL     OW33397   0.596   0.756   2.000
10833SOL    HW133398   0.605   0.745   2.099
10833SOL    HW233399   0.532   0.688   1.965
10834SOL     OW33400   0.287   1.575   0.792
10834SOL    HW133401   0.280   1.512   0.715
10834SOL    HW233402   0.264   1.526   0.877
10835SOL     OW33403   5.805   2.456   0.517
10835SOL    HW133404   5.751   2.425   0.438
10835SOL    HW233405   5.821   2.554   0.510
10836SOL     OW33406   6.308   1.473   4.750
10836SOL    HW133407   6.284   1.438   4.660
10836SOL    HW233408   6.312   1.397   4.815
10837SOL     OW33409   6.294   5.551   1.044
10837SOL    HW133410   6.335   5.472   0.997
10837SOL    HW233411   6.314   5.634   0.992
10838SOL     OW33412   6.630   5.805   3.639
10838SOL    HW133413   6.648   5.902   3.657
10838SOL    HW233414   6.544   5.796   3.589
10839SOL     OW33415   4.422   3.231   1.706
10839SOL    HW133416   4.387   3.162   1.643
10839SOL    HW233417   4.462   3.187   1.786
10840SOL     OW33418   3.055   5.880   2.767
10840SOL    HW133419   2.969   5.899   2.720
10840SOL    HW233420   3.122   5.951   2.746
10841SOL     OW33421   6.315   5.141   5.851
10841SOL    HW133422   6.352   5.154   5.759
10841SOL    HW233423   6.321   5.227   5.902
10842SOL     OW33424   5.048   2.149   1.346
10842SOL    HW133425   4.950   2.159   1.327
10842SOL    HW233426   5.060   2.106   1.436
10843SOL     OW33427   0.950   1.512   1.709
10843SOL    HW133428   1.034   1.483   1.663
10843SOL    HW233429   0.952   1.611   1.723
10844SOL     OW33430   0.642   6.250   3.117
10844SOL    HW133431   0.627   6.196   3.199
10844SOL    HW233432   0.562   6.243   3.057
10845SOL     OW33433   3.427   6.745   5.452
10845SOL    HW133434   3.441   6.652   5.486
10845SOL    HW233435   3.411   6.807   5.529
10846SOL     OW33436   5.606   1.149   0.347
10846SOL    HW133437   5.545   1.079   0.310
10846SOL    HW233438   5.688   1.156   0.291
10847SOL     OW33439   3.395   2.993   7.008
10847SOL    HW133440   3.361   3.022   6.919
10847SOL    HW233441   3.362   3.055   0.055
10848SOL     OW33442   2.695   4.115   0.468
10848SOL    HW133443   2.748   4.168   0.403
10848SOL    HW233444   2.746   4.032   0.494
10849SOL     OW33445   2.298   4.745   4.107
10849SOL    HW133446   2.266   4.655   4.076
10849SOL    HW233447   2.221   4.808   4.113
10850SOL     OW33448   2.299   6.403   6.292
10850SOL    HW133449   2.398   6.417   6.282
10850SOL    HW233450   2.267   6.452   6.373
10851SOL     OW33451   2.250   3.261   0.391
10851SOL    HW133452   2.240   3.359   0.376
10851SOL    HW233453   2.309   3.245   0.471
10852SOL     OW33454   1.036   0.211   0.048
10852SOL    HW133455   1.040   0.307   0.077
10852SOL    HW233456   1.025   0.207   6.973
10853SOL     OW33457   1.624   2.655   5.113
10853SOL    HW133458   1.530   2.674   5.083
10853SOL    HW233459   1.682   2.733   5.092
10854SOL     OW33460   4.656   4.645   5.594
10854SOL    HW133461   4.570   4.696   5.595
10854SOL    HW233462   4.640   4.554   5.555
10855SOL     OW33463   3.714   0.555   0.670
10855SOL    HW133464   3.737   0.465   0.707
10855SOL    HW233465   3.744   0.626   0.733
10856SOL     OW33466   5.126   1.321   0.073
10856SOL    HW133467   5.124   1.407   0.124
10856SOL    HW233468   5.119   1.244   0.136
10857SOL     OW33469   0.398   2.176   3.036
10857SOL    HW133470   0.431   2.092   2.994
10857SOL    HW233471   0.426   2.254   2.980
10858SOL     OW33472   0.924   1.609   6.642
10858SOL    HW133473   0.932   1.561   6.554
10858SOL    HW233474   0.964   1.700   6.634
10859SOL     OW33475   1.217   4.066   4.537
10859SOL    HW133476   1.216   3.977   4.581
10859SOL    HW233477   1.138   4.075   4.477
10860SOL     OW33478   0.399   2.682   5.411
10860SOL    HW133479   0.490   2.693   5.451
10860SOL    HW233480   0.336   2.748   5.453
10861SOL     OW33481   3.441   3.869   3.524
10861SOL    HW133482   3.407   3.953   3.483
10861SOL    HW233483   3.369   3.799   3.522
10862SOL     OW33484   2.103   1.301   6.459
10862SOL    HW133485   2.012   1.339   6.477
10862SOL    HW233486   2.161   1.314   6.540
10863SOL     OW33487   3.848   0.826   3.959
10863SOL    HW133488   3.874   0.866   4.047
10863SOL    HW233489   3.805   0.737   3.974
10864SOL     OW33490   1.787   6.808   0.469
10864SOL    HW133491   1.689   6.831   0.471
10864SOL    HW233492   1.800   6.714   0.498
10865SOL     OW33493   0.334   1.455   1.682
10865SOL    HW133494   0.357   1.358   1.668
10865SOL    HW233495   0.348   1.505   1.597
10866SOL     OW33496   5.588   4.061   0.507
10866SOL    HW133497   5.606   3.964   0.523
10866SOL    HW233498   5.538   4.099   0.585
10867SOL     OW33499   3.583   3.876   6.748
10867SOL    HW133500   3.622   3.965   6.770
10867SOL    HW233501   3.603   3.853   6.653
10868SOL     OW33502   4.929   1.486   4.170
10868SOL    HW133503   4.924   1.557   4.239
10868SOL    HW233504   5.021   1.483   4.131
10869NA      NA33505   6.389   2.589   5.302
10870NA      NA33506   4.558   4.469   5.099
10871NA      NA33507   1.878   3.147   2.192
10872NA      NA33508   5.173   3.838   4.870
10873NA      NA33509   4.248   2.420   5.346
10874NA      NA33510   3.520   4.790   1.693
10875NA      NA33511   6.802   4.742   0.335
10876NA      NA33512   3.427   3.754   3.987
10877NA      NA33513   5.126   6.161   0.324
10878NA      NA33514   3.227   6.738   5.297
10879NA      NA33515   5.647   5.372   1.531
10880NA      NA33516   2.054   0.317   4.393
10881NA      NA33517   3.569   5.340   2.664
10882NA      NA33518   3.952   3.829   2.237
   7.02419   7.02419   7.02419
