Generated by trjconv : CNT in water t=  78.00000
33518
    1C        C    1   2.840   2.764   4.744
    1C        C    2   2.892   2.714   4.866
    1C        C    3   2.842   2.770   4.984
    1C        C    4   2.846   2.768   4.257
    1C        C    5   2.895   2.719   4.380
    1C        C    6   2.838   2.764   4.502
    1C        C    7   3.008   2.634   4.619
    1C        C    8   2.891   2.714   4.623
    1C        C    9   3.072   2.603   4.741
    1C        C   10   3.003   2.627   4.862
    1C        C   11   3.174   2.486   4.969
    1C        C   12   3.059   2.565   4.975
    1C        C   13   2.846   2.767   3.769
    1C        C   14   2.895   2.715   3.892
    1C        C   15   2.841   2.764   4.013
    1C        C   16   3.015   2.640   4.134
    1C        C   17   2.898   2.720   4.135
    1C        C   18   3.073   2.600   4.256
    1C        C   19   3.008   2.635   4.377
    1C        C   20   3.206   2.554   4.499
    1C        C   21   3.074   2.605   4.498
    1C        C   22   3.272   2.529   4.621
    1C        C   23   3.204   2.549   4.743
    1C        C   24   3.409   2.483   4.863
    1C        C   25   3.268   2.505   4.862
    1C        C   26   3.488   2.475   4.979
    1C        C   27   2.848   2.763   3.280
    1C        C   28   2.903   2.720   3.403
    1C        C   29   2.850   2.764   3.526
    1C        C   30   3.015   2.632   3.648
    1C        C   31   2.902   2.718   3.649
    1C        C   32   3.075   2.599   3.771
    1C        C   33   3.008   2.631   3.891
    1C        C   34   3.205   2.547   4.014
    1C        C   35   3.074   2.600   4.012
    1C        C   36   3.274   2.524   4.135
    1C        C   37   3.205   2.549   4.255
    1C        C   38   3.413   2.503   4.377
    1C        C   39   3.274   2.533   4.377
    1C        C   40   3.484   2.502   4.499
    1C        C   41   3.411   2.507   4.620
    1C        C   42   3.623   2.491   4.739
    1C        C   43   3.480   2.484   4.740
    1C        C   44   3.702   2.485   4.855
    1C        C   45   3.627   2.468   4.973
    1C        C   46   2.839   2.754   2.792
    1C        C   47   2.894   2.707   2.914
    1C        C   48   2.848   2.765   3.034
    1C        C   49   3.018   2.641   3.158
    1C        C   50   2.899   2.716   3.157
    1C        C   51   3.080   2.601   3.279
    1C        C   52   3.017   2.637   3.401
    1C        C   53   3.202   2.539   3.525
    1C        C   54   3.072   2.595   3.524
    1C        C   55   3.270   2.520   3.647
    1C        C   56   3.203   2.541   3.771
    1C        C   57   3.413   2.503   3.894
    1C        C   58   3.273   2.524   3.892
    1C        C   59   3.487   2.497   4.014
    1C        C   60   3.413   2.497   4.135
    1C        C   61   3.627   2.495   4.256
    1C        C   62   3.485   2.495   4.256
    1C        C   63   3.698   2.505   4.378
    1C        C   64   3.625   2.505   4.499
    1C        C   65   3.834   2.540   4.621
    1C        C   66   3.697   2.506   4.620
    1C        C   67   3.905   2.557   4.742
    1C        C   68   3.838   2.521   4.861
    1C        C   69   4.049   2.585   4.976
    1C        C   70   3.921   2.528   4.974
    1C        C   71   2.819   2.728   2.306
    1C        C   72   2.881   2.688   2.426
    1C        C   73   2.833   2.742   2.548
    1C        C   74   3.008   2.627   2.673
    1C        C   75   2.886   2.699   2.671
    1C        C   76   3.074   2.594   2.793
    1C        C   77   3.012   2.628   2.916
    1C        C   78   3.204   2.536   3.035
    1C        C   79   3.077   2.599   3.037
    1C        C   80   3.274   2.525   3.157
    1C        C   81   3.211   2.549   3.281
    1C        C   82   3.412   2.497   3.404
    1C        C   83   3.273   2.518   3.404
    1C        C   84   3.481   2.495   3.527
    1C        C   85   3.410   2.503   3.649
    1C        C   86   3.622   2.497   3.770
    1C        C   87   3.481   2.494   3.770
    1C        C   88   3.697   2.508   3.890
    1C        C   89   3.628   2.505   4.013
    1C        C   90   3.835   2.548   4.136
    1C        C   91   3.698   2.511   4.135
    1C        C   92   3.903   2.574   4.256
    1C        C   93   3.833   2.545   4.376
    1C        C   94   4.026   2.629   4.497
    1C        C   95   3.901   2.564   4.499
    1C        C   96   4.090   2.669   4.616
    1C        C   97   4.031   2.624   4.736
    1C        C   98   4.187   2.763   4.858
    1C        C   99   4.096   2.653   4.859
    1C        C  100   4.201   2.845   4.972
    1C        C  101   2.818   2.722   2.070
    1C        C  102   2.991   2.588   2.190
    1C        C  103   2.875   2.672   2.188
    1C        C  104   3.063   2.573   2.312
    1C        C  105   2.999   2.611   2.432
    1C        C  106   3.199   2.531   2.549
    1C        C  107   3.070   2.589   2.552
    1C        C  108   3.269   2.512   2.670
    1C        C  109   3.202   2.535   2.792
    1C        C  110   3.412   2.494   2.912
    1C        C  111   3.273   2.517   2.913
    1C        C  112   3.482   2.490   3.035
    1C        C  113   3.414   2.505   3.158
    1C        C  114   3.623   2.498   3.280
    1C        C  115   3.482   2.493   3.281
    1C        C  116   3.693   2.507   3.403
    1C        C  117   3.622   2.499   3.525
    1C        C  118   3.830   2.538   3.647
    1C        C  119   3.692   2.506   3.648
    1C        C  120   3.898   2.565   3.768
    1C        C  121   3.835   2.537   3.891
    1C        C  122   4.026   2.633   4.009
    1C        C  123   3.902   2.565   4.012
    1C        C  124   4.085   2.671   4.131
    1C        C  125   4.030   2.635   4.256
    1C        C  126   4.199   2.763   4.373
    1C        C  127   4.090   2.674   4.379
    1C        C  128   4.244   2.817   4.496
    1C        C  129   4.195   2.763   4.617
    1C        C  130   4.327   2.931   4.737
    1C        C  131   4.245   2.815   4.739
    1C        C  132   4.348   3.003   4.856
    1C        C  133   4.281   2.959   4.970
    1C        C  134   3.171   2.467   2.079
    1C        C  135   3.037   2.509   2.081
    1C        C  136   3.258   2.479   2.188
    1C        C  137   3.194   2.517   2.308
    1C        C  138   3.405   2.474   2.423
    1C        C  139   3.266   2.502   2.428
    1C        C  140   3.477   2.474   2.544
    1C        C  141   3.408   2.489   2.667
    1C        C  142   3.620   2.492   2.790
    1C        C  143   3.480   2.483   2.789
    1C        C  144   3.691   2.503   2.912
    1C        C  145   3.623   2.491   3.035
    1C        C  146   3.829   2.536   3.156
    1C        C  147   3.693   2.498   3.158
    1C        C  148   3.896   2.562   3.278
    1C        C  149   3.831   2.540   3.401
    1C        C  150   4.019   2.631   3.520
    1C        C  151   3.894   2.566   3.525
    1C        C  152   4.081   2.666   3.642
    1C        C  153   4.022   2.633   3.766
    1C        C  154   4.197   2.756   3.886
    1C        C  155   4.087   2.667   3.887
    1C        C  156   4.246   2.809   4.007
    1C        C  157   4.193   2.763   4.130
    1C        C  158   4.343   2.916   4.250
    1C        C  159   4.253   2.807   4.250
    1C        C  160   4.379   2.979   4.371
    1C        C  161   4.331   2.928   4.494
    1C        C  162   4.435   3.114   4.615
    1C        C  163   4.368   2.990   4.615
    1C        C  164   4.467   3.182   4.734
    1C        C  165   4.425   3.122   4.855
    1C        C  166   4.518   3.317   4.969
    1C        C  167   4.474   3.185   4.970
    1C        C  168   3.472   2.436   2.066
    1C        C  169   3.396   2.451   2.183
    1C        C  170   3.616   2.463   2.305
    1C        C  171   3.474   2.458   2.301
    1C        C  172   3.690   2.479   2.425
    1C        C  173   3.618   2.476   2.546
    1C        C  174   3.824   2.537   2.666
    1C        C  175   3.688   2.502   2.666
    1C        C  176   3.893   2.558   2.787
    1C        C  177   3.828   2.539   2.911
    1C        C  178   4.023   2.619   3.032
    1C        C  179   3.895   2.561   3.033
    1C        C  180   4.084   2.659   3.154
    1C        C  181   4.023   2.625   3.277
    1C        C  182   4.197   2.748   3.397
    1C        C  183   4.082   2.665   3.398
    1C        C  184   4.246   2.799   3.519
    1C        C  185   4.193   2.753   3.642
    1C        C  186   4.338   2.912   3.762
    1C        C  187   4.244   2.806   3.763
    1C        C  188   4.376   2.974   3.883
    1C        C  189   4.332   2.921   4.006
    1C        C  190   4.442   3.103   4.125
    1C        C  191   4.380   2.976   4.127
    1C        C  192   4.463   3.171   4.247
    1C        C  193   4.431   3.111   4.371
    1C        C  194   4.507   3.311   4.488
    1C        C  195   4.461   3.178   4.491
    1C        C  196   4.519   3.385   4.608
    1C        C  197   4.510   3.318   4.732
    1C        C  198   4.552   3.533   4.849
    1C        C  199   4.536   3.391   4.851
    1C        C  200   4.582   3.617   4.961
    1C        C  201   3.610   2.416   2.071
    1C        C  202   3.825   2.501   2.180
    1C        C  203   3.690   2.454   2.184
    1C        C  204   3.894   2.538   2.299
    1C        C  205   3.827   2.516   2.422
    1C        C  206   4.017   2.615   2.542
    1C        C  207   3.891   2.551   2.542
    1C        C  208   4.078   2.656   2.662
    1C        C  209   4.017   2.627   2.786
    1C        C  210   4.191   2.746   2.906
    1C        C  211   4.078   2.661   2.909
    1C        C  212   4.241   2.797   3.028
    1C        C  213   4.192   2.750   3.152
    1C        C  214   4.335   2.906   3.270
    1C        C  215   4.245   2.797   3.274
    1C        C  216   4.371   2.967   3.392
    1C        C  217   4.331   2.911   3.516
    1C        C  218   4.431   3.099   3.636
    1C        C  219   4.370   2.972   3.638
    1C        C  220   4.463   3.165   3.757
    1C        C  221   4.440   3.100   3.880
    1C        C  222   4.496   3.306   3.999
    1C        C  223   4.462   3.169   4.002
    1C        C  224   4.514   3.377   4.120
    1C        C  225   4.504   3.306   4.242
    1C        C  226   4.522   3.518   4.361
    1C        C  227   4.520   3.377   4.363
    1C        C  228   4.518   3.593   4.481
    1C        C  229   4.523   3.526   4.605
    1C        C  230   4.499   3.738   4.724
    1C        C  231   4.534   3.600   4.725
    1C        C  232   4.490   3.815   4.842
    1C        C  233   4.547   3.752   4.953
    1C        C  234   4.017   2.607   2.064
    1C        C  235   3.894   2.543   2.066
    1C        C  236   4.085   2.644   2.181
    1C        C  237   4.019   2.605   2.299
    1C        C  238   4.194   2.732   2.421
    1C        C  239   4.080   2.647   2.419
    1C        C  240   4.249   2.785   2.540
    1C        C  241   4.194   2.738   2.661
    1C        C  242   4.332   2.900   2.782
    1C        C  243   4.244   2.789   2.783
    1C        C  244   4.374   2.959   2.903
    1C        C  245   4.332   2.905   3.026
    1C        C  246   4.436   3.091   3.147
    1C        C  247   4.377   2.962   3.148
    1C        C  248   4.456   3.161   3.268
    1C        C  249   4.427   3.097   3.391
    1C        C  250   4.491   3.300   3.512
    1C        C  251   4.454   3.163   3.512
    1C        C  252   4.506   3.371   3.633
    1C        C  253   4.494   3.303   3.757
    1C        C  254   4.516   3.517   3.873
    1C        C  255   4.505   3.376   3.877
    1C        C  256   4.516   3.589   3.995
    1C        C  257   4.518   3.519   4.118
    1C        C  258   4.487   3.728   4.238
    1C        C  259   4.515   3.590   4.240
    1C        C  260   4.463   3.798   4.358
    1C        C  261   4.488   3.731   4.481
    1C        C  262   4.416   3.932   4.597
    1C        C  263   4.473   3.803   4.601
    1C        C  264   4.391   4.003   4.717
    1C        C  265   4.432   3.944   4.839
    1C        C  266   4.320   4.129   4.956
    1C        C  267   4.391   4.010   4.956
    1C        C  268   4.262   2.768   2.060
    1C        C  269   4.195   2.733   2.178
    1C        C  270   4.340   2.889   2.297
    1C        C  271   4.248   2.780   2.300
    1C        C  272   4.378   2.952   2.418
    1C        C  273   4.339   2.893   2.540
    1C        C  274   4.448   3.079   2.660
    1C        C  275   4.375   2.958   2.661
    1C        C  276   4.469   3.149   2.781
    1C        C  277   4.440   3.084   2.903
    1C        C  278   4.503   3.289   3.022
    1C        C  279   4.467   3.152   3.024
    1C        C  280   4.516   3.360   3.143
    1C        C  281   4.501   3.295   3.267
    1C        C  282   4.518   3.508   3.388
    1C        C  283   4.506   3.367   3.389
    1C        C  284   4.509   3.582   3.508
    1C        C  285   4.510   3.512   3.631
    1C        C  286   4.489   3.726   3.750
    1C        C  287   4.510   3.586   3.751
    1C        C  288   4.470   3.795   3.872
    1C        C  289   4.488   3.727   3.994
    1C        C  290   4.428   3.932   4.115
    1C        C  291   4.473   3.798   4.116
    1C        C  292   4.390   3.997   4.235
    1C        C  293   4.419   3.932   4.356
    1C        C  294   4.325   4.125   4.478
    1C        C  295   4.389   4.000   4.476
    1C        C  296   4.287   4.191   4.598
    1C        C  297   4.322   4.127   4.719
    1C        C  298   4.197   4.309   4.835
    1C        C  299   4.280   4.193   4.838
    1C        C  300   4.162   4.394   4.945
    1C        C  301   4.342   2.882   2.062
    1C        C  302   4.468   3.063   2.175
    1C        C  303   4.397   2.939   2.177
    1C        C  304   4.480   3.138   2.295
    1C        C  305   4.446   3.075   2.417
    1C        C  306   4.505   3.282   2.535
    1C        C  307   4.476   3.144   2.537
    1C        C  308   4.512   3.357   2.654
    1C        C  309   4.499   3.287   2.777
    1C        C  310   4.522   3.498   2.899
    1C        C  311   4.512   3.357   2.899
    1C        C  312   4.519   3.572   3.019
    1C        C  313   4.518   3.502   3.142
    1C        C  314   4.484   3.712   3.262
    1C        C  315   4.514   3.574   3.263
    1C        C  316   4.466   3.785   3.382
    1C        C  317   4.492   3.722   3.506
    1C        C  318   4.429   3.927   3.625
    1C        C  319   4.476   3.794   3.627
    1C        C  320   4.395   3.990   3.746
    1C        C  321   4.425   3.929   3.870
    1C        C  322   4.318   4.111   3.987
    1C        C  323   4.399   3.995   3.992
    1C        C  324   4.276   4.169   4.109
    1C        C  325   4.322   4.121   4.234
    1C        C  326   4.184   4.281   4.349
    1C        C  327   4.285   4.183   4.356
    1C        C  328   4.132   4.333   4.470
    1C        C  329   4.191   4.294   4.592
    1C        C  330   4.021   4.428   4.710
    1C        C  331   4.138   4.348   4.711
    1C        C  332   3.971   4.490   4.827
    1C        C  333   4.052   4.481   4.941
    1C        C  334   4.545   3.265   2.061
    1C        C  335   4.531   3.125   2.062
    1C        C  336   4.534   3.346   2.174
    1C        C  337   4.515   3.275   2.295
    1C        C  338   4.526   3.494   2.409
    1C        C  339   4.519   3.353   2.414
    1C        C  340   4.511   3.566   2.530
    1C        C  341   4.520   3.498   2.653
    1C        C  342   4.491   3.707   2.773
    1C        C  343   4.516   3.568   2.776
    1C        C  344   4.475   3.777   2.894
    1C        C  345   4.495   3.711   3.018
    1C        C  346   4.426   3.913   3.136
    1C        C  347   4.476   3.781   3.139
    1C        C  348   4.395   3.983   3.255
    1C        C  349   4.421   3.918   3.378
    1C        C  350   4.321   4.105   3.499
    1C        C  351   4.397   3.986   3.500
    1C        C  352   4.272   4.161   3.619
    1C        C  353   4.315   4.106   3.742
    1C        C  354   4.175   4.265   3.864
    1C        C  355   4.273   4.163   3.864
    1C        C  356   4.121   4.313   3.985
    1C        C  357   4.175   4.267   4.107
    1C        C  358   4.006   4.398   4.228
    1C        C  359   4.124   4.320   4.227
    1C        C  360   3.947   4.441   4.349
    1C        C  361   4.016   4.413   4.469
    1C        C  362   3.829   4.520   4.589
    1C        C  363   3.957   4.461   4.588
    1C        C  364   3.760   4.545   4.710
    1C        C  365   3.836   4.533   4.828
    1C        C  366   3.626   4.586   4.948
    1C        C  367   3.763   4.562   4.944
    1C        C  368   4.515   3.563   2.053
    1C        C  369   4.522   3.486   2.170
    1C        C  370   4.498   3.704   2.287
    1C        C  371   4.515   3.564   2.287
    1C        C  372   4.483   3.778   2.406
    1C        C  373   4.495   3.706   2.527
    1C        C  374   4.426   3.906   2.649
    1C        C  375   4.473   3.773   2.650
    1C        C  376   4.396   3.972   2.770
    1C        C  377   4.433   3.912   2.892
    1C        C  378   4.321   4.095   3.007
    1C        C  379   4.393   3.974   3.013
    1C        C  380   4.280   4.156   3.128
    1C        C  381   4.319   4.102   3.253
    1C        C  382   4.175   4.256   3.373
    1C        C  383   4.276   4.158   3.375
    1C        C  384   4.121   4.308   3.494
    1C        C  385   4.174   4.262   3.617
    1C        C  386   4.008   4.391   3.739
    1C        C  387   4.125   4.312   3.740
    1C        C  388   3.944   4.429   3.859
    1C        C  389   4.003   4.391   3.982
    1C        C  390   3.813   4.481   4.106
    1C        C  391   3.943   4.427   4.105
    1C        C  392   3.748   4.514   4.227
    1C        C  393   3.817   4.498   4.348
    1C        C  394   3.615   4.555   4.469
    1C        C  395   3.755   4.533   4.470
    1C        C  396   3.545   4.559   4.592
    1C        C  397   3.620   4.562   4.711
    1C        C  398   3.409   4.546   4.835
    1C        C  399   3.549   4.569   4.833
    1C        C  400   3.342   4.515   4.953
    1C        C  401   4.495   3.701   2.047
    1C        C  402   4.449   3.911   2.162
    1C        C  403   4.486   3.775   2.165
    1C        C  404   4.411   3.976   2.282
    1C        C  405   4.438   3.912   2.405
    1C        C  406   4.330   4.094   2.521
    1C        C  407   4.403   3.974   2.527
    1C        C  408   4.281   4.151   2.640
    1C        C  409   4.319   4.090   2.762
    1C        C  410   4.176   4.247   2.887
    1C        C  411   4.275   4.147   2.884
    1C        C  412   4.125   4.301   3.008
    1C        C  413   4.176   4.251   3.130
    1C        C  414   4.000   4.374   3.253
    1C        C  415   4.116   4.293   3.251
    1C        C  416   3.934   4.407   3.374
    1C        C  417   3.998   4.377   3.497
    1C        C  418   3.809   4.470   3.617
    1C        C  419   3.941   4.420   3.618
    1C        C  420   3.741   4.496   3.738
    1C        C  421   3.812   4.480   3.859
    1C        C  422   3.610   4.534   3.984
    1C        C  423   3.747   4.502   3.983
    1C        C  424   3.539   4.540   4.106
    1C        C  425   3.609   4.543   4.229
    1C        C  426   3.398   4.544   4.352
    1C        C  427   3.539   4.556   4.350
    1C        C  428   3.331   4.538   4.476
    1C        C  429   3.404   4.553   4.596
    1C        C  430   3.192   4.517   4.717
    1C        C  431   3.331   4.546   4.717
    1C        C  432   3.125   4.494   4.841
    1C        C  433   3.205   4.490   4.956
    1C        C  434   4.376   4.116   2.047
    1C        C  435   4.433   3.988   2.046
    1C        C  436   4.296   4.155   2.159
    1C        C  437   4.332   4.095   2.283
    1C        C  438   4.179   4.249   2.398
    1C        C  439   4.281   4.151   2.401
    1C        C  440   4.126   4.294   2.521
    1C        C  441   4.180   4.250   2.644
    1C        C  442   4.004   4.372   2.764
    1C        C  443   4.122   4.295   2.765
    1C        C  444   3.942   4.409   2.886
    1C        C  445   4.002   4.371   3.008
    1C        C  446   3.811   4.464   3.126
    1C        C  447   3.938   4.404   3.130
    1C        C  448   3.745   4.488   3.249
    1C        C  449   3.806   4.465   3.374
    1C        C  450   3.601   4.523   3.493
    1C        C  451   3.738   4.489   3.496
    1C        C  452   3.536   4.542   3.617
    1C        C  453   3.604   4.532   3.740
    1C        C  454   3.396   4.544   3.865
    1C        C  455   3.537   4.544   3.863
    1C        C  456   3.325   4.537   3.987
    1C        C  457   3.397   4.534   4.108
    1C        C  458   3.188   4.504   4.235
    1C        C  459   3.328   4.525   4.231
    1C        C  460   3.122   4.489   4.359
    1C        C  461   3.192   4.512   4.479
    1C        C  462   2.991   4.433   4.599
    1C        C  463   3.119   4.491   4.599
    1C        C  464   2.931   4.401   4.723
    1C        C  465   2.992   4.442   4.844
    1C        C  466   2.799   4.342   4.956
    1C        C  467   2.906   4.433   4.959
    1C        C  468   4.121   4.285   2.039
    1C        C  469   4.182   4.242   2.158
    1C        C  470   4.004   4.372   2.277
    1C        C  471   4.122   4.292   2.276
    1C        C  472   3.939   4.397   2.399
    1C        C  473   4.003   4.363   2.521
    1C        C  474   3.812   4.460   2.642
    1C        C  475   3.939   4.397   2.642
    1C        C  476   3.743   4.483   2.763
    1C        C  477   3.812   4.464   2.884
    1C        C  478   3.605   4.518   3.006
    1C        C  479   3.744   4.490   3.005
    1C        C  480   3.533   4.526   3.127
    1C        C  481   3.607   4.518   3.248
    1C        C  482   3.394   4.531   3.377
    1C        C  483   3.535   4.534   3.368
    1C        C  484   3.324   4.523   3.499
    1C        C  485   3.395   4.541   3.620
    1C        C  486   3.189   4.496   3.744
    1C        C  487   3.326   4.532   3.743
    1C        C  488   3.123   4.474   3.867
    1C        C  489   3.189   4.502   3.989
    1C        C  490   2.998   4.415   4.114
    1C        C  491   3.122   4.482   4.112
    1C        C  492   2.936   4.385   4.238
    1C        C  493   2.993   4.431   4.358
    1C        C  494   2.822   4.301   4.481
    1C        C  495   2.931   4.390   4.478
    1C        C  496   2.769   4.257   4.604
    1C        C  497   2.816   4.316   4.724
    1C        C  498   2.657   4.172   4.841
    1C        C  499   2.749   4.279   4.842
    1C        C  500   2.594   4.119   4.955
    1C        C  501   4.001   4.355   2.036
    1C        C  502   3.814   4.462   2.156
    1C        C  503   3.942   4.403   2.153
    1C        C  504   3.741   4.473   2.276
    1C        C  505   3.806   4.446   2.398
    1C        C  506   3.605   4.509   2.518
    1C        C  507   3.742   4.474   2.520
    1C        C  508   3.533   4.510   2.640
    1C        C  509   3.603   4.505   2.762
    1C        C  510   3.392   4.522   2.887
    1C        C  511   3.533   4.513   2.884
    1C        C  512   3.319   4.516   3.008
    1C        C  513   3.392   4.521   3.129
    1C        C  514   3.187   4.491   3.255
    1C        C  515   3.325   4.522   3.253
    1C        C  516   3.118   4.465   3.376
    1C        C  517   3.187   4.487   3.498
    1C        C  518   2.994   4.411   3.623
    1C        C  519   3.122   4.471   3.622
    1C        C  520   2.935   4.375   3.746
    1C        C  521   2.997   4.410   3.868
    1C        C  522   2.830   4.285   3.992
    1C        C  523   2.939   4.375   3.992
    1C        C  524   2.778   4.239   4.116
    1C        C  525   2.827   4.296   4.236
    1C        C  526   2.695   4.131   4.363
    1C        C  527   2.776   4.247   4.358
    1C        C  528   2.650   4.078   4.486
    1C        C  529   2.687   4.141   4.606
    1C        C  530   2.587   3.957   4.731
    1C        C  531   2.635   4.090   4.727
    1C        C  532   2.541   3.899   4.852
    1C        C  533   2.529   3.995   4.958
    1C        C  534   3.616   4.561   2.039
    1C        C  535   3.745   4.506   2.042
    1C        C  536   3.533   4.533   2.153
    1C        C  537   3.603   4.508   2.274
    1C        C  538   3.391   4.515   2.397
    1C        C  539   3.533   4.512   2.397
    1C        C  540   3.321   4.513   2.520
    1C        C  541   3.392   4.510   2.642
    1C        C  542   3.183   4.487   2.765
    1C        C  543   3.321   4.514   2.765
    1C        C  544   3.114   4.466   2.887
    1C        C  545   3.182   4.483   3.009
    1C        C  546   2.990   4.406   3.132
    1C        C  547   3.119   4.464   3.135
    1C        C  548   2.932   4.366   3.254
    1C        C  549   2.992   4.402   3.376
    1C        C  550   2.827   4.278   3.504
    1C        C  551   2.935   4.370   3.501
    1C        C  552   2.776   4.232   3.627
    1C        C  553   2.826   4.286   3.748
    1C        C  554   2.701   4.115   3.875
    1C        C  555   2.784   4.230   3.871
    1C        C  556   2.655   4.064   3.999
    1C        C  557   2.689   4.130   4.119
    1C        C  558   2.593   3.943   4.245
    1C        C  559   2.655   4.070   4.242
    1C        C  560   2.565   3.880   4.368
    1C        C  561   2.592   3.949   4.489
    1C        C  562   2.528   3.748   4.614
    1C        C  563   2.565   3.884   4.611
    1C        C  564   2.517   3.679   4.737
    1C        C  565   2.521   3.757   4.856
    1C        C  566   2.523   3.541   4.978
    1C        C  567   2.531   3.680   4.973
    1C        C  568   3.322   4.482   2.038
    1C        C  569   3.392   4.515   2.155
    1C        C  570   3.180   4.477   2.277
    1C        C  571   3.318   4.510   2.276
    1C        C  572   3.114   4.455   2.400
    1C        C  573   3.183   4.486   2.520
    1C        C  574   2.990   4.402   2.645
    1C        C  575   3.114   4.470   2.643
    1C        C  576   2.927   4.362   2.765
    1C        C  577   2.988   4.402   2.886
    1C        C  578   2.825   4.272   3.009
    1C        C  579   2.932   4.364   3.010
    1C        C  580   2.776   4.223   3.132
    1C        C  581   2.825   4.273   3.256
    1C        C  582   2.696   4.113   3.386
    1C        C  583   2.779   4.228   3.381
    1C        C  584   2.662   4.052   3.509
    1C        C  585   2.693   4.118   3.630
    1C        C  586   2.590   3.934   3.755
    1C        C  587   2.658   4.058   3.753
    1C        C  588   2.568   3.870   3.879
    1C        C  589   2.596   3.936   4.001
    1C        C  590   2.541   3.734   4.128
    1C        C  591   2.570   3.872   4.125
    1C        C  592   2.525   3.668   4.252
    1C        C  593   2.531   3.743   4.372
    1C        C  594   2.510   3.533   4.494
    1C        C  595   2.517   3.674   4.494
    1C        C  596   2.518   3.464   4.617
    1C        C  597   2.520   3.537   4.738
    1C        C  598   2.540   3.326   4.859
    1C        C  599   2.523   3.466   4.860
    1C        C  600   2.533   3.250   4.977
    1C        C  601   3.191   4.440   2.043
    1C        C  602   2.975   4.396   2.157
    1C        C  603   3.111   4.442   2.158
    1C        C  604   2.921   4.360   2.283
    1C        C  605   2.987   4.394   2.404
    1C        C  606   2.818   4.269   2.528
    1C        C  607   2.925   4.361   2.526
    1C        C  608   2.765   4.219   2.649
    1C        C  609   2.818   4.273   2.768
    1C        C  610   2.680   4.110   2.895
    1C        C  611   2.769   4.220   2.890
    1C        C  612   2.653   4.049   3.019
    1C        C  613   2.693   4.109   3.140
    1C        C  614   2.590   3.929   3.264
    1C        C  615   2.654   4.055   3.264
    1C        C  616   2.561   3.867   3.388
    1C        C  617   2.592   3.929   3.511
    1C        C  618   2.531   3.729   3.636
    1C        C  619   2.564   3.866   3.634
    1C        C  620   2.523   3.663   3.761
    1C        C  621   2.535   3.733   3.883
    1C        C  622   2.512   3.524   4.009
    1C        C  623   2.526   3.665   4.006
    1C        C  624   2.517   3.454   4.131
    1C        C  625   2.509   3.527   4.252
    1C        C  626   2.543   3.319   4.378
    1C        C  627   2.514   3.457   4.375
    1C        C  628   2.566   3.254   4.501
    1C        C  629   2.540   3.325   4.620
    1C        C  630   2.591   3.113   4.743
    1C        C  631   2.556   3.251   4.740
    1C        C  632   2.617   3.047   4.866
    1C        C  633   2.561   3.113   4.980
    1C        C  634   2.776   4.308   2.054
    1C        C  635   2.889   4.390   2.043
    1C        C  636   2.749   4.230   2.167
    1C        C  637   2.810   4.272   2.288
    1C        C  638   2.673   4.108   2.404
    1C        C  639   2.763   4.217   2.409
    1C        C  640   2.640   4.047   2.527
    1C        C  641   2.684   4.104   2.649
    1C        C  642   2.579   3.923   2.776
    1C        C  643   2.644   4.049   2.773
    1C        C  644   2.561   3.855   2.898
    1C        C  645   2.591   3.922   3.019
    1C        C  646   2.530   3.723   3.146
    1C        C  647   2.567   3.859   3.143
    1C        C  648   2.524   3.656   3.271
    1C        C  649   2.533   3.729   3.392
    1C        C  650   2.524   3.518   3.516
    1C        C  651   2.520   3.659   3.514
    1C        C  652   2.524   3.451   3.640
    1C        C  653   2.517   3.522   3.762
    1C        C  654   2.532   3.314   3.886
    1C        C  655   2.512   3.454   3.886
    1C        C  656   2.556   3.247   4.008
    1C        C  657   2.549   3.317   4.130
    1C        C  658   2.609   3.119   4.256
    1C        C  659   2.558   3.251   4.255
    1C        C  660   2.635   3.051   4.378
    1C        C  661   2.607   3.119   4.499
    1C        C  662   2.704   2.932   4.623
    1C        C  663   2.629   3.052   4.622
    1C        C  664   2.749   2.873   4.743
    1C        C  665   2.698   2.929   4.864
    1C        C  666   2.743   2.868   4.981
    1C        C  667   2.681   4.024   2.050
    1C        C  668   2.682   4.106   2.164
    1C        C  669   2.588   3.910   2.289
    1C        C  670   2.644   4.041   2.283
    1C        C  671   2.560   3.845   2.411
    1C        C  672   2.586   3.917   2.531
    1C        C  673   2.522   3.718   2.655
    1C        C  674   2.555   3.855   2.654
    1C        C  675   2.517   3.649   2.779
    1C        C  676   2.528   3.718   2.902
    1C        C  677   2.508   3.510   3.029
    1C        C  678   2.515   3.651   3.025
    1C        C  679   2.507   3.440   3.152
    1C        C  680   2.513   3.515   3.272
    1C        C  681   2.533   3.305   3.396
    1C        C  682   2.515   3.445   3.395
    1C        C  683   2.557   3.241   3.520
    1C        C  684   2.541   3.310   3.642
    1C        C  685   2.607   3.112   3.769
    1C        C  686   2.554   3.243   3.765
    1C        C  687   2.639   3.049   3.892
    1C        C  688   2.609   3.116   4.013
    1C        C  689   2.710   2.930   4.136
    1C        C  690   2.635   3.050   4.136
    1C        C  691   2.754   2.875   4.259
    1C        C  692   2.711   2.932   4.380
    1C        C  693   2.749   2.873   4.503
    1C        C  694   2.619   3.897   2.052
    1C        C  695   2.527   3.703   2.174
    1C        C  696   2.577   3.835   2.170
    1C        C  697   2.506   3.635   2.296
    1C        C  698   2.521   3.709   2.415
    1C        C  699   2.494   3.500   2.539
    1C        C  700   2.508   3.641   2.538
    1C        C  701   2.507   3.434   2.664
    1C        C  702   2.508   3.508   2.784
    1C        C  703   2.525   3.299   2.907
    1C        C  704   2.507   3.439   2.907
    1C        C  705   2.542   3.231   3.030
    1C        C  706   2.523   3.300   3.151
    1C        C  707   2.600   3.105   3.278
    1C        C  708   2.544   3.234   3.275
    1C        C  709   2.635   3.043   3.400
    1C        C  710   2.608   3.109   3.522
    1C        C  711   2.710   2.928   3.644
    1C        C  712   2.636   3.049   3.646
    1C        C  713   2.756   2.875   3.767
    1C        C  714   2.711   2.928   3.890
    1C        C  715   2.753   2.875   4.014
    1C        C  716   2.454   3.496   2.055
    1C        C  717   2.497   3.629   2.059
    1C        C  718   2.459   3.423   2.178
    1C        C  719   2.479   3.495   2.299
    1C        C  720   2.516   3.286   2.421
    1C        C  721   2.486   3.424   2.420
    1C        C  722   2.536   3.218   2.543
    1C        C  723   2.527   3.294   2.662
    1C        C  724   2.592   3.096   2.786
    1C        C  725   2.543   3.229   2.786
    1C        C  726   2.622   3.034   2.909
    1C        C  727   2.593   3.099   3.031
    1C        C  728   2.705   2.922   3.157
    1C        C  729   2.627   3.040   3.155
    1C        C  730   2.753   2.868   3.279
    1C        C  731   2.715   2.927   3.401
    1C        C  732   2.756   2.870   3.524
    1C        C  733   2.486   3.191   2.075
    1C        C  734   2.486   3.282   2.181
    1C        C  735   2.580   3.083   2.302
    1C        C  736   2.528   3.216   2.299
    1C        C  737   2.612   3.017   2.422
    1C        C  738   2.591   3.088   2.543
    1C        C  739   2.699   2.909   2.667
    1C        C  740   2.622   3.027   2.666
    1C        C  741   2.742   2.856   2.791
    1C        C  742   2.704   2.919   2.912
    1C        C  743   2.752   2.868   3.035
    1C        C  744   2.543   3.064   2.071
    1C        C  745   2.682   2.891   2.181
    1C        C  746   2.607   3.011   2.184
    1C        C  747   2.730   2.839   2.303
    1C        C  748   2.691   2.900   2.425
    1C        C  749   2.736   2.845   2.547
    1C        C  750   2.741   2.838   2.066
    1C        C  751   3.656   2.304   1.986
    1C        O  752   3.693   2.201   2.050
    1C        O  753   3.625   2.291   1.850
    1C        C  754   4.618   3.053   1.966
    1C        O  755   4.580   3.011   1.854
    1C        O  756   4.757   3.045   1.972
    1C        C  757   4.450   4.214   1.964
    1C        O  758   4.484   4.328   2.004
    1C        O  759   4.515   4.177   1.846
    1C        C  760   3.594   4.668   1.940
    1C        O  761   3.647   4.780   1.965
    1C        O  762   3.537   4.662   1.813
    1C        C  763   2.863   4.509   1.958
    1C        O  764   2.894   4.513   1.836
    1C        O  765   2.808   4.628   2.007
    1C        C  766   2.350   3.466   1.954
    1C        O  767   2.376   3.457   1.831
    1C        O  768   2.216   3.503   1.974
    1C        C  769   4.683   3.573   5.060
    1C        O  770   4.673   3.590   5.184
    1C        O  771   4.816   3.608   5.034
    1C        C  772   4.266   4.431   5.044
    1C        O  773   4.261   4.392   5.164
    1C        O  774   4.300   4.567   5.053
    1C        C  775   4.126   2.543   5.095
    1C        O  776   4.239   2.489   5.078
    1C        O  777   4.085   2.570   5.226
    1C        C  778   2.873   4.562   5.022
    1C        O  779   2.798   4.649   4.969
    1C        O  780   2.955   4.603   5.127
    1C        C  781   2.487   3.047   5.089
    1C        O  782   2.363   3.027   5.074
    1C        O  783   2.526   3.061   5.222
    1C        C  784   2.421   3.978   5.058
    1C        O  785   2.299   3.996   5.034
    1C        O  786   2.432   3.970   5.197
    1C        C  787   2.948   2.435   1.989
    1C        O  788   2.961   2.439   1.863
    1C        O  789   2.856   2.341   2.035
    1C        C  790   3.156   2.349   5.022
    1C        O  791   3.104   2.257   4.955
    1C        O  792   3.204   2.304   5.146
    1C        H  793   4.297   3.013   5.061
    1C        H  794   4.145   2.827   5.061
    1C        H  795   4.517   3.115   5.038
    1C        H  796   4.545   3.357   5.064
    1C        H  797   4.597   3.817   5.023
    1C        H  798   4.427   3.968   5.047
    1C        H  799   4.328   4.185   5.047
    1C        H  800   4.041   4.556   5.015
    1C        H  801   3.811   4.592   5.035
    1C        H  802   3.587   4.653   5.022
    1C        H  803   3.375   4.532   5.054
    1C        H  804   3.162   4.488   5.054
    1C        H  805   3.886   2.481   5.064
    1C        H  806   3.669   2.394   5.037
    1C        H  807   3.000   2.558   5.065
    1C        H  808   3.443   2.441   5.070
    1C        H  809   2.898   2.752   5.073
    1C        H  810   2.663   2.860   5.052
    1C        H  811   2.556   3.304   5.067
    1C        H  812   2.534   3.495   5.074
    1C        H  813   2.584   3.730   5.051
    1C        H  814   2.605   4.174   5.046
    1C        H  815   2.725   4.361   5.031
    1C        H  816   2.764   2.901   1.983
    1C        H  817   2.820   2.667   1.979
    1C        H  818   3.220   2.467   1.984
    1C        H  819   3.418   2.397   1.982
    1C        H  820   3.841   2.547   1.973
    1C        H  821   4.079   2.579   1.980
    1C        H  822   4.244   2.719   1.967
    1C        H  823   4.303   2.955   1.993
    1C        H  824   4.609   3.303   1.984
    1C        H  825   4.540   3.516   1.960
    1C        H  826   4.515   3.753   1.956
    1C        H  827   3.804   4.521   1.954
    1C        H  828   3.975   4.391   1.938
    1C        H  829   4.180   4.287   1.950
    1C        H  830   4.490   3.964   1.958
    1C        H  831   2.664   3.833   1.979
    1C        H  832   2.761   4.027   1.980
    1C        H  833   2.736   4.276   1.960
    1C        H  834   3.381   4.442   1.958
    1C        H  835   3.164   4.364   1.973
    1C        H  836   2.532   3.005   1.982
    1C        H  837   2.450   3.231   1.982
    1C        H  838   2.493   3.677   1.963
    2V3OU   H29  839   2.799   3.556   1.208
    2V3OU   C27  840   2.778   3.502   1.304
    2V3OU   H27  841   2.723   3.570   1.374
    2V3OU   H28  842   2.724   3.405   1.291
    2V3OU   O11  843   2.904   3.470   1.364
    2V3OU   C15  844   2.919   3.390   1.476
    2V3OU   C13  845   3.048   3.372   1.530
    2V3OU   C14  846   3.071   3.266   1.618
    2V3OU   C16  847   2.965   3.186   1.659
    2V3OU    H6  848   2.988   3.101   1.725
    2V3OU   C12  849   3.212   3.230   1.644
    2V3OU    O2  850   3.234   3.129   1.715
    2V3OU   C10  851   3.325   3.303   1.584
    2V3OU    C8  852   3.455   3.268   1.620
    2V3OU   O10  853   3.493   3.145   1.663
    2V3OU   H26  854   3.403   3.111   1.679
    2V3OU    C6  855   3.563   3.355   1.586
    2V3OU    C5  856   3.535   3.472   1.517
    2V3OU    C4  857   3.699   3.295   1.582
    2V3OU    H4  858   3.715   3.231   1.674
    2V3OU    H5  859   3.708   3.225   1.493
    2V3OU    C2  860   3.815   3.395   1.579
    2V3OU    O6  861   3.807   3.471   1.700
    2V3OU   H21  862   3.761   3.555   1.684
    2V3OU    C3  863   3.782   3.493   1.466
    2V3OU    H2  864   3.865   3.568   1.458
    2V3OU    H3  865   3.780   3.437   1.369
    2V3OU   C25  866   3.950   3.325   1.564
    2V3OU    O7  867   3.992   3.295   1.453
    2V3OU   C26  868   4.029   3.289   1.689
    2V3OU   H22  869   4.071   3.383   1.735
    2V3OU   H23  870   4.112   3.219   1.663
    2V3OU    O8  871   3.962   3.216   1.789
    2V3OU   H24  872   3.917   3.268   1.858
    2V3OU    C1  873   3.648   3.563   1.480
    2V3OU    H1  874   3.626   3.620   1.385
    2V3OU    O3  875   3.659   3.653   1.590
    2V3OU   C19  876   3.620   3.790   1.572
    2V3OU    H9  877   3.520   3.806   1.522
    2V3OU    O4  878   3.716   3.846   1.485
    2V3OU   C20  879   3.847   3.872   1.536
    2V3OU   H10  880   3.895   3.770   1.541
    2V3OU   C24  881   3.610   3.855   1.710
    2V3OU   H16  882   3.548   3.787   1.774
    2V3OU   H17  883   3.555   3.953   1.706
    2V3OU   C23  884   3.749   3.874   1.770
    2V3OU   H15  885   3.790   3.769   1.788
    2V3OU    N1  886   3.729   3.958   1.887
    2V3OU   H19  887   3.806   3.929   1.942
    2V3OU   H20  888   3.642   3.925   1.924
    2V3OU   C21  889   3.850   3.942   1.673
    2V3OU   H11  890   3.954   3.923   1.712
    2V3OU    O5  891   3.824   4.082   1.675
    2V3OU   H18  892   3.776   4.104   1.756
    2V3OU   C22  893   3.914   3.949   1.424
    2V3OU   H12  894   3.859   4.043   1.398
    2V3OU   H13  895   3.908   3.893   1.327
    2V3OU   H14  896   4.023   3.963   1.448
    2V3OU   C11  897   3.156   3.468   1.500
    2V3OU    O1  898   3.130   3.582   1.457
    2V3OU    C9  899   3.296   3.421   1.511
    2V3OU    C7  900   3.402   3.501   1.471
    2V3OU    O9  901   3.383   3.618   1.400
    2V3OU   H25  902   3.288   3.631   1.410
    2V3OU   C17  903   2.814   3.308   1.521
    2V3OU    H7  904   2.712   3.344   1.506
    2V3OU   C18  905   2.835   3.206   1.613
    2V3OU    H8  906   2.750   3.152   1.656
    3SOL     OW  907   1.552   2.990   0.470
    3SOL    HW1  908   1.576   2.912   0.527
    3SOL    HW2  909   1.517   2.958   0.382
    4SOL     OW  910   6.004   0.236   1.970
    4SOL    HW1  911   5.973   0.327   1.940
    4SOL    HW2  912   6.098   0.242   2.002
    5SOL     OW  913   3.254   2.062   1.152
    5SOL    HW1  914   3.277   2.159   1.163
    5SOL    HW2  915   3.328   2.005   1.188
    6SOL     OW  916   2.467   1.958   1.395
    6SOL    HW1  917   2.438   2.015   1.473
    6SOL    HW2  918   2.422   1.991   1.312
    7SOL     OW  919   6.189   1.405   1.663
    7SOL    HW1  920   6.208   1.382   1.568
    7SOL    HW2  921   6.200   1.504   1.676
    8SOL     OW  922   2.793   0.964   5.267
    8SOL    HW1  923   2.876   0.920   5.302
    8SOL    HW2  924   2.818   1.047   5.217
    9SOL     OW  925   1.382   3.761   5.685
    9SOL    HW1  926   1.473   3.722   5.698
    9SOL    HW2  927   1.351   3.742   5.592
   10SOL     OW  928   0.803   3.610   0.107
   10SOL    HW1  929   0.902   3.611   0.091
   10SOL    HW2  930   0.782   3.546   0.181
   11SOL     OW  931   3.656   6.871   6.932
   11SOL    HW1  932   3.685   6.886   6.838
   11SOL    HW2  933   3.641   6.774   6.948
   12SOL     OW  934   5.644   6.441   2.550
   12SOL    HW1  935   5.606   6.367   2.605
   12SOL    HW2  936   5.744   6.434   2.550
   13SOL     OW  937   2.489   6.470   3.380
   13SOL    HW1  938   2.503   6.372   3.390
   13SOL    HW2  939   2.411   6.499   3.436
   14SOL     OW  940   3.718   6.081   0.934
   14SOL    HW1  941   3.655   6.030   0.876
   14SOL    HW2  942   3.669   6.157   0.977
   15SOL     OW  943   1.399   6.149   6.770
   15SOL    HW1  944   1.309   6.174   6.734
   15SOL    HW2  945   1.467   6.217   6.741
   16SOL     OW  946   5.882   2.160   5.781
   16SOL    HW1  947   5.941   2.122   5.710
   16SOL    HW2  948   5.939   2.197   5.855
   17SOL     OW  949   5.268   6.670   4.666
   17SOL    HW1  950   5.297   6.765   4.678
   17SOL    HW2  951   5.279   6.621   4.752
   18SOL     OW  952   1.461   1.789   6.169
   18SOL    HW1  953   1.559   1.780   6.187
   18SOL    HW2  954   1.434   1.725   6.097
   19SOL     OW  955   1.071   6.973   2.427
   19SOL    HW1  956   1.004   6.919   2.478
   19SOL    HW2  957   1.060   6.957   2.329
   20SOL     OW  958   3.279   1.885   3.862
   20SOL    HW1  959   3.285   1.806   3.801
   20SOL    HW2  960   3.286   1.969   3.808
   21SOL     OW  961   3.260   2.329   1.141
   21SOL    HW1  962   3.170   2.354   1.104
   21SOL    HW2  963   3.278   2.382   1.224
   22SOL     OW  964   1.417   6.685   5.681
   22SOL    HW1  965   1.380   6.625   5.753
   22SOL    HW2  966   1.445   6.630   5.603
   23SOL     OW  967   3.709   6.662   4.378
   23SOL    HW1  968   3.786   6.616   4.333
   23SOL    HW2  969   3.744   6.735   4.436
   24SOL     OW  970   4.451   1.344   5.076
   24SOL    HW1  971   4.370   1.383   5.118
   24SOL    HW2  972   4.512   1.417   5.045
   25SOL     OW  973   3.549   5.634   0.670
   25SOL    HW1  974   3.594   5.651   0.757
   25SOL    HW2  975   3.450   5.624   0.684
   26SOL     OW  976   6.732   1.686   2.269
   26SOL    HW1  977   6.808   1.749   2.252
   26SOL    HW2  978   6.767   1.599   2.302
   27SOL     OW  979   6.020   6.336   2.458
   27SOL    HW1  980   6.016   6.428   2.419
   27SOL    HW2  981   6.115   6.313   2.480
   28SOL     OW  982   3.783   0.488   0.109
   28SOL    HW1  983   3.743   0.402   0.142
   28SOL    HW2  984   3.877   0.471   0.078
   29SOL     OW  985   4.659   2.136   1.611
   29SOL    HW1  986   4.612   2.192   1.544
   29SOL    HW2  987   4.644   2.174   1.703
   30SOL     OW  988   3.461   0.642   4.745
   30SOL    HW1  989   3.526   0.566   4.737
   30SOL    HW2  990   3.489   0.716   4.683
   31SOL     OW  991   0.193   0.626   5.434
   31SOL    HW1  992   0.188   0.542   5.487
   31SOL    HW2  993   0.178   0.605   5.337
   32SOL     OW  994   0.223   2.178   1.175
   32SOL    HW1  995   0.240   2.116   1.098
   32SOL    HW2  996   0.140   2.150   1.223
   33SOL     OW  997   2.174   2.080   6.076
   33SOL    HW1  998   2.204   2.021   6.151
   33SOL    HW2  999   2.077   2.100   6.087
   34SOL     OW 1000   1.201   0.571   4.763
   34SOL    HW1 1001   1.286   0.543   4.806
   34SOL    HW2 1002   1.218   0.649   4.702
   35SOL     OW 1003   5.153   1.741   6.639
   35SOL    HW1 1004   5.208   1.686   6.703
   35SOL    HW2 1005   5.212   1.809   6.596
   36SOL     OW 1006   1.440   2.196   5.501
   36SOL    HW1 1007   1.506   2.124   5.523
   36SOL    HW2 1008   1.478   2.285   5.527
   37SOL     OW 1009   3.139   6.647   1.742
   37SOL    HW1 1010   3.162   6.680   1.834
   37SOL    HW2 1011   3.042   6.662   1.725
   38SOL     OW 1012   6.597   6.344   3.288
   38SOL    HW1 1013   6.671   6.410   3.299
   38SOL    HW2 1014   6.510   6.390   3.306
   39SOL     OW 1015   6.917   3.724   4.895
   39SOL    HW1 1016   6.951   3.658   4.828
   39SOL    HW2 1017   6.818   3.712   4.906
   40SOL     OW 1018   6.722   0.631   1.990
   40SOL    HW1 1019   6.747   0.627   2.086
   40SOL    HW2 1020   6.711   0.538   1.955
   41SOL     OW 1021   1.178   6.870   5.700
   41SOL    HW1 1022   1.250   6.802   5.713
   41SOL    HW2 1023   1.203   6.931   5.625
   42SOL     OW 1024   3.825   0.788   0.551
   42SOL    HW1 1025   3.816   0.782   0.451
   42SOL    HW2 1026   3.881   0.867   0.575
   43SOL     OW 1027   5.663   5.621   5.335
   43SOL    HW1 1028   5.568   5.589   5.331
   43SOL    HW2 1029   5.717   5.571   5.268
   44SOL     OW 1030   0.460   2.969   5.929
   44SOL    HW1 1031   0.392   3.040   5.910
   44SOL    HW2 1032   0.414   2.886   5.959
   45SOL     OW 1033   2.531   0.625   1.941
   45SOL    HW1 1034   2.583   0.710   1.953
   45SOL    HW2 1035   2.452   0.642   1.882
   46SOL     OW 1036   1.625   4.016   4.310
   46SOL    HW1 1037   1.715   4.051   4.336
   46SOL    HW2 1038   1.554   4.062   4.364
   47SOL     OW 1039   6.317   4.801   3.571
   47SOL    HW1 1040   6.232   4.853   3.577
   47SOL    HW2 1041   6.339   4.785   3.474
   48SOL     OW 1042   0.336   2.521   5.285
   48SOL    HW1 1043   0.382   2.592   5.232
   48SOL    HW2 1044   0.280   2.465   5.224
   49SOL     OW 1045   4.653   2.038   1.180
   49SOL    HW1 1046   4.739   2.019   1.133
   49SOL    HW2 1047   4.625   1.958   1.233
   50SOL     OW 1048   6.572   4.019   4.472
   50SOL    HW1 1049   6.661   4.034   4.429
   50SOL    HW2 1050   6.505   4.083   4.434
   51SOL     OW 1051   3.594   4.913   2.793
   51SOL    HW1 1052   3.591   4.907   2.693
   51SOL    HW2 1053   3.540   4.992   2.823
   52SOL     OW 1054   2.215   1.894   1.930
   52SOL    HW1 1055   2.196   1.992   1.928
   52SOL    HW2 1056   2.285   1.874   1.999
   53SOL     OW 1057   5.311   0.079   4.208
   53SOL    HW1 1058   5.286   0.161   4.156
   53SOL    HW2 1059   5.244   0.063   4.280
   54SOL     OW 1060   4.250   5.443   5.668
   54SOL    HW1 1061   4.166   5.442   5.613
   54SOL    HW2 1062   4.259   5.530   5.715
   55SOL     OW 1063   4.001   2.072   0.027
   55SOL    HW1 1064   4.038   1.982   0.008
   55SOL    HW2 1065   4.067   2.124   0.082
   56SOL     OW 1066   1.370   0.181   2.249
   56SOL    HW1 1067   1.366   0.083   2.270
   56SOL    HW2 1068   1.277   0.218   2.245
   57SOL     OW 1069   5.739   0.927   0.271
   57SOL    HW1 1070   5.781   0.914   0.181
   57SOL    HW2 1071   5.775   0.858   0.334
   58SOL     OW 1072   6.992   6.034   0.057
   58SOL    HW1 1073   0.049   6.039   0.122
   58SOL    HW2 1074   6.905   6.041   0.107
   59SOL     OW 1075   1.156   0.223   5.537
   59SOL    HW1 1076   1.223   0.283   5.582
   59SOL    HW2 1077   1.205   0.150   5.489
   60SOL     OW 1078   4.569   6.796   4.883
   60SOL    HW1 1079   4.514   6.751   4.813
   60SOL    HW2 1080   4.646   6.843   4.839
   61SOL     OW 1081   4.643   0.315   4.311
   61SOL    HW1 1082   4.738   0.285   4.321
   61SOL    HW2 1083   4.636   0.410   4.341
   62SOL     OW 1084   1.665   0.672   4.537
   62SOL    HW1 1085   1.683   0.769   4.517
   62SOL    HW2 1086   1.706   0.616   4.465
   63SOL     OW 1087   0.149   2.975   3.005
   63SOL    HW1 1088   0.121   3.036   2.931
   63SOL    HW2 1089   0.188   3.030   3.080
   64SOL     OW 1090   0.276   3.732   5.783
   64SOL    HW1 1091   0.303   3.794   5.857
   64SOL    HW2 1092   0.331   3.752   5.702
   65SOL     OW 1093   6.807   4.667   5.730
   65SOL    HW1 1094   6.865   4.748   5.719
   65SOL    HW2 1095   6.835   4.616   5.811
   66SOL     OW 1096   2.993   0.859   0.503
   66SOL    HW1 1097   2.957   0.781   0.453
   66SOL    HW2 1098   3.003   0.835   0.600
   67SOL     OW 1099   5.407   5.749   4.729
   67SOL    HW1 1100   5.488   5.792   4.688
   67SOL    HW2 1101   5.331   5.754   4.666
   68SOL     OW 1102   5.651   2.193   5.646
   68SOL    HW1 1103   5.674   2.232   5.557
   68SOL    HW2 1104   5.735   2.185   5.701
   69SOL     OW 1105   2.801   3.772   6.129
   69SOL    HW1 1106   2.751   3.725   6.202
   69SOL    HW2 1107   2.874   3.828   6.169
   70SOL     OW 1108   6.977   5.310   2.402
   70SOL    HW1 1109   0.017   5.233   2.425
   70SOL    HW2 1110   0.013   5.384   2.363
   71SOL     OW 1111   1.233   2.580   3.029
   71SOL    HW1 1112   1.261   2.484   3.018
   71SOL    HW2 1113   1.225   2.601   3.126
   72SOL     OW 1114   2.494   5.464   4.120
   72SOL    HW1 1115   2.567   5.481   4.054
   72SOL    HW2 1116   2.416   5.422   4.074
   73SOL     OW 1117   4.546   2.613   0.374
   73SOL    HW1 1118   4.458   2.587   0.412
   73SOL    HW2 1119   4.598   2.666   0.442
   74SOL     OW 1120   5.237   5.871   6.311
   74SOL    HW1 1121   5.254   5.812   6.390
   74SOL    HW2 1122   5.323   5.891   6.265
   75SOL     OW 1123   3.643   5.687   5.695
   75SOL    HW1 1124   3.695   5.752   5.640
   75SOL    HW2 1125   3.621   5.729   5.783
   76SOL     OW 1126   2.768   2.890   1.673
   76SOL    HW1 1127   2.777   2.878   1.574
   76SOL    HW2 1128   2.857   2.876   1.716
   77SOL     OW 1129   5.706   5.476   6.104
   77SOL    HW1 1130   5.758   5.391   6.107
   77SOL    HW2 1131   5.614   5.458   6.070
   78SOL     OW 1132   6.548   6.589   6.069
   78SOL    HW1 1133   6.599   6.574   6.153
   78SOL    HW2 1134   6.586   6.533   5.996
   79SOL     OW 1135   3.033   0.034   0.411
   79SOL    HW1 1136   3.071   0.008   0.323
   79SOL    HW2 1137   3.077   0.118   0.443
   80SOL     OW 1138   0.156   1.273   4.032
   80SOL    HW1 1139   0.249   1.289   4.066
   80SOL    HW2 1140   0.122   1.187   4.068
   81SOL     OW 1141   1.765   0.756   3.106
   81SOL    HW1 1142   1.830   0.792   3.173
   81SOL    HW2 1143   1.811   0.746   3.018
   82SOL     OW 1144   0.110   4.716   5.775
   82SOL    HW1 1145   0.193   4.681   5.818
   82SOL    HW2 1146   0.134   4.777   5.699
   83SOL     OW 1147   0.335   6.871   0.593
   83SOL    HW1 1148   0.347   6.827   0.504
   83SOL    HW2 1149   0.308   6.966   0.580
   84SOL     OW 1150   5.475   3.596   1.759
   84SOL    HW1 1151   5.387   3.620   1.718
   84SOL    HW2 1152   5.535   3.676   1.760
   85SOL     OW 1153   0.835   2.610   5.102
   85SOL    HW1 1154   0.918   2.569   5.064
   85SOL    HW2 1155   0.758   2.593   5.040
   86SOL     OW 1156   0.560   0.670   6.017
   86SOL    HW1 1157   0.489   0.600   6.032
   86SOL    HW2 1158   0.647   0.625   5.995
   87SOL     OW 1159   4.793   1.348   0.568
   87SOL    HW1 1160   4.779   1.249   0.568
   87SOL    HW2 1161   4.721   1.392   0.514
   88SOL     OW 1162   5.379   0.859   0.783
   88SOL    HW1 1163   5.365   0.947   0.737
   88SOL    HW2 1164   5.459   0.814   0.745
   89SOL     OW 1165   1.458   2.766   6.129
   89SOL    HW1 1166   1.457   2.865   6.143
   89SOL    HW2 1167   1.534   2.741   6.069
   90SOL     OW 1168   5.736   6.410   3.946
   90SOL    HW1 1169   5.718   6.372   4.037
   90SOL    HW2 1170   5.665   6.477   3.923
   91SOL     OW 1171   4.757   4.448   5.093
   91SOL    HW1 1172   4.855   4.434   5.080
   91SOL    HW2 1173   4.709   4.434   5.006
   92SOL     OW 1174   3.526   5.107   1.716
   92SOL    HW1 1175   3.513   5.009   1.729
   92SOL    HW2 1176   3.438   5.153   1.721
   93SOL     OW 1177   3.198   5.682   6.097
   93SOL    HW1 1178   3.199   5.686   5.997
   93SOL    HW2 1179   3.226   5.591   6.127
   94SOL     OW 1180   2.932   5.666   0.316
   94SOL    HW1 1181   2.896   5.675   0.223
   94SOL    HW2 1182   3.032   5.658   0.312
   95SOL     OW 1183   0.237   0.304   4.502
   95SOL    HW1 1184   0.284   0.234   4.448
   95SOL    HW2 1185   0.245   0.282   4.599
   96SOL     OW 1186   2.207   0.140   5.386
   96SOL    HW1 1187   2.251   0.226   5.415
   96SOL    HW2 1188   2.139   0.160   5.315
   97SOL     OW 1189   5.947   3.245   4.587
   97SOL    HW1 1190   5.947   3.234   4.487
   97SOL    HW2 1191   5.868   3.299   4.615
   98SOL     OW 1192   5.527   2.475   5.962
   98SOL    HW1 1193   5.622   2.506   5.969
   98SOL    HW2 1194   5.504   2.458   5.866
   99SOL     OW 1195   4.337   1.772   1.006
   99SOL    HW1 1196   4.271   1.699   1.026
   99SOL    HW2 1197   4.368   1.813   1.092
  100SOL     OW 1198   0.532   5.478   6.829
  100SOL    HW1 1199   0.549   5.569   6.793
  100SOL    HW2 1200   0.595   5.412   6.787
  101SOL     OW 1201   1.906   6.408   3.795
  101SOL    HW1 1202   1.886   6.310   3.792
  101SOL    HW2 1203   1.848   6.456   3.728
  102SOL     OW 1204   4.517   0.230   4.039
  102SOL    HW1 1205   4.471   0.316   4.017
  102SOL    HW2 1206   4.586   0.248   4.110
  103SOL     OW 1207   3.929   1.950   1.362
  103SOL    HW1 1208   3.987   1.869   1.371
  103SOL    HW2 1209   3.912   1.989   1.453
  104SOL     OW 1210   0.572   6.144   2.312
  104SOL    HW1 1211   0.580   6.102   2.403
  104SOL    HW2 1212   0.659   6.138   2.264
  105SOL     OW 1213   5.264   1.051   6.333
  105SOL    HW1 1214   5.344   1.001   6.365
  105SOL    HW2 1215   5.200   1.065   6.408
  106SOL     OW 1216   2.634   6.591   6.550
  106SOL    HW1 1217   2.580   6.560   6.628
  106SOL    HW2 1218   2.729   6.559   6.560
  107SOL     OW 1219   2.573   2.985   0.735
  107SOL    HW1 1220   2.585   2.963   0.832
  107SOL    HW2 1221   2.483   2.953   0.704
  108SOL     OW 1222   4.954   4.351   5.733
  108SOL    HW1 1223   4.977   4.392   5.821
  108SOL    HW2 1224   5.030   4.293   5.702
  109SOL     OW 1225   6.829   0.660   0.790
  109SOL    HW1 1226   6.748   0.609   0.818
  109SOL    HW2 1227   6.808   0.714   0.708
  110SOL     OW 1228   3.877   5.931   5.215
  110SOL    HW1 1229   3.972   5.962   5.215
  110SOL    HW2 1230   3.865   5.862   5.286
  111SOL     OW 1231   3.704   0.959   3.469
  111SOL    HW1 1232   3.684   0.917   3.557
  111SOL    HW2 1233   3.781   0.912   3.426
  112SOL     OW 1234   6.912   6.509   5.783
  112SOL    HW1 1235   6.814   6.515   5.800
  112SOL    HW2 1236   6.958   6.480   5.867
  113SOL     OW 1237   0.187   5.156   3.235
  113SOL    HW1 1238   0.256   5.215   3.193
  113SOL    HW2 1239   0.228   5.105   3.311
  114SOL     OW 1240   0.823   6.911   0.019
  114SOL    HW1 1241   0.843   6.965   0.100
  114SOL    HW2 1242   0.736   6.942   6.998
  115SOL     OW 1243   5.301   1.245   4.659
  115SOL    HW1 1244   5.291   1.269   4.755
  115SOL    HW2 1245   5.264   1.318   4.602
  116SOL     OW 1246   6.183   4.442   2.141
  116SOL    HW1 1247   6.228   4.364   2.097
  116SOL    HW2 1248   6.139   4.498   2.072
  117SOL     OW 1249   1.416   7.018   6.204
  117SOL    HW1 1250   1.411   6.928   6.160
  117SOL    HW2 1251   1.400   7.008   6.302
  118SOL     OW 1252   0.650   0.335   2.267
  118SOL    HW1 1253   0.646   0.250   2.215
  118SOL    HW2 1254   0.739   0.379   2.253
  119SOL     OW 1255   6.918   2.587   5.830
  119SOL    HW1 1256   6.985   2.651   5.866
  119SOL    HW2 1257   6.826   2.621   5.848
  120SOL     OW 1258   6.029   6.474   0.816
  120SOL    HW1 1259   6.067   6.393   0.771
  120SOL    HW2 1260   5.933   6.458   0.840
  121SOL     OW 1261   2.679   3.525   5.784
  121SOL    HW1 1262   2.612   3.476   5.840
  121SOL    HW2 1263   2.695   3.616   5.822
  122SOL     OW 1264   1.001   3.029   4.346
  122SOL    HW1 1265   0.960   3.092   4.280
  122SOL    HW2 1266   1.101   3.031   4.335
  123SOL     OW 1267   0.771   2.211   1.277
  123SOL    HW1 1268   0.830   2.137   1.309
  123SOL    HW2 1269   0.677   2.194   1.306
  124SOL     OW 1270   4.461   3.310   1.066
  124SOL    HW1 1271   4.391   3.360   1.116
  124SOL    HW2 1272   4.547   3.362   1.069
  125SOL     OW 1273   1.575   2.908   1.825
  125SOL    HW1 1274   1.592   2.813   1.796
  125SOL    HW2 1275   1.663   2.953   1.842
  126SOL     OW 1276   3.335   4.905   1.329
  126SOL    HW1 1277   3.292   4.847   1.259
  126SOL    HW2 1278   3.333   5.000   1.298
  127SOL     OW 1279   6.978   6.089   6.299
  127SOL    HW1 1280   6.975   6.093   6.199
  127SOL    HW2 1281   6.885   6.076   6.334
  128SOL     OW 1282   4.793   2.439   1.579
  128SOL    HW1 1283   4.853   2.378   1.527
  128SOL    HW2 1284   4.825   2.446   1.673
  129SOL     OW 1285   2.604   3.654   6.583
  129SOL    HW1 1286   2.507   3.645   6.559
  129SOL    HW2 1287   2.618   3.620   6.676
  130SOL     OW 1288   1.644   1.660   4.748
  130SOL    HW1 1289   1.696   1.739   4.716
  130SOL    HW2 1290   1.688   1.576   4.717
  131SOL     OW 1291   4.516   1.318   3.159
  131SOL    HW1 1292   4.545   1.303   3.254
  131SOL    HW2 1293   4.555   1.404   3.126
  132SOL     OW 1294   1.332   2.641   1.109
  132SOL    HW1 1295   1.246   2.639   1.058
  132SOL    HW2 1296   1.371   2.549   1.111
  133SOL     OW 1297   6.633   5.664   2.391
  133SOL    HW1 1298   6.606   5.579   2.345
  133SOL    HW2 1299   6.604   5.660   2.487
  134SOL     OW 1300   6.870   3.781   2.738
  134SOL    HW1 1301   6.887   3.877   2.760
  134SOL    HW2 1302   6.804   3.775   2.663
  135SOL     OW 1303   4.916   1.563   4.056
  135SOL    HW1 1304   4.886   1.511   4.135
  135SOL    HW2 1305   4.906   1.507   3.973
  136SOL     OW 1306   5.437   4.423   5.422
  136SOL    HW1 1307   5.348   4.468   5.425
  136SOL    HW2 1308   5.428   4.328   5.452
  137SOL     OW 1309   3.724   0.195   5.771
  137SOL    HW1 1310   3.661   0.271   5.785
  137SOL    HW2 1311   3.677   0.119   5.727
  138SOL     OW 1312   6.812   5.259   4.890
  138SOL    HW1 1313   6.894   5.219   4.932
  138SOL    HW2 1314   6.732   5.204   4.913
  139SOL     OW 1315   3.308   4.817   5.337
  139SOL    HW1 1316   3.239   4.745   5.344
  139SOL    HW2 1317   3.399   4.777   5.347
  140SOL     OW 1318   5.990   4.547   4.576
  140SOL    HW1 1319   6.081   4.548   4.616
  140SOL    HW2 1320   5.996   4.566   4.478
  141SOL     OW 1321   1.308   2.195   4.328
  141SOL    HW1 1322   1.229   2.197   4.389
  141SOL    HW2 1323   1.355   2.107   4.336
  142SOL     OW 1324   1.910   6.138   1.006
  142SOL    HW1 1325   1.987   6.181   0.960
  142SOL    HW2 1326   1.828   6.145   0.948
  143SOL     OW 1327   5.704   4.533   1.833
  143SOL    HW1 1328   5.700   4.622   1.879
  143SOL    HW2 1329   5.612   4.497   1.821
  144SOL     OW 1330   2.354   6.977   6.933
  144SOL    HW1 1331   2.296   7.019   7.003
  144SOL    HW2 1332   2.299   6.919   6.875
  145SOL     OW 1333   0.078   5.781   0.566
  145SOL    HW1 1334   0.177   5.766   0.574
  145SOL    HW2 1335   0.046   5.741   0.480
  146SOL     OW 1336   4.827   5.413   1.041
  146SOL    HW1 1337   4.865   5.408   1.134
  146SOL    HW2 1338   4.901   5.403   0.974
  147SOL     OW 1339   6.369   2.039   1.404
  147SOL    HW1 1340   6.336   2.075   1.317
  147SOL    HW2 1341   6.351   1.941   1.409
  148SOL     OW 1342   1.000   5.356   5.511
  148SOL    HW1 1343   1.019   5.278   5.571
  148SOL    HW2 1344   0.908   5.390   5.529
  149SOL     OW 1345   3.194   1.086   4.744
  149SOL    HW1 1346   3.179   1.148   4.821
  149SOL    HW2 1347   3.290   1.057   4.743
  150SOL     OW 1348   0.149   4.841   6.536
  150SOL    HW1 1349   0.060   4.802   6.561
  150SOL    HW2 1350   0.140   4.940   6.525
  151SOL     OW 1351   4.297   1.788   1.619
  151SOL    HW1 1352   4.205   1.824   1.636
  151SOL    HW2 1353   4.345   1.849   1.556
  152SOL     OW 1354   3.394   0.722   4.154
  152SOL    HW1 1355   3.326   0.792   4.176
  152SOL    HW2 1356   3.473   0.765   4.111
  153SOL     OW 1357   1.991   1.423   3.355
  153SOL    HW1 1358   1.959   1.388   3.267
  153SOL    HW2 1359   1.991   1.523   3.353
  154SOL     OW 1360   6.723   2.144   2.436
  154SOL    HW1 1361   6.642   2.110   2.390
  154SOL    HW2 1362   6.752   2.079   2.506
  155SOL     OW 1363   6.904   0.959   2.867
  155SOL    HW1 1364   6.963   0.921   2.939
  155SOL    HW2 1365   6.949   0.947   2.778
  156SOL     OW 1366   6.175   2.164   0.818
  156SOL    HW1 1367   6.168   2.170   0.918
  156SOL    HW2 1368   6.085   2.143   0.780
  157SOL     OW 1369   6.080   3.762   2.656
  157SOL    HW1 1370   6.088   3.859   2.634
  157SOL    HW2 1371   6.064   3.750   2.754
  158SOL     OW 1372   2.301   1.150   2.973
  158SOL    HW1 1373   2.341   1.169   3.062
  158SOL    HW2 1374   2.202   1.140   2.982
  159SOL     OW 1375   4.752   4.231   2.078
  159SOL    HW1 1376   4.665   4.276   2.059
  159SOL    HW2 1377   4.811   4.238   1.998
  160SOL     OW 1378   6.523   4.089   5.866
  160SOL    HW1 1379   6.538   4.165   5.930
  160SOL    HW2 1380   6.458   4.117   5.795
  161SOL     OW 1381   2.167   5.621   4.965
  161SOL    HW1 1382   2.081   5.605   4.918
  161SOL    HW2 1383   2.213   5.534   4.983
  162SOL     OW 1384   4.187   5.453   1.358
  162SOL    HW1 1385   4.272   5.503   1.346
  162SOL    HW2 1386   4.206   5.364   1.401
  163SOL     OW 1387   4.714   0.791   2.671
  163SOL    HW1 1388   4.673   0.880   2.648
  163SOL    HW2 1389   4.701   0.773   2.768
  164SOL     OW 1390   6.009   3.556   0.805
  164SOL    HW1 1391   5.935   3.622   0.791
  164SOL    HW2 1392   6.089   3.583   0.752
  165SOL     OW 1393   4.815   3.139   6.619
  165SOL    HW1 1394   4.730   3.187   6.594
  165SOL    HW2 1395   4.872   3.199   6.675
  166SOL     OW 1396   0.878   6.806   2.536
  166SOL    HW1 1397   0.845   6.742   2.605
  166SOL    HW2 1398   0.802   6.862   2.504
  167SOL     OW 1399   6.079   2.979   6.937
  167SOL    HW1 1400   6.042   2.896   6.895
  167SOL    HW2 1401   6.151   3.016   6.879
  168SOL     OW 1402   2.649   5.268   0.617
  168SOL    HW1 1403   2.558   5.301   0.591
  168SOL    HW2 1404   2.651   5.248   0.715
  169SOL     OW 1405   2.194   6.943   1.889
  169SOL    HW1 1406   2.197   6.891   1.975
  169SOL    HW2 1407   2.223   0.018   1.907
  170SOL     OW 1408   0.436   1.443   2.962
  170SOL    HW1 1409   0.421   1.450   3.061
  170SOL    HW2 1410   0.514   1.383   2.944
  171SOL     OW 1411   3.624   3.608   0.040
  171SOL    HW1 1412   3.680   3.683   0.075
  171SOL    HW2 1413   3.563   3.642   6.988
  172SOL     OW 1414   6.962   2.403   5.117
  172SOL    HW1 1415   6.906   2.396   5.200
  172SOL    HW2 1416   0.040   2.394   5.141
  173SOL     OW 1417   0.221   6.834   5.484
  173SOL    HW1 1418   0.123   6.856   5.477
  173SOL    HW2 1419   0.263   6.892   5.553
  174SOL     OW 1420   2.580   5.206   3.939
  174SOL    HW1 1421   2.586   5.143   3.861
  174SOL    HW2 1422   2.605   5.159   4.023
  175SOL     OW 1423   1.322   5.466   2.913
  175SOL    HW1 1424   1.404   5.410   2.925
  175SOL    HW2 1425   1.301   5.512   2.999
  176SOL     OW 1426   2.323   4.484   0.875
  176SOL    HW1 1427   2.246   4.439   0.920
  176SOL    HW2 1428   2.409   4.446   0.910
  177SOL     OW 1429   4.832   1.981   2.403
  177SOL    HW1 1430   4.799   1.978   2.309
  177SOL    HW2 1431   4.905   1.914   2.416
  178SOL     OW 1432   5.279   4.930   6.767
  178SOL    HW1 1433   5.272   4.965   6.674
  178SOL    HW2 1434   5.375   4.912   6.789
  179SOL     OW 1435   3.001   0.466   0.588
  179SOL    HW1 1436   2.936   0.445   0.515
  179SOL    HW2 1437   2.954   0.515   0.661
  180SOL     OW 1438   0.782   1.978   6.990
  180SOL    HW1 1439   0.871   2.021   6.980
  180SOL    HW2 1440   0.712   2.035   6.946
  181SOL     OW 1441   3.598   3.174   5.447
  181SOL    HW1 1442   3.510   3.195   5.490
  181SOL    HW2 1443   3.593   3.196   5.349
  182SOL     OW 1444   4.021   2.189   4.779
  182SOL    HW1 1445   4.039   2.245   4.860
  182SOL    HW2 1446   3.927   2.155   4.783
  183SOL     OW 1447   5.111   1.076   1.932
  183SOL    HW1 1448   5.020   1.106   1.903
  183SOL    HW2 1449   5.181   1.124   1.878
  184SOL     OW 1450   0.022   4.536   3.049
  184SOL    HW1 1451   0.089   4.528   3.122
  184SOL    HW2 1452   6.998   4.447   3.034
  185SOL     OW 1453   1.831   3.905   5.924
  185SOL    HW1 1454   1.891   3.913   5.843
  185SOL    HW2 1455   1.867   3.835   5.985
  186SOL     OW 1456   5.562   0.072   3.179
  186SOL    HW1 1457   5.474   0.074   3.132
  186SOL    HW2 1458   5.568   7.007   3.234
  187SOL     OW 1459   5.763   1.152   3.936
  187SOL    HW1 1460   5.806   1.211   4.004
  187SOL    HW2 1461   5.700   1.089   3.983
  188SOL     OW 1462   6.212   2.158   3.353
  188SOL    HW1 1463   6.244   2.224   3.285
  188SOL    HW2 1464   6.242   2.187   3.444
  189SOL     OW 1465   1.951   4.470   2.507
  189SOL    HW1 1466   1.923   4.496   2.415
  189SOL    HW2 1467   1.961   4.371   2.513
  190SOL     OW 1468   3.510   1.008   5.543
  190SOL    HW1 1469   3.504   1.102   5.511
  190SOL    HW2 1470   3.430   0.987   5.600
  191SOL     OW 1471   5.551   5.835   6.535
  191SOL    HW1 1472   5.504   5.912   6.579
  191SOL    HW2 1473   5.620   5.798   6.598
  192SOL     OW 1474   6.898   0.746   1.818
  192SOL    HW1 1475   6.850   0.698   1.892
  192SOL    HW2 1476   6.881   0.699   1.731
  193SOL     OW 1477   5.697   3.889   0.035
  193SOL    HW1 1478   5.674   3.871   0.130
  193SOL    HW2 1479   5.618   3.925   7.006
  194SOL     OW 1480   3.714   0.396   3.694
  194SOL    HW1 1481   3.628   0.393   3.642
  194SOL    HW2 1482   3.702   0.457   3.773
  195SOL     OW 1483   0.924   5.898   3.159
  195SOL    HW1 1484   0.828   5.890   3.133
  195SOL    HW2 1485   0.968   5.969   3.103
  196SOL     OW 1486   0.942   2.204   0.221
  196SOL    HW1 1487   0.862   2.201   0.281
  196SOL    HW2 1488   0.922   2.261   0.141
  197SOL     OW 1489   1.652   1.086   0.592
  197SOL    HW1 1490   1.683   1.044   0.507
  197SOL    HW2 1491   1.730   1.116   0.646
  198SOL     OW 1492   3.100   2.067   3.662
  198SOL    HW1 1493   3.133   2.040   3.572
  198SOL    HW2 1494   3.175   2.107   3.715
  199SOL     OW 1495   1.230   2.776   3.951
  199SOL    HW1 1496   1.245   2.711   4.026
  199SOL    HW2 1497   1.134   2.772   3.923
  200SOL     OW 1498   6.781   2.597   0.210
  200SOL    HW1 1499   6.682   2.601   0.215
  200SOL    HW2 1500   6.809   2.513   0.165
  201SOL     OW 1501   0.462   0.833   6.461
  201SOL    HW1 1502   0.546   0.788   6.429
  201SOL    HW2 1503   0.444   0.806   6.555
  202SOL     OW 1504   4.550   6.950   0.139
  202SOL    HW1 1505   4.621   0.001   0.140
  202SOL    HW2 1506   4.464   6.990   0.107
  203SOL     OW 1507   5.710   2.825   5.843
  203SOL    HW1 1508   5.617   2.860   5.846
  203SOL    HW2 1509   5.769   2.891   5.796
  204SOL     OW 1510   6.340   1.142   5.612
  204SOL    HW1 1511   6.247   1.171   5.590
  204SOL    HW2 1512   6.396   1.222   5.635
  205SOL     OW 1513   0.801   2.801   2.358
  205SOL    HW1 1514   0.762   2.865   2.292
  205SOL    HW2 1515   0.743   2.796   2.439
  206SOL     OW 1516   0.749   3.377   0.288
  206SOL    HW1 1517   0.835   3.362   0.338
  206SOL    HW2 1518   0.696   3.447   0.336
  207SOL     OW 1519   5.437   1.913   4.189
  207SOL    HW1 1520   5.530   1.891   4.159
  207SOL    HW2 1521   5.432   1.908   4.288
  208SOL     OW 1522   1.023   4.318   4.253
  208SOL    HW1 1523   1.035   4.247   4.183
  208SOL    HW2 1524   1.092   4.307   4.324
  209SOL     OW 1525   6.385   4.138   2.827
  209SOL    HW1 1526   6.417   4.044   2.844
  209SOL    HW2 1527   6.427   4.172   2.743
  210SOL     OW 1528   4.594   2.677   0.129
  210SOL    HW1 1529   4.593   2.637   0.221
  210SOL    HW2 1530   4.612   2.775   0.136
  211SOL     OW 1531   0.302   1.312   2.756
  211SOL    HW1 1532   0.363   1.380   2.797
  211SOL    HW2 1533   0.345   1.222   2.760
  212SOL     OW 1534   1.750   3.717   3.019
  212SOL    HW1 1535   1.684   3.775   2.971
  212SOL    HW2 1536   1.732   3.721   3.118
  213SOL     OW 1537   1.817   4.719   0.956
  213SOL    HW1 1538   1.879   4.651   0.917
  213SOL    HW2 1539   1.808   4.796   0.892
  214SOL     OW 1540   4.625   6.068   2.547
  214SOL    HW1 1541   4.526   6.082   2.549
  214SOL    HW2 1542   4.653   6.042   2.454
  215SOL     OW 1543   2.443   4.926   2.802
  215SOL    HW1 1544   2.518   4.979   2.763
  215SOL    HW2 1545   2.411   4.859   2.735
  216SOL     OW 1546   1.350   6.722   2.513
  216SOL    HW1 1547   1.253   6.730   2.535
  216SOL    HW2 1548   1.393   6.812   2.522
  217SOL     OW 1549   1.552   4.094   6.584
  217SOL    HW1 1550   1.577   4.123   6.677
  217SOL    HW2 1551   1.626   4.117   6.521
  218SOL     OW 1552   1.257   1.871   4.997
  218SOL    HW1 1553   1.160   1.874   4.975
  218SOL    HW2 1554   1.311   1.863   4.913
  219SOL     OW 1555   3.972   1.843   0.762
  219SOL    HW1 1556   3.945   1.794   0.844
  219SOL    HW2 1557   4.030   1.921   0.787
  220SOL     OW 1558   2.783   6.652   0.583
  220SOL    HW1 1559   2.798   6.570   0.527
  220SOL    HW2 1560   2.867   6.706   0.587
  221SOL     OW 1561   4.811   5.994   1.882
  221SOL    HW1 1562   4.797   5.907   1.930
  221SOL    HW2 1563   4.724   6.043   1.877
  222SOL     OW 1564   2.404   4.611   6.142
  222SOL    HW1 1565   2.446   4.554   6.071
  222SOL    HW2 1566   2.369   4.553   6.215
  223SOL     OW 1567   6.242   2.961   5.061
  223SOL    HW1 1568   6.319   2.945   5.123
  223SOL    HW2 1569   6.234   2.885   4.997
  224SOL     OW 1570   2.271   1.348   6.090
  224SOL    HW1 1571   2.285   1.270   6.151
  224SOL    HW2 1572   2.173   1.371   6.088
  225SOL     OW 1573   4.749   5.223   5.889
  225SOL    HW1 1574   4.683   5.261   5.953
  225SOL    HW2 1575   4.733   5.124   5.879
  226SOL     OW 1576   1.266   2.347   6.587
  226SOL    HW1 1577   1.195   2.315   6.648
  226SOL    HW2 1578   1.322   2.416   6.634
  227SOL     OW 1579   1.048   3.622   2.019
  227SOL    HW1 1580   1.096   3.579   2.095
  227SOL    HW2 1581   0.950   3.604   2.026
  228SOL     OW 1582   1.664   6.652   2.812
  228SOL    HW1 1583   1.707   6.563   2.828
  228SOL    HW2 1584   1.722   6.724   2.849
  229SOL     OW 1585   4.753   5.892   6.335
  229SOL    HW1 1586   4.832   5.940   6.373
  229SOL    HW2 1587   4.670   5.947   6.350
  230SOL     OW 1588   5.011   5.750   5.247
  230SOL    HW1 1589   5.004   5.705   5.336
  230SOL    HW2 1590   5.102   5.789   5.237
  231SOL     OW 1591   5.367   1.243   6.976
  231SOL    HW1 1592   5.357   1.219   6.880
  231SOL    HW2 1593   5.464   1.255   6.997
  232SOL     OW 1594   1.669   2.765   5.499
  232SOL    HW1 1595   1.607   2.752   5.577
  232SOL    HW2 1596   1.686   2.863   5.485
  233SOL     OW 1597   2.766   1.678   3.241
  233SOL    HW1 1598   2.747   1.759   3.187
  233SOL    HW2 1599   2.705   1.604   3.214
  234SOL     OW 1600   4.715   1.340   6.774
  234SOL    HW1 1601   4.805   1.303   6.797
  234SOL    HW2 1602   4.701   1.427   6.821
  235SOL     OW 1603   4.887   2.334   2.646
  235SOL    HW1 1604   4.979   2.367   2.622
  235SOL    HW2 1605   4.834   2.409   2.685
  236SOL     OW 1606   4.444   4.350   6.303
  236SOL    HW1 1607   4.368   4.412   6.285
  236SOL    HW2 1608   4.487   4.324   6.217
  237SOL     OW 1609   6.238   3.697   3.069
  237SOL    HW1 1610   6.189   3.743   2.995
  237SOL    HW2 1611   6.172   3.655   3.131
  238SOL     OW 1612   6.556   1.369   0.909
  238SOL    HW1 1613   6.529   1.431   0.983
  238SOL    HW2 1614   6.652   1.385   0.885
  239SOL     OW 1615   0.938   3.876   0.194
  239SOL    HW1 1616   1.023   3.884   0.142
  239SOL    HW2 1617   0.881   3.805   0.154
  240SOL     OW 1618   5.846   3.249   2.826
  240SOL    HW1 1619   5.847   3.247   2.726
  240SOL    HW2 1620   5.785   3.322   2.857
  241SOL     OW 1621   3.048   1.638   3.604
  241SOL    HW1 1622   3.012   1.708   3.542
  241SOL    HW2 1623   3.148   1.640   3.602
  242SOL     OW 1624   3.668   3.481   2.882
  242SOL    HW1 1625   3.609   3.557   2.908
  242SOL    HW2 1626   3.661   3.408   2.951
  243SOL     OW 1627   4.675   2.445   6.017
  243SOL    HW1 1628   4.702   2.385   6.093
  243SOL    HW2 1629   4.673   2.391   5.932
  244SOL     OW 1630   5.097   3.509   5.478
  244SOL    HW1 1631   5.195   3.522   5.458
  244SOL    HW2 1632   5.053   3.465   5.399
  245SOL     OW 1633   3.409   1.857   2.553
  245SOL    HW1 1634   3.506   1.848   2.576
  245SOL    HW2 1635   3.390   1.950   2.524
  246SOL     OW 1636   6.406   1.444   2.242
  246SOL    HW1 1637   6.444   1.536   2.231
  246SOL    HW2 1638   6.352   1.420   2.161
  247SOL     OW 1639   1.881   1.582   1.294
  247SOL    HW1 1640   1.841   1.673   1.288
  247SOL    HW2 1641   1.850   1.538   1.378
  248SOL     OW 1642   1.697   2.328   2.217
  248SOL    HW1 1643   1.793   2.309   2.194
  248SOL    HW2 1644   1.676   2.423   2.193
  249SOL     OW 1645   5.689   6.239   5.125
  249SOL    HW1 1646   5.631   6.207   5.051
  249SOL    HW2 1647   5.633   6.262   5.205
  250SOL     OW 1648   3.857   2.509   1.313
  250SOL    HW1 1649   3.884   2.590   1.364
  250SOL    HW2 1650   3.827   2.535   1.221
  251SOL     OW 1651   3.879   4.021   5.609
  251SOL    HW1 1652   3.873   3.947   5.676
  251SOL    HW2 1653   3.963   4.073   5.624
  252SOL     OW 1654   5.973   5.987   5.431
  252SOL    HW1 1655   5.953   6.079   5.397
  252SOL    HW2 1656   6.047   5.946   5.378
  253SOL     OW 1657   4.289   5.885   6.209
  253SOL    HW1 1658   4.335   5.869   6.121
  253SOL    HW2 1659   4.305   5.979   6.237
  254SOL     OW 1660   5.818   2.564   4.827
  254SOL    HW1 1661   5.748   2.499   4.856
  254SOL    HW2 1662   5.905   2.540   4.869
  255SOL     OW 1663   1.624   4.603   5.598
  255SOL    HW1 1664   1.626   4.531   5.667
  255SOL    HW2 1665   1.717   4.630   5.575
  256SOL     OW 1666   5.002   2.468   4.810
  256SOL    HW1 1667   4.964   2.508   4.726
  256SOL    HW2 1668   5.097   2.441   4.794
  257SOL     OW 1669   5.087   6.390   2.683
  257SOL    HW1 1670   5.096   6.302   2.638
  257SOL    HW2 1671   5.098   6.464   2.616
  258SOL     OW 1672   2.193   3.746   6.138
  258SOL    HW1 1673   2.172   3.791   6.225
  258SOL    HW2 1674   2.109   3.739   6.084
  259SOL     OW 1675   4.013   0.286   3.912
  259SOL    HW1 1676   4.055   0.324   3.829
  259SOL    HW2 1677   3.979   0.193   3.892
  260SOL     OW 1678   3.745   5.545   3.571
  260SOL    HW1 1679   3.781   5.531   3.664
  260SOL    HW2 1680   3.665   5.486   3.557
  261SOL     OW 1681   4.124   4.445   6.727
  261SOL    HW1 1682   4.095   4.393   6.647
  261SOL    HW2 1683   4.104   4.542   6.712
  262SOL     OW 1684   2.327   4.092   6.901
  262SOL    HW1 1685   2.302   4.173   6.847
  262SOL    HW2 1686   2.412   4.053   6.866
  263SOL     OW 1687   1.179   6.137   3.900
  263SOL    HW1 1688   1.260   6.082   3.919
  263SOL    HW2 1689   1.098   6.078   3.896
  264SOL     OW 1690   0.008   3.387   6.599
  264SOL    HW1 1691   0.021   3.325   6.676
  264SOL    HW2 1692   6.962   3.459   6.625
  265SOL     OW 1693   6.440   6.873   4.256
  265SOL    HW1 1694   6.531   6.831   4.248
  265SOL    HW2 1695   6.370   6.802   4.258
  266SOL     OW 1696   3.907   1.519   5.627
  266SOL    HW1 1697   3.900   1.492   5.531
  266SOL    HW2 1698   3.818   1.509   5.671
  267SOL     OW 1699   1.436   0.744   5.036
  267SOL    HW1 1700   1.471   0.753   4.943
  267SOL    HW2 1701   1.350   0.795   5.045
  268SOL     OW 1702   3.183   1.237   1.022
  268SOL    HW1 1703   3.105   1.235   1.084
  268SOL    HW2 1704   3.174   1.163   0.955
  269SOL     OW 1705   4.133   1.856   7.001
  269SOL    HW1 1706   4.165   1.808   0.064
  269SOL    HW2 1707   4.212   1.882   6.945
  270SOL     OW 1708   6.613   7.009   0.347
  270SOL    HW1 1709   6.651   7.004   0.255
  270SOL    HW2 1710   6.686   0.013   0.412
  271SOL     OW 1711   0.381   2.362   5.633
  271SOL    HW1 1712   0.285   2.344   5.612
  271SOL    HW2 1713   0.397   2.461   5.633
  272SOL     OW 1714   2.550   6.399   3.708
  272SOL    HW1 1715   2.628   6.388   3.646
  272SOL    HW2 1716   2.502   6.484   3.687
  273SOL     OW 1717   1.694   4.995   6.203
  273SOL    HW1 1718   1.620   5.047   6.160
  273SOL    HW2 1719   1.658   4.910   6.241
  274SOL     OW 1720   4.507   1.032   3.773
  274SOL    HW1 1721   4.594   0.988   3.796
  274SOL    HW2 1722   4.478   1.090   3.849
  275SOL     OW 1723   0.094   6.450   2.782
  275SOL    HW1 1724   0.080   6.419   2.688
  275SOL    HW2 1725   0.060   6.380   2.845
  276SOL     OW 1726   0.459   0.611   4.787
  276SOL    HW1 1727   0.553   0.644   4.788
  276SOL    HW2 1728   0.430   0.591   4.881
  277SOL     OW 1729   2.460   3.418   0.531
  277SOL    HW1 1730   2.492   3.326   0.554
  277SOL    HW2 1731   2.539   3.479   0.519
  278SOL     OW 1732   0.231   2.543   2.441
  278SOL    HW1 1733   0.169   2.552   2.518
  278SOL    HW2 1734   0.309   2.486   2.468
  279SOL     OW 1735   5.866   2.256   4.415
  279SOL    HW1 1736   5.823   2.176   4.372
  279SOL    HW2 1737   5.908   2.314   4.345
  280SOL     OW 1738   1.762   4.670   1.937
  280SOL    HW1 1739   1.703   4.665   1.856
  280SOL    HW2 1740   1.850   4.627   1.917
  281SOL     OW 1741   2.227   4.024   0.652
  281SOL    HW1 1742   2.197   3.986   0.740
  281SOL    HW2 1743   2.234   4.123   0.659
  282SOL     OW 1744   3.655   2.199   5.789
  282SOL    HW1 1745   3.594   2.131   5.749
  282SOL    HW2 1746   3.608   2.244   5.866
  283SOL     OW 1747   5.023   3.043   5.983
  283SOL    HW1 1748   4.979   3.082   6.064
  283SOL    HW2 1749   5.122   3.035   6.000
  284SOL     OW 1750   0.791   3.509   4.277
  284SOL    HW1 1751   0.819   3.599   4.246
  284SOL    HW2 1752   0.814   3.498   4.374
  285SOL     OW 1753   5.726   4.346   4.204
  285SOL    HW1 1754   5.799   4.374   4.141
  285SOL    HW2 1755   5.712   4.419   4.271
  286SOL     OW 1756   2.939   3.615   6.638
  286SOL    HW1 1757   2.901   3.567   6.559
  286SOL    HW2 1758   2.975   3.548   6.704
  287SOL     OW 1759   2.026   3.596   0.060
  287SOL    HW1 1760   2.003   3.565   6.987
  287SOL    HW2 1761   2.006   3.693   0.068
  288SOL     OW 1762   5.148   2.326   0.071
  288SOL    HW1 1763   5.118   2.242   0.025
  288SOL    HW2 1764   5.162   2.398   0.003
  289SOL     OW 1765   2.606   5.117   5.876
  289SOL    HW1 1766   2.606   5.091   5.972
  289SOL    HW2 1767   2.545   5.056   5.825
  290SOL     OW 1768   0.059   2.345   5.830
  290SOL    HW1 1769   7.002   2.404   5.858
  290SOL    HW2 1770   0.076   2.357   5.733
  291SOL     OW 1771   6.761   2.145   3.047
  291SOL    HW1 1772   6.714   2.069   3.002
  291SOL    HW2 1773   6.718   2.164   3.135
  292SOL     OW 1774   1.935   0.071   3.647
  292SOL    HW1 1775   1.914   6.993   3.654
  292SOL    HW2 1776   2.031   0.086   3.669
  293SOL     OW 1777   3.878   5.185   3.677
  293SOL    HW1 1778   3.977   5.174   3.670
  293SOL    HW2 1779   3.836   5.160   3.590
  294SOL     OW 1780   4.325   6.726   6.407
  294SOL    HW1 1781   4.314   6.786   6.485
  294SOL    HW2 1782   4.382   6.648   6.432
  295SOL     OW 1783   4.837   0.057   4.120
  295SOL    HW1 1784   4.901   7.006   4.087
  295SOL    HW2 1785   4.757   0.012   4.161
  296SOL     OW 1786   2.162   1.957   3.560
  296SOL    HW1 1787   2.125   2.049   3.549
  296SOL    HW2 1788   2.088   1.894   3.582
  297SOL     OW 1789   1.782   4.548   3.213
  297SOL    HW1 1790   1.744   4.562   3.304
  297SOL    HW2 1791   1.745   4.617   3.151
  298SOL     OW 1792   5.688   5.259   1.194
  298SOL    HW1 1793   5.781   5.222   1.198
  298SOL    HW2 1794   5.622   5.183   1.194
  299SOL     OW 1795   6.360   2.328   4.965
  299SOL    HW1 1796   6.356   2.391   4.887
  299SOL    HW2 1797   6.421   2.252   4.944
  300SOL     OW 1798   6.113   6.907   2.597
  300SOL    HW1 1799   6.131   6.991   2.649
  300SOL    HW2 1800   6.093   6.931   2.502
  301SOL     OW 1801   5.241   4.159   6.045
  301SOL    HW1 1802   5.169   4.115   5.992
  301SOL    HW2 1803   5.329   4.114   6.026
  302SOL     OW 1804   1.061   6.697   3.645
  302SOL    HW1 1805   1.034   6.793   3.641
  302SOL    HW2 1806   1.137   6.681   3.582
  303SOL     OW 1807   5.704   0.137   4.042
  303SOL    HW1 1808   5.694   0.212   3.977
  303SOL    HW2 1809   5.629   0.072   4.030
  304SOL     OW 1810   3.228   0.280   3.481
  304SOL    HW1 1811   3.179   0.330   3.553
  304SOL    HW2 1812   3.195   0.309   3.392
  305SOL     OW 1813   1.265   3.474   1.291
  305SOL    HW1 1814   1.207   3.487   1.211
  305SOL    HW2 1815   1.212   3.491   1.374
  306SOL     OW 1816   2.207   0.599   3.503
  306SOL    HW1 1817   2.191   0.505   3.472
  306SOL    HW2 1818   2.206   0.601   3.603
  307SOL     OW 1819   3.735   0.520   1.343
  307SOL    HW1 1820   3.691   0.450   1.286
  307SOL    HW2 1821   3.674   0.598   1.353
  308SOL     OW 1822   0.553   5.119   4.138
  308SOL    HW1 1823   0.629   5.170   4.098
  308SOL    HW2 1824   0.561   5.121   4.238
  309SOL     OW 1825   4.350   5.107   5.323
  309SOL    HW1 1826   4.384   5.190   5.367
  309SOL    HW2 1827   4.418   5.074   5.257
  310SOL     OW 1828   0.620   6.542   6.251
  310SOL    HW1 1829   0.572   6.482   6.315
  310SOL    HW2 1830   0.554   6.580   6.185
  311SOL     OW 1831   0.601   0.500   1.623
  311SOL    HW1 1832   0.620   0.520   1.719
  311SOL    HW2 1833   0.503   0.487   1.610
  312SOL     OW 1834   3.875   1.836   4.961
  312SOL    HW1 1835   3.820   1.763   4.920
  312SOL    HW2 1836   3.839   1.925   4.931
  313SOL     OW 1837   0.684   4.772   1.447
  313SOL    HW1 1838   0.668   4.785   1.349
  313SOL    HW2 1839   0.639   4.688   1.477
  314SOL     OW 1840   3.576   6.248   1.108
  314SOL    HW1 1841   3.497   6.307   1.091
  314SOL    HW2 1842   3.639   6.295   1.170
  315SOL     OW 1843   0.897   2.928   2.986
  315SOL    HW1 1844   0.944   2.883   3.062
  315SOL    HW2 1845   0.922   3.025   2.984
  316SOL     OW 1846   2.538   2.508   3.832
  316SOL    HW1 1847   2.612   2.501   3.900
  316SOL    HW2 1848   2.574   2.486   3.742
  317SOL     OW 1849   6.529   1.963   6.862
  317SOL    HW1 1850   6.576   2.022   6.796
  317SOL    HW2 1851   6.507   2.016   6.944
  318SOL     OW 1852   2.847   5.269   1.007
  318SOL    HW1 1853   2.931   5.281   0.954
  318SOL    HW2 1854   2.782   5.341   0.982
  319SOL     OW 1855   1.334   6.508   0.883
  319SOL    HW1 1856   1.372   6.600   0.878
  319SOL    HW2 1857   1.304   6.478   0.793
  320SOL     OW 1858   5.335   4.079   0.588
  320SOL    HW1 1859   5.412   4.141   0.605
  320SOL    HW2 1860   5.367   3.984   0.592
  321SOL     OW 1861   1.853   1.346   1.131
  321SOL    HW1 1862   1.948   1.356   1.101
  321SOL    HW2 1863   1.836   1.408   1.208
  322SOL     OW 1864   3.803   2.960   4.667
  322SOL    HW1 1865   3.817   2.961   4.568
  322SOL    HW2 1866   3.887   2.988   4.713
  323SOL     OW 1867   0.544   4.470   1.939
  323SOL    HW1 1868   0.476   4.473   1.866
  323SOL    HW2 1869   0.624   4.524   1.912
  324SOL     OW 1870   0.178   3.047   4.602
  324SOL    HW1 1871   0.253   2.995   4.561
  324SOL    HW2 1872   0.203   3.075   4.694
  325SOL     OW 1873   2.212   2.801   2.563
  325SOL    HW1 1874   2.259   2.825   2.648
  325SOL    HW2 1875   2.184   2.885   2.516
  326SOL     OW 1876   2.105   4.299   6.206
  326SOL    HW1 1877   2.150   4.217   6.242
  326SOL    HW2 1878   2.117   4.374   6.270
  327SOL     OW 1879   5.867   5.332   5.344
  327SOL    HW1 1880   5.911   5.419   5.367
  327SOL    HW2 1881   5.915   5.291   5.266
  328SOL     OW 1882   2.776   5.972   2.013
  328SOL    HW1 1883   2.699   6.031   2.036
  328SOL    HW2 1884   2.843   5.973   2.088
  329SOL     OW 1885   3.354   3.177   2.359
  329SOL    HW1 1886   3.304   3.221   2.435
  329SOL    HW2 1887   3.322   3.082   2.350
  330SOL     OW 1888   3.818   0.848   1.453
  330SOL    HW1 1889   3.892   0.914   1.465
  330SOL    HW2 1890   3.802   0.800   1.539
  331SOL     OW 1891   5.515   4.616   6.368
  331SOL    HW1 1892   5.475   4.569   6.289
  331SOL    HW2 1893   5.445   4.626   6.440
  332SOL     OW 1894   3.711   1.773   3.158
  332SOL    HW1 1895   3.666   1.777   3.069
  332SOL    HW2 1896   3.725   1.678   3.184
  333SOL     OW 1897   3.906   6.398   6.586
  333SOL    HW1 1898   3.929   6.301   6.591
  333SOL    HW2 1899   3.990   6.452   6.580
  334SOL     OW 1900   4.431   6.690   2.591
  334SOL    HW1 1901   4.482   6.604   2.581
  334SOL    HW2 1902   4.365   6.697   2.516
  335SOL     OW 1903   3.451   6.849   3.248
  335SOL    HW1 1904   3.395   6.898   3.314
  335SOL    HW2 1905   3.543   6.836   3.284
  336SOL     OW 1906   3.185   1.202   4.479
  336SOL    HW1 1907   3.207   1.165   4.570
  336SOL    HW2 1908   3.259   1.180   4.415
  337SOL     OW 1909   6.737   3.925   1.260
  337SOL    HW1 1910   6.837   3.925   1.255
  337SOL    HW2 1911   6.704   3.831   1.259
  338SOL     OW 1912   3.675   2.898   1.176
  338SOL    HW1 1913   3.586   2.852   1.187
  338SOL    HW2 1914   3.738   2.865   1.247
  339SOL     OW 1915   4.441   6.293   3.110
  339SOL    HW1 1916   4.435   6.348   3.027
  339SOL    HW2 1917   4.431   6.352   3.190
  340SOL     OW 1918   4.790   4.134   4.217
  340SOL    HW1 1919   4.822   4.064   4.281
  340SOL    HW2 1920   4.702   4.106   4.179
  341SOL     OW 1921   5.778   4.858   5.030
  341SOL    HW1 1922   5.838   4.832   4.955
  341SOL    HW2 1923   5.688   4.817   5.017
  342SOL     OW 1924   6.297   3.696   0.023
  342SOL    HW1 1925   6.316   3.794   0.025
  342SOL    HW2 1926   6.313   3.657   0.114
  343SOL     OW 1927   3.206   0.575   2.746
  343SOL    HW1 1928   3.206   0.662   2.697
  343SOL    HW2 1929   3.247   0.588   2.836
  344SOL     OW 1930   3.371   4.985   0.261
  344SOL    HW1 1931   3.282   4.955   0.228
  344SOL    HW2 1932   3.370   5.085   0.270
  345SOL     OW 1933   0.641   6.794   5.629
  345SOL    HW1 1934   0.641   6.888   5.594
  345SOL    HW2 1935   0.730   6.752   5.612
  346SOL     OW 1936   1.722   0.243   3.778
  346SOL    HW1 1937   1.775   0.325   3.799
  346SOL    HW2 1938   1.780   0.175   3.733
  347SOL     OW 1939   5.493   6.256   6.250
  347SOL    HW1 1940   5.534   6.344   6.274
  347SOL    HW2 1941   5.464   6.258   6.154
  348SOL     OW 1942   3.599   5.924   3.012
  348SOL    HW1 1943   3.608   5.900   2.916
  348SOL    HW2 1944   3.678   5.979   3.041
  349SOL     OW 1945   1.766   4.789   1.686
  349SOL    HW1 1946   1.806   4.813   1.774
  349SOL    HW2 1947   1.811   4.841   1.613
  350SOL     OW 1948   4.846   3.066   1.281
  350SOL    HW1 1949   4.866   3.096   1.188
  350SOL    HW2 1950   4.866   2.968   1.289
  351SOL     OW 1951   3.295   2.081   0.096
  351SOL    HW1 1952   3.210   2.029   0.086
  351SOL    HW2 1953   3.298   2.123   0.187
  352SOL     OW 1954   3.440   1.017   6.800
  352SOL    HW1 1955   3.404   1.108   6.823
  352SOL    HW2 1956   3.444   0.962   6.884
  353SOL     OW 1957   1.999   6.693   0.597
  353SOL    HW1 1958   2.040   6.655   0.680
  353SOL    HW2 1959   2.007   6.793   0.598
  354SOL     OW 1960   4.611   1.207   1.792
  354SOL    HW1 1961   4.616   1.296   1.837
  354SOL    HW2 1962   4.588   1.137   1.858
  355SOL     OW 1963   0.888   1.643   2.313
  355SOL    HW1 1964   0.845   1.640   2.403
  355SOL    HW2 1965   0.955   1.717   2.311
  356SOL     OW 1966   4.081   5.800   3.255
  356SOL    HW1 1967   4.007   5.831   3.315
  356SOL    HW2 1968   4.168   5.837   3.289
  357SOL     OW 1969   0.702   4.549   5.341
  357SOL    HW1 1970   0.629   4.616   5.350
  357SOL    HW2 1971   0.710   4.522   5.245
  358SOL     OW 1972   5.360   0.885   1.779
  358SOL    HW1 1973   5.272   0.847   1.753
  358SOL    HW2 1974   5.351   0.984   1.792
  359SOL     OW 1975   1.485   1.028   2.202
  359SOL    HW1 1976   1.434   1.114   2.197
  359SOL    HW2 1977   1.536   1.015   2.117
  360SOL     OW 1978   4.032   6.250   0.706
  360SOL    HW1 1979   4.012   6.167   0.758
  360SOL    HW2 1980   3.946   6.295   0.680
  361SOL     OW 1981   4.236   0.529   3.372
  361SOL    HW1 1982   4.171   0.546   3.298
  361SOL    HW2 1983   4.229   0.434   3.402
  362SOL     OW 1984   2.585   3.397   0.870
  362SOL    HW1 1985   2.601   3.349   0.784
  362SOL    HW2 1986   2.568   3.330   0.943
  363SOL     OW 1987   4.651   4.642   4.108
  363SOL    HW1 1988   4.602   4.667   4.191
  363SOL    HW2 1989   4.749   4.636   4.128
  364SOL     OW 1990   1.649   5.538   5.804
  364SOL    HW1 1991   1.667   5.464   5.740
  364SOL    HW2 1992   1.600   5.611   5.758
  365SOL     OW 1993   4.623   6.466   2.616
  365SOL    HW1 1994   4.659   6.462   2.523
  365SOL    HW2 1995   4.687   6.516   2.675
  366SOL     OW 1996   5.417   6.710   6.820
  366SOL    HW1 1997   5.451   6.748   6.906
  366SOL    HW2 1998   5.393   6.785   6.758
  367SOL     OW 1999   4.976   2.298   1.387
  367SOL    HW1 2000   4.983   2.238   1.308
  367SOL    HW2 2001   5.032   2.379   1.372
  368SOL     OW 2002   1.474   4.664   5.384
  368SOL    HW1 2003   1.411   4.590   5.360
  368SOL    HW2 2004   1.544   4.630   5.446
  369SOL     OW 2005   0.310   3.492   1.626
  369SOL    HW1 2006   0.213   3.517   1.621
  369SOL    HW2 2007   0.335   3.472   1.720
  370SOL     OW 2008   3.803   1.101   6.490
  370SOL    HW1 2009   3.704   1.109   6.500
  370SOL    HW2 2010   3.847   1.177   6.539
  371SOL     OW 2011   4.063   2.838   6.573
  371SOL    HW1 2012   4.094   2.791   6.491
  371SOL    HW2 2013   4.142   2.869   6.626
  372SOL     OW 2014   1.187   5.339   5.870
  372SOL    HW1 2015   1.222   5.417   5.818
  372SOL    HW2 2016   1.137   5.278   5.809
  373SOL     OW 2017   6.868   0.046   0.511
  373SOL    HW1 2018   6.889   0.021   0.606
  373SOL    HW2 2019   6.935   0.004   0.450
  374SOL     OW 2020   3.851   1.257   0.956
  374SOL    HW1 2021   3.818   1.332   1.013
  374SOL    HW2 2022   3.864   1.176   1.012
  375SOL     OW 2023   6.875   4.514   2.412
  375SOL    HW1 2024   6.816   4.498   2.333
  375SOL    HW2 2025   6.856   4.446   2.482
  376SOL     OW 2026   2.230   2.725   4.439
  376SOL    HW1 2027   2.293   2.683   4.504
  376SOL    HW2 2028   2.136   2.701   4.465
  377SOL     OW 2029   5.020   1.764   4.218
  377SOL    HW1 2030   4.939   1.803   4.262
  377SOL    HW2 2031   4.992   1.686   4.162
  378SOL     OW 2032   4.839   2.641   4.326
  378SOL    HW1 2033   4.899   2.698   4.382
  378SOL    HW2 2034   4.744   2.655   4.354
  379SOL     OW 2035   6.483   3.466   1.351
  379SOL    HW1 2036   6.505   3.404   1.275
  379SOL    HW2 2037   6.396   3.438   1.392
  380SOL     OW 2038   0.850   1.829   0.198
  380SOL    HW1 2039   0.866   1.898   0.128
  380SOL    HW2 2040   0.769   1.852   0.251
  381SOL     OW 2041   2.967   3.852   0.672
  381SOL    HW1 2042   3.038   3.920   0.655
  381SOL    HW2 2043   2.877   3.895   0.668
  382SOL     OW 2044   2.315   5.706   1.077
  382SOL    HW1 2045   2.219   5.708   1.050
  382SOL    HW2 2046   2.333   5.779   1.143
  383SOL     OW 2047   6.409   2.516   6.967
  383SOL    HW1 2048   6.329   2.575   6.961
  383SOL    HW2 2049   6.436   2.506   0.044
  384SOL     OW 2050   1.698   5.699   5.169
  384SOL    HW1 2051   1.633   5.712   5.094
  384SOL    HW2 2052   1.764   5.628   5.144
  385SOL     OW 2053   4.601   5.187   1.371
  385SOL    HW1 2054   4.627   5.276   1.409
  385SOL    HW2 2055   4.603   5.192   1.271
  386SOL     OW 2056   2.951   6.385   5.196
  386SOL    HW1 2057   2.865   6.356   5.153
  386SOL    HW2 2058   3.021   6.316   5.180
  387SOL     OW 2059   6.915   0.314   5.577
  387SOL    HW1 2060   6.958   0.234   5.619
  387SOL    HW2 2061   6.954   0.328   5.486
  388SOL     OW 2062   6.860   2.057   5.158
  388SOL    HW1 2063   6.809   2.111   5.090
  388SOL    HW2 2064   6.910   1.984   5.111
  389SOL     OW 2065   4.699   4.352   1.470
  389SOL    HW1 2066   4.633   4.358   1.545
  389SOL    HW2 2067   4.779   4.300   1.501
  390SOL     OW 2068   4.269   2.170   0.534
  390SOL    HW1 2069   4.192   2.123   0.578
  390SOL    HW2 2070   4.306   2.112   0.461
  391SOL     OW 2071   3.431   3.937   3.751
  391SOL    HW1 2072   3.458   3.871   3.821
  391SOL    HW2 2073   3.335   3.962   3.765
  392SOL     OW 2074   1.423   3.529   1.657
  392SOL    HW1 2075   1.334   3.489   1.634
  392SOL    HW2 2076   1.454   3.587   1.583
  393SOL     OW 2077   1.310   5.079   1.150
  393SOL    HW1 2078   1.375   5.136   1.200
  393SOL    HW2 2079   1.302   4.990   1.196
  394SOL     OW 2080   6.259   1.092   6.309
  394SOL    HW1 2081   6.262   1.135   6.399
  394SOL    HW2 2082   6.286   0.996   6.316
  395SOL     OW 2083   5.889   4.849   0.836
  395SOL    HW1 2084   5.797   4.888   0.826
  395SOL    HW2 2085   5.954   4.922   0.853
  396SOL     OW 2086   1.609   6.927   1.229
  396SOL    HW1 2087   1.672   6.851   1.248
  396SOL    HW2 2088   1.545   6.937   1.306
  397SOL     OW 2089   3.709   1.723   5.257
  397SOL    HW1 2090   3.672   1.704   5.166
  397SOL    HW2 2091   3.714   1.638   5.309
  398SOL     OW 2092   1.459   0.761   3.449
  398SOL    HW1 2093   1.366   0.790   3.422
  398SOL    HW2 2094   1.523   0.836   3.429
  399SOL     OW 2095   5.671   5.948   3.911
  399SOL    HW1 2096   5.707   5.987   3.826
  399SOL    HW2 2097   5.709   5.998   3.989
  400SOL     OW 2098   5.722   6.707   4.155
  400SOL    HW1 2099   5.783   6.664   4.221
  400SOL    HW2 2100   5.656   6.765   4.203
  401SOL     OW 2101   0.482   5.673   5.450
  401SOL    HW1 2102   0.458   5.760   5.405
  401SOL    HW2 2103   0.571   5.643   5.418
  402SOL     OW 2104   5.571   1.730   3.289
  402SOL    HW1 2105   5.591   1.656   3.224
  402SOL    HW2 2106   5.624   1.715   3.372
  403SOL     OW 2107   2.837   1.258   5.313
  403SOL    HW1 2108   2.895   1.340   5.323
  403SOL    HW2 2109   2.742   1.286   5.301
  404SOL     OW 2110   3.788   5.775   3.386
  404SOL    HW1 2111   3.766   5.736   3.476
  404SOL    HW2 2112   3.733   5.729   3.316
  405SOL     OW 2113   2.357   4.849   4.264
  405SOL    HW1 2114   2.444   4.808   4.235
  405SOL    HW2 2115   2.347   4.841   4.363
  406SOL     OW 2116   0.479   6.702   6.486
  406SOL    HW1 2117   0.518   6.787   6.521
  406SOL    HW2 2118   0.507   6.689   6.391
  407SOL     OW 2119   2.273   2.964   3.702
  407SOL    HW1 2120   2.304   2.908   3.626
  407SOL    HW2 2121   2.312   2.929   3.787
  408SOL     OW 2122   1.973   1.957   3.243
  408SOL    HW1 2123   1.980   1.967   3.342
  408SOL    HW2 2124   1.954   2.046   3.202
  409SOL     OW 2125   0.485   3.323   2.276
  409SOL    HW1 2126   0.464   3.405   2.330
  409SOL    HW2 2127   0.534   3.349   2.193
  410SOL     OW 2128   1.810   2.036   1.799
  410SOL    HW1 2129   1.896   1.996   1.833
  410SOL    HW2 2130   1.737   2.017   1.864
  411SOL     OW 2131   0.179   2.448   1.097
  411SOL    HW1 2132   0.173   2.474   1.194
  411SOL    HW2 2133   0.210   2.353   1.090
  412SOL     OW 2134   1.291   5.016   2.637
  412SOL    HW1 2135   1.342   5.102   2.636
  412SOL    HW2 2136   1.332   4.953   2.571
  413SOL     OW 2137   6.145   6.125   2.134
  413SOL    HW1 2138   6.148   6.197   2.065
  413SOL    HW2 2139   6.218   6.139   2.201
  414SOL     OW 2140   1.796   6.667   3.147
  414SOL    HW1 2141   1.812   6.722   3.228
  414SOL    HW2 2142   1.801   6.725   3.066
  415SOL     OW 2143   5.965   1.354   6.648
  415SOL    HW1 2144   6.014   1.288   6.706
  415SOL    HW2 2145   5.968   1.444   6.690
  416SOL     OW 2146   5.488   3.704   5.639
  416SOL    HW1 2147   5.430   3.676   5.716
  416SOL    HW2 2148   5.480   3.636   5.566
  417SOL     OW 2149   1.773   1.962   6.639
  417SOL    HW1 2150   1.805   2.042   6.587
  417SOL    HW2 2151   1.841   1.939   6.709
  418SOL     OW 2152   3.772   0.261   4.839
  418SOL    HW1 2153   3.715   0.219   4.909
  418SOL    HW2 2154   3.838   0.322   4.883
  419SOL     OW 2155   6.751   0.429   0.198
  419SOL    HW1 2156   6.677   0.378   0.153
  419SOL    HW2 2157   6.765   0.391   0.289
  420SOL     OW 2158   4.065   6.989   0.613
  420SOL    HW1 2159   3.992   7.008   0.679
  420SOL    HW2 2160   4.027   6.943   0.533
  421SOL     OW 2161   4.527   4.533   2.211
  421SOL    HW1 2162   4.604   4.527   2.276
  421SOL    HW2 2163   4.509   4.442   2.173
  422SOL     OW 2164   5.177   2.737   1.884
  422SOL    HW1 2165   5.263   2.771   1.845
  422SOL    HW2 2166   5.104   2.804   1.870
  423SOL     OW 2167   2.708   1.033   6.252
  423SOL    HW1 2168   2.760   0.948   6.261
  423SOL    HW2 2169   2.758   1.107   6.297
  424SOL     OW 2170   1.083   3.534   4.122
  424SOL    HW1 2171   1.025   3.468   4.073
  424SOL    HW2 2172   1.035   3.621   4.131
  425SOL     OW 2173   3.906   0.954   0.166
  425SOL    HW1 2174   3.889   0.926   0.071
  425SOL    HW2 2175   3.907   1.054   0.171
  426SOL     OW 2176   2.761   1.857   4.317
  426SOL    HW1 2177   2.724   1.930   4.259
  426SOL    HW2 2178   2.825   1.896   4.383
  427SOL     OW 2179   4.655   1.549   3.051
  427SOL    HW1 2180   4.714   1.508   2.981
  427SOL    HW2 2181   4.705   1.621   3.098
  428SOL     OW 2182   2.979   2.384   6.056
  428SOL    HW1 2183   2.910   2.360   6.124
  428SOL    HW2 2184   2.941   2.452   5.993
  429SOL     OW 2185   6.876   5.746   4.519
  429SOL    HW1 2186   6.786   5.785   4.502
  429SOL    HW2 2187   6.936   5.816   4.559
  430SOL     OW 2188   1.508   0.114   4.173
  430SOL    HW1 2189   1.585   0.130   4.111
  430SOL    HW2 2190   1.541   0.067   4.256
  431SOL     OW 2191   2.554   1.793   1.869
  431SOL    HW1 2192   2.563   1.892   1.878
  431SOL    HW2 2193   2.480   1.771   1.806
  432SOL     OW 2194   4.242   1.815   1.290
  432SOL    HW1 2195   4.207   1.896   1.243
  432SOL    HW2 2196   4.166   1.750   1.303
  433SOL     OW 2197   1.990   4.533   0.844
  433SOL    HW1 2198   2.021   4.458   0.902
  433SOL    HW2 2199   1.985   4.501   0.749
  434SOL     OW 2200   4.758   4.884   3.377
  434SOL    HW1 2201   4.706   4.876   3.292
  434SOL    HW2 2202   4.701   4.856   3.454
  435SOL     OW 2203   3.934   2.873   5.684
  435SOL    HW1 2204   3.970   2.891   5.593
  435SOL    HW2 2205   3.932   2.958   5.737
  436SOL     OW 2206   5.137   6.613   2.499
  436SOL    HW1 2207   5.199   6.605   2.422
  436SOL    HW2 2208   5.174   6.678   2.566
  437SOL     OW 2209   6.869   1.014   4.885
  437SOL    HW1 2210   6.929   1.033   4.807
  437SOL    HW2 2211   6.910   1.051   4.968
  438SOL     OW 2212   0.734   4.779   2.481
  438SOL    HW1 2213   0.829   4.751   2.490
  438SOL    HW2 2214   0.711   4.845   2.552
  439SOL     OW 2215   0.201   0.833   4.749
  439SOL    HW1 2216   0.284   0.878   4.780
  439SOL    HW2 2217   0.160   0.887   4.675
  440SOL     OW 2218   4.173   1.628   0.355
  440SOL    HW1 2219   4.166   1.685   0.437
  440SOL    HW2 2220   4.233   1.672   0.289
  441SOL     OW 2221   0.938   4.780   1.897
  441SOL    HW1 2222   0.983   4.865   1.870
  441SOL    HW2 2223   0.903   4.788   1.990
  442SOL     OW 2224   4.719   3.491   5.419
  442SOL    HW1 2225   4.703   3.528   5.327
  442SOL    HW2 2226   4.804   3.439   5.419
  443SOL     OW 2227   4.896   2.762   2.772
  443SOL    HW1 2228   4.968   2.699   2.801
  443SOL    HW2 2229   4.936   2.841   2.726
  444SOL     OW 2230   4.734   1.479   1.959
  444SOL    HW1 2231   4.687   1.442   2.039
  444SOL    HW2 2232   4.780   1.565   1.983
  445SOL     OW 2233   1.521   4.900   2.999
  445SOL    HW1 2234   1.529   4.849   2.914
  445SOL    HW2 2235   1.450   4.970   2.989
  446SOL     OW 2236   6.230   6.959   1.408
  446SOL    HW1 2237   6.285   6.882   1.439
  446SOL    HW2 2238   6.193   7.008   1.487
  447SOL     OW 2239   5.751   4.115   0.831
  447SOL    HW1 2240   5.672   4.152   0.881
  447SOL    HW2 2241   5.831   4.114   0.891
  448SOL     OW 2242   4.052   6.636   3.938
  448SOL    HW1 2243   3.967   6.593   3.907
  448SOL    HW2 2244   4.097   6.576   4.003
  449SOL     OW 2245   1.724   4.267   4.370
  449SOL    HW1 2246   1.718   4.288   4.468
  449SOL    HW2 2247   1.814   4.294   4.336
  450SOL     OW 2248   6.575   4.601   3.277
  450SOL    HW1 2249   6.574   4.519   3.333
  450SOL    HW2 2250   6.666   4.643   3.279
  451SOL     OW 2251   0.842   2.068   0.528
  451SOL    HW1 2252   0.784   2.086   0.448
  451SOL    HW2 2253   0.937   2.054   0.497
  452SOL     OW 2254   5.101   5.344   3.035
  452SOL    HW1 2255   5.021   5.393   3.070
  452SOL    HW2 2256   5.119   5.265   3.092
  453SOL     OW 2257   3.966   1.229   0.141
  453SOL    HW1 2258   4.024   1.225   0.060
  453SOL    HW2 2259   3.879   1.273   0.118
  454SOL     OW 2260   0.060   3.515   5.068
  454SOL    HW1 2261   0.077   3.612   5.084
  454SOL    HW2 2262   6.996   3.504   5.015
  455SOL     OW 2263   5.324   5.364   6.287
  455SOL    HW1 2264   5.357   5.435   6.224
  455SOL    HW2 2265   5.230   5.385   6.315
  456SOL     OW 2266   2.796   1.034   2.709
  456SOL    HW1 2267   2.767   1.129   2.717
  456SOL    HW2 2268   2.781   0.987   2.796
  457SOL     OW 2269   2.313   6.690   0.106
  457SOL    HW1 2270   2.399   6.719   0.064
  457SOL    HW2 2271   2.331   6.651   0.197
  458SOL     OW 2272   3.660   1.551   2.664
  458SOL    HW1 2273   3.695   1.457   2.657
  458SOL    HW2 2274   3.725   1.614   2.621
  459SOL     OW 2275   3.540   0.597   3.446
  459SOL    HW1 2276   3.459   0.628   3.396
  459SOL    HW2 2277   3.518   0.512   3.494
  460SOL     OW 2278   0.448   1.356   6.532
  460SOL    HW1 2279   0.492   1.266   6.533
  460SOL    HW2 2280   0.493   1.416   6.599
  461SOL     OW 2281   1.237   5.834   5.480
  461SOL    HW1 2282   1.326   5.815   5.436
  461SOL    HW2 2283   1.164   5.805   5.419
  462SOL     OW 2284   3.278   4.118   4.632
  462SOL    HW1 2285   3.205   4.067   4.678
  462SOL    HW2 2286   3.292   4.206   4.679
  463SOL     OW 2287   5.256   5.994   3.973
  463SOL    HW1 2288   5.186   5.941   4.021
  463SOL    HW2 2289   5.322   5.931   3.931
  464SOL     OW 2290   4.665   5.440   6.028
  464SOL    HW1 2291   4.721   5.500   6.084
  464SOL    HW2 2292   4.689   5.453   5.931
  465SOL     OW 2293   0.767   4.113   0.270
  465SOL    HW1 2294   0.768   4.188   0.204
  465SOL    HW2 2295   0.821   4.037   0.235
  466SOL     OW 2296   4.033   5.107   4.371
  466SOL    HW1 2297   4.023   5.007   4.379
  466SOL    HW2 2298   4.115   5.128   4.319
  467SOL     OW 2299   6.188   0.182   2.408
  467SOL    HW1 2300   6.169   0.280   2.403
  467SOL    HW2 2301   6.179   0.151   2.503
  468SOL     OW 2302   2.586   6.111   6.301
  468SOL    HW1 2303   2.529   6.176   6.251
  468SOL    HW2 2304   2.535   6.076   6.379
  469SOL     OW 2305   2.929   4.862   4.884
  469SOL    HW1 2306   3.016   4.868   4.932
  469SOL    HW2 2307   2.876   4.785   4.920
  470SOL     OW 2308   2.129   4.918   2.492
  470SOL    HW1 2309   2.042   4.869   2.487
  470SOL    HW2 2310   2.118   4.999   2.550
  471SOL     OW 2311   1.823   2.228   4.249
  471SOL    HW1 2312   1.751   2.296   4.238
  471SOL    HW2 2313   1.899   2.267   4.301
  472SOL     OW 2314   5.515   3.808   6.762
  472SOL    HW1 2315   5.564   3.840   6.682
  472SOL    HW2 2316   5.501   3.884   6.826
  473SOL     OW 2317   5.725   3.507   2.580
  473SOL    HW1 2318   5.717   3.431   2.514
  473SOL    HW2 2319   5.687   3.478   2.668
  474SOL     OW 2320   4.577   5.797   4.490
  474SOL    HW1 2321   4.559   5.844   4.576
  474SOL    HW2 2322   4.492   5.787   4.439
  475SOL     OW 2323   5.832   1.605   0.606
  475SOL    HW1 2324   5.854   1.699   0.579
  475SOL    HW2 2325   5.761   1.568   0.546
  476SOL     OW 2326   1.383   3.745   6.632
  476SOL    HW1 2327   1.325   3.819   6.597
  476SOL    HW2 2328   1.401   3.680   6.558
  477SOL     OW 2329   1.224   4.877   3.234
  477SOL    HW1 2330   1.273   4.810   3.289
  477SOL    HW2 2331   1.167   4.830   3.167
  478SOL     OW 2332   5.836   5.985   3.219
  478SOL    HW1 2333   5.805   6.067   3.172
  478SOL    HW2 2334   5.758   5.925   3.238
  479SOL     OW 2335   3.141   4.049   2.782
  479SOL    HW1 2336   3.107   4.128   2.834
  479SOL    HW2 2337   3.083   3.969   2.802
  480SOL     OW 2338   0.954   0.521   2.574
  480SOL    HW1 2339   0.923   0.545   2.666
  480SOL    HW2 2340   1.050   0.493   2.577
  481SOL     OW 2341   6.744   0.223   1.062
  481SOL    HW1 2342   6.650   0.206   1.032
  481SOL    HW2 2343   6.783   0.138   1.099
  482SOL     OW 2344   4.324   4.941   2.650
  482SOL    HW1 2345   4.313   5.040   2.638
  482SOL    HW2 2346   4.262   4.893   2.588
  483SOL     OW 2347   5.731   1.843   4.127
  483SOL    HW1 2348   5.818   1.793   4.119
  483SOL    HW2 2349   5.700   1.869   4.036
  484SOL     OW 2350   2.271   5.133   3.492
  484SOL    HW1 2351   2.273   5.064   3.564
  484SOL    HW2 2352   2.222   5.214   3.525
  485SOL     OW 2353   5.584   2.236   1.517
  485SOL    HW1 2354   5.658   2.263   1.579
  485SOL    HW2 2355   5.534   2.317   1.487
  486SOL     OW 2356   6.060   6.286   5.665
  486SOL    HW1 2357   6.089   6.356   5.601
  486SOL    HW2 2358   6.092   6.196   5.634
  487SOL     OW 2359   0.356   0.530   6.713
  487SOL    HW1 2360   0.390   0.622   6.729
  487SOL    HW2 2361   0.349   0.514   6.614
  488SOL     OW 2362   2.134   5.728   3.213
  488SOL    HW1 2363   2.112   5.802   3.149
  488SOL    HW2 2364   2.172   5.767   3.297
  489SOL     OW 2365   1.853   5.750   5.644
  489SOL    HW1 2366   1.754   5.738   5.638
  489SOL    HW2 2367   1.873   5.829   5.701
  490SOL     OW 2368   1.117   3.451   4.699
  490SOL    HW1 2369   1.098   3.414   4.790
  490SOL    HW2 2370   1.186   3.395   4.653
  491SOL     OW 2371   6.293   2.647   0.890
  491SOL    HW1 2372   6.334   2.724   0.937
  491SOL    HW2 2373   6.320   2.648   0.794
  492SOL     OW 2374   1.350   3.138   5.150
  492SOL    HW1 2375   1.259   3.121   5.188
  492SOL    HW2 2376   1.383   3.054   5.106
  493SOL     OW 2377   1.619   5.352   4.542
  493SOL    HW1 2378   1.604   5.361   4.641
  493SOL    HW2 2379   1.537   5.382   4.493
  494SOL     OW 2380   2.484   0.484   4.214
  494SOL    HW1 2381   2.452   0.432   4.293
  494SOL    HW2 2382   2.584   0.482   4.211
  495SOL     OW 2383   3.585   4.135   6.486
  495SOL    HW1 2384   3.546   4.047   6.511
  495SOL    HW2 2385   3.511   4.200   6.464
  496SOL     OW 2386   5.447   1.296   3.396
  496SOL    HW1 2387   5.523   1.278   3.334
  496SOL    HW2 2388   5.482   1.331   3.483
  497SOL     OW 2389   4.774   1.806   0.618
  497SOL    HW1 2390   4.719   1.886   0.643
  497SOL    HW2 2391   4.733   1.724   0.659
  498SOL     OW 2392   0.378   0.640   1.281
  498SOL    HW1 2393   0.294   0.621   1.229
  498SOL    HW2 2394   0.371   0.731   1.322
  499SOL     OW 2395   3.046   6.059   0.261
  499SOL    HW1 2396   3.018   5.998   0.336
  499SOL    HW2 2397   3.108   6.129   0.296
  500SOL     OW 2398   5.477   1.646   6.692
  500SOL    HW1 2399   5.504   1.630   6.597
  500SOL    HW2 2400   5.412   1.722   6.696
  501SOL     OW 2401   1.362   1.137   5.244
  501SOL    HW1 2402   1.371   1.235   5.224
  501SOL    HW2 2403   1.449   1.101   5.275
  502SOL     OW 2404   2.597   4.488   6.741
  502SOL    HW1 2405   2.582   4.458   6.646
  502SOL    HW2 2406   2.639   4.414   6.793
  503SOL     OW 2407   3.458   5.805   1.012
  503SOL    HW1 2408   3.534   5.801   0.948
  503SOL    HW2 2409   3.477   5.746   1.090
  504SOL     OW 2410   6.641   6.121   1.708
  504SOL    HW1 2411   6.635   6.171   1.794
  504SOL    HW2 2412   6.641   6.186   1.632
  505SOL     OW 2413   5.934   4.970   5.238
  505SOL    HW1 2414   5.891   4.933   5.156
  505SOL    HW2 2415   5.865   5.013   5.296
  506SOL     OW 2416   3.482   5.004   3.542
  506SOL    HW1 2417   3.519   5.014   3.449
  506SOL    HW2 2418   3.382   5.012   3.539
  507SOL     OW 2419   2.866   0.838   1.463
  507SOL    HW1 2420   2.793   0.838   1.394
  507SOL    HW2 2421   2.899   0.931   1.476
  508SOL     OW 2422   0.493   4.418   3.302
  508SOL    HW1 2423   0.486   4.321   3.326
  508SOL    HW2 2424   0.487   4.473   3.385
  509SOL     OW 2425   4.193   6.921   6.032
  509SOL    HW1 2426   4.263   6.855   6.062
  509SOL    HW2 2427   4.158   6.894   5.943
  510SOL     OW 2428   6.387   3.951   6.979
  510SOL    HW1 2429   6.470   3.906   6.946
  510SOL    HW2 2430   6.330   3.977   6.902
  511SOL     OW 2431   0.733   1.471   0.383
  511SOL    HW1 2432   0.781   1.522   0.312
  511SOL    HW2 2433   0.676   1.400   0.340
  512SOL     OW 2434   0.150   2.578   3.871
  512SOL    HW1 2435   0.124   2.656   3.929
  512SOL    HW2 2436   0.193   2.613   3.787
  513SOL     OW 2437   5.283   0.412   3.341
  513SOL    HW1 2438   5.293   0.506   3.375
  513SOL    HW2 2439   5.366   0.360   3.361
  514SOL     OW 2440   4.918   0.960   5.488
  514SOL    HW1 2441   4.881   1.000   5.572
  514SOL    HW2 2442   4.894   1.018   5.410
  515SOL     OW 2443   3.620   0.284   0.210
  515SOL    HW1 2444   3.584   0.201   0.167
  515SOL    HW2 2445   3.596   0.284   0.307
  516SOL     OW 2446   2.168   6.393   2.291
  516SOL    HW1 2447   2.221   6.442   2.360
  516SOL    HW2 2448   2.217   6.311   2.263
  517SOL     OW 2449   3.289   5.235   1.733
  517SOL    HW1 2450   3.271   5.232   1.634
  517SOL    HW2 2451   3.301   5.330   1.761
  518SOL     OW 2452   1.988   5.107   4.548
  518SOL    HW1 2453   1.956   5.192   4.508
  518SOL    HW2 2454   2.085   5.117   4.573
  519SOL     OW 2455   7.000   6.576   2.345
  519SOL    HW1 2456   0.070   6.620   2.356
  519SOL    HW2 2457   6.985   6.555   2.248
  520SOL     OW 2458   2.439   4.603   0.663
  520SOL    HW1 2459   2.515   4.662   0.691
  520SOL    HW2 2460   2.386   4.576   0.743
  521SOL     OW 2461   6.587   5.823   5.076
  521SOL    HW1 2462   6.590   5.923   5.083
  521SOL    HW2 2463   6.616   5.795   4.984
  522SOL     OW 2464   3.994   4.120   0.117
  522SOL    HW1 2465   3.941   4.146   0.198
  522SOL    HW2 2466   4.013   4.202   0.062
  523SOL     OW 2467   1.276   6.910   7.001
  523SOL    HW1 2468   1.335   6.984   6.970
  523SOL    HW2 2469   1.201   6.897   6.936
  524SOL     OW 2470   6.792   1.473   0.751
  524SOL    HW1 2471   6.848   1.515   0.822
  524SOL    HW2 2472   6.851   1.428   0.684
  525SOL     OW 2473   0.906   2.977   4.008
  525SOL    HW1 2474   0.983   3.039   4.020
  525SOL    HW2 2475   0.936   2.895   3.958
  526SOL     OW 2476   4.381   6.995   4.071
  526SOL    HW1 2477   4.409   6.979   4.165
  526SOL    HW2 2478   4.411   0.067   4.042
  527SOL     OW 2479   0.549   1.657   0.855
  527SOL    HW1 2480   0.637   1.703   0.845
  527SOL    HW2 2481   0.543   1.618   0.947
  528SOL     OW 2482   6.817   2.804   4.516
  528SOL    HW1 2483   6.746   2.792   4.447
  528SOL    HW2 2484   6.776   2.810   4.606
  529SOL     OW 2485   1.940   6.885   6.785
  529SOL    HW1 2486   1.917   6.793   6.817
  529SOL    HW2 2487   1.972   6.940   6.862
  530SOL     OW 2488   3.577   4.768   1.362
  530SOL    HW1 2489   3.617   4.803   1.447
  530SOL    HW2 2490   3.489   4.813   1.345
  531SOL     OW 2491   1.221   7.012   0.523
  531SOL    HW1 2492   1.290   0.062   0.503
  531SOL    HW2 2493   1.264   6.921   0.523
  532SOL     OW 2494   1.679   1.861   5.763
  532SOL    HW1 2495   1.604   1.861   5.697
  532SOL    HW2 2496   1.650   1.909   5.846
  533SOL     OW 2497   4.101   0.454   4.121
  533SOL    HW1 2498   4.061   0.395   4.051
  533SOL    HW2 2499   4.155   0.526   4.077
  534SOL     OW 2500   1.774   4.147   1.805
  534SOL    HW1 2501   1.866   4.109   1.816
  534SOL    HW2 2502   1.748   4.195   1.889
  535SOL     OW 2503   5.020   3.420   4.379
  535SOL    HW1 2504   5.019   3.387   4.284
  535SOL    HW2 2505   4.966   3.358   4.436
  536SOL     OW 2506   6.213   6.638   1.866
  536SOL    HW1 2507   6.257   6.552   1.839
  536SOL    HW2 2508   6.132   6.618   1.920
  537SOL     OW 2509   2.847   1.890   2.500
  537SOL    HW1 2510   2.891   1.828   2.435
  537SOL    HW2 2511   2.875   1.984   2.481
  538SOL     OW 2512   3.595   5.272   4.690
  538SOL    HW1 2513   3.585   5.175   4.711
  538SOL    HW2 2514   3.569   5.289   4.595
  539SOL     OW 2515   1.503   0.242   6.489
  539SOL    HW1 2516   1.548   0.161   6.452
  539SOL    HW2 2517   1.429   0.270   6.428
  540SOL     OW 2518   1.629   0.473   4.790
  540SOL    HW1 2519   1.583   0.562   4.788
  540SOL    HW2 2520   1.605   0.425   4.875
  541SOL     OW 2521   5.061   5.854   4.091
  541SOL    HW1 2522   5.036   5.767   4.048
  541SOL    HW2 2523   4.986   5.883   4.151
  542SOL     OW 2524   3.740   6.526   5.921
  542SOL    HW1 2525   3.718   6.433   5.952
  542SOL    HW2 2526   3.798   6.571   5.988
  543SOL     OW 2527   6.247   2.197   3.661
  543SOL    HW1 2528   6.175   2.232   3.722
  543SOL    HW2 2529   6.268   2.102   3.686
  544SOL     OW 2530   1.386   2.933   1.592
  544SOL    HW1 2531   1.416   2.998   1.662
  544SOL    HW2 2532   1.464   2.909   1.534
  545SOL     OW 2533   6.641   6.316   1.013
  545SOL    HW1 2534   6.579   6.240   0.995
  545SOL    HW2 2535   6.729   6.281   1.045
  546SOL     OW 2536   0.233   3.863   1.831
  546SOL    HW1 2537   0.300   3.831   1.765
  546SOL    HW2 2538   0.276   3.929   1.893
  547SOL     OW 2539   5.150   6.998   6.185
  547SOL    HW1 2540   5.116   0.033   6.108
  547SOL    HW2 2541   5.092   7.014   6.265
  548SOL     OW 2542   3.790   2.603   6.935
  548SOL    HW1 2543   3.846   2.563   7.008
  548SOL    HW2 2544   3.775   2.700   6.954
  549SOL     OW 2545   5.568   1.267   2.237
  549SOL    HW1 2546   5.582   1.282   2.139
  549SOL    HW2 2547   5.542   1.353   2.280
  550SOL     OW 2548   6.859   5.994   3.233
  550SOL    HW1 2549   6.926   6.050   3.281
  550SOL    HW2 2550   6.795   6.053   3.184
  551SOL     OW 2551   5.924   0.621   0.730
  551SOL    HW1 2552   5.874   0.558   0.790
  551SOL    HW2 2553   6.018   0.632   0.763
  552SOL     OW 2554   0.626   6.764   5.168
  552SOL    HW1 2555   0.670   6.711   5.240
  552SOL    HW2 2556   0.538   6.799   5.201
  553SOL     OW 2557   3.590   1.882   6.770
  553SOL    HW1 2558   3.599   1.980   6.753
  553SOL    HW2 2559   3.565   1.867   6.866
  554SOL     OW 2560   6.444   6.136   0.889
  554SOL    HW1 2561   6.353   6.133   0.930
  554SOL    HW2 2562   6.461   6.052   0.839
  555SOL     OW 2563   2.191   3.735   5.209
  555SOL    HW1 2564   2.176   3.681   5.126
  555SOL    HW2 2565   2.251   3.812   5.188
  556SOL     OW 2566   5.813   0.242   3.637
  556SOL    HW1 2567   5.790   0.232   3.540
  556SOL    HW2 2568   5.874   0.168   3.665
  557SOL     OW 2569   5.619   4.249   6.748
  557SOL    HW1 2570   5.695   4.253   6.682
  557SOL    HW2 2571   5.547   4.190   6.712
  558SOL     OW 2572   3.310   3.542   2.751
  558SOL    HW1 2573   3.228   3.499   2.790
  558SOL    HW2 2574   3.382   3.473   2.743
  559SOL     OW 2575   6.664   0.337   5.966
  559SOL    HW1 2576   6.697   0.383   5.883
  559SOL    HW2 2577   6.613   0.255   5.940
  560SOL     OW 2578   6.935   3.299   4.371
  560SOL    HW1 2579   6.931   3.208   4.412
  560SOL    HW2 2580   6.884   3.298   4.285
  561SOL     OW 2581   0.848   3.010   0.453
  561SOL    HW1 2582   0.818   3.047   0.541
  561SOL    HW2 2583   0.936   3.051   0.428
  562SOL     OW 2584   4.400   6.328   4.408
  562SOL    HW1 2585   4.323   6.392   4.412
  562SOL    HW2 2586   4.431   6.308   4.501
  563SOL     OW 2587   1.668   0.723   3.880
  563SOL    HW1 2588   1.615   0.799   3.843
  563SOL    HW2 2589   1.606   0.655   3.920
  564SOL     OW 2590   5.957   2.027   6.267
  564SOL    HW1 2591   6.043   2.067   6.300
  564SOL    HW2 2592   5.883   2.093   6.280
  565SOL     OW 2593   3.750   3.498   3.324
  565SOL    HW1 2594   3.793   3.413   3.354
  565SOL    HW2 2595   3.658   3.478   3.290
  566SOL     OW 2596   3.106   0.955   3.664
  566SOL    HW1 2597   3.069   0.905   3.586
  566SOL    HW2 2598   3.032   0.971   3.730
  567SOL     OW 2599   2.864   2.867   5.591
  567SOL    HW1 2600   2.790   2.839   5.653
  567SOL    HW2 2601   2.826   2.925   5.519
  568SOL     OW 2602   0.638   6.306   0.449
  568SOL    HW1 2603   0.707   6.359   0.399
  568SOL    HW2 2604   0.598   6.363   0.521
  569SOL     OW 2605   6.147   3.457   6.934
  569SOL    HW1 2606   6.048   3.445   6.925
  569SOL    HW2 2607   6.167   3.550   6.965
  570SOL     OW 2608   2.889   0.739   6.118
  570SOL    HW1 2609   2.956   0.795   6.071
  570SOL    HW2 2610   2.834   0.689   6.051
  571SOL     OW 2611   2.257   4.551   1.429
  571SOL    HW1 2612   2.294   4.458   1.429
  571SOL    HW2 2613   2.328   4.615   1.400
  572SOL     OW 2614   2.569   0.840   5.153
  572SOL    HW1 2615   2.546   0.900   5.077
  572SOL    HW2 2616   2.650   0.876   5.200
  573SOL     OW 2617   0.384   0.830   5.481
  573SOL    HW1 2618   0.305   0.770   5.483
  573SOL    HW2 2619   0.363   0.913   5.430
  574SOL     OW 2620   1.990   1.416   6.119
  574SOL    HW1 2621   1.976   1.514   6.133
  574SOL    HW2 2622   1.966   1.392   6.025
  575SOL     OW 2623   4.056   3.852   0.040
  575SOL    HW1 2624   4.068   3.795   0.122
  575SOL    HW2 2625   4.036   3.946   0.067
  576SOL     OW 2626   2.142   2.164   2.662
  576SOL    HW1 2627   2.164   2.091   2.597
  576SOL    HW2 2628   2.053   2.204   2.640
  577SOL     OW 2629   0.625   1.093   1.295
  577SOL    HW1 2630   0.673   1.160   1.351
  577SOL    HW2 2631   0.547   1.056   1.346
  578SOL     OW 2632   3.627   0.250   6.844
  578SOL    HW1 2633   3.668   0.169   6.885
  578SOL    HW2 2634   3.699   0.309   6.808
  579SOL     OW 2635   2.015   4.025   1.819
  579SOL    HW1 2636   2.051   4.057   1.731
  579SOL    HW2 2637   2.051   3.934   1.839
  580SOL     OW 2638   4.925   5.323   4.747
  580SOL    HW1 2639   4.931   5.308   4.845
  580SOL    HW2 2640   4.836   5.365   4.724
  581SOL     OW 2641   2.183   2.379   4.949
  581SOL    HW1 2642   2.256   2.310   4.952
  581SOL    HW2 2643   2.153   2.401   5.042
  582SOL     OW 2644   5.135   4.722   3.928
  582SOL    HW1 2645   5.039   4.717   3.901
  582SOL    HW2 2646   5.141   4.750   4.024
  583SOL     OW 2647   3.707   5.998   5.939
  583SOL    HW1 2648   3.669   5.995   5.847
  583SOL    HW2 2649   3.738   6.090   5.961
  584SOL     OW 2650   3.777   0.942   5.600
  584SOL    HW1 2651   3.694   0.996   5.584
  584SOL    HW2 2652   3.751   0.846   5.613
  585SOL     OW 2653   3.613   0.329   1.204
  585SOL    HW1 2654   3.604   0.233   1.233
  585SOL    HW2 2655   3.522   0.368   1.191
  586SOL     OW 2656   3.803   0.406   0.517
  586SOL    HW1 2657   3.841   0.339   0.453
  586SOL    HW2 2658   3.704   0.408   0.508
  587SOL     OW 2659   5.162   1.815   2.041
  587SOL    HW1 2660   5.205   1.852   2.124
  587SOL    HW2 2661   5.208   1.852   1.961
  588SOL     OW 2662   1.535   4.654   3.149
  588SOL    HW1 2663   1.517   4.737   3.097
  588SOL    HW2 2664   1.451   4.626   3.197
  589SOL     OW 2665   3.156   5.364   0.365
  589SOL    HW1 2666   3.082   5.331   0.423
  589SOL    HW2 2667   3.152   5.464   0.358
  590SOL     OW 2668   3.227   2.399   0.215
  590SOL    HW1 2669   3.164   2.362   0.147
  590SOL    HW2 2670   3.260   2.325   0.274
  591SOL     OW 2671   2.927   6.045   3.552
  591SOL    HW1 2672   2.982   6.000   3.481
  591SOL    HW2 2673   2.835   6.061   3.516
  592SOL     OW 2674   3.876   1.865   4.653
  592SOL    HW1 2675   3.831   1.779   4.630
  592SOL    HW2 2676   3.813   1.941   4.639
  593SOL     OW 2677   1.926   1.970   6.882
  593SOL    HW1 2678   1.894   1.977   6.976
  593SOL    HW2 2679   1.959   2.059   6.851
  594SOL     OW 2680   4.551   1.036   2.673
  594SOL    HW1 2681   4.465   0.998   2.708
  594SOL    HW2 2682   4.532   1.090   2.591
  595SOL     OW 2683   6.331   5.694   2.848
  595SOL    HW1 2684   6.409   5.752   2.871
  595SOL    HW2 2685   6.250   5.726   2.898
  596SOL     OW 2686   6.548   4.793   4.183
  596SOL    HW1 2687   6.451   4.814   4.197
  596SOL    HW2 2688   6.572   4.811   4.088
  597SOL     OW 2689   3.126   1.255   6.678
  597SOL    HW1 2690   3.155   1.324   6.744
  597SOL    HW2 2691   3.092   1.175   6.727
  598SOL     OW 2692   3.207   4.062   4.029
  598SOL    HW1 2693   3.134   4.041   4.095
  598SOL    HW2 2694   3.294   4.068   4.078
  599SOL     OW 2695   1.592   5.407   1.434
  599SOL    HW1 2696   1.636   5.490   1.470
  599SOL    HW2 2697   1.538   5.364   1.507
  600SOL     OW 2698   6.485   3.460   5.080
  600SOL    HW1 2699   6.549   3.457   5.157
  600SOL    HW2 2700   6.451   3.368   5.062
  601SOL     OW 2701   0.660   6.395   5.692
  601SOL    HW1 2702   0.739   6.447   5.723
  601SOL    HW2 2703   0.636   6.422   5.599
  602SOL     OW 2704   1.885   0.185   3.395
  602SOL    HW1 2705   1.918   0.145   3.480
  602SOL    HW2 2706   1.962   0.201   3.333
  603SOL     OW 2707   1.688   1.641   4.367
  603SOL    HW1 2708   1.739   1.714   4.412
  603SOL    HW2 2709   1.602   1.677   4.330
  604SOL     OW 2710   5.980   3.362   1.002
  604SOL    HW1 2711   5.987   3.428   0.928
  604SOL    HW2 2712   5.886   3.361   1.037
  605SOL     OW 2713   6.569   6.032   1.292
  605SOL    HW1 2714   6.635   5.985   1.350
  605SOL    HW2 2715   6.599   6.028   1.197
  606SOL     OW 2716   3.500   6.885   4.676
  606SOL    HW1 2717   3.567   6.877   4.603
  606SOL    HW2 2718   3.543   6.861   4.763
  607SOL     OW 2719   1.760   3.032   5.516
  607SOL    HW1 2720   1.758   3.111   5.454
  607SOL    HW2 2721   1.851   3.026   5.559
  608SOL     OW 2722   3.027   1.471   5.850
  608SOL    HW1 2723   3.089   1.410   5.901
  608SOL    HW2 2724   2.997   1.425   5.766
  609SOL     OW 2725   3.312   2.895   2.118
  609SOL    HW1 2726   3.278   2.852   2.034
  609SOL    HW2 2727   3.411   2.900   2.116
  610SOL     OW 2728   4.481   3.478   1.585
  610SOL    HW1 2729   4.508   3.404   1.646
  610SOL    HW2 2730   4.382   3.489   1.588
  611SOL     OW 2731   3.803   0.753   3.080
  611SOL    HW1 2732   3.890   0.802   3.070
  611SOL    HW2 2733   3.784   0.740   3.177
  612SOL     OW 2734   4.419   4.922   4.152
  612SOL    HW1 2735   4.465   4.917   4.241
  612SOL    HW2 2736   4.482   4.959   4.084
  613SOL     OW 2737   4.194   4.611   5.321
  613SOL    HW1 2738   4.125   4.576   5.384
  613SOL    HW2 2739   4.197   4.554   5.239
  614SOL     OW 2740   2.830   6.254   6.404
  614SOL    HW1 2741   2.785   6.250   6.493
  614SOL    HW2 2742   2.762   6.247   6.332
  615SOL     OW 2743   0.714   5.027   2.647
  615SOL    HW1 2744   0.733   5.125   2.647
  615SOL    HW2 2745   0.616   5.012   2.661
  616SOL     OW 2746   6.026   2.577   3.704
  616SOL    HW1 2747   6.070   2.514   3.641
  616SOL    HW2 2748   5.933   2.546   3.724
  617SOL     OW 2749   2.932   6.724   5.952
  617SOL    HW1 2750   2.850   6.774   5.981
  617SOL    HW2 2751   2.906   6.637   5.910
  618SOL     OW 2752   1.701   1.355   2.878
  618SOL    HW1 2753   1.602   1.356   2.872
  618SOL    HW2 2754   1.730   1.283   2.941
  619SOL     OW 2755   0.798   1.673   6.747
  619SOL    HW1 2756   0.729   1.724   6.797
  619SOL    HW2 2757   0.769   1.577   6.737
  620SOL     OW 2758   4.298   3.601   1.184
  620SOL    HW1 2759   4.360   3.649   1.246
  620SOL    HW2 2760   4.309   3.638   1.092
  621SOL     OW 2761   0.180   5.594   1.084
  621SOL    HW1 2762   0.261   5.537   1.067
  621SOL    HW2 2763   0.097   5.542   1.064
  622SOL     OW 2764   0.875   0.611   6.824
  622SOL    HW1 2765   0.821   0.623   6.907
  622SOL    HW2 2766   0.938   0.534   6.835
  623SOL     OW 2767   0.305   4.449   5.927
  623SOL    HW1 2768   0.280   4.491   6.014
  623SOL    HW2 2769   0.393   4.402   5.936
  624SOL     OW 2770   1.055   1.991   0.990
  624SOL    HW1 2771   1.121   2.067   0.994
  624SOL    HW2 2772   0.962   2.027   0.999
  625SOL     OW 2773   1.452   1.124   2.583
  625SOL    HW1 2774   1.517   1.188   2.543
  625SOL    HW2 2775   1.460   1.035   2.539
  626SOL     OW 2776   3.255   6.787   4.699
  626SOL    HW1 2777   3.202   6.809   4.617
  626SOL    HW2 2778   3.352   6.805   4.682
  627SOL     OW 2779   5.543   0.948   6.936
  627SOL    HW1 2780   5.595   1.028   6.906
  627SOL    HW2 2781   5.449   0.975   6.958
  628SOL     OW 2782   5.316   3.929   3.437
  628SOL    HW1 2783   5.271   4.002   3.386
  628SOL    HW2 2784   5.248   3.884   3.496
  629SOL     OW 2785   1.458   6.523   0.453
  629SOL    HW1 2786   1.437   6.594   0.386
  629SOL    HW2 2787   1.521   6.559   0.521
  630SOL     OW 2788   2.961   1.957   1.692
  630SOL    HW1 2789   2.991   2.051   1.676
  630SOL    HW2 2790   2.990   1.900   1.615
  631SOL     OW 2791   2.344   6.961   4.617
  631SOL    HW1 2792   2.434   6.954   4.660
  631SOL    HW2 2793   2.335   6.892   4.546
  632SOL     OW 2794   2.188   0.590   0.911
  632SOL    HW1 2795   2.126   0.650   0.960
  632SOL    HW2 2796   2.199   0.505   0.962
  633SOL     OW 2797   2.032   6.533   5.594
  633SOL    HW1 2798   2.080   6.587   5.663
  633SOL    HW2 2799   2.017   6.589   5.513
  634SOL     OW 2800   3.016   5.750   1.588
  634SOL    HW1 2801   3.066   5.812   1.649
  634SOL    HW2 2802   3.075   5.672   1.566
  635SOL     OW 2803   2.575   0.454   2.691
  635SOL    HW1 2804   2.563   0.553   2.682
  635SOL    HW2 2805   2.487   0.411   2.709
  636SOL     OW 2806   5.050   5.533   0.217
  636SOL    HW1 2807   5.122   5.601   0.203
  636SOL    HW2 2808   5.086   5.442   0.197
  637SOL     OW 2809   5.337   4.505   0.495
  637SOL    HW1 2810   5.305   4.410   0.500
  637SOL    HW2 2811   5.273   4.565   0.541
  638SOL     OW 2812   5.549   1.170   2.503
  638SOL    HW1 2813   5.632   1.197   2.551
  638SOL    HW2 2814   5.566   1.170   2.405
  639SOL     OW 2815   4.742   4.142   2.623
  639SOL    HW1 2816   4.785   4.055   2.644
  639SOL    HW2 2817   4.746   4.158   2.524
  640SOL     OW 2818   2.437   4.053   5.551
  640SOL    HW1 2819   2.393   4.028   5.465
  640SOL    HW2 2820   2.536   4.047   5.541
  641SOL     OW 2821   0.285   6.058   6.033
  641SOL    HW1 2822   0.237   6.004   6.103
  641SOL    HW2 2823   0.240   6.045   5.945
  642SOL     OW 2824   1.294   4.389   6.053
  642SOL    HW1 2825   1.345   4.336   5.985
  642SOL    HW2 2826   1.200   4.403   6.021
  643SOL     OW 2827   6.339   5.905   4.853
  643SOL    HW1 2828   6.403   5.830   4.837
  643SOL    HW2 2829   6.374   5.963   4.927
  644SOL     OW 2830   2.600   5.781   1.921
  644SOL    HW1 2831   2.550   5.749   2.002
  644SOL    HW2 2832   2.674   5.841   1.949
  645SOL     OW 2833   6.199   3.068   3.325
  645SOL    HW1 2834   6.123   3.002   3.329
  645SOL    HW2 2835   6.162   3.160   3.317
  646SOL     OW 2836   1.547   1.995   4.645
  646SOL    HW1 2837   1.539   2.087   4.605
  646SOL    HW2 2838   1.627   1.993   4.705
  647SOL     OW 2839   5.325   3.364   0.132
  647SOL    HW1 2840   5.376   3.429   0.075
  647SOL    HW2 2841   5.349   3.379   0.228
  648SOL     OW 2842   4.802   1.949   3.866
  648SOL    HW1 2843   4.727   1.992   3.816
  648SOL    HW2 2844   4.774   1.932   3.960
  649SOL     OW 2845   4.360   4.597   1.994
  649SOL    HW1 2846   4.357   4.497   2.000
  649SOL    HW2 2847   4.440   4.631   2.044
  650SOL     OW 2848   4.987   3.377   0.803
  650SOL    HW1 2849   5.054   3.307   0.829
  650SOL    HW2 2850   5.016   3.419   0.717
  651SOL     OW 2851   0.886   5.969   6.322
  651SOL    HW1 2852   0.908   5.872   6.329
  651SOL    HW2 2853   0.786   5.981   6.324
  652SOL     OW 2854   4.984   1.546   2.607
  652SOL    HW1 2855   4.917   1.548   2.681
  652SOL    HW2 2856   5.076   1.545   2.646
  653SOL     OW 2857   3.882   4.909   3.345
  653SOL    HW1 2858   3.831   4.837   3.297
  653SOL    HW2 2859   3.834   4.996   3.335
  654SOL     OW 2860   6.432   5.173   6.872
  654SOL    HW1 2861   6.494   5.214   6.939
  654SOL    HW2 2862   6.340   5.169   6.911
  655SOL     OW 2863   6.960   1.390   6.767
  655SOL    HW1 2864   6.908   1.322   6.818
  655SOL    HW2 2865   6.957   1.478   6.815
  656SOL     OW 2866   2.581   5.896   1.362
  656SOL    HW1 2867   2.671   5.864   1.332
  656SOL    HW2 2868   2.569   5.878   1.459
  657SOL     OW 2869   4.163   1.185   6.468
  657SOL    HW1 2870   4.097   1.176   6.393
  657SOL    HW2 2871   4.215   1.099   6.476
  658SOL     OW 2872   3.564   5.060   5.592
  658SOL    HW1 2873   3.485   5.099   5.639
  658SOL    HW2 2874   3.560   4.960   5.598
  659SOL     OW 2875   3.105   0.895   6.502
  659SOL    HW1 2876   3.136   0.800   6.498
  659SOL    HW2 2877   3.149   0.947   6.429
  660SOL     OW 2878   3.766   6.039   3.348
  660SOL    HW1 2879   3.763   6.045   3.249
  660SOL    HW2 2880   3.784   5.945   3.376
  661SOL     OW 2881   5.659   5.799   2.977
  661SOL    HW1 2882   5.753   5.831   2.969
  661SOL    HW2 2883   5.628   5.807   3.072
  662SOL     OW 2884   3.689   1.374   0.745
  662SOL    HW1 2885   3.750   1.332   0.812
  662SOL    HW2 2886   3.662   1.307   0.677
  663SOL     OW 2887   1.989   4.874   4.721
  663SOL    HW1 2888   1.983   4.957   4.665
  663SOL    HW2 2889   2.003   4.795   4.661
  664SOL     OW 2890   6.033   0.833   6.277
  664SOL    HW1 2891   6.009   0.905   6.342
  664SOL    HW2 2892   6.132   0.816   6.280
  665SOL     OW 2893   1.670   4.404   2.232
  665SOL    HW1 2894   1.755   4.456   2.244
  665SOL    HW2 2895   1.622   4.436   2.151
  666SOL     OW 2896   4.274   1.346   0.698
  666SOL    HW1 2897   4.264   1.353   0.599
  666SOL    HW2 2898   4.185   1.356   0.742
  667SOL     OW 2899   1.437   6.620   2.261
  667SOL    HW1 2900   1.534   6.601   2.275
  667SOL    HW2 2901   1.396   6.652   2.346
  668SOL     OW 2902   5.167   3.758   0.625
  668SOL    HW1 2903   5.264   3.774   0.603
  668SOL    HW2 2904   5.150   3.660   0.629
  669SOL     OW 2905   5.080   1.772   2.407
  669SOL    HW1 2906   5.155   1.707   2.393
  669SOL    HW2 2907   5.050   1.769   2.502
  670SOL     OW 2908   3.003   2.258   3.156
  670SOL    HW1 2909   2.922   2.256   3.098
  670SOL    HW2 2910   2.979   2.226   3.248
  671SOL     OW 2911   2.891   6.728   1.631
  671SOL    HW1 2912   2.879   6.644   1.579
  671SOL    HW2 2913   2.805   6.778   1.636
  672SOL     OW 2914   1.674   6.782   2.575
  672SOL    HW1 2915   1.687   6.717   2.650
  672SOL    HW2 2916   1.625   6.862   2.609
  673SOL     OW 2917   5.705   6.625   0.798
  673SOL    HW1 2918   5.791   6.665   0.768
  673SOL    HW2 2919   5.721   6.531   0.829
  674SOL     OW 2920   6.050   0.769   3.906
  674SOL    HW1 2921   5.973   0.829   3.884
  674SOL    HW2 2922   6.020   0.674   3.906
  675SOL     OW 2923   0.411   3.573   3.105
  675SOL    HW1 2924   0.380   3.480   3.124
  675SOL    HW2 2925   0.332   3.635   3.100
  676SOL     OW 2926   2.365   6.634   5.978
  676SOL    HW1 2927   2.413   6.562   5.928
  676SOL    HW2 2928   2.325   6.699   5.914
  677SOL     OW 2929   5.415   1.831   1.149
  677SOL    HW1 2930   5.458   1.799   1.234
  677SOL    HW2 2931   5.453   1.780   1.072
  678SOL     OW 2932   0.656   5.374   3.528
  678SOL    HW1 2933   0.722   5.326   3.471
  678SOL    HW2 2934   0.674   5.353   3.624
  679SOL     OW 2935   4.557   2.117   5.329
  679SOL    HW1 2936   4.504   2.034   5.349
  679SOL    HW2 2937   4.620   2.099   5.253
  680SOL     OW 2938   6.107   6.485   4.406
  680SOL    HW1 2939   6.082   6.408   4.348
  680SOL    HW2 2940   6.147   6.450   4.491
  681SOL     OW 2941   4.680   4.783   2.485
  681SOL    HW1 2942   4.685   4.686   2.462
  681SOL    HW2 2943   4.662   4.794   2.583
  682SOL     OW 2944   0.397   1.377   3.234
  682SOL    HW1 2945   0.480   1.367   3.289
  682SOL    HW2 2946   0.379   1.292   3.186
  683SOL     OW 2947   3.485   4.126   1.500
  683SOL    HW1 2948   3.582   4.117   1.476
  683SOL    HW2 2949   3.437   4.174   1.427
  684SOL     OW 2950   6.492   1.368   5.662
  684SOL    HW1 2951   6.579   1.405   5.692
  684SOL    HW2 2952   6.477   1.392   5.566
  685SOL     OW 2953   3.342   0.479   2.969
  685SOL    HW1 2954   3.430   0.509   3.006
  685SOL    HW2 2955   3.358   0.405   2.903
  686SOL     OW 2956   4.137   0.509   5.109
  686SOL    HW1 2957   4.154   0.536   5.204
  686SOL    HW2 2958   4.222   0.515   5.057
  687SOL     OW 2959   0.356   1.950   3.386
  687SOL    HW1 2960   0.283   2.014   3.410
  687SOL    HW2 2961   0.324   1.857   3.398
  688SOL     OW 2962   5.983   1.623   6.742
  688SOL    HW1 2963   5.956   1.672   6.825
  688SOL    HW2 2964   6.010   1.688   6.671
  689SOL     OW 2965   1.588   5.647   6.408
  689SOL    HW1 2966   1.575   5.747   6.404
  689SOL    HW2 2967   1.664   5.626   6.469
  690SOL     OW 2968   5.281   3.582   3.216
  690SOL    HW1 2969   5.347   3.550   3.148
  690SOL    HW2 2970   5.195   3.532   3.206
  691SOL     OW 2971   6.074   1.654   1.258
  691SOL    HW1 2972   6.002   1.623   1.320
  691SOL    HW2 2973   6.123   1.574   1.222
  692SOL     OW 2974   1.592   0.072   4.617
  692SOL    HW1 2975   1.567   0.165   4.591
  692SOL    HW2 2976   1.590   0.013   4.536
  693SOL     OW 2977   5.656   5.806   3.545
  693SOL    HW1 2978   5.582   5.789   3.610
  693SOL    HW2 2979   5.648   5.898   3.508
  694SOL     OW 2980   4.766   6.325   5.381
  694SOL    HW1 2981   4.784   6.352   5.476
  694SOL    HW2 2982   4.852   6.308   5.334
  695SOL     OW 2983   4.649   6.820   4.195
  695SOL    HW1 2984   4.665   6.840   4.098
  695SOL    HW2 2985   4.695   6.735   4.220
  696SOL     OW 2986   5.534   3.921   2.775
  696SOL    HW1 2987   5.503   4.011   2.808
  696SOL    HW2 2988   5.620   3.931   2.726
  697SOL     OW 2989   1.084   6.310   2.211
  697SOL    HW1 2990   1.089   6.217   2.175
  697SOL    HW2 2991   1.092   6.307   2.311
  698SOL     OW 2992   5.673   6.479   6.855
  698SOL    HW1 2993   5.602   6.493   6.924
  698SOL    HW2 2994   5.719   6.566   6.837
  699SOL     OW 2995   3.188   3.110   1.211
  699SOL    HW1 2996   3.153   3.198   1.243
  699SOL    HW2 2997   3.118   3.040   1.225
  700SOL     OW 2998   4.059   0.100   4.460
  700SOL    HW1 2999   4.090   0.091   4.555
  700SOL    HW2 3000   4.124   0.157   4.409
  701SOL     OW 3001   4.798   5.114   1.551
  701SOL    HW1 3002   4.714   5.141   1.506
  701SOL    HW2 3003   4.799   5.148   1.645
  702SOL     OW 3004   3.943   0.690   4.168
  702SOL    HW1 3005   3.905   0.701   4.076
  702SOL    HW2 3006   3.988   0.601   4.176
  703SOL     OW 3007   3.127   2.375   6.647
  703SOL    HW1 3008   3.199   2.429   6.605
  703SOL    HW2 3009   3.160   2.340   6.736
  704SOL     OW 3010   2.347   2.068   5.493
  704SOL    HW1 3011   2.447   2.074   5.494
  704SOL    HW2 3012   2.310   2.137   5.556
  705SOL     OW 3013   0.350   6.612   5.122
  705SOL    HW1 3014   0.345   6.706   5.157
  705SOL    HW2 3015   0.263   6.566   5.139
  706SOL     OW 3016   4.216   1.387   5.236
  706SOL    HW1 3017   4.209   1.288   5.247
  706SOL    HW2 3018   4.212   1.432   5.325
  707SOL     OW 3019   3.158   5.357   4.348
  707SOL    HW1 3020   3.116   5.271   4.374
  707SOL    HW2 3021   3.230   5.340   4.281
  708SOL     OW 3022   4.554   5.934   4.010
  708SOL    HW1 3023   4.480   5.937   4.078
  708SOL    HW2 3024   4.551   6.016   3.954
  709SOL     OW 3025   2.154   0.169   0.927
  709SOL    HW1 3026   2.149   0.247   0.989
  709SOL    HW2 3027   2.147   0.084   0.979
  710SOL     OW 3028   4.895   3.269   1.927
  710SOL    HW1 3029   4.817   3.208   1.936
  710SOL    HW2 3030   4.980   3.216   1.924
  711SOL     OW 3031   6.694   2.179   6.767
  711SOL    HW1 3032   6.718   2.265   6.722
  711SOL    HW2 3033   6.769   2.149   6.825
  712SOL     OW 3034   5.089   3.911   0.046
  712SOL    HW1 3035   5.033   3.975   0.099
  712SOL    HW2 3036   5.159   3.962   7.015
  713SOL     OW 3037   4.151   3.298   5.172
  713SOL    HW1 3038   4.094   3.278   5.092
  713SOL    HW2 3039   4.110   3.373   5.224
  714SOL     OW 3040   5.306   6.083   3.126
  714SOL    HW1 3041   5.251   6.007   3.091
  714SOL    HW2 3042   5.383   6.099   3.065
  715SOL     OW 3043   6.302   4.852   5.839
  715SOL    HW1 3044   6.310   4.952   5.847
  715SOL    HW2 3045   6.384   4.815   5.796
  716SOL     OW 3046   2.052   1.856   3.012
  716SOL    HW1 3047   2.022   1.899   3.097
  716SOL    HW2 3048   1.973   1.825   2.960
  717SOL     OW 3049   5.107   4.834   4.192
  717SOL    HW1 3050   5.096   4.820   4.290
  717SOL    HW2 3051   5.091   4.930   4.169
  718SOL     OW 3052   5.211   2.552   5.316
  718SOL    HW1 3053   5.254   2.641   5.302
  718SOL    HW2 3054   5.244   2.513   5.402
  719SOL     OW 3055   5.308   6.467   3.855
  719SOL    HW1 3056   5.385   6.531   3.849
  719SOL    HW2 3057   5.264   6.460   3.765
  720SOL     OW 3058   2.302   1.078   0.558
  720SOL    HW1 3059   2.252   1.139   0.497
  720SOL    HW2 3060   2.350   1.132   0.627
  721SOL     OW 3061   0.094   2.234   2.663
  721SOL    HW1 3062   0.193   2.247   2.670
  721SOL    HW2 3063   0.074   2.169   2.588
  722SOL     OW 3064   5.450   6.260   0.874
  722SOL    HW1 3065   5.467   6.357   0.888
  722SOL    HW2 3066   5.522   6.222   0.816
  723SOL     OW 3067   2.511   6.864   4.240
  723SOL    HW1 3068   2.580   6.909   4.297
  723SOL    HW2 3069   2.549   6.780   4.202
  724SOL     OW 3070   1.343   1.852   4.055
  724SOL    HW1 3071   1.360   1.945   4.022
  724SOL    HW2 3072   1.429   1.802   4.059
  725SOL     OW 3073   1.511   4.469   2.961
  725SOL    HW1 3074   1.604   4.441   2.938
  725SOL    HW2 3075   1.514   4.540   3.031
  726SOL     OW 3076   1.828   3.711   0.960
  726SOL    HW1 3077   1.854   3.618   0.988
  726SOL    HW2 3078   1.796   3.762   1.039
  727SOL     OW 3079   3.961   5.432   5.043
  727SOL    HW1 3080   3.878   5.403   4.995
  727SOL    HW2 3081   4.038   5.377   5.012
  728SOL     OW 3082   6.655   3.152   3.821
  728SOL    HW1 3083   6.725   3.081   3.815
  728SOL    HW2 3084   6.693   3.238   3.787
  729SOL     OW 3085   0.446   4.018   1.063
  729SOL    HW1 3086   0.363   3.963   1.055
  729SOL    HW2 3087   0.441   4.076   1.144
  730SOL     OW 3088   3.806   0.671   3.343
  730SOL    HW1 3089   3.723   0.688   3.395
  730SOL    HW2 3090   3.872   0.623   3.401
  731SOL     OW 3091   5.007   5.316   5.383
  731SOL    HW1 3092   4.928   5.343   5.327
  731SOL    HW2 3093   5.060   5.247   5.334
  732SOL     OW 3094   3.758   1.195   5.228
  732SOL    HW1 3095   3.678   1.255   5.226
  732SOL    HW2 3096   3.729   1.102   5.248
  733SOL     OW 3097   6.311   5.605   3.289
  733SOL    HW1 3098   6.335   5.634   3.381
  733SOL    HW2 3099   6.369   5.653   3.223
  734SOL     OW 3100   6.212   6.616   2.671
  734SOL    HW1 3101   6.125   6.656   2.641
  734SOL    HW2 3102   6.264   6.684   2.723
  735SOL     OW 3103   4.925   6.632   2.313
  735SOL    HW1 3104   4.861   6.702   2.344
  735SOL    HW2 3105   4.995   6.617   2.383
  736SOL     OW 3106   2.199   1.351   3.693
  736SOL    HW1 3107   2.287   1.315   3.664
  736SOL    HW2 3108   2.139   1.276   3.722
  737SOL     OW 3109   3.483   0.931   5.888
  737SOL    HW1 3110   3.416   0.860   5.910
  737SOL    HW2 3111   3.560   0.889   5.840
  738SOL     OW 3112   2.273   4.391   0.312
  738SOL    HW1 3113   2.349   4.440   0.355
  738SOL    HW2 3114   2.287   4.293   0.323
  739SOL     OW 3115   3.094   6.937   4.037
  739SOL    HW1 3116   3.126   6.863   4.096
  739SOL    HW2 3117   3.168   6.965   3.975
  740SOL     OW 3118   5.004   3.270   2.715
  740SOL    HW1 3119   4.957   3.191   2.677
  740SOL    HW2 3120   4.953   3.305   2.793
  741SOL     OW 3121   3.035   0.764   3.040
  741SOL    HW1 3122   2.970   0.688   3.050
  741SOL    HW2 3123   3.101   0.761   3.115
  742SOL     OW 3124   2.435   6.437   1.857
  742SOL    HW1 3125   2.515   6.452   1.799
  742SOL    HW2 3126   2.445   6.350   1.905
  743SOL     OW 3127   0.645   7.018   3.224
  743SOL    HW1 3128   0.653   0.088   3.180
  743SOL    HW2 3129   0.733   6.971   3.221
  744SOL     OW 3130   5.170   1.677   0.195
  744SOL    HW1 3131   5.135   1.691   0.287
  744SOL    HW2 3132   5.147   1.584   0.164
  745SOL     OW 3133   1.949   7.011   4.590
  745SOL    HW1 3134   2.024   0.058   4.591
  745SOL    HW2 3135   1.927   6.988   4.495
  746SOL     OW 3136   0.311   4.856   5.480
  746SOL    HW1 3137   0.336   4.762   5.458
  746SOL    HW2 3138   0.359   4.885   5.563
  747SOL     OW 3139   4.889   5.807   2.859
  747SOL    HW1 3140   4.815   5.746   2.886
  747SOL    HW2 3141   4.858   5.902   2.861
  748SOL     OW 3142   5.126   5.219   1.604
  748SOL    HW1 3143   5.184   5.301   1.606
  748SOL    HW2 3144   5.056   5.226   1.676
  749SOL     OW 3145   4.827   3.946   4.410
  749SOL    HW1 3146   4.809   3.855   4.447
  749SOL    HW2 3147   4.858   4.007   4.483
  750SOL     OW 3148   2.578   1.872   2.425
  750SOL    HW1 3149   2.518   1.796   2.451
  750SOL    HW2 3150   2.671   1.853   2.457
  751SOL     OW 3151   3.605   0.898   0.688
  751SOL    HW1 3152   3.675   0.882   0.618
  751SOL    HW2 3153   3.648   0.937   0.769
  752SOL     OW 3154   3.605   2.615   5.574
  752SOL    HW1 3155   3.622   2.516   5.582
  752SOL    HW2 3156   3.592   2.639   5.478
  753SOL     OW 3157   3.689   3.800   4.514
  753SOL    HW1 3158   3.703   3.896   4.490
  753SOL    HW2 3159   3.609   3.764   4.465
  754SOL     OW 3160   5.876   0.732   0.405
  754SOL    HW1 3161   5.816   0.657   0.431
  754SOL    HW2 3162   5.964   0.722   0.452
  755SOL     OW 3163   4.079   4.253   5.317
  755SOL    HW1 3164   4.133   4.308   5.254
  755SOL    HW2 3165   3.982   4.275   5.306
  756SOL     OW 3166   2.360   5.379   6.174
  756SOL    HW1 3167   2.303   5.437   6.233
  756SOL    HW2 3168   2.404   5.436   6.104
  757SOL     OW 3169   2.672   6.081   2.725
  757SOL    HW1 3170   2.751   6.028   2.693
  757SOL    HW2 3171   2.589   6.027   2.713
  758SOL     OW 3172   4.765   0.700   4.410
  758SOL    HW1 3173   4.826   0.780   4.414
  758SOL    HW2 3174   4.739   0.683   4.315
  759SOL     OW 3175   0.943   3.056   3.434
  759SOL    HW1 3176   1.010   3.042   3.507
  759SOL    HW2 3177   0.851   3.050   3.473
  760SOL     OW 3178   6.358   5.316   3.315
  760SOL    HW1 3179   6.406   5.322   3.227
  760SOL    HW2 3180   6.304   5.399   3.329
  761SOL     OW 3181   3.912   4.312   6.080
  761SOL    HW1 3182   3.845   4.241   6.101
  761SOL    HW2 3183   3.907   4.383   6.150
  762SOL     OW 3184   3.353   5.687   3.351
  762SOL    HW1 3185   3.380   5.763   3.411
  762SOL    HW2 3186   3.255   5.693   3.333
  763SOL     OW 3187   5.628   0.741   0.687
  763SOL    HW1 3188   5.700   0.810   0.674
  763SOL    HW2 3189   5.654   0.657   0.640
  764SOL     OW 3190   5.020   6.875   5.844
  764SOL    HW1 3191   5.033   6.791   5.896
  764SOL    HW2 3192   4.961   6.937   5.896
  765SOL     OW 3193   6.925   0.011   0.771
  765SOL    HW1 3194   6.939   0.102   0.812
  765SOL    HW2 3195   6.872   6.974   0.834
  766SOL     OW 3196   2.700   2.015   4.602
  766SOL    HW1 3197   2.606   1.998   4.572
  766SOL    HW2 3198   2.747   1.928   4.616
  767SOL     OW 3199   6.397   4.789   4.652
  767SOL    HW1 3200   6.458   4.803   4.574
  767SOL    HW2 3201   6.451   4.783   4.736
  768SOL     OW 3202   1.717   5.609   3.012
  768SOL    HW1 3203   1.760   5.692   3.046
  768SOL    HW2 3204   1.744   5.531   3.070
  769SOL     OW 3205   2.609   2.023   5.483
  769SOL    HW1 3206   2.681   2.092   5.480
  769SOL    HW2 3207   2.639   1.941   5.434
  770SOL     OW 3208   1.317   4.843   5.777
  770SOL    HW1 3209   1.275   4.758   5.746
  770SOL    HW2 3210   1.413   4.845   5.749
  771SOL     OW 3211   1.517   5.267   2.963
  771SOL    HW1 3212   1.455   5.193   2.991
  771SOL    HW2 3213   1.605   5.255   3.009
  772SOL     OW 3214   6.098   4.134   0.452
  772SOL    HW1 3215   6.065   4.205   0.391
  772SOL    HW2 3216   6.023   4.101   0.510
  773SOL     OW 3217   1.645   4.134   3.770
  773SOL    HW1 3218   1.689   4.074   3.704
  773SOL    HW2 3219   1.632   4.084   3.856
  774SOL     OW 3220   2.541   0.646   3.210
  774SOL    HW1 3221   2.445   0.668   3.227
  774SOL    HW2 3222   2.569   0.683   3.122
  775SOL     OW 3223   1.172   4.230   2.916
  775SOL    HW1 3224   1.125   4.142   2.904
  775SOL    HW2 3225   1.207   4.261   2.828
  776SOL     OW 3226   2.376   5.442   5.855
  776SOL    HW1 3227   2.443   5.485   5.914
  776SOL    HW2 3228   2.402   5.455   5.759
  777SOL     OW 3229   2.372   3.878   6.409
  777SOL    HW1 3230   2.312   3.939   6.460
  777SOL    HW2 3231   2.390   3.916   6.318
  778SOL     OW 3232   2.648   6.000   6.766
  778SOL    HW1 3233   2.680   5.909   6.790
  778SOL    HW2 3234   2.572   6.025   6.825
  779SOL     OW 3235   6.958   2.420   3.237
  779SOL    HW1 3236   6.971   2.455   3.330
  779SOL    HW2 3237   6.985   2.491   3.171
  780SOL     OW 3238   0.126   2.331   4.563
  780SOL    HW1 3239   0.136   2.234   4.583
  780SOL    HW2 3240   0.047   2.345   4.503
  781SOL     OW 3241   0.099   4.576   0.114
  781SOL    HW1 3242   0.164   4.512   0.153
  781SOL    HW2 3243   0.019   4.583   0.174
  782SOL     OW 3244   1.890   3.367   4.480
  782SOL    HW1 3245   1.804   3.410   4.506
  782SOL    HW2 3246   1.963   3.401   4.539
  783SOL     OW 3247   6.341   4.873   6.691
  783SOL    HW1 3248   6.332   4.818   6.774
  783SOL    HW2 3249   6.438   4.882   6.668
  784SOL     OW 3250   2.440   6.021   0.734
  784SOL    HW1 3251   2.440   5.922   0.746
  784SOL    HW2 3252   2.377   6.047   0.661
  785SOL     OW 3253   0.772   0.771   4.158
  785SOL    HW1 3254   0.839   0.705   4.125
  785SOL    HW2 3255   0.684   0.726   4.175
  786SOL     OW 3256   6.209   0.997   4.015
  786SOL    HW1 3257   6.283   0.957   4.070
  786SOL    HW2 3258   6.143   0.926   3.991
  787SOL     OW 3259   2.108   6.725   0.952
  787SOL    HW1 3260   2.102   6.809   1.006
  787SOL    HW2 3261   2.142   6.650   1.010
  788SOL     OW 3262   1.891   2.281   1.857
  788SOL    HW1 3263   1.897   2.334   1.772
  788SOL    HW2 3264   1.853   2.190   1.836
  789SOL     OW 3265   4.248   4.597   2.693
  789SOL    HW1 3266   4.260   4.542   2.776
  789SOL    HW2 3267   4.321   4.575   2.628
  790SOL     OW 3268   0.932   2.558   2.407
  790SOL    HW1 3269   0.895   2.642   2.366
  790SOL    HW2 3270   0.934   2.567   2.506
  791SOL     OW 3271   2.589   6.141   3.786
  791SOL    HW1 3272   2.582   6.236   3.756
  791SOL    HW2 3273   2.571   6.080   3.709
  792SOL     OW 3274   1.531   0.332   0.012
  792SOL    HW1 3275   1.462   0.405   0.012
  792SOL    HW2 3276   1.531   0.287   6.942
  793SOL     OW 3277   2.439   6.444   3.985
  793SOL    HW1 3278   2.413   6.405   3.896
  793SOL    HW2 3279   2.385   6.526   4.001
  794SOL     OW 3280   3.263   3.512   2.368
  794SOL    HW1 3281   3.234   3.430   2.418
  794SOL    HW2 3282   3.249   3.592   2.426
  795SOL     OW 3283   4.277   0.825   6.040
  795SOL    HW1 3284   4.220   0.831   6.121
  795SOL    HW2 3285   4.362   0.776   6.062
  796SOL     OW 3286   0.352   2.635   0.721
  796SOL    HW1 3287   0.438   2.682   0.742
  796SOL    HW2 3288   0.277   2.701   0.724
  797SOL     OW 3289   4.599   0.266   0.846
  797SOL    HW1 3290   4.560   0.348   0.888
  797SOL    HW2 3291   4.540   0.235   0.771
  798SOL     OW 3292   4.944   5.951   1.131
  798SOL    HW1 3293   4.941   5.858   1.166
  798SOL    HW2 3294   4.966   5.950   1.034
  799SOL     OW 3295   2.546   2.203   5.754
  799SOL    HW1 3296   2.558   2.237   5.661
  799SOL    HW2 3297   2.635   2.191   5.797
  800SOL     OW 3298   5.591   2.818   3.235
  800SOL    HW1 3299   5.667   2.793   3.295
  800SOL    HW2 3300   5.569   2.740   3.176
  801SOL     OW 3301   1.806   5.829   6.138
  801SOL    HW1 3302   1.721   5.881   6.131
  801SOL    HW2 3303   1.798   5.745   6.084
  802SOL     OW 3304   5.184   2.137   6.707
  802SOL    HW1 3305   5.110   2.185   6.660
  802SOL    HW2 3306   5.149   2.096   6.791
  803SOL     OW 3307   2.589   1.523   4.533
  803SOL    HW1 3308   2.627   1.433   4.516
  803SOL    HW2 3309   2.497   1.514   4.570
  804SOL     OW 3310   5.225   0.867   3.347
  804SOL    HW1 3311   5.246   0.781   3.395
  804SOL    HW2 3312   5.133   0.861   3.309
  805SOL     OW 3313   3.592   0.565   3.896
  805SOL    HW1 3314   3.530   0.640   3.919
  805SOL    HW2 3315   3.624   0.522   3.980
  806SOL     OW 3316   2.458   5.898   5.314
  806SOL    HW1 3317   2.427   5.880   5.407
  806SOL    HW2 3318   2.463   5.813   5.263
  807SOL     OW 3319   1.343   6.265   5.800
  807SOL    HW1 3320   1.244   6.272   5.792
  807SOL    HW2 3321   1.369   6.170   5.817
  808SOL     OW 3322   5.290   2.469   6.126
  808SOL    HW1 3323   5.368   2.482   6.065
  808SOL    HW2 3324   5.322   2.437   6.216
  809SOL     OW 3325   2.561   5.012   7.013
  809SOL    HW1 3326   2.487   4.958   0.035
  809SOL    HW2 3327   2.643   5.003   0.050
  810SOL     OW 3328   3.626   3.359   0.123
  810SOL    HW1 3329   3.603   3.301   0.045
  810SOL    HW2 3330   3.614   3.455   0.098
  811SOL     OW 3331   6.264   4.953   4.802
  811SOL    HW1 3332   6.218   5.025   4.749
  811SOL    HW2 3333   6.301   4.884   4.740
  812SOL     OW 3334   0.664   3.659   1.863
  812SOL    HW1 3335   0.689   3.564   1.844
  812SOL    HW2 3336   0.716   3.719   1.803
  813SOL     OW 3337   1.411   1.778   5.456
  813SOL    HW1 3338   1.399   1.857   5.515
  813SOL    HW2 3339   1.394   1.694   5.508
  814SOL     OW 3340   0.442   4.950   2.670
  814SOL    HW1 3341   0.378   5.007   2.722
  814SOL    HW2 3342   0.446   4.859   2.711
  815SOL     OW 3343   4.147   1.755   4.640
  815SOL    HW1 3344   4.062   1.773   4.691
  815SOL    HW2 3345   4.127   1.752   4.542
  816SOL     OW 3346   5.886   4.628   6.910
  816SOL    HW1 3347   5.927   4.634   7.001
  816SOL    HW2 3348   5.811   4.562   6.911
  817SOL     OW 3349   0.444   5.116   6.885
  817SOL    HW1 3350   0.461   5.188   6.952
  817SOL    HW2 3351   0.418   5.032   6.932
  818SOL     OW 3352   6.760   2.257   4.970
  818SOL    HW1 3353   6.755   2.283   4.873
  818SOL    HW2 3354   6.826   2.316   5.017
  819SOL     OW 3355   4.821   2.927   1.699
  819SOL    HW1 3356   4.791   2.832   1.695
  819SOL    HW2 3357   4.751   2.983   1.743
  820SOL     OW 3358   2.441   1.777   5.337
  820SOL    HW1 3359   2.393   1.803   5.420
  820SOL    HW2 3360   2.539   1.792   5.348
  821SOL     OW 3361   5.198   3.389   6.447
  821SOL    HW1 3362   5.113   3.384   6.395
  821SOL    HW2 3363   5.223   3.298   6.480
  822SOL     OW 3364   0.403   4.767   3.457
  822SOL    HW1 3365   0.362   4.857   3.444
  822SOL    HW2 3366   0.469   4.770   3.531
  823SOL     OW 3367   1.455   3.206   4.892
  823SOL    HW1 3368   1.438   3.193   4.990
  823SOL    HW2 3369   1.417   3.130   4.841
  824SOL     OW 3370   4.942   0.714   6.643
  824SOL    HW1 3371   4.933   0.639   6.577
  824SOL    HW2 3372   4.854   0.759   6.654
  825SOL     OW 3373   6.019   6.038   0.793
  825SOL    HW1 3374   5.975   6.014   0.879
  825SOL    HW2 3375   6.032   5.955   0.738
  826SOL     OW 3376   3.755   2.125   0.030
  826SOL    HW1 3377   3.748   2.218   0.065
  826SOL    HW2 3378   3.851   2.102   0.014
  827SOL     OW 3379   3.506   4.017   5.296
  827SOL    HW1 3380   3.562   4.057   5.369
  827SOL    HW2 3381   3.469   3.929   5.325
  828SOL     OW 3382   0.095   6.709   6.356
  828SOL    HW1 3383   0.148   6.632   6.393
  828SOL    HW2 3384   0.079   6.776   6.428
  829SOL     OW 3385   3.599   3.296   2.431
  829SOL    HW1 3386   3.524   3.278   2.368
  829SOL    HW2 3387   3.642   3.383   2.408
  830SOL     OW 3388   6.895   4.582   0.289
  830SOL    HW1 3389   6.854   4.671   0.311
  830SOL    HW2 3390   6.824   4.520   0.256
  831SOL     OW 3391   5.010   0.367   2.126
  831SOL    HW1 3392   4.914   0.339   2.116
  831SOL    HW2 3393   5.069   0.301   2.079
  832SOL     OW 3394   3.029   1.450   5.029
  832SOL    HW1 3395   2.984   1.480   5.114
  832SOL    HW2 3396   3.055   1.354   5.038
  833SOL     OW 3397   3.725   2.400   0.161
  833SOL    HW1 3398   3.721   2.386   0.260
  833SOL    HW2 3399   3.651   2.461   0.133
  834SOL     OW 3400   6.197   2.769   0.396
  834SOL    HW1 3401   6.191   2.781   0.297
  834SOL    HW2 3402   6.105   2.763   0.435
  835SOL     OW 3403   0.176   0.025   4.719
  835SOL    HW1 3404   0.178   0.121   4.744
  835SOL    HW2 3405   0.267   7.015   4.689
  836SOL     OW 3406   5.093   0.552   5.018
  836SOL    HW1 3407   5.033   0.585   5.091
  836SOL    HW2 3408   5.074   0.604   4.934
  837SOL     OW 3409   1.396   0.569   0.071
  837SOL    HW1 3410   1.339   0.623   0.009
  837SOL    HW2 3411   1.480   0.618   0.090
  838SOL     OW 3412   1.062   6.036   3.392
  838SOL    HW1 3413   0.988   6.059   3.455
  838SOL    HW2 3414   1.026   5.982   3.316
  839SOL     OW 3415   1.510   1.892   0.265
  839SOL    HW1 3416   1.417   1.908   0.232
  839SOL    HW2 3417   1.524   1.942   0.350
  840SOL     OW 3418   4.391   5.145   0.291
  840SOL    HW1 3419   4.294   5.165   0.272
  840SOL    HW2 3420   4.427   5.214   0.354
  841SOL     OW 3421   3.061   4.681   0.002
  841SOL    HW1 3422   2.987   4.701   6.957
  841SOL    HW2 3423   3.083   4.584   7.019
  842SOL     OW 3424   4.353   5.476   1.056
  842SOL    HW1 3425   4.364   5.444   0.962
  842SOL    HW2 3426   4.256   5.491   1.076
  843SOL     OW 3427   1.199   0.540   2.197
  843SOL    HW1 3428   1.190   0.563   2.294
  843SOL    HW2 3429   1.109   0.513   2.161
  844SOL     OW 3430   6.936   0.628   1.538
  844SOL    HW1 3431   0.005   0.639   1.582
  844SOL    HW2 3432   6.936   0.678   1.451
  845SOL     OW 3433   3.111   1.330   2.681
  845SOL    HW1 3434   3.146   1.409   2.631
  845SOL    HW2 3435   3.156   1.247   2.648
  846SOL     OW 3436   2.943   1.758   0.821
  846SOL    HW1 3437   2.971   1.664   0.800
  846SOL    HW2 3438   3.023   1.810   0.852
  847SOL     OW 3439   2.758   3.694   1.749
  847SOL    HW1 3440   2.680   3.756   1.745
  847SOL    HW2 3441   2.843   3.746   1.737
  848SOL     OW 3442   6.872   6.269   0.472
  848SOL    HW1 3443   6.930   6.342   0.436
  848SOL    HW2 3444   6.795   6.308   0.522
  849SOL     OW 3445   6.014   3.345   6.540
  849SOL    HW1 3446   5.986   3.381   6.629
  849SOL    HW2 3447   5.940   3.358   6.475
  850SOL     OW 3448   0.867   0.913   5.297
  850SOL    HW1 3449   0.848   1.011   5.297
  850SOL    HW2 3450   0.941   0.894   5.232
  851SOL     OW 3451   5.295   3.625   5.827
  851SOL    HW1 3452   5.304   3.674   5.914
  851SOL    HW2 3453   5.212   3.570   5.828
  852SOL     OW 3454   0.541   3.854   2.022
  852SOL    HW1 3455   0.558   3.768   1.974
  852SOL    HW2 3456   0.522   3.926   1.956
  853SOL     OW 3457   2.625   2.556   0.304
  853SOL    HW1 3458   2.542   2.505   0.328
  853SOL    HW2 3459   2.666   2.594   0.387
  854SOL     OW 3460   5.854   5.946   5.695
  854SOL    HW1 3461   5.897   5.976   5.610
  854SOL    HW2 3462   5.853   5.846   5.699
  855SOL     OW 3463   5.765   1.623   0.123
  855SOL    HW1 3464   5.751   1.529   0.153
  855SOL    HW2 3465   5.720   1.686   0.187
  856SOL     OW 3466   1.666   5.142   1.645
  856SOL    HW1 3467   1.732   5.071   1.621
  856SOL    HW2 3468   1.591   5.142   1.578
  857SOL     OW 3469   0.020   5.765   4.965
  857SOL    HW1 3470   6.964   5.769   5.031
  857SOL    HW2 3471   0.026   5.852   4.916
  858SOL     OW 3472   4.369   3.338   0.152
  858SOL    HW1 3473   4.359   3.368   0.246
  858SOL    HW2 3474   4.463   3.354   0.121
  859SOL     OW 3475   5.271   6.204   5.025
  859SOL    HW1 3476   5.205   6.130   5.015
  859SOL    HW2 3477   5.234   6.274   5.086
  860SOL     OW 3478   4.890   2.819   6.149
  860SOL    HW1 3479   4.973   2.779   6.110
  860SOL    HW2 3480   4.914   2.889   6.216
  861SOL     OW 3481   2.135   5.761   1.744
  861SOL    HW1 3482   2.043   5.738   1.774
  861SOL    HW2 3483   2.201   5.703   1.792
  862SOL     OW 3484   0.229   4.138   3.992
  862SOL    HW1 3485   0.160   4.082   3.944
  862SOL    HW2 3486   0.286   4.079   4.049
  863SOL     OW 3487   6.121   0.659   1.241
  863SOL    HW1 3488   6.137   0.622   1.333
  863SOL    HW2 3489   6.209   0.688   1.202
  864SOL     OW 3490   5.832   6.380   4.201
  864SOL    HW1 3491   5.851   6.457   4.262
  864SOL    HW2 3492   5.792   6.305   4.254
  865SOL     OW 3493   1.565   6.024   5.752
  865SOL    HW1 3494   1.551   6.080   5.671
  865SOL    HW2 3495   1.618   6.076   5.820
  866SOL     OW 3496   3.662   0.281   1.748
  866SOL    HW1 3497   3.578   0.335   1.747
  866SOL    HW2 3498   3.673   0.234   1.661
  867SOL     OW 3499   6.058   1.799   5.894
  867SOL    HW1 3500   6.085   1.891   5.923
  867SOL    HW2 3501   6.013   1.804   5.805
  868SOL     OW 3502   0.439   2.297   1.952
  868SOL    HW1 3503   0.401   2.310   2.044
  868SOL    HW2 3504   0.515   2.361   1.939
  869SOL     OW 3505   6.937   3.634   3.585
  869SOL    HW1 3506   7.008   3.570   3.618
  869SOL    HW2 3507   6.921   3.703   3.655
  870SOL     OW 3508   3.626   5.264   2.182
  870SOL    HW1 3509   3.643   5.166   2.173
  870SOL    HW2 3510   3.577   5.282   2.267
  871SOL     OW 3511   4.876   1.532   3.350
  871SOL    HW1 3512   4.856   1.466   3.277
  871SOL    HW2 3513   4.921   1.485   3.426
  872SOL     OW 3514   0.758   2.356   4.818
  872SOL    HW1 3515   0.837   2.389   4.766
  872SOL    HW2 3516   0.789   2.311   4.901
  873SOL     OW 3517   3.968   0.063   6.050
  873SOL    HW1 3518   3.954   0.090   5.954
  873SOL    HW2 3519   4.047   0.003   6.056
  874SOL     OW 3520   4.739   4.002   1.417
  874SOL    HW1 3521   4.684   3.943   1.358
  874SOL    HW2 3522   4.811   4.046   1.363
  875SOL     OW 3523   4.825   5.523   1.508
  875SOL    HW1 3524   4.835   5.586   1.585
  875SOL    HW2 3525   4.730   5.491   1.504
  876SOL     OW 3526   0.050   0.276   0.694
  876SOL    HW1 3527   0.097   0.346   0.639
  876SOL    HW2 3528   7.006   0.321   0.757
  877SOL     OW 3529   2.064   3.653   6.459
  877SOL    HW1 3530   1.978   3.629   6.414
  877SOL    HW2 3531   2.061   3.749   6.486
  878SOL     OW 3532   4.098   6.212   4.567
  878SOL    HW1 3533   4.104   6.163   4.654
  878SOL    HW2 3534   4.079   6.309   4.584
  879SOL     OW 3535   6.116   7.002   0.698
  879SOL    HW1 3536   6.166   6.966   0.777
  879SOL    HW2 3537   6.098   6.928   0.633
  880SOL     OW 3538   2.922   3.463   2.180
  880SOL    HW1 3539   2.930   3.431   2.085
  880SOL    HW2 3540   2.928   3.563   2.181
  881SOL     OW 3541   4.167   1.744   0.600
  881SOL    HW1 3542   4.260   1.747   0.637
  881SOL    HW2 3543   4.104   1.786   0.665
  882SOL     OW 3544   1.480   3.113   4.509
  882SOL    HW1 3545   1.547   3.045   4.540
  882SOL    HW2 3546   1.486   3.123   4.410
  883SOL     OW 3547   2.661   0.023   2.536
  883SOL    HW1 3548   2.651   6.956   2.584
  883SOL    HW2 3549   2.732   0.078   2.580
  884SOL     OW 3550   4.268   3.721   5.839
  884SOL    HW1 3551   4.336   3.650   5.857
  884SOL    HW2 3552   4.176   3.681   5.845
  885SOL     OW 3553   3.792   2.671   6.271
  885SOL    HW1 3554   3.746   2.627   6.194
  885SOL    HW2 3555   3.826   2.601   6.333
  886SOL     OW 3556   3.451   0.868   0.050
  886SOL    HW1 3557   3.416   0.874   0.144
  886SOL    HW2 3558   3.536   0.815   0.049
  887SOL     OW 3559   4.836   1.462   4.307
  887SOL    HW1 3560   4.844   1.372   4.350
  887SOL    HW2 3561   4.836   1.533   4.377
  888SOL     OW 3562   6.565   6.723   2.985
  888SOL    HW1 3563   6.633   6.650   2.988
  888SOL    HW2 3564   6.538   6.748   3.078
  889SOL     OW 3565   0.488   3.777   6.968
  889SOL    HW1 3566   0.532   3.687   6.974
  889SOL    HW2 3567   0.543   3.837   6.911
  890SOL     OW 3568   2.298   5.060   4.068
  890SOL    HW1 3569   2.273   4.991   4.135
  890SOL    HW2 3570   2.390   5.092   4.086
  891SOL     OW 3571   4.680   5.826   1.614
  891SOL    HW1 3572   4.607   5.780   1.665
  891SOL    HW2 3573   4.766   5.776   1.626
  892SOL     OW 3574   3.020   4.513   0.604
  892SOL    HW1 3575   2.929   4.506   0.644
  892SOL    HW2 3576   3.055   4.606   0.616
  893SOL     OW 3577   2.367   6.568   2.490
  893SOL    HW1 3578   2.442   6.556   2.425
  893SOL    HW2 3579   2.383   6.512   2.571
  894SOL     OW 3580   0.785   4.306   1.160
  894SOL    HW1 3581   0.772   4.295   1.062
  894SOL    HW2 3582   0.697   4.328   1.203
  895SOL     OW 3583   0.164   5.685   4.059
  895SOL    HW1 3584   0.184   5.587   4.050
  895SOL    HW2 3585   0.099   5.699   4.133
  896SOL     OW 3586   6.783   6.954   6.051
  896SOL    HW1 3587   6.814   6.862   6.073
  896SOL    HW2 3588   6.693   6.970   6.091
  897SOL     OW 3589   5.283   0.621   0.051
  897SOL    HW1 3590   5.367   0.616   0.105
  897SOL    HW2 3591   5.302   0.597   6.976
  898SOL     OW 3592   4.102   6.139   3.239
  898SOL    HW1 3593   4.015   6.134   3.190
  898SOL    HW2 3594   4.176   6.109   3.179
  899SOL     OW 3595   0.401   4.878   0.055
  899SOL    HW1 3596   0.306   4.871   0.024
  899SOL    HW2 3597   0.404   4.929   0.141
  900SOL     OW 3598   5.083   5.126   0.513
  900SOL    HW1 3599   5.103   5.223   0.507
  900SOL    HW2 3600   4.985   5.110   0.499
  901SOL     OW 3601   1.435   0.878   2.433
  901SOL    HW1 3602   1.436   0.927   2.346
  901SOL    HW2 3603   1.468   0.785   2.419
  902SOL     OW 3604   5.985   3.627   2.215
  902SOL    HW1 3605   5.975   3.631   2.314
  902SOL    HW2 3606   5.909   3.676   2.172
  903SOL     OW 3607   7.005   2.256   0.716
  903SOL    HW1 3608   0.048   2.317   0.665
  903SOL    HW2 3609   6.931   2.226   0.657
  904SOL     OW 3610   3.135   1.568   1.889
  904SOL    HW1 3611   3.100   1.660   1.905
  904SOL    HW2 3612   3.063   1.511   1.850
  905SOL     OW 3613   6.144   2.998   6.327
  905SOL    HW1 3614   6.224   2.969   6.275
  905SOL    HW2 3615   6.141   3.098   6.330
  906SOL     OW 3616   5.906   3.970   6.898
  906SOL    HW1 3617   5.887   3.906   6.822
  906SOL    HW2 3618   5.851   3.944   6.977
  907SOL     OW 3619   5.183   4.120   6.901
  907SOL    HW1 3620   5.129   4.201   6.924
  907SOL    HW2 3621   5.135   4.065   6.833
  908SOL     OW 3622   1.246   4.333   2.649
  908SOL    HW1 3623   1.302   4.296   2.575
  908SOL    HW2 3624   1.169   4.384   2.610
  909SOL     OW 3625   5.045   5.176   6.391
  909SOL    HW1 3626   4.985   5.150   6.317
  909SOL    HW2 3627   4.991   5.203   6.471
  910SOL     OW 3628   2.589   4.386   1.017
  910SOL    HW1 3629   2.551   4.296   1.037
  910SOL    HW2 3630   2.688   4.379   1.005
  911SOL     OW 3631   0.981   5.351   6.328
  911SOL    HW1 3632   1.000   5.387   6.236
  911SOL    HW2 3633   0.967   5.252   6.322
  912SOL     OW 3634   4.773   1.777   3.144
  912SOL    HW1 3635   4.777   1.801   3.241
  912SOL    HW2 3636   4.863   1.745   3.114
  913SOL     OW 3637   5.023   7.016   2.861
  913SOL    HW1 3638   5.093   0.067   2.862
  913SOL    HW2 3639   5.015   6.976   2.952
  914SOL     OW 3640   2.867   0.227   6.681
  914SOL    HW1 3641   2.797   0.203   6.748
  914SOL    HW2 3642   2.826   0.234   6.590
  915SOL     OW 3643   5.193   5.387   0.645
  915SOL    HW1 3644   5.226   5.305   0.599
  915SOL    HW2 3645   5.268   5.429   0.696
  916SOL     OW 3646   1.542   2.134   2.330
  916SOL    HW1 3647   1.608   2.195   2.287
  916SOL    HW2 3648   1.539   2.047   2.280
  917SOL     OW 3649   6.572   6.504   0.824
  917SOL    HW1 3650   6.476   6.533   0.833
  917SOL    HW2 3651   6.594   6.440   0.897
  918SOL     OW 3652   2.502   5.541   0.339
  918SOL    HW1 3653   2.483   5.487   0.421
  918SOL    HW2 3654   2.418   5.553   0.287
  919SOL     OW 3655   5.825   2.030   4.776
  919SOL    HW1 3656   5.811   2.041   4.874
  919SOL    HW2 3657   5.852   2.118   4.737
  920SOL     OW 3658   2.467   5.437   2.468
  920SOL    HW1 3659   2.423   5.425   2.379
  920SOL    HW2 3660   2.534   5.511   2.463
  921SOL     OW 3661   5.000   5.288   5.038
  921SOL    HW1 3662   5.072   5.317   5.100
  921SOL    HW2 3663   4.916   5.340   5.057
  922SOL     OW 3664   3.631   2.905   3.628
  922SOL    HW1 3665   3.556   2.881   3.690
  922SOL    HW2 3666   3.593   2.947   3.546
  923SOL     OW 3667   2.341   3.652   5.437
  923SOL    HW1 3668   2.291   3.674   5.353
  923SOL    HW2 3669   2.429   3.613   5.414
  924SOL     OW 3670   0.225   3.713   2.350
  924SOL    HW1 3671   0.129   3.689   2.362
  924SOL    HW2 3672   0.282   3.638   2.384
  925SOL     OW 3673   6.693   1.770   0.035
  925SOL    HW1 3674   6.618   1.837   0.037
  925SOL    HW2 3675   6.680   1.704   0.109
  926SOL     OW 3676   1.417   1.289   2.163
  926SOL    HW1 3677   1.343   1.319   2.103
  926SOL    HW2 3678   1.504   1.320   2.127
  927SOL     OW 3679   6.062   3.302   3.949
  927SOL    HW1 3680   6.158   3.326   3.962
  927SOL    HW2 3681   6.010   3.385   3.926
  928SOL     OW 3682   3.275   4.732   6.097
  928SOL    HW1 3683   3.192   4.775   6.133
  928SOL    HW2 3684   3.264   4.719   5.998
  929SOL     OW 3685   0.309   1.391   4.902
  929SOL    HW1 3686   0.378   1.457   4.875
  929SOL    HW2 3687   0.335   1.349   4.989
  930SOL     OW 3688   5.143   4.770   5.834
  930SOL    HW1 3689   5.200   4.838   5.880
  930SOL    HW2 3690   5.199   4.710   5.778
  931SOL     OW 3691   6.544   1.697   3.492
  931SOL    HW1 3692   6.636   1.666   3.517
  931SOL    HW2 3693   6.544   1.796   3.479
  932SOL     OW 3694   3.925   0.494   3.536
  932SOL    HW1 3695   3.853   0.463   3.598
  932SOL    HW2 3696   3.995   0.543   3.587
  933SOL     OW 3697   1.708   5.469   2.099
  933SOL    HW1 3698   1.694   5.566   2.121
  933SOL    HW2 3699   1.713   5.416   2.183
  934SOL     OW 3700   1.718   3.956   0.306
  934SOL    HW1 3701   1.721   3.858   0.286
  934SOL    HW2 3702   1.672   3.971   0.394
  935SOL     OW 3703   5.692   3.112   4.092
  935SOL    HW1 3704   5.661   3.063   4.011
  935SOL    HW2 3705   5.675   3.056   4.173
  936SOL     OW 3706   1.410   6.805   6.052
  936SOL    HW1 3707   1.497   6.824   6.006
  936SOL    HW2 3708   1.401   6.707   6.068
  937SOL     OW 3709   3.684   1.826   5.884
  937SOL    HW1 3710   3.589   1.836   5.853
  937SOL    HW2 3711   3.712   1.909   5.932
  938SOL     OW 3712   6.076   5.544   4.466
  938SOL    HW1 3713   5.983   5.537   4.429
  938SOL    HW2 3714   6.142   5.524   4.394
  939SOL     OW 3715   6.935   6.731   6.159
  939SOL    HW1 3716   6.946   6.650   6.102
  939SOL    HW2 3717   6.987   6.719   6.243
  940SOL     OW 3718   2.127   4.748   6.883
  940SOL    HW1 3719   2.032   4.724   6.904
  940SOL    HW2 3720   2.186   4.719   6.958
  941SOL     OW 3721   3.530   0.384   0.471
  941SOL    HW1 3722   3.488   0.422   0.554
  941SOL    HW2 3723   3.501   0.437   0.392
  942SOL     OW 3724   0.420   5.262   0.121
  942SOL    HW1 3725   0.433   5.179   0.175
  942SOL    HW2 3726   0.322   5.281   0.112
  943SOL     OW 3727   3.437   5.886   1.988
  943SOL    HW1 3728   3.366   5.827   1.950
  943SOL    HW2 3729   3.484   5.837   2.062
  944SOL     OW 3730   6.221   6.718   4.293
  944SOL    HW1 3731   6.222   6.776   4.375
  944SOL    HW2 3732   6.182   6.629   4.316
  945SOL     OW 3733   0.804   5.344   0.067
  945SOL    HW1 3734   0.776   5.313   0.159
  945SOL    HW2 3735   0.826   5.264   0.011
  946SOL     OW 3736   5.191   2.636   4.392
  946SOL    HW1 3737   5.169   2.611   4.298
  946SOL    HW2 3738   5.248   2.565   4.434
  947SOL     OW 3739   3.657   4.155   4.058
  947SOL    HW1 3740   3.657   4.132   3.960
  947SOL    HW2 3741   3.697   4.245   4.071
  948SOL     OW 3742   3.622   0.946   2.611
  948SOL    HW1 3743   3.636   1.004   2.692
  948SOL    HW2 3744   3.707   0.899   2.589
  949SOL     OW 3745   3.029   6.862   5.722
  949SOL    HW1 3746   3.129   6.859   5.724
  949SOL    HW2 3747   2.992   6.823   5.806
  950SOL     OW 3748   6.950   6.969   2.280
  950SOL    HW1 3749   6.961   6.880   2.236
  950SOL    HW2 3750   6.885   0.005   2.227
  951SOL     OW 3751   2.346   6.640   3.016
  951SOL    HW1 3752   2.431   6.592   3.034
  951SOL    HW2 3753   2.279   6.576   2.977
  952SOL     OW 3754   3.141   0.999   2.781
  952SOL    HW1 3755   3.159   1.064   2.856
  952SOL    HW2 3756   3.176   1.037   2.695
  953SOL     OW 3757   6.847   4.323   5.977
  953SOL    HW1 3758   6.939   4.300   5.947
  953SOL    HW2 3759   6.839   4.422   5.988
  954SOL     OW 3760   4.566   5.945   2.968
  954SOL    HW1 3761   4.623   5.991   2.900
  954SOL    HW2 3762   4.612   5.861   2.999
  955SOL     OW 3763   2.164   4.604   0.480
  955SOL    HW1 3764   2.087   4.541   0.490
  955SOL    HW2 3765   2.246   4.563   0.520
  956SOL     OW 3766   5.042   0.450   1.002
  956SOL    HW1 3767   5.099   0.501   0.937
  956SOL    HW2 3768   4.968   0.509   1.035
  957SOL     OW 3769   6.004   1.371   3.088
  957SOL    HW1 3770   5.937   1.303   3.057
  957SOL    HW2 3771   6.049   1.337   3.171
  958SOL     OW 3772   5.550   0.159   1.475
  958SOL    HW1 3773   5.474   0.183   1.534
  958SOL    HW2 3774   5.536   0.200   1.385
  959SOL     OW 3775   4.501   6.556   4.065
  959SOL    HW1 3776   4.515   6.574   4.163
  959SOL    HW2 3777   4.460   6.638   4.023
  960SOL     OW 3778   1.491   6.727   6.370
  960SOL    HW1 3779   1.413   6.683   6.325
  960SOL    HW2 3780   1.570   6.724   6.309
  961SOL     OW 3781   3.380   0.115   3.070
  961SOL    HW1 3782   3.304   0.060   3.104
  961SOL    HW2 3783   3.453   0.116   3.138
  962SOL     OW 3784   6.433   0.777   4.527
  962SOL    HW1 3785   6.419   0.863   4.576
  962SOL    HW2 3786   6.506   0.725   4.571
  963SOL     OW 3787   5.421   3.130   1.197
  963SOL    HW1 3788   5.428   3.174   1.107
  963SOL    HW2 3789   5.342   3.168   1.247
  964SOL     OW 3790   4.692   5.138   5.424
  964SOL    HW1 3791   4.750   5.056   5.426
  964SOL    HW2 3792   4.747   5.218   5.448
  965SOL     OW 3793   5.770   2.275   3.568
  965SOL    HW1 3794   5.698   2.208   3.582
  965SOL    HW2 3795   5.843   2.235   3.512
  966SOL     OW 3796   4.575   1.224   4.437
  966SOL    HW1 3797   4.552   1.321   4.426
  966SOL    HW2 3798   4.492   1.173   4.460
  967SOL     OW 3799   4.342   3.780   6.483
  967SOL    HW1 3800   4.427   3.798   6.533
  967SOL    HW2 3801   4.353   3.697   6.428
  968SOL     OW 3802   4.124   0.809   1.392
  968SOL    HW1 3803   4.030   0.776   1.384
  968SOL    HW2 3804   4.155   0.798   1.486
  969SOL     OW 3805   2.916   4.143   6.291
  969SOL    HW1 3806   2.953   4.054   6.262
  969SOL    HW2 3807   2.816   4.137   6.298
  970SOL     OW 3808   5.266   6.468   6.011
  970SOL    HW1 3809   5.330   6.534   6.050
  970SOL    HW2 3810   5.184   6.516   5.979
  971SOL     OW 3811   5.265   3.640   3.591
  971SOL    HW1 3812   5.240   3.559   3.644
  971SOL    HW2 3813   5.309   3.612   3.505
  972SOL     OW 3814   7.006   2.787   0.259
  972SOL    HW1 3815   6.955   2.863   0.299
  972SOL    HW2 3816   6.947   2.707   0.254
  973SOL     OW 3817   0.080   3.300   6.060
  973SOL    HW1 3818   0.088   3.280   6.158
  973SOL    HW2 3819   0.003   3.362   6.046
  974SOL     OW 3820   0.039   4.944   2.628
  974SOL    HW1 3821   0.043   4.995   2.542
  974SOL    HW2 3822   6.991   4.871   2.620
  975SOL     OW 3823   3.190   0.548   2.240
  975SOL    HW1 3824   3.218   0.602   2.160
  975SOL    HW2 3825   3.144   0.608   2.306
  976SOL     OW 3826   6.975   3.489   3.255
  976SOL    HW1 3827   7.018   3.574   3.286
  976SOL    HW2 3828   6.943   3.437   3.334
  977SOL     OW 3829   6.403   0.465   2.212
  977SOL    HW1 3830   6.482   0.443   2.270
  977SOL    HW2 3831   6.350   0.538   2.255
  978SOL     OW 3832   5.425   2.979   2.017
  978SOL    HW1 3833   5.492   3.052   2.023
  978SOL    HW2 3834   5.436   2.930   1.930
  979SOL     OW 3835   0.493   4.285   7.011
  979SOL    HW1 3836   0.479   4.298   0.091
  979SOL    HW2 3837   0.488   4.374   6.966
  980SOL     OW 3838   3.649   0.908   4.673
  980SOL    HW1 3839   3.644   0.831   4.609
  980SOL    HW2 3840   3.744   0.934   4.686
  981SOL     OW 3841   0.066   0.117   5.699
  981SOL    HW1 3842   0.151   0.131   5.750
  981SOL    HW2 3843   0.017   0.038   5.736
  982SOL     OW 3844   6.009   1.250   5.726
  982SOL    HW1 3845   5.950   1.243   5.807
  982SOL    HW2 3846   6.026   1.158   5.689
  983SOL     OW 3847   0.627   4.745   3.964
  983SOL    HW1 3848   0.720   4.779   3.966
  983SOL    HW2 3849   0.619   4.665   4.025
  984SOL     OW 3850   0.766   3.302   3.706
  984SOL    HW1 3851   0.720   3.302   3.795
  984SOL    HW2 3852   0.755   3.213   3.662
  985SOL     OW 3853   6.664   5.059   5.295
  985SOL    HW1 3854   6.618   5.029   5.379
  985SOL    HW2 3855   6.607   5.125   5.247
  986SOL     OW 3856   4.893   5.323   1.706
  986SOL    HW1 3857   4.888   5.363   1.615
  986SOL    HW2 3858   4.848   5.385   1.771
  987SOL     OW 3859   4.660   4.339   4.309
  987SOL    HW1 3860   4.622   4.343   4.217
  987SOL    HW2 3861   4.728   4.265   4.314
  988SOL     OW 3862   2.407   4.611   2.325
  988SOL    HW1 3863   2.461   4.591   2.407
  988SOL    HW2 3864   2.468   4.628   2.248
  989SOL     OW 3865   1.320   2.107   0.762
  989SOL    HW1 3866   1.298   2.195   0.719
  989SOL    HW2 3867   1.301   2.033   0.698
  990SOL     OW 3868   3.774   0.244   4.276
  990SOL    HW1 3869   3.675   0.241   4.266
  990SOL    HW2 3870   3.814   0.158   4.246
  991SOL     OW 3871   7.018   5.386   4.378
  991SOL    HW1 3872   6.989   5.465   4.324
  991SOL    HW2 3873   6.939   5.350   4.429
  992SOL     OW 3874   6.957   2.251   0.043
  992SOL    HW1 3875   0.009   2.227   0.109
  992SOL    HW2 3876   6.929   2.170   7.011
  993SOL     OW 3877   1.598   5.101   0.132
  993SOL    HW1 3878   1.661   5.097   0.055
  993SOL    HW2 3879   1.624   5.032   0.200
  994SOL     OW 3880   3.343   5.931   0.359
  994SOL    HW1 3881   3.315   6.017   0.403
  994SOL    HW2 3882   3.391   5.874   0.425
  995SOL     OW 3883   6.548   4.281   6.068
  995SOL    HW1 3884   6.533   4.358   6.129
  995SOL    HW2 3885   6.646   4.273   6.047
  996SOL     OW 3886   3.753   5.854   4.378
  996SOL    HW1 3887   3.741   5.814   4.287
  996SOL    HW2 3888   3.834   5.912   4.378
  997SOL     OW 3889   1.527   6.659   3.479
  997SOL    HW1 3890   1.535   6.589   3.408
  997SOL    HW2 3891   1.562   6.746   3.443
  998SOL     OW 3892   4.602   0.302   5.928
  998SOL    HW1 3893   4.691   0.339   5.952
  998SOL    HW2 3894   4.535   0.376   5.922
  999SOL     OW 3895   4.874   3.658   2.299
  999SOL    HW1 3896   4.908   3.599   2.373
  999SOL    HW2 3897   4.895   3.616   2.211
 1000SOL     OW 3898   5.215   2.284   1.754
 1000SOL    HW1 3899   5.272   2.278   1.836
 1000SOL    HW2 3900   5.258   2.347   1.689
 1001SOL     OW 3901   2.774   0.322   2.573
 1001SOL    HW1 3902   2.694   0.366   2.614
 1001SOL    HW2 3903   2.794   0.364   2.485
 1002SOL     OW 3904   5.352   2.355   1.224
 1002SOL    HW1 3905   5.362   2.255   1.224
 1002SOL    HW2 3906   5.429   2.396   1.177
 1003SOL     OW 3907   0.955   0.247   3.165
 1003SOL    HW1 3908   0.895   0.309   3.215
 1003SOL    HW2 3909   0.988   0.176   3.228
 1004SOL     OW 3910   5.193   1.340   4.170
 1004SOL    HW1 3911   5.168   1.318   4.076
 1004SOL    HW2 3912   5.222   1.436   4.175
 1005SOL     OW 3913   1.520   5.020   2.222
 1005SOL    HW1 3914   1.594   5.086   2.229
 1005SOL    HW2 3915   1.524   4.974   2.133
 1006SOL     OW 3916   2.559   3.959   1.369
 1006SOL    HW1 3917   2.521   3.944   1.460
 1006SOL    HW2 3918   2.654   3.929   1.367
 1007SOL     OW 3919   4.713   0.890   6.626
 1007SOL    HW1 3920   4.764   0.937   6.553
 1007SOL    HW2 3921   4.653   0.954   6.672
 1008SOL     OW 3922   0.470   4.888   5.689
 1008SOL    HW1 3923   0.558   4.911   5.649
 1008SOL    HW2 3924   0.442   4.961   5.752
 1009SOL     OW 3925   6.872   5.807   5.909
 1009SOL    HW1 3926   6.956   5.754   5.920
 1009SOL    HW2 3927   6.825   5.813   5.997
 1010SOL     OW 3928   2.819   3.511   0.917
 1010SOL    HW1 3929   2.727   3.475   0.927
 1010SOL    HW2 3930   2.874   3.448   0.862
 1011SOL     OW 3931   0.163   5.399   2.222
 1011SOL    HW1 3932   0.186   5.317   2.169
 1011SOL    HW2 3933   0.242   5.428   2.276
 1012SOL     OW 3934   4.815   6.453   3.516
 1012SOL    HW1 3935   4.789   6.407   3.601
 1012SOL    HW2 3936   4.808   6.552   3.527
 1013SOL     OW 3937   0.026   7.012   6.488
 1013SOL    HW1 3938   0.041   0.090   6.473
 1013SOL    HW2 3939   0.114   6.967   6.507
 1014SOL     OW 3940   1.060   4.256   4.897
 1014SOL    HW1 3941   1.043   4.239   4.994
 1014SOL    HW2 3942   1.130   4.326   4.886
 1015SOL     OW 3943   2.928   6.385   6.855
 1015SOL    HW1 3944   2.865   6.462   6.864
 1015SOL    HW2 3945   2.946   6.346   6.945
 1016SOL     OW 3946   6.148   3.942   1.712
 1016SOL    HW1 3947   6.245   3.949   1.689
 1016SOL    HW2 3948   6.132   3.857   1.762
 1017SOL     OW 3949   2.422   1.424   1.755
 1017SOL    HW1 3950   2.371   1.496   1.803
 1017SOL    HW2 3951   2.448   1.353   1.821
 1018SOL     OW 3952   6.723   6.410   5.051
 1018SOL    HW1 3953   6.671   6.483   5.095
 1018SOL    HW2 3954   6.767   6.354   5.121
 1019SOL     OW 3955   6.469   4.327   1.110
 1019SOL    HW1 3956   6.471   4.417   1.067
 1019SOL    HW2 3957   6.558   4.282   1.098
 1020SOL     OW 3958   5.598   1.133   0.879
 1020SOL    HW1 3959   5.589   1.229   0.906
 1020SOL    HW2 3960   5.544   1.116   0.797
 1021SOL     OW 3961   0.847   6.566   1.357
 1021SOL    HW1 3962   0.755   6.593   1.332
 1021SOL    HW2 3963   0.909   6.644   1.345
 1022SOL     OW 3964   2.557   5.749   6.494
 1022SOL    HW1 3965   2.559   5.728   6.396
 1022SOL    HW2 3966   2.533   5.845   6.507
 1023SOL     OW 3967   0.711   0.891   3.311
 1023SOL    HW1 3968   0.775   0.963   3.336
 1023SOL    HW2 3969   0.617   0.926   3.318
 1024SOL     OW 3970   1.994   1.761   4.376
 1024SOL    HW1 3971   1.929   1.829   4.344
 1024SOL    HW2 3972   2.062   1.744   4.305
 1025SOL     OW 3973   4.693   4.151   0.157
 1025SOL    HW1 3974   4.601   4.141   0.195
 1025SOL    HW2 3975   4.760   4.150   0.230
 1026SOL     OW 3976   3.204   2.745   1.598
 1026SOL    HW1 3977   3.241   2.663   1.643
 1026SOL    HW2 3978   3.278   2.794   1.553
 1027SOL     OW 3979   0.786   6.728   0.576
 1027SOL    HW1 3980   0.845   6.804   0.604
 1027SOL    HW2 3981   0.722   6.706   0.650
 1028SOL     OW 3982   1.336   5.911   2.650
 1028SOL    HW1 3983   1.309   5.886   2.743
 1028SOL    HW2 3984   1.324   6.009   2.637
 1029SOL     OW 3985   0.938   0.897   6.039
 1029SOL    HW1 3986   0.839   0.897   6.026
 1029SOL    HW2 3987   0.981   0.954   5.969
 1030SOL     OW 3988   3.801   3.231   1.200
 1030SOL    HW1 3989   3.858   3.249   1.120
 1030SOL    HW2 3990   3.855   3.243   1.283
 1031SOL     OW 3991   3.883   2.788   0.833
 1031SOL    HW1 3992   3.792   2.794   0.792
 1031SOL    HW2 3993   3.891   2.856   0.907
 1032SOL     OW 3994   2.145   1.476   6.585
 1032SOL    HW1 3995   2.115   1.447   6.494
 1032SOL    HW2 3996   2.107   1.566   6.605
 1033SOL     OW 3997   0.409   6.724   2.681
 1033SOL    HW1 3998   0.366   6.645   2.725
 1033SOL    HW2 3999   0.486   6.694   2.625
 1034SOL     OW 4000   2.824   0.606   4.408
 1034SOL    HW1 4001   2.873   0.581   4.492
 1034SOL    HW2 4002   2.882   0.665   4.352
 1035SOL     OW 4003   1.419   1.568   6.517
 1035SOL    HW1 4004   1.441   1.665   6.513
 1035SOL    HW2 4005   1.454   1.522   6.435
 1036SOL     OW 4006   5.010   1.379   1.522
 1036SOL    HW1 4007   4.980   1.348   1.432
 1036SOL    HW2 4008   4.964   1.466   1.544
 1037SOL     OW 4009   1.711   3.153   1.655
 1037SOL    HW1 4010   1.759   3.082   1.706
 1037SOL    HW2 4011   1.681   3.225   1.718
 1038SOL     OW 4012   2.725   5.490   0.114
 1038SOL    HW1 4013   2.676   5.504   0.028
 1038SOL    HW2 4014   2.660   5.484   0.189
 1039SOL     OW 4015   3.859   2.949   2.609
 1039SOL    HW1 4016   3.912   2.973   2.528
 1039SOL    HW2 4017   3.763   2.973   2.595
 1040SOL     OW 4018   3.807   2.009   3.250
 1040SOL    HW1 4019   3.737   2.062   3.202
 1040SOL    HW2 4020   3.788   1.911   3.240
 1041SOL     OW 4021   6.514   5.839   6.403
 1041SOL    HW1 4022   6.456   5.775   6.353
 1041SOL    HW2 4023   6.514   5.814   6.500
 1042SOL     OW 4024   5.602   4.344   3.175
 1042SOL    HW1 4025   5.655   4.414   3.221
 1042SOL    HW2 4026   5.505   4.355   3.198
 1043SOL     OW 4027   2.712   2.348   3.334
 1043SOL    HW1 4028   2.772   2.279   3.375
 1043SOL    HW2 4029   2.707   2.333   3.235
 1044SOL     OW 4030   5.684   4.657   1.477
 1044SOL    HW1 4031   5.638   4.714   1.409
 1044SOL    HW2 4032   5.618   4.595   1.520
 1045SOL     OW 4033   2.135   0.455   2.073
 1045SOL    HW1 4034   2.064   0.480   2.138
 1045SOL    HW2 4035   2.101   0.382   2.013
 1046SOL     OW 4036   2.927   1.771   1.181
 1046SOL    HW1 4037   2.967   1.863   1.184
 1046SOL    HW2 4038   2.846   1.773   1.122
 1047SOL     OW 4039   3.491   6.322   3.254
 1047SOL    HW1 4040   3.456   6.327   3.160
 1047SOL    HW2 4041   3.431   6.263   3.308
 1048SOL     OW 4042   1.192   6.185   2.676
 1048SOL    HW1 4043   1.227   6.163   2.767
 1048SOL    HW2 4044   1.177   6.283   2.668
 1049SOL     OW 4045   4.560   6.191   4.956
 1049SOL    HW1 4046   4.461   6.195   4.939
 1049SOL    HW2 4047   4.586   6.099   4.983
 1050SOL     OW 4048   3.092   5.738   3.292
 1050SOL    HW1 4049   3.102   5.816   3.230
 1050SOL    HW2 4050   3.008   5.689   3.269
 1051SOL     OW 4051   1.177   1.056   6.439
 1051SOL    HW1 4052   1.212   1.127   6.500
 1051SOL    HW2 4053   1.231   1.053   6.355
 1052SOL     OW 4054   3.413   1.277   0.154
 1052SOL    HW1 4055   3.487   1.308   0.214
 1052SOL    HW2 4056   3.364   1.202   0.198
 1053SOL     OW 4057   4.996   2.064   4.093
 1053SOL    HW1 4058   4.958   2.010   4.168
 1053SOL    HW2 4059   5.076   2.017   4.056
 1054SOL     OW 4060   3.795   5.092   5.976
 1054SOL    HW1 4061   3.790   4.993   5.991
 1054SOL    HW2 4062   3.837   5.136   6.055
 1055SOL     OW 4063   4.735   5.715   6.587
 1055SOL    HW1 4064   4.649   5.674   6.618
 1055SOL    HW2 4065   4.718   5.771   6.507
 1056SOL     OW 4066   3.067   3.937   0.195
 1056SOL    HW1 4067   3.130   4.005   0.234
 1056SOL    HW2 4068   2.980   3.942   0.243
 1057SOL     OW 4069   2.958   2.525   0.878
 1057SOL    HW1 4070   2.863   2.553   0.866
 1057SOL    HW2 4071   2.962   2.430   0.908
 1058SOL     OW 4072   2.910   2.196   2.489
 1058SOL    HW1 4073   2.833   2.243   2.445
 1058SOL    HW2 4074   2.986   2.190   2.424
 1059SOL     OW 4075   2.618   6.178   1.426
 1059SOL    HW1 4076   2.618   6.087   1.384
 1059SOL    HW2 4077   2.557   6.238   1.374
 1060SOL     OW 4078   6.353   0.168   5.648
 1060SOL    HW1 4079   6.365   0.069   5.644
 1060SOL    HW2 4080   6.259   0.189   5.678
 1061SOL     OW 4081   0.037   3.672   6.161
 1061SOL    HW1 4082   6.967   3.691   6.202
 1061SOL    HW2 4083   0.037   3.698   6.065
 1062SOL     OW 4084   3.738   6.424   4.562
 1062SOL    HW1 4085   3.825   6.438   4.609
 1062SOL    HW2 4086   3.710   6.510   4.519
 1063SOL     OW 4087   3.573   6.491   5.290
 1063SOL    HW1 4088   3.531   6.573   5.328
 1063SOL    HW2 4089   3.503   6.420   5.278
 1064SOL     OW 4090   1.715   3.701   0.171
 1064SOL    HW1 4091   1.759   3.611   0.168
 1064SOL    HW2 4092   1.653   3.711   0.094
 1065SOL     OW 4093   5.110   0.622   4.745
 1065SOL    HW1 4094   5.019   0.662   4.741
 1065SOL    HW2 4095   5.119   0.552   4.673
 1066SOL     OW 4096   5.501   6.861   1.608
 1066SOL    HW1 4097   5.538   6.883   1.698
 1066SOL    HW2 4098   5.415   6.910   1.593
 1067SOL     OW 4099   2.613   1.591   0.108
 1067SOL    HW1 4100   2.549   1.563   0.180
 1067SOL    HW2 4101   2.667   1.512   0.079
 1068SOL     OW 4102   6.798   2.809   1.534
 1068SOL    HW1 4103   6.714   2.801   1.587
 1068SOL    HW2 4104   6.876   2.784   1.590
 1069SOL     OW 4105   6.344   3.391   1.970
 1069SOL    HW1 4106   6.366   3.478   1.927
 1069SOL    HW2 4107   6.247   3.390   1.995
 1070SOL     OW 4108   1.362   6.929   2.232
 1070SOL    HW1 4109   1.304   6.924   2.150
 1070SOL    HW2 4110   1.396   6.838   2.253
 1071SOL     OW 4111   0.151   2.797   5.121
 1071SOL    HW1 4112   0.176   2.894   5.128
 1071SOL    HW2 4113   0.234   2.741   5.122
 1072SOL     OW 4114   1.712   1.660   2.062
 1072SOL    HW1 4115   1.613   1.671   2.073
 1072SOL    HW2 4116   1.758   1.744   2.088
 1073SOL     OW 4117   4.484   1.973   3.299
 1073SOL    HW1 4118   4.427   1.995   3.220
 1073SOL    HW2 4119   4.510   1.877   3.296
 1074SOL     OW 4120   2.882   4.806   1.813
 1074SOL    HW1 4121   2.876   4.710   1.843
 1074SOL    HW2 4122   2.802   4.856   1.845
 1075SOL     OW 4123   6.191   4.405   5.771
 1075SOL    HW1 4124   6.254   4.391   5.695
 1075SOL    HW2 4125   6.195   4.326   5.832
 1076SOL     OW 4126   1.930   4.333   4.694
 1076SOL    HW1 4127   1.968   4.413   4.741
 1076SOL    HW2 4128   1.913   4.260   4.761
 1077SOL     OW 4129   0.088   7.001   0.268
 1077SOL    HW1 4130   0.107   0.007   0.363
 1077SOL    HW2 4131   0.059   0.063   0.217
 1078SOL     OW 4132   6.163   6.809   4.578
 1078SOL    HW1 4133   6.145   6.730   4.637
 1078SOL    HW2 4134   6.079   6.864   4.571
 1079SOL     OW 4135   1.131   6.939   1.733
 1079SOL    HW1 4136   1.114   0.005   1.683
 1079SOL    HW2 4137   1.051   6.880   1.727
 1080SOL     OW 4138   3.540   6.258   6.670
 1080SOL    HW1 4139   3.487   6.174   6.682
 1080SOL    HW2 4140   3.621   6.238   6.616
 1081SOL     OW 4141   6.887   6.137   4.501
 1081SOL    HW1 4142   6.904   6.147   4.403
 1081SOL    HW2 4143   6.788   6.133   4.518
 1082SOL     OW 4144   4.070   0.019   6.819
 1082SOL    HW1 4145   4.126   0.009   6.737
 1082SOL    HW2 4146   4.046   0.116   6.830
 1083SOL     OW 4147   5.174   3.935   1.479
 1083SOL    HW1 4148   5.091   3.880   1.492
 1083SOL    HW2 4149   5.169   3.981   1.390
 1084SOL     OW 4150   6.526   0.849   4.919
 1084SOL    HW1 4151   6.562   0.786   4.988
 1084SOL    HW2 4152   6.596   0.918   4.897
 1085SOL     OW 4153   1.860   3.758   4.419
 1085SOL    HW1 4154   1.917   3.677   4.402
 1085SOL    HW2 4155   1.897   3.809   4.497
 1086SOL     OW 4156   5.605   5.526   0.910
 1086SOL    HW1 4157   5.655   5.564   0.988
 1086SOL    HW2 4158   5.620   5.428   0.905
 1087SOL     OW 4159   3.066   0.152   5.344
 1087SOL    HW1 4160   3.089   0.131   5.439
 1087SOL    HW2 4161   3.091   0.075   5.285
 1088SOL     OW 4162   6.604   4.939   3.302
 1088SOL    HW1 4163   6.679   4.876   3.286
 1088SOL    HW2 4164   6.638   5.033   3.300
 1089SOL     OW 4165   6.643   4.494   4.037
 1089SOL    HW1 4166   6.725   4.468   3.986
 1089SOL    HW2 4167   6.658   4.581   4.083
 1090SOL     OW 4168   5.241   1.893   5.304
 1090SOL    HW1 4169   5.246   1.808   5.357
 1090SOL    HW2 4170   5.241   1.871   5.207
 1091SOL     OW 4171   2.212   2.429   2.812
 1091SOL    HW1 4172   2.266   2.478   2.879
 1091SOL    HW2 4173   2.242   2.333   2.807
 1092SOL     OW 4174   0.620   5.517   0.904
 1092SOL    HW1 4175   0.531   5.472   0.906
 1092SOL    HW2 4176   0.629   5.569   0.819
 1093SOL     OW 4177   1.929   0.685   2.890
 1093SOL    HW1 4178   1.996   0.619   2.925
 1093SOL    HW2 4179   1.900   0.658   2.798
 1094SOL     OW 4180   0.746   0.463   3.285
 1094SOL    HW1 4181   0.658   0.416   3.283
 1094SOL    HW2 4182   0.753   0.525   3.206
 1095SOL     OW 4183   5.100   3.224   0.412
 1095SOL    HW1 4184   5.097   3.161   0.335
 1095SOL    HW2 4185   5.031   3.198   0.479
 1096SOL     OW 4186   3.055   6.307   1.673
 1096SOL    HW1 4187   3.000   6.226   1.694
 1096SOL    HW2 4188   3.061   6.318   1.574
 1097SOL     OW 4189   3.043   5.664   4.492
 1097SOL    HW1 4190   3.132   5.680   4.535
 1097SOL    HW2 4191   3.031   5.728   4.416
 1098SOL     OW 4192   6.401   4.366   0.566
 1098SOL    HW1 4193   6.331   4.429   0.600
 1098SOL    HW2 4194   6.383   4.274   0.601
 1099SOL     OW 4195   4.286   6.778   5.660
 1099SOL    HW1 4196   4.271   6.873   5.631
 1099SOL    HW2 4197   4.336   6.729   5.589
 1100SOL     OW 4198   3.852   1.679   4.259
 1100SOL    HW1 4199   3.870   1.584   4.286
 1100SOL    HW2 4200   3.757   1.687   4.228
 1101SOL     OW 4201   5.365   3.501   6.238
 1101SOL    HW1 4202   5.353   3.479   6.335
 1101SOL    HW2 4203   5.292   3.459   6.185
 1102SOL     OW 4204   2.962   1.028   3.200
 1102SOL    HW1 4205   2.868   1.036   3.167
 1102SOL    HW2 4206   3.022   1.000   3.124
 1103SOL     OW 4207   3.192   6.956   0.205
 1103SOL    HW1 4208   3.193   6.963   0.105
 1103SOL    HW2 4209   3.286   6.951   0.239
 1104SOL     OW 4210   0.667   2.995   4.209
 1104SOL    HW1 4211   0.725   2.986   4.128
 1104SOL    HW2 4212   0.696   3.075   4.261
 1105SOL     OW 4213   5.052   1.166   5.840
 1105SOL    HW1 4214   5.121   1.210   5.783
 1105SOL    HW2 4215   5.070   1.187   5.936
 1106SOL     OW 4216   6.930   1.674   0.426
 1106SOL    HW1 4217   6.986   1.756   0.438
 1106SOL    HW2 4218   6.850   1.679   0.485
 1107SOL     OW 4219   0.714   1.400   6.663
 1107SOL    HW1 4220   0.771   1.347   6.600
 1107SOL    HW2 4221   0.686   1.342   6.740
 1108SOL     OW 4222   2.472   0.053   3.810
 1108SOL    HW1 4223   2.540   0.103   3.756
 1108SOL    HW2 4224   2.488   0.070   3.907
 1109SOL     OW 4225   4.608   2.007   4.903
 1109SOL    HW1 4226   4.606   2.104   4.928
 1109SOL    HW2 4227   4.526   1.985   4.848
 1110SOL     OW 4228   2.482   0.886   2.399
 1110SOL    HW1 4229   2.580   0.873   2.415
 1110SOL    HW2 4230   2.466   0.907   2.303
 1111SOL     OW 4231   5.849   4.340   6.605
 1111SOL    HW1 4232   5.904   4.406   6.656
 1111SOL    HW2 4233   5.811   4.383   6.523
 1112SOL     OW 4234   5.370   0.369   2.108
 1112SOL    HW1 4235   5.329   0.458   2.130
 1112SOL    HW2 4236   5.441   0.382   2.039
 1113SOL     OW 4237   5.761   4.324   2.622
 1113SOL    HW1 4238   5.803   4.403   2.576
 1113SOL    HW2 4239   5.770   4.336   2.721
 1114SOL     OW 4240   3.359   4.246   5.206
 1114SOL    HW1 4241   3.269   4.224   5.167
 1114SOL    HW2 4242   3.420   4.167   5.196
 1115SOL     OW 4243   2.564   4.280   5.350
 1115SOL    HW1 4244   2.600   4.212   5.413
 1115SOL    HW2 4245   2.631   4.354   5.339
 1116SOL     OW 4246   4.217   0.093   6.557
 1116SOL    HW1 4247   4.219   0.042   6.471
 1116SOL    HW2 4248   4.296   0.155   6.560
 1117SOL     OW 4249   2.172   2.423   1.599
 1117SOL    HW1 4250   2.170   2.370   1.514
 1117SOL    HW2 4251   2.231   2.503   1.587
 1118SOL     OW 4252   3.983   5.275   7.016
 1118SOL    HW1 4253   3.912   5.219   0.039
 1118SOL    HW2 4254   3.947   5.366   6.997
 1119SOL     OW 4255   2.831   5.296   4.411
 1119SOL    HW1 4256   2.835   5.391   4.382
 1119SOL    HW2 4257   2.856   5.236   4.335
 1120SOL     OW 4258   6.724   4.196   1.096
 1120SOL    HW1 4259   6.808   4.199   1.041
 1120SOL    HW2 4260   6.717   4.107   1.142
 1121SOL     OW 4261   7.015   4.737   4.346
 1121SOL    HW1 4262   0.067   4.669   4.334
 1121SOL    HW2 4263   7.007   4.791   4.262
 1122SOL     OW 4264   5.497   2.505   2.032
 1122SOL    HW1 4265   5.594   2.526   2.047
 1122SOL    HW2 4266   5.484   2.405   2.032
 1123SOL     OW 4267   3.755   1.216   3.325
 1123SOL    HW1 4268   3.661   1.233   3.296
 1123SOL    HW2 4269   3.784   1.125   3.296
 1124SOL     OW 4270   2.183   2.466   4.288
 1124SOL    HW1 4271   2.280   2.449   4.270
 1124SOL    HW2 4272   2.175   2.550   4.342
 1125SOL     OW 4273   2.029   3.909   3.556
 1125SOL    HW1 4274   2.038   3.931   3.654
 1125SOL    HW2 4275   2.069   3.983   3.502
 1126SOL     OW 4276   4.202   4.846   4.705
 1126SOL    HW1 4277   4.275   4.811   4.764
 1126SOL    HW2 4278   4.144   4.908   4.757
 1127SOL     OW 4279   5.981   6.628   2.419
 1127SOL    HW1 4280   5.953   6.654   2.511
 1127SOL    HW2 4281   5.930   6.682   2.352
 1128SOL     OW 4282   5.117   1.079   4.069
 1128SOL    HW1 4283   5.131   1.126   4.156
 1128SOL    HW2 4284   5.118   1.147   3.995
 1129SOL     OW 4285   1.245   1.143   0.770
 1129SOL    HW1 4286   1.320   1.190   0.816
 1129SOL    HW2 4287   1.158   1.176   0.807
 1130SOL     OW 4288   2.053   4.616   1.955
 1130SOL    HW1 4289   2.080   4.675   2.031
 1130SOL    HW2 4290   2.124   4.615   1.886
 1131SOL     OW 4291   1.032   5.250   4.083
 1131SOL    HW1 4292   1.039   5.259   3.983
 1131SOL    HW2 4293   1.047   5.154   4.108
 1132SOL     OW 4294   2.503   1.372   2.841
 1132SOL    HW1 4295   2.511   1.465   2.808
 1132SOL    HW2 4296   2.492   1.309   2.764
 1133SOL     OW 4297   0.741   0.058   5.858
 1133SOL    HW1 4298   0.839   0.046   5.847
 1133SOL    HW2 4299   0.698   6.988   5.871
 1134SOL     OW 4300   3.788   6.696   1.541
 1134SOL    HW1 4301   3.753   6.688   1.448
 1134SOL    HW2 4302   3.715   6.678   1.606
 1135SOL     OW 4303   2.204   5.809   3.467
 1135SOL    HW1 4304   2.277   5.854   3.518
 1135SOL    HW2 4305   2.120   5.807   3.521
 1136SOL     OW 4306   1.804   5.286   1.899
 1136SOL    HW1 4307   1.748   5.286   1.816
 1136SOL    HW2 4308   1.775   5.359   1.960
 1137SOL     OW 4309   0.923   5.498   5.193
 1137SOL    HW1 4310   0.946   5.408   5.154
 1137SOL    HW2 4311   0.965   5.570   5.137
 1138SOL     OW 4312   2.093   3.474   4.707
 1138SOL    HW1 4313   2.170   3.537   4.692
 1138SOL    HW2 4314   2.009   3.527   4.713
 1139SOL     OW 4315   2.708   5.780   5.015
 1139SOL    HW1 4316   2.753   5.702   5.058
 1139SOL    HW2 4317   2.707   5.769   4.916
 1140SOL     OW 4318   1.715   2.088   0.898
 1140SOL    HW1 4319   1.800   2.118   0.941
 1140SOL    HW2 4320   1.683   2.158   0.834
 1141SOL     OW 4321   0.308   4.997   5.950
 1141SOL    HW1 4322   0.398   4.977   5.988
 1141SOL    HW2 4323   0.240   5.004   6.023
 1142SOL     OW 4324   2.501   6.171   1.969
 1142SOL    HW1 4325   2.548   6.150   1.883
 1142SOL    HW2 4326   2.403   6.155   1.958
 1143SOL     OW 4327   0.873   4.080   1.706
 1143SOL    HW1 4328   0.962   4.126   1.709
 1143SOL    HW2 4329   0.807   4.138   1.658
 1144SOL     OW 4330   5.851   4.470   0.601
 1144SOL    HW1 4331   5.765   4.520   0.598
 1144SOL    HW2 4332   5.901   4.494   0.684
 1145SOL     OW 4333   6.140   0.155   1.032
 1145SOL    HW1 4334   6.109   0.239   1.076
 1145SOL    HW2 4335   6.163   0.174   0.936
 1146SOL     OW 4336   0.832   1.045   1.109
 1146SOL    HW1 4337   0.752   1.067   1.165
 1146SOL    HW2 4338   0.901   1.000   1.166
 1147SOL     OW 4339   2.435   6.330   1.330
 1147SOL    HW1 4340   2.358   6.304   1.389
 1147SOL    HW2 4341   2.430   6.280   1.244
 1148SOL     OW 4342   4.555   5.418   3.249
 1148SOL    HW1 4343   4.567   5.332   3.199
 1148SOL    HW2 4344   4.631   5.431   3.312
 1149SOL     OW 4345   4.335   3.164   1.481
 1149SOL    HW1 4346   4.310   3.232   1.411
 1149SOL    HW2 4347   4.427   3.130   1.463
 1150SOL     OW 4348   1.868   3.625   0.461
 1150SOL    HW1 4349   1.831   3.596   0.372
 1150SOL    HW2 4350   1.795   3.623   0.529
 1151SOL     OW 4351   6.318   5.232   3.971
 1151SOL    HW1 4352   6.230   5.279   3.983
 1151SOL    HW2 4353   6.355   5.251   3.881
 1152SOL     OW 4354   3.837   6.710   6.114
 1152SOL    HW1 4355   3.746   6.750   6.122
 1152SOL    HW2 4356   3.877   6.702   6.205
 1153SOL     OW 4357   6.144   0.106   1.601
 1153SOL    HW1 4358   6.107   0.057   1.680
 1153SOL    HW2 4359   6.208   0.176   1.631
 1154SOL     OW 4360   1.972   2.591   1.036
 1154SOL    HW1 4361   1.925   2.577   1.123
 1154SOL    HW2 4362   2.041   2.663   1.047
 1155SOL     OW 4363   2.965   6.669   4.333
 1155SOL    HW1 4364   2.965   6.604   4.409
 1155SOL    HW2 4365   3.060   6.692   4.310
 1156SOL     OW 4366   2.557   1.756   3.780
 1156SOL    HW1 4367   2.515   1.839   3.745
 1156SOL    HW2 4368   2.508   1.725   3.861
 1157SOL     OW 4369   3.647   1.091   0.064
 1157SOL    HW1 4370   3.562   1.046   0.034
 1157SOL    HW2 4371   3.660   1.176   0.013
 1158SOL     OW 4372   5.658   4.849   3.303
 1158SOL    HW1 4373   5.752   4.817   3.289
 1158SOL    HW2 4374   5.625   4.892   3.219
 1159SOL     OW 4375   6.092   5.357   1.238
 1159SOL    HW1 4376   6.046   5.404   1.313
 1159SOL    HW2 4377   6.178   5.319   1.270
 1160SOL     OW 4378   5.648   1.762   0.354
 1160SOL    HW1 4379   5.640   1.678   0.408
 1160SOL    HW2 4380   5.557   1.793   0.326
 1161SOL     OW 4381   0.124   5.465   0.723
 1161SOL    HW1 4382   0.175   5.546   0.692
 1161SOL    HW2 4383   0.087   5.416   0.644
 1162SOL     OW 4384   3.078   2.148   4.653
 1162SOL    HW1 4385   3.094   2.135   4.751
 1162SOL    HW2 4386   2.983   2.174   4.638
 1163SOL     OW 4387   5.596   3.123   1.724
 1163SOL    HW1 4388   5.555   3.146   1.636
 1163SOL    HW2 4389   5.654   3.043   1.713
 1164SOL     OW 4390   4.342   2.052   5.542
 1164SOL    HW1 4391   4.262   2.047   5.601
 1164SOL    HW2 4392   4.375   2.146   5.537
 1165SOL     OW 4393   3.843   6.142   3.718
 1165SOL    HW1 4394   3.856   6.236   3.689
 1165SOL    HW2 4395   3.746   6.119   3.716
 1166SOL     OW 4396   3.188   4.461   6.112
 1166SOL    HW1 4397   3.210   4.424   6.021
 1166SOL    HW2 4398   3.200   4.560   6.111
 1167SOL     OW 4399   5.060   4.750   2.705
 1167SOL    HW1 4400   5.051   4.834   2.652
 1167SOL    HW2 4401   5.062   4.671   2.643
 1168SOL     OW 4402   6.192   0.949   3.123
 1168SOL    HW1 4403   6.105   0.923   3.166
 1168SOL    HW2 4404   6.239   0.868   3.090
 1169SOL     OW 4405   5.217   1.060   5.557
 1169SOL    HW1 4406   5.132   1.021   5.592
 1169SOL    HW2 4407   5.294   1.024   5.609
 1170SOL     OW 4408   4.979   6.161   3.897
 1170SOL    HW1 4409   5.028   6.075   3.882
 1170SOL    HW2 4410   4.945   6.164   3.991
 1171SOL     OW 4411   0.806   6.297   1.371
 1171SOL    HW1 4412   0.819   6.258   1.280
 1171SOL    HW2 4413   0.821   6.396   1.367
 1172SOL     OW 4414   6.802   3.552   6.496
 1172SOL    HW1 4415   6.829   3.515   6.408
 1172SOL    HW2 4416   6.704   3.573   6.495
 1173SOL     OW 4417   3.548   1.706   0.604
 1173SOL    HW1 4418   3.511   1.764   0.532
 1173SOL    HW2 4419   3.648   1.702   0.597
 1174SOL     OW 4420   2.627   3.682   0.747
 1174SOL    HW1 4421   2.613   3.583   0.756
 1174SOL    HW2 4422   2.694   3.712   0.816
 1175SOL     OW 4423   3.496   2.886   4.359
 1175SOL    HW1 4424   3.567   2.921   4.296
 1175SOL    HW2 4425   3.408   2.927   4.335
 1176SOL     OW 4426   5.329   3.721   6.083
 1176SOL    HW1 4427   5.346   3.640   6.139
 1176SOL    HW2 4428   5.242   3.762   6.110
 1177SOL     OW 4429   6.929   1.925   4.527
 1177SOL    HW1 4430   6.927   1.830   4.560
 1177SOL    HW2 4431   6.885   1.984   4.594
 1178SOL     OW 4432   3.641   5.208   0.418
 1178SOL    HW1 4433   3.667   5.211   0.514
 1178SOL    HW2 4434   3.542   5.213   0.409
 1179SOL     OW 4435   1.895   5.312   0.264
 1179SOL    HW1 4436   1.820   5.347   0.207
 1179SOL    HW2 4437   1.861   5.295   0.356
 1180SOL     OW 4438   3.131   5.819   0.812
 1180SOL    HW1 4439   3.045   5.868   0.804
 1180SOL    HW2 4440   3.204   5.883   0.838
 1181SOL     OW 4441   0.336   6.402   0.539
 1181SOL    HW1 4442   0.268   6.332   0.559
 1181SOL    HW2 4443   0.394   6.416   0.619
 1182SOL     OW 4444   4.713   4.418   2.661
 1182SOL    HW1 4445   4.723   4.320   2.641
 1182SOL    HW2 4446   4.666   4.429   2.749
 1183SOL     OW 4447   2.375   3.326   5.640
 1183SOL    HW1 4448   2.473   3.314   5.626
 1183SOL    HW2 4449   2.356   3.420   5.668
 1184SOL     OW 4450   0.776   6.806   6.191
 1184SOL    HW1 4451   0.695   6.774   6.143
 1184SOL    HW2 4452   0.759   6.896   6.230
 1185SOL     OW 4453   6.423   1.651   6.565
 1185SOL    HW1 4454   6.413   1.684   6.659
 1185SOL    HW2 4455   6.503   1.592   6.559
 1186SOL     OW 4456   5.526   6.123   4.945
 1186SOL    HW1 4457   5.429   6.147   4.941
 1186SOL    HW2 4458   5.539   6.045   5.006
 1187SOL     OW 4459   5.839   0.663   6.180
 1187SOL    HW1 4460   5.864   0.569   6.203
 1187SOL    HW2 4461   5.893   0.726   6.236
 1188SOL     OW 4462   2.467   0.056   6.086
 1188SOL    HW1 4463   2.422   7.014   6.150
 1188SOL    HW2 4464   2.564   0.032   6.078
 1189SOL     OW 4465   5.723   3.273   3.245
 1189SOL    HW1 4466   5.645   3.221   3.211
 1189SOL    HW2 4467   5.740   3.249   3.340
 1190SOL     OW 4468   2.090   5.848   2.919
 1190SOL    HW1 4469   2.182   5.821   2.946
 1190SOL    HW2 4470   2.068   5.809   2.830
 1191SOL     OW 4471   4.305   5.733   2.585
 1191SOL    HW1 4472   4.212   5.745   2.618
 1191SOL    HW2 4473   4.351   5.662   2.639
 1192SOL     OW 4474   5.548   6.244   3.778
 1192SOL    HW1 4475   5.496   6.275   3.858
 1192SOL    HW2 4476   5.637   6.208   3.808
 1193SOL     OW 4477   6.460   5.318   4.229
 1193SOL    HW1 4478   6.557   5.295   4.228
 1193SOL    HW2 4479   6.421   5.304   4.138
 1194SOL     OW 4480   4.087   1.100   0.804
 1194SOL    HW1 4481   4.183   1.087   0.830
 1194SOL    HW2 4482   4.033   1.123   0.885
 1195SOL     OW 4483   5.183   2.590   3.459
 1195SOL    HW1 4484   5.218   2.579   3.552
 1195SOL    HW2 4485   5.096   2.542   3.451
 1196SOL     OW 4486   6.206   6.659   5.147
 1196SOL    HW1 4487   6.247   6.747   5.172
 1196SOL    HW2 4488   6.109   6.673   5.125
 1197SOL     OW 4489   2.309   5.892   0.380
 1197SOL    HW1 4490   2.288   5.919   0.286
 1197SOL    HW2 4491   2.275   5.962   0.443
 1198SOL     OW 4492   1.440   2.899   0.215
 1198SOL    HW1 4493   1.410   2.812   0.254
 1198SOL    HW2 4494   1.382   2.921   0.137
 1199SOL     OW 4495   5.432   3.938   1.870
 1199SOL    HW1 4496   5.413   4.006   1.798
 1199SOL    HW2 4497   5.483   3.862   1.830
 1200SOL     OW 4498   3.287   3.624   1.783
 1200SOL    HW1 4499   3.328   3.682   1.853
 1200SOL    HW2 4500   3.244   3.545   1.826
 1201SOL     OW 4501   1.813   1.913   4.729
 1201SOL    HW1 4502   1.884   1.930   4.661
 1201SOL    HW2 4503   1.855   1.869   4.809
 1202SOL     OW 4504   0.474   5.223   5.793
 1202SOL    HW1 4505   0.556   5.281   5.786
 1202SOL    HW2 4506   0.422   5.248   5.874
 1203SOL     OW 4507   4.497   5.851   6.026
 1203SOL    HW1 4508   4.549   5.914   5.969
 1203SOL    HW2 4509   4.560   5.800   6.084
 1204SOL     OW 4510   2.068   6.710   2.790
 1204SOL    HW1 4511   2.109   6.712   2.699
 1204SOL    HW2 4512   2.092   6.624   2.835
 1205SOL     OW 4513   5.222   4.517   2.134
 1205SOL    HW1 4514   5.260   4.530   2.043
 1205SOL    HW2 4515   5.208   4.419   2.151
 1206SOL     OW 4516   3.411   3.426   4.900
 1206SOL    HW1 4517   3.412   3.337   4.853
 1206SOL    HW2 4518   3.504   3.447   4.931
 1207SOL     OW 4519   1.472   6.459   1.912
 1207SOL    HW1 4520   1.513   6.372   1.884
 1207SOL    HW2 4521   1.430   6.503   1.832
 1208SOL     OW 4522   3.486   3.928   6.155
 1208SOL    HW1 4523   3.398   3.913   6.199
 1208SOL    HW2 4524   3.472   3.948   6.058
 1209SOL     OW 4525   4.037   6.551   5.279
 1209SOL    HW1 4526   4.021   6.545   5.378
 1209SOL    HW2 4527   4.130   6.523   5.258
 1210SOL     OW 4528   3.450   0.932   3.355
 1210SOL    HW1 4529   3.525   0.937   3.421
 1210SOL    HW2 4530   3.405   1.021   3.350
 1211SOL     OW 4531   1.258   3.482   0.313
 1211SOL    HW1 4532   1.302   3.393   0.325
 1211SOL    HW2 4533   1.177   3.471   0.255
 1212SOL     OW 4534   1.387   6.226   0.054
 1212SOL    HW1 4535   1.387   6.137   0.008
 1212SOL    HW2 4536   1.477   6.269   0.045
 1213SOL     OW 4537   5.617   2.871   1.383
 1213SOL    HW1 4538   5.677   2.823   1.447
 1213SOL    HW2 4539   5.562   2.805   1.333
 1214SOL     OW 4540   0.485   2.601   1.570
 1214SOL    HW1 4541   0.534   2.672   1.620
 1214SOL    HW2 4542   0.417   2.644   1.510
 1215SOL     OW 4543   1.287   5.555   4.314
 1215SOL    HW1 4544   1.296   5.470   4.261
 1215SOL    HW2 4545   1.190   5.572   4.332
 1216SOL     OW 4546   4.526   6.195   0.580
 1216SOL    HW1 4547   4.434   6.187   0.541
 1216SOL    HW2 4548   4.530   6.277   0.638
 1217SOL     OW 4549   3.076   4.000   6.758
 1217SOL    HW1 4550   3.026   4.068   6.812
 1217SOL    HW2 4551   3.079   3.914   6.809
 1218SOL     OW 4552   1.896   5.124   3.498
 1218SOL    HW1 4553   1.925   5.058   3.429
 1218SOL    HW2 4554   1.844   5.197   3.454
 1219SOL     OW 4555   4.392   6.223   2.789
 1219SOL    HW1 4556   4.394   6.156   2.715
 1219SOL    HW2 4557   4.461   6.200   2.857
 1220SOL     OW 4558   0.955   4.674   2.796
 1220SOL    HW1 4559   1.023   4.670   2.723
 1220SOL    HW2 4560   0.903   4.588   2.797
 1221SOL     OW 4561   5.439   3.977   6.004
 1221SOL    HW1 4562   5.409   3.884   6.026
 1221SOL    HW2 4563   5.538   3.983   6.013
 1222SOL     OW 4564   6.884   6.591   6.608
 1222SOL    HW1 4565   6.919   6.503   6.639
 1222SOL    HW2 4566   6.787   6.582   6.585
 1223SOL     OW 4567   3.299   6.200   0.442
 1223SOL    HW1 4568   3.331   6.215   0.536
 1223SOL    HW2 4569   3.375   6.211   0.378
 1224SOL     OW 4570   3.506   0.363   2.081
 1224SOL    HW1 4571   3.419   0.317   2.063
 1224SOL    HW2 4572   3.510   0.449   2.030
 1225SOL     OW 4573   2.670   4.064   6.350
 1225SOL    HW1 4574   2.610   4.027   6.280
 1225SOL    HW2 4575   2.664   4.007   6.433
 1226SOL     OW 4576   2.209   4.239   1.238
 1226SOL    HW1 4577   2.183   4.149   1.203
 1226SOL    HW2 4578   2.307   4.239   1.258
 1227SOL     OW 4579   0.209   3.566   6.623
 1227SOL    HW1 4580   0.129   3.510   6.603
 1227SOL    HW2 4581   0.291   3.520   6.590
 1228SOL     OW 4582   3.812   1.247   5.656
 1228SOL    HW1 4583   3.868   1.179   5.703
 1228SOL    HW2 4584   3.855   1.269   5.568
 1229SOL     OW 4585   3.418   4.369   6.446
 1229SOL    HW1 4586   3.334   4.393   6.398
 1229SOL    HW2 4587   3.431   4.430   6.524
 1230SOL     OW 4588   4.610   6.188   3.442
 1230SOL    HW1 4589   4.660   6.266   3.405
 1230SOL    HW2 4590   4.523   6.179   3.393
 1231SOL     OW 4591   1.940   4.656   4.523
 1231SOL    HW1 4592   1.867   4.621   4.581
 1231SOL    HW2 4593   1.901   4.698   4.442
 1232SOL     OW 4594   1.916   2.284   4.700
 1232SOL    HW1 4595   1.878   2.214   4.760
 1232SOL    HW2 4596   1.879   2.273   4.608
 1233SOL     OW 4597   1.019   3.029   4.644
 1233SOL    HW1 4598   1.018   2.999   4.549
 1233SOL    HW2 4599   1.103   2.995   4.688
 1234SOL     OW 4600   6.261   4.317   4.541
 1234SOL    HW1 4601   6.347   4.312   4.489
 1234SOL    HW2 4602   6.254   4.406   4.585
 1235SOL     OW 4603   6.305   5.966   4.167
 1235SOL    HW1 4604   6.348   5.963   4.077
 1235SOL    HW2 4605   6.373   5.993   4.235
 1236SOL     OW 4606   5.031   0.732   0.086
 1236SOL    HW1 4607   5.118   0.681   0.083
 1236SOL    HW2 4608   5.028   0.797   0.010
 1237SOL     OW 4609   2.893   4.255   6.533
 1237SOL    HW1 4610   2.910   4.185   6.464
 1237SOL    HW2 4611   2.891   4.345   6.490
 1238SOL     OW 4612   1.602   1.341   1.454
 1238SOL    HW1 4613   1.585   1.395   1.372
 1238SOL    HW2 4614   1.539   1.263   1.455
 1239SOL     OW 4615   0.272   6.901   6.557
 1239SOL    HW1 4616   0.270   6.903   6.657
 1239SOL    HW2 4617   0.323   6.821   6.526
 1240SOL     OW 4618   4.332   5.963   2.251
 1240SOL    HW1 4619   4.312   5.993   2.344
 1240SOL    HW2 4620   4.296   6.031   2.186
 1241SOL     OW 4621   6.440   3.122   3.221
 1241SOL    HW1 4622   6.494   3.041   3.198
 1241SOL    HW2 4623   6.353   3.093   3.260
 1242SOL     OW 4624   2.254   3.724   6.794
 1242SOL    HW1 4625   2.328   3.742   6.859
 1242SOL    HW2 4626   2.293   3.695   6.707
 1243SOL     OW 4627   2.557   5.025   5.280
 1243SOL    HW1 4628   2.599   5.106   5.238
 1243SOL    HW2 4629   2.504   5.053   5.360
 1244SOL     OW 4630   0.753   0.701   3.112
 1244SOL    HW1 4631   0.821   0.746   3.054
 1244SOL    HW2 4632   0.731   0.760   3.190
 1245SOL     OW 4633   2.824   2.939   5.901
 1245SOL    HW1 4634   2.869   3.024   5.872
 1245SOL    HW2 4635   2.893   2.872   5.926
 1246SOL     OW 4636   1.122   6.716   2.685
 1246SOL    HW1 4637   1.047   6.748   2.628
 1246SOL    HW2 4638   1.137   6.781   2.760
 1247SOL     OW 4639   1.652   6.428   6.753
 1247SOL    HW1 4640   1.566   6.475   6.775
 1247SOL    HW2 4641   1.693   6.392   6.836
 1248SOL     OW 4642   1.945   5.756   3.595
 1248SOL    HW1 4643   1.896   5.813   3.530
 1248SOL    HW2 4644   1.938   5.660   3.567
 1249SOL     OW 4645   6.050   3.511   3.182
 1249SOL    HW1 4646   6.047   3.415   3.155
 1249SOL    HW2 4647   6.053   3.517   3.282
 1250SOL     OW 4648   0.649   4.471   4.365
 1250SOL    HW1 4649   0.666   4.399   4.431
 1250SOL    HW2 4650   0.729   4.530   4.358
 1251SOL     OW 4651   3.556   0.086   5.312
 1251SOL    HW1 4652   3.546   0.165   5.251
 1251SOL    HW2 4653   3.494   0.013   5.283
 1252SOL     OW 4654   3.431   3.460   6.701
 1252SOL    HW1 4655   3.444   3.362   6.686
 1252SOL    HW2 4656   3.334   3.482   6.701
 1253SOL     OW 4657   4.394   5.851   3.348
 1253SOL    HW1 4658   4.385   5.939   3.300
 1253SOL    HW2 4659   4.402   5.868   3.446
 1254SOL     OW 4660   6.870   1.583   2.505
 1254SOL    HW1 4661   6.777   1.585   2.540
 1254SOL    HW2 4662   6.932   1.624   2.571
 1255SOL     OW 4663   6.076   6.944   0.326
 1255SOL    HW1 4664   6.172   6.931   0.347
 1255SOL    HW2 4665   6.057   0.022   0.316
 1256SOL     OW 4666   4.270   1.174   3.696
 1256SOL    HW1 4667   4.354   1.128   3.668
 1256SOL    HW2 4668   4.285   1.273   3.698
 1257SOL     OW 4669   6.524   1.181   4.031
 1257SOL    HW1 4670   6.555   1.210   3.940
 1257SOL    HW2 4671   6.532   1.082   4.040
 1258SOL     OW 4672   6.900   6.874   3.975
 1258SOL    HW1 4673   6.878   6.790   4.025
 1258SOL    HW2 4674   6.851   6.876   3.888
 1259SOL     OW 4675   4.291   2.158   5.232
 1259SOL    HW1 4676   4.259   2.211   5.311
 1259SOL    HW2 4677   4.390   2.147   5.238
 1260SOL     OW 4678   0.875   1.328   6.459
 1260SOL    HW1 4679   0.946   1.392   6.487
 1260SOL    HW2 4680   0.872   1.324   6.359
 1261SOL     OW 4681   6.413   3.842   1.071
 1261SOL    HW1 4682   6.434   3.923   1.014
 1261SOL    HW2 4683   6.360   3.777   1.017
 1262SOL     OW 4684   5.287   5.831   2.612
 1262SOL    HW1 4685   5.189   5.852   2.610
 1262SOL    HW2 4686   5.314   5.808   2.705
 1263SOL     OW 4687   0.185   2.675   3.623
 1263SOL    HW1 4688   0.264   2.669   3.563
 1263SOL    HW2 4689   0.103   2.649   3.572
 1264SOL     OW 4690   0.595   2.877   5.278
 1264SOL    HW1 4691   0.663   2.947   5.257
 1264SOL    HW2 4692   0.608   2.844   5.372
 1265SOL     OW 4693   5.530   6.326   5.308
 1265SOL    HW1 4694   5.485   6.406   5.269
 1265SOL    HW2 4695   5.498   6.312   5.402
 1266SOL     OW 4696   1.435   1.489   5.381
 1266SOL    HW1 4697   1.515   1.490   5.320
 1266SOL    HW2 4698   1.379   1.571   5.363
 1267SOL     OW 4699   3.627   0.345   3.283
 1267SOL    HW1 4700   3.642   0.262   3.229
 1267SOL    HW2 4701   3.711   0.366   3.334
 1268SOL     OW 4702   4.171   2.714   5.520
 1268SOL    HW1 4703   4.230   2.687   5.444
 1268SOL    HW2 4704   4.209   2.680   5.606
 1269SOL     OW 4705   5.992   2.019   4.295
 1269SOL    HW1 4706   5.950   2.019   4.386
 1269SOL    HW2 4707   6.022   1.926   4.273
 1270SOL     OW 4708   6.545   5.596   2.657
 1270SOL    HW1 4709   6.476   5.596   2.729
 1270SOL    HW2 4710   6.606   5.518   2.669
 1271SOL     OW 4711   1.611   1.640   0.861
 1271SOL    HW1 4712   1.680   1.569   0.849
 1271SOL    HW2 4713   1.534   1.604   0.915
 1272SOL     OW 4714   6.151   3.240   6.201
 1272SOL    HW1 4715   6.211   3.257   6.279
 1272SOL    HW2 4716   6.203   3.250   6.116
 1273SOL     OW 4717   1.224   4.443   4.775
 1273SOL    HW1 4718   1.312   4.463   4.817
 1273SOL    HW2 4719   1.161   4.519   4.792
 1274SOL     OW 4720   0.222   5.114   2.740
 1274SOL    HW1 4721   0.147   5.177   2.757
 1274SOL    HW2 4722   0.186   5.026   2.708
 1275SOL     OW 4723   2.536   0.961   3.283
 1275SOL    HW1 4724   2.600   0.953   3.359
 1275SOL    HW2 4725   2.474   0.882   3.284
 1276SOL     OW 4726   5.662   4.644   4.136
 1276SOL    HW1 4727   5.627   4.618   4.226
 1276SOL    HW2 4728   5.619   4.586   4.066
 1277SOL     OW 4729   0.767   5.888   0.641
 1277SOL    HW1 4730   0.706   5.960   0.674
 1277SOL    HW2 4731   0.861   5.920   0.642
 1278SOL     OW 4732   0.979   6.071   2.928
 1278SOL    HW1 4733   1.077   6.094   2.929
 1278SOL    HW2 4734   0.929   6.140   2.876
 1279SOL     OW 4735   3.010   2.864   1.779
 1279SOL    HW1 4736   3.055   2.933   1.837
 1279SOL    HW2 4737   3.070   2.842   1.702
 1280SOL     OW 4738   1.988   2.299   3.822
 1280SOL    HW1 4739   2.077   2.266   3.851
 1280SOL    HW2 4740   1.966   2.384   3.871
 1281SOL     OW 4741   4.913   6.143   5.199
 1281SOL    HW1 4742   4.940   6.070   5.137
 1281SOL    HW2 4743   4.984   6.214   5.199
 1282SOL     OW 4744   0.105   2.806   0.984
 1282SOL    HW1 4745   0.006   2.790   0.981
 1282SOL    HW2 4746   0.139   2.819   0.891
 1283SOL     OW 4747   6.803   3.213   4.717
 1283SOL    HW1 4748   6.737   3.276   4.678
 1283SOL    HW2 4749   6.858   3.172   4.644
 1284SOL     OW 4750   4.077   2.128   2.014
 1284SOL    HW1 4751   4.047   2.137   2.109
 1284SOL    HW2 4752   4.172   2.159   2.005
 1285SOL     OW 4753   4.155   1.106   5.270
 1285SOL    HW1 4754   4.079   1.058   5.313
 1285SOL    HW2 4755   4.220   1.040   5.234
 1286SOL     OW 4756   5.469   1.746   1.415
 1286SOL    HW1 4757   5.546   1.793   1.458
 1286SOL    HW2 4758   5.385   1.794   1.437
 1287SOL     OW 4759   6.737   5.020   4.649
 1287SOL    HW1 4760   6.690   5.047   4.733
 1287SOL    HW2 4761   6.828   4.985   4.672
 1288SOL     OW 4762   4.402   4.694   6.911
 1288SOL    HW1 4763   4.439   4.690   6.818
 1288SOL    HW2 4764   4.317   4.746   6.912
 1289SOL     OW 4765   7.017   6.676   1.420
 1289SOL    HW1 4766   0.002   6.775   1.418
 1289SOL    HW2 4767   0.083   6.638   1.385
 1290SOL     OW 4768   1.277   6.420   5.409
 1290SOL    HW1 4769   1.179   6.399   5.408
 1290SOL    HW2 4770   1.315   6.407   5.318
 1291SOL     OW 4771   6.802   4.753   3.287
 1291SOL    HW1 4772   6.868   4.720   3.355
 1291SOL    HW2 4773   6.835   4.731   3.196
 1292SOL     OW 4774   1.258   6.779   1.920
 1292SOL    HW1 4775   1.227   6.694   1.963
 1292SOL    HW2 4776   1.180   6.827   1.880
 1293SOL     OW 4777   4.568   1.204   0.208
 1293SOL    HW1 4778   4.632   1.127   0.206
 1293SOL    HW2 4779   4.476   1.172   0.185
 1294SOL     OW 4780   2.074   4.498   4.866
 1294SOL    HW1 4781   2.072   4.597   4.881
 1294SOL    HW2 4782   2.092   4.453   4.953
 1295SOL     OW 4783   6.612   4.560   0.589
 1295SOL    HW1 4784   6.585   4.598   0.677
 1295SOL    HW2 4785   6.545   4.491   0.561
 1296SOL     OW 4786   5.266   0.256   5.759
 1296SOL    HW1 4787   5.251   0.349   5.792
 1296SOL    HW2 4788   5.354   0.251   5.711
 1297SOL     OW 4789   0.725   0.512   1.871
 1297SOL    HW1 4790   0.715   0.415   1.892
 1297SOL    HW2 4791   0.651   0.563   1.915
 1298SOL     OW 4792   4.851   0.446   2.450
 1298SOL    HW1 4793   4.788   0.385   2.498
 1298SOL    HW2 4794   4.837   0.436   2.351
 1299SOL     OW 4795   0.659   3.297   4.595
 1299SOL    HW1 4796   0.576   3.277   4.542
 1299SOL    HW2 4797   0.736   3.245   4.558
 1300SOL     OW 4798   0.942   5.299   1.533
 1300SOL    HW1 4799   0.842   5.301   1.536
 1300SOL    HW2 4800   0.974   5.205   1.530
 1301SOL     OW 4801   0.394   0.168   0.498
 1301SOL    HW1 4802   0.452   0.087   0.494
 1301SOL    HW2 4803   0.437   0.237   0.556
 1302SOL     OW 4804   6.075   0.001   5.216
 1302SOL    HW1 4805   6.060   6.964   5.135
 1302SOL    HW2 4806   6.048   0.095   5.197
 1303SOL     OW 4807   3.578   6.706   1.725
 1303SOL    HW1 4808   3.508   6.636   1.718
 1303SOL    HW2 4809   3.537   6.796   1.712
 1304SOL     OW 4810   0.594   0.930   0.738
 1304SOL    HW1 4811   0.645   1.002   0.689
 1304SOL    HW2 4812   0.650   0.895   0.813
 1305SOL     OW 4813   4.516   3.249   6.609
 1305SOL    HW1 4814   4.447   3.182   6.582
 1305SOL    HW2 4815   4.524   3.319   6.538
 1306SOL     OW 4816   2.789   5.658   4.086
 1306SOL    HW1 4817   2.788   5.576   4.029
 1306SOL    HW2 4818   2.852   5.725   4.046
 1307SOL     OW 4819   2.514   2.555   3.357
 1307SOL    HW1 4820   2.612   2.570   3.353
 1307SOL    HW2 4821   2.496   2.459   3.381
 1308SOL     OW 4822   0.516   4.430   6.240
 1308SOL    HW1 4823   0.534   4.397   6.333
 1308SOL    HW2 4824   0.418   4.430   6.223
 1309SOL     OW 4825   5.724   4.801   6.370
 1309SOL    HW1 4826   5.806   4.764   6.325
 1309SOL    HW2 4827   5.646   4.742   6.350
 1310SOL     OW 4828   1.164   4.178   3.311
 1310SOL    HW1 4829   1.250   4.133   3.338
 1310SOL    HW2 4830   1.091   4.110   3.305
 1311SOL     OW 4831   5.637   5.269   0.900
 1311SOL    HW1 4832   5.675   5.241   0.988
 1311SOL    HW2 4833   5.550   5.223   0.885
 1312SOL     OW 4834   2.418   1.197   5.861
 1312SOL    HW1 4835   2.366   1.267   5.910
 1312SOL    HW2 4836   2.437   1.120   5.921
 1313SOL     OW 4837   6.863   5.978   2.169
 1313SOL    HW1 4838   6.824   5.998   2.079
 1313SOL    HW2 4839   6.918   5.895   2.164
 1314SOL     OW 4840   2.257   1.809   5.116
 1314SOL    HW1 4841   2.277   1.733   5.056
 1314SOL    HW2 4842   2.329   1.816   5.186
 1315SOL     OW 4843   6.384   1.555   3.325
 1315SOL    HW1 4844   6.441   1.584   3.403
 1315SOL    HW2 4845   6.414   1.603   3.243
 1316SOL     OW 4846   5.091   0.076   6.602
 1316SOL    HW1 4847   5.144   0.160   6.617
 1316SOL    HW2 4848   5.034   0.058   6.682
 1317SOL     OW 4849   3.601   3.552   5.561
 1317SOL    HW1 4850   3.697   3.566   5.587
 1317SOL    HW2 4851   3.596   3.511   5.470
 1318SOL     OW 4852   1.731   1.816   6.204
 1318SOL    HW1 4853   1.785   1.791   6.284
 1318SOL    HW2 4854   1.717   1.915   6.203
 1319SOL     OW 4855   6.824   6.853   0.968
 1319SOL    HW1 4856   6.834   6.762   0.927
 1319SOL    HW2 4857   6.885   6.861   1.047
 1320SOL     OW 4858   3.423   3.336   5.640
 1320SOL    HW1 4859   3.472   3.423   5.632
 1320SOL    HW2 4860   3.339   3.340   5.586
 1321SOL     OW 4861   6.534   2.636   0.308
 1321SOL    HW1 4862   6.616   2.672   0.354
 1321SOL    HW2 4863   6.533   2.537   0.314
 1322SOL     OW 4864   3.496   2.011   0.357
 1322SOL    HW1 4865   3.593   2.000   0.334
 1322SOL    HW2 4866   3.451   1.922   0.348
 1323SOL     OW 4867   3.544   6.915   0.702
 1323SOL    HW1 4868   3.613   6.886   0.635
 1323SOL    HW2 4869   3.564   7.009   0.732
 1324SOL     OW 4870   1.965   3.853   0.122
 1324SOL    HW1 4871   1.872   3.830   0.149
 1324SOL    HW2 4872   1.964   3.931   0.059
 1325SOL     OW 4873   2.907   5.841   5.411
 1325SOL    HW1 4874   2.978   5.833   5.341
 1325SOL    HW2 4875   2.827   5.787   5.384
 1326SOL     OW 4876   4.640   2.267   4.582
 1326SOL    HW1 4877   4.626   2.261   4.483
 1326SOL    HW2 4878   4.553   2.253   4.629
 1327SOL     OW 4879   5.300   5.715   2.008
 1327SOL    HW1 4880   5.245   5.740   1.928
 1327SOL    HW2 4881   5.242   5.671   2.076
 1328SOL     OW 4882   2.197   2.884   5.456
 1328SOL    HW1 4883   2.237   2.840   5.375
 1328SOL    HW2 4884   2.121   2.942   5.427
 1329SOL     OW 4885   0.971   2.755   3.851
 1329SOL    HW1 4886   0.958   2.660   3.879
 1329SOL    HW2 4887   0.996   2.758   3.754
 1330SOL     OW 4888   6.212   2.986   2.055
 1330SOL    HW1 4889   6.218   3.033   2.143
 1330SOL    HW2 4890   6.273   2.907   2.055
 1331SOL     OW 4891   4.552   1.717   3.995
 1331SOL    HW1 4892   4.462   1.750   3.967
 1331SOL    HW2 4893   4.561   1.620   3.972
 1332SOL     OW 4894   1.770   6.101   0.012
 1332SOL    HW1 4895   1.796   6.008   7.007
 1332SOL    HW2 4896   1.711   6.100   0.093
 1333SOL     OW 4897   3.363   4.176   3.158
 1333SOL    HW1 4898   3.431   4.204   3.226
 1333SOL    HW2 4899   3.394   4.202   3.067
 1334SOL     OW 4900   6.641   3.176   1.491
 1334SOL    HW1 4901   6.563   3.181   1.428
 1334SOL    HW2 4902   6.609   3.146   1.581
 1335SOL     OW 4903   1.357   3.958   2.790
 1335SOL    HW1 4904   1.325   3.869   2.757
 1335SOL    HW2 4905   1.332   3.968   2.886
 1336SOL     OW 4906   2.263   0.355   5.728
 1336SOL    HW1 4907   2.277   0.263   5.764
 1336SOL    HW2 4908   2.316   0.367   5.644
 1337SOL     OW 4909   6.590   0.729   3.066
 1337SOL    HW1 4910   6.669   0.674   3.095
 1337SOL    HW2 4911   6.618   0.793   2.995
 1338SOL     OW 4912   6.541   4.216   4.973
 1338SOL    HW1 4913   6.579   4.250   4.887
 1338SOL    HW2 4914   6.444   4.237   4.977
 1339SOL     OW 4915   7.013   0.197   0.174
 1339SOL    HW1 4916   0.035   0.288   0.176
 1339SOL    HW2 4917   6.935   0.197   0.111
 1340SOL     OW 4918   4.126   2.698   1.212
 1340SOL    HW1 4919   4.098   2.630   1.145
 1340SOL    HW2 4920   4.203   2.663   1.266
 1341SOL     OW 4921   5.022   6.162   0.228
 1341SOL    HW1 4922   5.026   6.083   0.167
 1341SOL    HW2 4923   5.050   6.134   0.320
 1342SOL     OW 4924   2.020   6.683   1.667
 1342SOL    HW1 4925   2.064   6.664   1.755
 1342SOL    HW2 4926   2.059   6.765   1.626
 1343SOL     OW 4927   6.232   6.121   3.456
 1343SOL    HW1 4928   6.155   6.079   3.408
 1343SOL    HW2 4929   6.315   6.109   3.402
 1344SOL     OW 4930   0.706   0.720   4.802
 1344SOL    HW1 4931   0.790   0.703   4.750
 1344SOL    HW2 4932   0.728   0.772   4.885
 1345SOL     OW 4933   0.284   6.451   0.224
 1345SOL    HW1 4934   0.367   6.432   0.171
 1345SOL    HW2 4935   0.307   6.507   0.304
 1346SOL     OW 4936   3.124   5.275   4.796
 1346SOL    HW1 4937   3.115   5.200   4.862
 1346SOL    HW2 4938   3.195   5.338   4.826
 1347SOL     OW 4939   1.081   6.886   6.532
 1347SOL    HW1 4940   1.162   6.942   6.553
 1347SOL    HW2 4941   1.083   6.859   6.436
 1348SOL     OW 4942   0.763   6.469   5.243
 1348SOL    HW1 4943   0.706   6.469   5.326
 1348SOL    HW2 4944   0.839   6.405   5.256
 1349SOL     OW 4945   4.697   2.840   3.609
 1349SOL    HW1 4946   4.671   2.751   3.645
 1349SOL    HW2 4947   4.684   2.841   3.509
 1350SOL     OW 4948   4.219   4.090   6.645
 1350SOL    HW1 4949   4.245   4.129   6.734
 1350SOL    HW2 4950   4.197   4.163   6.582
 1351SOL     OW 4951   0.418   2.734   5.109
 1351SOL    HW1 4952   0.479   2.712   5.033
 1351SOL    HW2 4953   0.463   2.798   5.172
 1352SOL     OW 4954   0.013   0.589   2.437
 1352SOL    HW1 4955   0.055   0.510   2.393
 1352SOL    HW2 4956   6.935   0.570   2.455
 1353SOL     OW 4957   0.957   1.088   0.507
 1353SOL    HW1 4958   1.043   1.116   0.549
 1353SOL    HW2 4959   0.971   1.070   0.409
 1354SOL     OW 4960   4.798   4.752   2.951
 1354SOL    HW1 4961   4.875   4.809   2.924
 1354SOL    HW2 4962   4.810   4.659   2.914
 1355SOL     OW 4963   5.379   3.192   6.016
 1355SOL    HW1 4964   5.308   3.226   6.077
 1355SOL    HW2 4965   5.372   3.093   6.008
 1356SOL     OW 4966   2.649   2.967   0.261
 1356SOL    HW1 4967   2.550   2.982   0.270
 1356SOL    HW2 4968   2.691   3.047   0.218
 1357SOL     OW 4969   1.091   3.396   4.980
 1357SOL    HW1 4970   1.008   3.347   4.951
 1357SOL    HW2 4971   1.105   3.382   5.078
 1358SOL     OW 4972   1.939   6.938   0.223
 1358SOL    HW1 4973   1.859   6.878   0.228
 1358SOL    HW2 4974   1.981   6.945   0.313
 1359SOL     OW 4975   6.859   4.566   1.885
 1359SOL    HW1 4976   6.917   4.599   1.960
 1359SOL    HW2 4977   6.780   4.518   1.922
 1360SOL     OW 4978   2.036   2.633   6.916
 1360SOL    HW1 4979   2.035   2.633   7.016
 1360SOL    HW2 4980   1.984   2.711   6.882
 1361SOL     OW 4981   0.337   4.431   5.238
 1361SOL    HW1 4982   0.257   4.486   5.215
 1361SOL    HW2 4983   0.348   4.358   5.171
 1362SOL     OW 4984   3.036   3.184   2.957
 1362SOL    HW1 4985   3.063   3.136   3.040
 1362SOL    HW2 4986   3.095   3.156   2.881
 1363SOL     OW 4987   0.973   6.191   4.354
 1363SOL    HW1 4988   1.058   6.140   4.337
 1363SOL    HW2 4989   0.911   6.134   4.407
 1364SOL     OW 4990   4.557   4.159   0.693
 1364SOL    HW1 4991   4.487   4.204   0.637
 1364SOL    HW2 4992   4.524   4.149   0.786
 1365SOL     OW 4993   0.048   3.298   6.867
 1365SOL    HW1 4994   0.048   3.321   6.964
 1365SOL    HW2 4995   7.017   3.212   6.853
 1366SOL     OW 4996   3.309   6.803   5.000
 1366SOL    HW1 4997   3.276   6.823   4.908
 1366SOL    HW2 4998   3.279   6.712   5.027
 1367SOL     OW 4999   2.255   1.252   2.435
 1367SOL    HW1 5000   2.240   1.207   2.523
 1367SOL    HW2 5001   2.344   1.299   2.436
 1368SOL     OW 5002   5.470   6.621   3.393
 1368SOL    HW1 5003   5.497   6.540   3.446
 1368SOL    HW2 5004   5.370   6.624   3.387
 1369SOL     OW 5005   0.937   0.645   2.835
 1369SOL    HW1 5006   1.025   0.683   2.863
 1369SOL    HW2 5007   0.924   0.555   2.876
 1370SOL     OW 5008   1.995   0.428   1.464
 1370SOL    HW1 5009   1.944   0.374   1.531
 1370SOL    HW2 5010   1.957   0.520   1.459
 1371SOL     OW 5011   3.967   0.303   6.918
 1371SOL    HW1 5012   4.018   0.364   6.979
 1371SOL    HW2 5013   3.932   0.357   6.840
 1372SOL     OW 5014   2.974   2.109   2.074
 1372SOL    HW1 5015   3.052   2.098   2.013
 1372SOL    HW2 5016   2.928   2.195   2.054
 1373SOL     OW 5017   1.181   5.876   0.826
 1373SOL    HW1 5018   1.190   5.830   0.738
 1373SOL    HW2 5019   1.200   5.974   0.815
 1374SOL     OW 5020   4.919   3.150   0.604
 1374SOL    HW1 5021   4.910   3.080   0.674
 1374SOL    HW2 5022   4.859   3.227   0.627
 1375SOL     OW 5023   0.485   3.907   5.324
 1375SOL    HW1 5024   0.475   3.854   5.240
 1375SOL    HW2 5025   0.467   4.003   5.306
 1376SOL     OW 5026   4.575   1.460   2.493
 1376SOL    HW1 5027   4.516   1.453   2.412
 1376SOL    HW2 5028   4.577   1.555   2.524
 1377SOL     OW 5029   1.186   5.196   4.880
 1377SOL    HW1 5030   1.272   5.175   4.926
 1377SOL    HW2 5031   1.169   5.129   4.808
 1378SOL     OW 5032   1.567   2.457   6.527
 1378SOL    HW1 5033   1.540   2.427   6.619
 1378SOL    HW2 5034   1.535   2.551   6.513
 1379SOL     OW 5035   4.235   6.195   1.105
 1379SOL    HW1 5036   4.198   6.271   1.051
 1379SOL    HW2 5037   4.234   6.111   1.049
 1380SOL     OW 5038   6.452   6.333   2.902
 1380SOL    HW1 5039   6.445   6.376   2.812
 1380SOL    HW2 5040   6.396   6.383   2.968
 1381SOL     OW 5041   6.310   0.181   1.296
 1381SOL    HW1 5042   6.292   0.095   1.343
 1381SOL    HW2 5043   6.310   0.166   1.197
 1382SOL     OW 5044   6.918   5.059   6.388
 1382SOL    HW1 5045   6.857   5.107   6.324
 1382SOL    HW2 5046   6.954   5.123   6.454
 1383SOL     OW 5047   2.833   0.398   0.361
 1383SOL    HW1 5048   2.766   0.361   0.426
 1383SOL    HW2 5049   2.865   0.325   0.300
 1384SOL     OW 5050   2.638   2.058   2.251
 1384SOL    HW1 5051   2.678   2.150   2.256
 1384SOL    HW2 5052   2.631   2.020   2.343
 1385SOL     OW 5053   5.515   2.609   3.741
 1385SOL    HW1 5054   5.581   2.565   3.679
 1385SOL    HW2 5055   5.546   2.599   3.835
 1386SOL     OW 5056   2.123   2.646   3.820
 1386SOL    HW1 5057   2.139   2.616   3.725
 1386SOL    HW2 5058   2.066   2.728   3.820
 1387SOL     OW 5059   2.519   0.765   4.654
 1387SOL    HW1 5060   2.524   0.851   4.604
 1387SOL    HW2 5061   2.538   0.783   4.751
 1388SOL     OW 5062   6.432   1.155   4.840
 1388SOL    HW1 5063   6.518   1.197   4.868
 1388SOL    HW2 5064   6.369   1.154   4.918
 1389SOL     OW 5065   6.471   0.881   4.120
 1389SOL    HW1 5066   6.543   0.882   4.189
 1389SOL    HW2 5067   6.488   0.809   4.054
 1390SOL     OW 5068   4.342   2.241   2.048
 1390SOL    HW1 5069   4.338   2.332   2.007
 1390SOL    HW2 5070   4.332   2.249   2.147
 1391SOL     OW 5071   5.706   1.400   4.998
 1391SOL    HW1 5072   5.641   1.472   4.973
 1391SOL    HW2 5073   5.784   1.441   5.045
 1392SOL     OW 5074   4.462   6.226   5.661
 1392SOL    HW1 5075   4.412   6.200   5.578
 1392SOL    HW2 5076   4.397   6.252   5.732
 1393SOL     OW 5077   5.091   0.265   6.894
 1393SOL    HW1 5078   5.047   0.178   6.874
 1393SOL    HW2 5079   5.129   0.263   6.987
 1394SOL     OW 5080   4.547   0.524   3.702
 1394SOL    HW1 5081   4.496   0.595   3.655
 1394SOL    HW2 5082   4.645   0.538   3.687
 1395SOL     OW 5083   1.356   5.222   2.263
 1395SOL    HW1 5084   1.333   5.251   2.170
 1395SOL    HW2 5085   1.407   5.136   2.260
 1396SOL     OW 5086   1.676   0.981   3.573
 1396SOL    HW1 5087   1.736   0.998   3.495
 1396SOL    HW2 5088   1.586   1.021   3.555
 1397SOL     OW 5089   0.487   5.082   5.118
 1397SOL    HW1 5090   0.421   5.045   5.053
 1397SOL    HW2 5091   0.445   5.090   5.208
 1398SOL     OW 5092   1.832   6.516   6.546
 1398SOL    HW1 5093   1.790   6.462   6.619
 1398SOL    HW2 5094   1.776   6.508   6.463
 1399SOL     OW 5095   4.018   6.853   0.078
 1399SOL    HW1 5096   4.109   6.840   0.117
 1399SOL    HW2 5097   3.989   6.768   0.034
 1400SOL     OW 5098   0.046   1.385   4.834
 1400SOL    HW1 5099   0.146   1.380   4.842
 1400SOL    HW2 5100   0.004   1.369   4.923
 1401SOL     OW 5101   5.234   0.211   2.864
 1401SOL    HW1 5102   5.260   0.275   2.936
 1401SOL    HW2 5103   5.214   0.261   2.780
 1402SOL     OW 5104   6.982   4.622   2.113
 1402SOL    HW1 5105   0.024   4.685   2.160
 1402SOL    HW2 5106   7.013   4.528   2.126
 1403SOL     OW 5107   3.120   3.279   6.516
 1403SOL    HW1 5108   3.063   3.352   6.476
 1403SOL    HW2 5109   3.211   3.282   6.475
 1404SOL     OW 5110   4.382   6.486   0.871
 1404SOL    HW1 5111   4.456   6.451   0.813
 1404SOL    HW2 5112   4.421   6.548   0.940
 1405SOL     OW 5113   1.087   3.734   0.682
 1405SOL    HW1 5114   1.049   3.785   0.759
 1405SOL    HW2 5115   1.161   3.676   0.714
 1406SOL     OW 5116   1.914   2.974   0.087
 1406SOL    HW1 5117   1.902   3.007   7.013
 1406SOL    HW2 5118   1.955   3.045   0.144
 1407SOL     OW 5119   0.945   2.842   1.395
 1407SOL    HW1 5120   0.890   2.794   1.463
 1407SOL    HW2 5121   0.949   2.788   1.310
 1408SOL     OW 5122   5.467   6.531   0.905
 1408SOL    HW1 5123   5.404   6.604   0.931
 1408SOL    HW2 5124   5.545   6.570   0.857
 1409SOL     OW 5125   6.452   1.446   5.380
 1409SOL    HW1 5126   6.360   1.450   5.341
 1409SOL    HW2 5127   6.478   1.535   5.416
 1410SOL     OW 5128   3.156   0.298   0.463
 1410SOL    HW1 5129   3.110   0.361   0.525
 1410SOL    HW2 5130   3.177   0.346   0.377
 1411SOL     OW 5131   3.895   5.217   6.197
 1411SOL    HW1 5132   3.865   5.301   6.243
 1411SOL    HW2 5133   3.901   5.143   6.264
 1412SOL     OW 5134   2.385   2.114   0.591
 1412SOL    HW1 5135   2.330   2.109   0.508
 1412SOL    HW2 5136   2.436   2.029   0.603
 1413SOL     OW 5137   2.113   1.860   5.532
 1413SOL    HW1 5138   2.207   1.874   5.562
 1413SOL    HW2 5139   2.050   1.899   5.599
 1414SOL     OW 5140   1.027   5.145   2.025
 1414SOL    HW1 5141   1.001   5.109   1.936
 1414SOL    HW2 5142   1.071   5.072   2.078
 1415SOL     OW 5143   2.999   1.855   4.815
 1415SOL    HW1 5144   3.022   1.832   4.720
 1415SOL    HW2 5145   3.032   1.781   4.875
 1416SOL     OW 5146   3.968   0.398   4.951
 1416SOL    HW1 5147   3.919   0.469   4.901
 1416SOL    HW2 5148   4.012   0.438   5.032
 1417SOL     OW 5149   3.619   3.497   4.486
 1417SOL    HW1 5150   3.612   3.405   4.446
 1417SOL    HW2 5151   3.564   3.560   4.432
 1418SOL     OW 5152   3.716   3.584   6.072
 1418SOL    HW1 5153   3.740   3.677   6.102
 1418SOL    HW2 5154   3.704   3.583   5.973
 1419SOL     OW 5155   1.434   6.009   2.049
 1419SOL    HW1 5156   1.472   5.991   2.140
 1419SOL    HW2 5157   1.336   6.029   2.056
 1420SOL     OW 5158   3.175   6.263   2.812
 1420SOL    HW1 5159   3.100   6.257   2.878
 1420SOL    HW2 5160   3.157   6.336   2.747
 1421SOL     OW 5161   1.961   5.335   6.447
 1421SOL    HW1 5162   1.987   5.308   6.354
 1421SOL    HW2 5163   2.041   5.368   6.497
 1422SOL     OW 5164   1.828   3.654   6.307
 1422SOL    HW1 5165   1.786   3.735   6.346
 1422SOL    HW2 5166   1.758   3.585   6.288
 1423SOL     OW 5167   3.686   0.697   5.320
 1423SOL    HW1 5168   3.674   0.652   5.232
 1423SOL    HW2 5169   3.621   0.661   5.386
 1424SOL     OW 5170   6.392   2.502   1.143
 1424SOL    HW1 5171   6.426   2.409   1.126
 1424SOL    HW2 5172   6.396   2.554   1.059
 1425SOL     OW 5173   5.515   6.918   3.899
 1425SOL    HW1 5174   5.451   6.981   3.855
 1425SOL    HW2 5175   5.486   6.901   3.994
 1426SOL     OW 5176   4.365   0.281   0.245
 1426SOL    HW1 5177   4.380   0.369   0.289
 1426SOL    HW2 5178   4.433   0.268   0.173
 1427SOL     OW 5179   1.439   0.383   4.225
 1427SOL    HW1 5180   1.346   0.413   4.247
 1427SOL    HW2 5181   1.439   0.285   4.206
 1428SOL     OW 5182   1.880   3.701   4.076
 1428SOL    HW1 5183   1.796   3.687   4.128
 1428SOL    HW2 5184   1.904   3.798   4.076
 1429SOL     OW 5185   6.227   0.253   2.144
 1429SOL    HW1 5186   6.268   0.342   2.162
 1429SOL    HW2 5187   6.196   0.213   2.230
 1430SOL     OW 5188   2.177   3.862   4.395
 1430SOL    HW1 5189   2.218   3.895   4.310
 1430SOL    HW2 5190   2.161   3.763   4.388
 1431SOL     OW 5191   3.412   1.675   0.073
 1431SOL    HW1 5192   3.422   1.612   7.015
 1431SOL    HW2 5193   3.426   1.769   0.042
 1432SOL     OW 5194   4.163   0.266   2.395
 1432SOL    HW1 5195   4.081   0.302   2.439
 1432SOL    HW2 5196   4.157   0.166   2.391
 1433SOL     OW 5197   3.100   1.538   3.902
 1433SOL    HW1 5198   3.022   1.574   3.850
 1433SOL    HW2 5199   3.095   1.570   3.997
 1434SOL     OW 5200   5.556   4.274   0.584
 1434SOL    HW1 5201   5.607   4.239   0.662
 1434SOL    HW2 5202   5.566   4.373   0.578
 1435SOL     OW 5203   1.173   0.149   4.139
 1435SOL    HW1 5204   1.266   0.117   4.123
 1435SOL    HW2 5205   1.109   0.091   4.087
 1436SOL     OW 5206   5.506   0.967   0.400
 1436SOL    HW1 5207   5.592   0.955   0.350
 1436SOL    HW2 5208   5.469   0.877   0.423
 1437SOL     OW 5209   3.972   1.005   0.581
 1437SOL    HW1 5210   3.999   1.073   0.512
 1437SOL    HW2 5211   4.017   1.026   0.668
 1438SOL     OW 5212   2.279   6.779   2.116
 1438SOL    HW1 5213   2.345   6.842   2.157
 1438SOL    HW2 5214   2.194   6.779   2.170
 1439SOL     OW 5215   0.361   5.462   6.575
 1439SOL    HW1 5216   0.424   5.452   6.498
 1439SOL    HW2 5217   0.409   5.499   6.654
 1440SOL     OW 5218   4.004   3.129   2.427
 1440SOL    HW1 5219   4.029   3.195   2.498
 1440SOL    HW2 5220   4.039   3.160   2.339
 1441SOL     OW 5221   6.396   2.567   5.270
 1441SOL    HW1 5222   6.478   2.618   5.241
 1441SOL    HW2 5223   6.324   2.578   5.202
 1442SOL     OW 5224   5.549   6.802   0.340
 1442SOL    HW1 5225   5.598   6.719   0.313
 1442SOL    HW2 5226   5.577   6.830   0.431
 1443SOL     OW 5227   1.811   2.655   3.405
 1443SOL    HW1 5228   1.735   2.649   3.469
 1443SOL    HW2 5229   1.777   2.646   3.312
 1444SOL     OW 5230   5.323   0.146   5.121
 1444SOL    HW1 5231   5.380   0.174   5.044
 1444SOL    HW2 5232   5.338   0.208   5.198
 1445SOL     OW 5233   6.741   1.716   0.626
 1445SOL    HW1 5234   6.655   1.737   0.581
 1445SOL    HW2 5235   6.733   1.630   0.676
 1446SOL     OW 5236   3.710   6.644   0.859
 1446SOL    HW1 5237   3.790   6.683   0.906
 1446SOL    HW2 5238   3.630   6.652   0.918
 1447SOL     OW 5239   6.462   1.417   5.038
 1447SOL    HW1 5240   6.413   1.382   5.118
 1447SOL    HW2 5241   6.560   1.413   5.055
 1448SOL     OW 5242   5.552   0.460   6.870
 1448SOL    HW1 5243   5.561   0.400   6.949
 1448SOL    HW2 5244   5.588   0.551   6.892
 1449SOL     OW 5245   4.497   5.692   1.149
 1449SOL    HW1 5246   4.567   5.751   1.110
 1449SOL    HW2 5247   4.456   5.636   1.077
 1450SOL     OW 5248   5.932   2.122   3.444
 1450SOL    HW1 5249   5.935   2.037   3.497
 1450SOL    HW2 5250   6.025   2.149   3.419
 1451SOL     OW 5251   1.918   6.624   1.907
 1451SOL    HW1 5252   2.007   6.589   1.935
 1451SOL    HW2 5253   1.891   6.584   1.820
 1452SOL     OW 5254   3.486   0.644   5.496
 1452SOL    HW1 5255   3.388   0.626   5.507
 1452SOL    HW2 5256   3.523   0.677   5.583
 1453SOL     OW 5257   4.455   4.540   4.290
 1453SOL    HW1 5258   4.405   4.549   4.376
 1453SOL    HW2 5259   4.529   4.473   4.301
 1454SOL     OW 5260   4.814   4.491   0.811
 1454SOL    HW1 5261   4.733   4.538   0.775
 1454SOL    HW2 5262   4.859   4.549   0.880
 1455SOL     OW 5263   2.677   1.759   1.473
 1455SOL    HW1 5264   2.596   1.803   1.435
 1455SOL    HW2 5265   2.745   1.829   1.497
 1456SOL     OW 5266   6.196   5.180   4.660
 1456SOL    HW1 5267   6.223   5.176   4.564
 1456SOL    HW2 5268   6.164   5.272   4.682
 1457SOL     OW 5269   2.204   7.014   3.354
 1457SOL    HW1 5270   2.302   7.014   3.333
 1457SOL    HW2 5271   2.191   7.014   3.453
 1458SOL     OW 5272   0.074   5.587   0.179
 1458SOL    HW1 5273   0.022   5.510   0.143
 1458SOL    HW2 5274   0.011   5.651   0.225
 1459SOL     OW 5275   2.128   6.949   1.115
 1459SOL    HW1 5276   2.094   6.944   1.209
 1459SOL    HW2 5277   2.226   6.927   1.113
 1460SOL     OW 5278   0.822   6.675   6.846
 1460SOL    HW1 5279   0.787   6.715   6.931
 1460SOL    HW2 5280   0.844   6.579   6.862
 1461SOL     OW 5281   4.879   5.324   2.438
 1461SOL    HW1 5282   4.817   5.397   2.468
 1461SOL    HW2 5283   4.834   5.268   2.369
 1462SOL     OW 5284   5.072   0.289   5.133
 1462SOL    HW1 5285   5.138   0.216   5.110
 1462SOL    HW2 5286   5.101   0.374   5.091
 1463SOL     OW 5287   0.480   2.027   6.104
 1463SOL    HW1 5288   0.531   2.106   6.138
 1463SOL    HW2 5289   0.492   2.019   6.005
 1464SOL     OW 5290   0.666   1.031   1.721
 1464SOL    HW1 5291   0.661   0.940   1.680
 1464SOL    HW2 5292   0.701   1.024   1.814
 1465SOL     OW 5293   0.536   0.643   4.149
 1465SOL    HW1 5294   0.549   0.550   4.182
 1465SOL    HW2 5295   0.461   0.686   4.199
 1466SOL     OW 5296   5.561   5.003   4.833
 1466SOL    HW1 5297   5.587   4.911   4.803
 1466SOL    HW2 5298   5.640   5.047   4.876
 1467SOL     OW 5299   5.711   3.528   3.589
 1467SOL    HW1 5300   5.666   3.452   3.637
 1467SOL    HW2 5301   5.675   3.534   3.496
 1468SOL     OW 5302   5.338   6.921   2.103
 1468SOL    HW1 5303   5.411   6.990   2.098
 1468SOL    HW2 5304   5.355   6.850   2.035
 1469SOL     OW 5305   1.015   1.200   2.376
 1469SOL    HW1 5306   0.957   1.118   2.375
 1469SOL    HW2 5307   1.083   1.192   2.448
 1470SOL     OW 5308   6.846   0.678   3.144
 1470SOL    HW1 5309   6.869   0.771   3.174
 1470SOL    HW2 5310   6.930   0.624   3.138
 1471SOL     OW 5311   6.422   0.426   0.960
 1471SOL    HW1 5312   6.440   0.483   1.040
 1471SOL    HW2 5313   6.420   0.330   0.987
 1472SOL     OW 5314   4.728   5.419   4.954
 1472SOL    HW1 5315   4.686   5.401   4.866
 1472SOL    HW2 5316   4.781   5.504   4.949
 1473SOL     OW 5317   6.165   3.917   2.900
 1473SOL    HW1 5318   6.107   3.984   2.855
 1473SOL    HW2 5319   6.254   3.957   2.919
 1474SOL     OW 5320   4.757   4.998   3.722
 1474SOL    HW1 5321   4.792   5.018   3.630
 1474SOL    HW2 5322   4.771   5.078   3.780
 1475SOL     OW 5323   6.395   0.510   3.673
 1475SOL    HW1 5324   6.370   0.584   3.611
 1475SOL    HW2 5325   6.334   0.432   3.659
 1476SOL     OW 5326   6.757   2.639   1.022
 1476SOL    HW1 5327   6.840   2.630   0.968
 1476SOL    HW2 5328   6.777   2.618   1.118
 1477SOL     OW 5329   2.430   6.202   3.441
 1477SOL    HW1 5330   2.374   6.153   3.374
 1477SOL    HW2 5331   2.492   6.138   3.486
 1478SOL     OW 5332   6.894   4.190   1.553
 1478SOL    HW1 5333   6.879   4.119   1.623
 1478SOL    HW2 5334   6.914   4.277   1.598
 1479SOL     OW 5335   1.149   4.917   0.297
 1479SOL    HW1 5336   1.168   5.005   0.255
 1479SOL    HW2 5337   1.235   4.870   0.318
 1480SOL     OW 5338   2.823   1.102   0.104
 1480SOL    HW1 5339   2.765   1.021   0.102
 1480SOL    HW2 5340   2.835   1.137   0.011
 1481SOL     OW 5341   0.285   2.627   5.905
 1481SOL    HW1 5342   0.306   2.684   5.825
 1481SOL    HW2 5343   0.186   2.621   5.916
 1482SOL     OW 5344   5.342   0.589   6.813
 1482SOL    HW1 5345   5.307   0.578   6.720
 1482SOL    HW2 5346   5.407   0.517   6.832
 1483SOL     OW 5347   6.515   2.069   6.368
 1483SOL    HW1 5348   6.487   2.049   6.274
 1483SOL    HW2 5349   6.460   2.144   6.405
 1484SOL     OW 5350   6.134   6.869   3.245
 1484SOL    HW1 5351   6.168   6.880   3.152
 1484SOL    HW2 5352   6.197   6.811   3.297
 1485SOL     OW 5353   6.037   2.727   3.942
 1485SOL    HW1 5354   6.101   2.801   3.923
 1485SOL    HW2 5355   5.986   2.704   3.859
 1486SOL     OW 5356   5.364   2.238   1.971
 1486SOL    HW1 5357   5.396   2.223   2.065
 1486SOL    HW2 5358   5.386   2.158   1.915
 1487SOL     OW 5359   6.511   1.216   5.925
 1487SOL    HW1 5360   6.462   1.240   6.009
 1487SOL    HW2 5361   6.475   1.271   5.849
 1488SOL     OW 5362   5.089   1.935   3.773
 1488SOL    HW1 5363   4.990   1.930   3.785
 1488SOL    HW2 5364   5.134   1.909   3.858
 1489SOL     OW 5365   3.730   5.517   4.371
 1489SOL    HW1 5366   3.757   5.530   4.466
 1489SOL    HW2 5367   3.801   5.554   4.311
 1490SOL     OW 5368   2.387   2.491   1.332
 1490SOL    HW1 5369   2.368   2.526   1.424
 1490SOL    HW2 5370   2.470   2.436   1.334
 1491SOL     OW 5371   6.825   2.403   5.384
 1491SOL    HW1 5372   6.858   2.475   5.446
 1491SOL    HW2 5373   6.728   2.387   5.400
 1492SOL     OW 5374   5.385   2.848   1.763
 1492SOL    HW1 5375   5.346   2.876   1.675
 1492SOL    HW2 5376   5.484   2.866   1.763
 1493SOL     OW 5377   5.978   1.817   5.046
 1493SOL    HW1 5378   6.034   1.870   4.982
 1493SOL    HW2 5379   5.921   1.878   5.100
 1494SOL     OW 5380   5.613   1.883   4.677
 1494SOL    HW1 5381   5.673   1.939   4.734
 1494SOL    HW2 5382   5.653   1.793   4.663
 1495SOL     OW 5383   0.940   3.457   2.502
 1495SOL    HW1 5384   1.039   3.464   2.511
 1495SOL    HW2 5385   0.917   3.393   2.429
 1496SOL     OW 5386   0.704   0.809   2.821
 1496SOL    HW1 5387   0.779   0.743   2.821
 1496SOL    HW2 5388   0.617   0.760   2.819
 1497SOL     OW 5389   5.385   4.431   5.876
 1497SOL    HW1 5390   5.306   4.449   5.935
 1497SOL    HW2 5391   5.380   4.489   5.795
 1498SOL     OW 5392   2.276   5.540   0.122
 1498SOL    HW1 5393   2.275   5.471   0.050
 1498SOL    HW2 5394   2.315   5.625   0.087
 1499SOL     OW 5395   1.111   4.214   4.597
 1499SOL    HW1 5396   1.112   4.215   4.697
 1499SOL    HW2 5397   1.016   4.209   4.565
 1500SOL     OW 5398   4.484   6.699   5.467
 1500SOL    HW1 5399   4.492   6.764   5.391
 1500SOL    HW2 5400   4.509   6.608   5.436
 1501SOL     OW 5401   4.049   0.485   0.078
 1501SOL    HW1 5402   4.132   0.431   0.067
 1501SOL    HW2 5403   4.031   0.501   0.175
 1502SOL     OW 5404   6.982   6.259   6.902
 1502SOL    HW1 5405   7.003   6.193   6.974
 1502SOL    HW2 5406   7.015   6.350   6.929
 1503SOL     OW 5407   3.344   4.503   5.504
 1503SOL    HW1 5408   3.361   4.444   5.426
 1503SOL    HW2 5409   3.264   4.561   5.485
 1504SOL     OW 5410   2.769   6.737   4.181
 1504SOL    HW1 5411   2.787   6.756   4.085
 1504SOL    HW2 5412   2.852   6.702   4.224
 1505SOL     OW 5413   4.891   6.373   2.217
 1505SOL    HW1 5414   4.889   6.472   2.229
 1505SOL    HW2 5415   4.975   6.336   2.257
 1506SOL     OW 5416   0.995   6.681   3.303
 1506SOL    HW1 5417   1.020   6.600   3.356
 1506SOL    HW2 5418   1.020   6.667   3.207
 1507SOL     OW 5419   2.589   2.459   6.455
 1507SOL    HW1 5420   2.501   2.492   6.488
 1507SOL    HW2 5421   2.643   2.425   6.533
 1508SOL     OW 5422   4.543   6.695   0.583
 1508SOL    HW1 5423   4.617   6.692   0.517
 1508SOL    HW2 5424   4.468   6.750   0.547
 1509SOL     OW 5425   5.447   1.549   0.093
 1509SOL    HW1 5426   5.413   1.504   0.175
 1509SOL    HW2 5427   5.378   1.545   0.021
 1510SOL     OW 5428   0.083   2.185   3.212
 1510SOL    HW1 5429   0.134   2.152   3.132
 1510SOL    HW2 5430   0.012   2.250   3.182
 1511SOL     OW 5431   1.271   3.002   0.756
 1511SOL    HW1 5432   1.290   2.998   0.854
 1511SOL    HW2 5433   1.319   3.080   0.716
 1512SOL     OW 5434   6.352   0.714   2.302
 1512SOL    HW1 5435   6.253   0.718   2.310
 1512SOL    HW2 5436   6.381   0.763   2.220
 1513SOL     OW 5437   3.903   0.939   2.195
 1513SOL    HW1 5438   3.905   0.842   2.219
 1513SOL    HW2 5439   3.865   0.950   2.103
 1514SOL     OW 5440   4.817   1.061   6.402
 1514SOL    HW1 5441   4.915   1.072   6.420
 1514SOL    HW2 5442   4.803   1.022   6.311
 1515SOL     OW 5443   6.040   5.195   5.145
 1515SOL    HW1 5444   6.134   5.212   5.172
 1515SOL    HW2 5445   6.014   5.101   5.169
 1516SOL     OW 5446   0.724   1.151   0.628
 1516SOL    HW1 5447   0.688   1.245   0.622
 1516SOL    HW2 5448   0.813   1.147   0.582
 1517SOL     OW 5449   3.483   5.358   3.592
 1517SOL    HW1 5450   3.522   5.335   3.681
 1517SOL    HW2 5451   3.445   5.450   3.594
 1518SOL     OW 5452   1.028   4.938   0.826
 1518SOL    HW1 5453   0.967   4.864   0.799
 1518SOL    HW2 5454   1.118   4.923   0.786
 1519SOL     OW 5455   0.164   4.161   1.128
 1519SOL    HW1 5456   0.083   4.187   1.180
 1519SOL    HW2 5457   0.240   4.146   1.191
 1520SOL     OW 5458   1.281   2.580   2.676
 1520SOL    HW1 5459   1.326   2.502   2.721
 1520SOL    HW2 5460   1.272   2.655   2.741
 1521SOL     OW 5461   2.336   4.191   5.281
 1521SOL    HW1 5462   2.354   4.099   5.248
 1521SOL    HW2 5463   2.423   4.238   5.297
 1522SOL     OW 5464   0.963   2.563   6.376
 1522SOL    HW1 5465   1.043   2.608   6.414
 1522SOL    HW2 5466   0.984   2.530   6.284
 1523SOL     OW 5467   6.228   1.205   1.194
 1523SOL    HW1 5468   6.161   1.135   1.217
 1523SOL    HW2 5469   6.312   1.162   1.159
 1524SOL     OW 5470   6.355   0.791   2.632
 1524SOL    HW1 5471   6.391   0.885   2.630
 1524SOL    HW2 5472   6.432   0.727   2.629
 1525SOL     OW 5473   4.494   1.179   5.958
 1525SOL    HW1 5474   4.409   1.221   5.991
 1525SOL    HW2 5475   4.533   1.236   5.886
 1526SOL     OW 5476   6.602   1.590   0.215
 1526SOL    HW1 5477   6.560   1.534   0.143
 1526SOL    HW2 5478   6.531   1.633   0.269
 1527SOL     OW 5479   3.075   1.475   5.564
 1527SOL    HW1 5480   3.124   1.389   5.576
 1527SOL    HW2 5481   3.124   1.534   5.500
 1528SOL     OW 5482   5.312   5.528   4.231
 1528SOL    HW1 5483   5.317   5.627   4.245
 1528SOL    HW2 5484   5.327   5.481   4.318
 1529SOL     OW 5485   2.420   0.648   5.274
 1529SOL    HW1 5486   2.457   0.625   5.364
 1529SOL    HW2 5487   2.476   0.719   5.232
 1530SOL     OW 5488   3.259   0.079   1.546
 1530SOL    HW1 5489   3.184   0.106   1.606
 1530SOL    HW2 5490   3.337   0.051   1.602
 1531SOL     OW 5491   5.412   0.414   6.190
 1531SOL    HW1 5492   5.462   0.479   6.248
 1531SOL    HW2 5493   5.472   0.338   6.167
 1532SOL     OW 5494   3.352   2.451   5.342
 1532SOL    HW1 5495   3.320   2.373   5.288
 1532SOL    HW2 5496   3.317   2.443   5.436
 1533SOL     OW 5497   5.170   2.883   6.849
 1533SOL    HW1 5498   5.266   2.868   6.826
 1533SOL    HW2 5499   5.139   2.813   6.913
 1534SOL     OW 5500   6.744   6.668   2.415
 1534SOL    HW1 5501   6.841   6.647   2.401
 1534SOL    HW2 5502   6.717   6.742   2.355
 1535SOL     OW 5503   4.980   4.405   4.399
 1535SOL    HW1 5504   4.891   4.444   4.372
 1535SOL    HW2 5505   5.030   4.377   4.317
 1536SOL     OW 5506   3.320   5.279   3.397
 1536SOL    HW1 5507   3.284   5.193   3.435
 1536SOL    HW2 5508   3.377   5.324   3.465
 1537SOL     OW 5509   2.531   5.645   4.369
 1537SOL    HW1 5510   2.496   5.623   4.278
 1537SOL    HW2 5511   2.625   5.614   4.378
 1538SOL     OW 5512   3.534   5.107   6.122
 1538SOL    HW1 5513   3.534   5.156   6.035
 1538SOL    HW2 5514   3.601   5.033   6.118
 1539SOL     OW 5515   3.683   5.822   1.848
 1539SOL    HW1 5516   3.584   5.837   1.856
 1539SOL    HW2 5517   3.705   5.803   1.752
 1540SOL     OW 5518   5.947   0.236   5.167
 1540SOL    HW1 5519   5.956   0.285   5.081
 1540SOL    HW2 5520   5.852   0.210   5.181
 1541SOL     OW 5521   4.795   1.460   1.343
 1541SOL    HW1 5522   4.698   1.479   1.328
 1541SOL    HW2 5523   4.844   1.546   1.360
 1542SOL     OW 5524   0.934   5.766   0.872
 1542SOL    HW1 5525   0.930   5.705   0.793
 1542SOL    HW2 5526   1.030   5.784   0.895
 1543SOL     OW 5527   3.512   3.887   3.210
 1543SOL    HW1 5528   3.437   3.952   3.202
 1543SOL    HW2 5529   3.499   3.833   3.293
 1544SOL     OW 5530   3.288   3.716   2.558
 1544SOL    HW1 5531   3.229   3.792   2.587
 1544SOL    HW2 5532   3.306   3.656   2.636
 1545SOL     OW 5533   0.101   0.678   4.135
 1545SOL    HW1 5534   0.060   0.654   4.223
 1545SOL    HW2 5535   0.150   0.599   4.098
 1546SOL     OW 5536   6.394   6.524   6.543
 1546SOL    HW1 5537   6.307   6.518   6.494
 1546SOL    HW2 5538   6.434   6.614   6.528
 1547SOL     OW 5539   3.030   6.073   6.789
 1547SOL    HW1 5540   3.042   6.054   6.691
 1547SOL    HW2 5541   2.948   6.026   6.822
 1548SOL     OW 5542   5.616   3.939   4.186
 1548SOL    HW1 5543   5.564   3.957   4.270
 1548SOL    HW2 5544   5.606   3.843   4.161
 1549SOL     OW 5545   6.627   2.511   0.626
 1549SOL    HW1 5546   6.643   2.489   0.722
 1549SOL    HW2 5547   6.655   2.605   0.608
 1550SOL     OW 5548   2.366   5.327   2.700
 1550SOL    HW1 5549   2.395   5.370   2.614
 1550SOL    HW2 5550   2.446   5.301   2.753
 1551SOL     OW 5551   0.297   3.560   0.910
 1551SOL    HW1 5552   0.372   3.505   0.946
 1551SOL    HW2 5553   0.320   3.592   0.818
 1552SOL     OW 5554   0.656   6.688   1.948
 1552SOL    HW1 5555   0.658   6.599   1.994
 1552SOL    HW2 5556   0.564   6.704   1.912
 1553SOL     OW 5557   5.446   0.887   6.435
 1553SOL    HW1 5558   5.433   0.795   6.397
 1553SOL    HW2 5559   5.460   0.880   6.534
 1554SOL     OW 5560   2.889   2.342   1.470
 1554SOL    HW1 5561   2.912   2.290   1.552
 1554SOL    HW2 5562   2.970   2.390   1.438
 1555SOL     OW 5563   4.020   0.729   6.915
 1555SOL    HW1 5564   4.025   0.658   6.986
 1555SOL    HW2 5565   3.937   0.784   6.930
 1556SOL     OW 5566   4.373   2.267   6.951
 1556SOL    HW1 5567   4.395   2.314   0.017
 1556SOL    HW2 5568   4.372   2.333   6.876
 1557SOL     OW 5569   1.599   3.520   0.880
 1557SOL    HW1 5570   1.554   3.491   0.964
 1557SOL    HW2 5571   1.653   3.602   0.897
 1558SOL     OW 5572   5.023   2.638   6.320
 1558SOL    HW1 5573   5.000   2.672   6.412
 1558SOL    HW2 5574   5.014   2.539   6.317
 1559SOL     OW 5575   3.061   5.996   3.027
 1559SOL    HW1 5576   3.160   5.990   3.045
 1559SOL    HW2 5577   3.039   5.945   2.944
 1560SOL     OW 5578   3.806   2.598   1.029
 1560SOL    HW1 5579   3.725   2.553   0.991
 1560SOL    HW2 5580   3.831   2.677   0.972
 1561SOL     OW 5581   5.645   6.245   1.133
 1561SOL    HW1 5582   5.632   6.146   1.127
 1561SOL    HW2 5583   5.565   6.287   1.176
 1562SOL     OW 5584   3.833   0.479   1.726
 1562SOL    HW1 5585   3.885   0.475   1.640
 1562SOL    HW2 5586   3.778   0.396   1.735
 1563SOL     OW 5587   2.058   2.457   4.042
 1563SOL    HW1 5588   2.101   2.433   4.129
 1563SOL    HW2 5589   2.116   2.522   3.993
 1564SOL     OW 5590   0.803   1.233   2.750
 1564SOL    HW1 5591   0.890   1.277   2.728
 1564SOL    HW2 5592   0.783   1.163   2.682
 1565SOL     OW 5593   4.232   1.471   4.737
 1565SOL    HW1 5594   4.326   1.440   4.753
 1565SOL    HW2 5595   4.234   1.551   4.677
 1566SOL     OW 5596   6.595   4.218   3.846
 1566SOL    HW1 5597   6.557   4.224   3.938
 1566SOL    HW2 5598   6.595   4.309   3.804
 1567SOL     OW 5599   5.363   0.517   5.107
 1567SOL    HW1 5600   5.336   0.558   5.194
 1567SOL    HW2 5601   5.289   0.526   5.041
 1568SOL     OW 5602   3.062   4.942   1.647
 1568SOL    HW1 5603   3.002   4.893   1.710
 1568SOL    HW2 5604   3.147   4.891   1.636
 1569SOL     OW 5605   2.934   1.096   2.476
 1569SOL    HW1 5606   2.937   1.193   2.452
 1569SOL    HW2 5607   2.903   1.085   2.570
 1570SOL     OW 5608   2.774   6.439   6.161
 1570SOL    HW1 5609   2.714   6.490   6.222
 1570SOL    HW2 5610   2.869   6.461   6.181
 1571SOL     OW 5611   6.821   3.582   4.264
 1571SOL    HW1 5612   6.735   3.542   4.295
 1571SOL    HW2 5613   6.803   3.673   4.227
 1572SOL     OW 5614   2.398   5.960   2.702
 1572SOL    HW1 5615   2.353   5.954   2.791
 1572SOL    HW2 5616   2.385   5.875   2.652
 1573SOL     OW 5617   4.923   6.365   0.406
 1573SOL    HW1 5618   4.825   6.346   0.397
 1573SOL    HW2 5619   4.972   6.330   0.326
 1574SOL     OW 5620   0.494   4.258   2.641
 1574SOL    HW1 5621   0.528   4.164   2.644
 1574SOL    HW2 5622   0.408   4.261   2.590
 1575SOL     OW 5623   6.891   2.485   6.958
 1575SOL    HW1 5624   6.965   2.551   6.966
 1575SOL    HW2 5625   6.925   2.393   6.980
 1576SOL     OW 5626   1.939   6.201   1.624
 1576SOL    HW1 5627   1.892   6.191   1.537
 1576SOL    HW2 5628   2.007   6.274   1.617
 1577SOL     OW 5629   3.386   5.798   4.268
 1577SOL    HW1 5630   3.306   5.741   4.285
 1577SOL    HW2 5631   3.427   5.825   4.355
 1578SOL     OW 5632   5.327   1.182   1.797
 1578SOL    HW1 5633   5.425   1.195   1.810
 1578SOL    HW2 5634   5.294   1.244   1.725
 1579SOL     OW 5635   1.236   2.689   1.679
 1579SOL    HW1 5636   1.295   2.769   1.663
 1579SOL    HW2 5637   1.142   2.720   1.694
 1580SOL     OW 5638   3.166   3.284   2.523
 1580SOL    HW1 5639   3.198   3.286   2.618
 1580SOL    HW2 5640   3.066   3.282   2.522
 1581SOL     OW 5641   6.235   4.104   5.161
 1581SOL    HW1 5642   6.250   4.132   5.066
 1581SOL    HW2 5643   6.177   4.172   5.207
 1582SOL     OW 5644   4.949   5.669   5.000
 1582SOL    HW1 5645   5.039   5.639   4.969
 1582SOL    HW2 5646   4.959   5.723   5.084
 1583SOL     OW 5647   1.452   5.449   5.099
 1583SOL    HW1 5648   1.378   5.515   5.107
 1583SOL    HW2 5649   1.480   5.441   5.003
 1584SOL     OW 5650   6.966   3.730   0.447
 1584SOL    HW1 5651   6.974   3.825   0.476
 1584SOL    HW2 5652   6.883   3.718   0.393
 1585SOL     OW 5653   4.216   6.265   3.749
 1585SOL    HW1 5654   4.245   6.206   3.825
 1585SOL    HW2 5655   4.225   6.215   3.663
 1586SOL     OW 5656   2.999   6.070   2.435
 1586SOL    HW1 5657   2.989   6.101   2.529
 1586SOL    HW2 5658   2.925   6.106   2.379
 1587SOL     OW 5659   3.117   6.327   6.673
 1587SOL    HW1 5660   3.137   6.231   6.654
 1587SOL    HW2 5661   3.055   6.333   6.751
 1588SOL     OW 5662   6.625   1.951   3.426
 1588SOL    HW1 5663   6.718   1.968   3.396
 1588SOL    HW2 5664   6.568   2.031   3.405
 1589SOL     OW 5665   6.434   3.800   4.396
 1589SOL    HW1 5666   6.419   3.838   4.305
 1589SOL    HW2 5667   6.509   3.850   4.441
 1590SOL     OW 5668   6.715   1.556   3.310
 1590SOL    HW1 5669   6.734   1.549   3.408
 1590SOL    HW2 5670   6.634   1.611   3.295
 1591SOL     OW 5671   1.371   5.824   1.079
 1591SOL    HW1 5672   1.423   5.761   1.137
 1591SOL    HW2 5673   1.310   5.772   1.019
 1592SOL     OW 5674   0.312   3.432   5.940
 1592SOL    HW1 5675   0.307   3.531   5.931
 1592SOL    HW2 5676   0.222   3.396   5.964
 1593SOL     OW 5677   3.515   6.694   0.118
 1593SOL    HW1 5678   3.551   6.645   0.038
 1593SOL    HW2 5679   3.540   6.790   0.112
 1594SOL     OW 5680   5.536   0.773   2.773
 1594SOL    HW1 5681   5.567   0.868   2.765
 1594SOL    HW2 5682   5.440   0.767   2.747
 1595SOL     OW 5683   0.488   3.068   0.123
 1595SOL    HW1 5684   0.473   3.106   0.214
 1595SOL    HW2 5685   0.507   3.143   0.059
 1596SOL     OW 5686   5.034   4.509   2.579
 1596SOL    HW1 5687   5.035   4.449   2.500
 1596SOL    HW2 5688   4.974   4.471   2.649
 1597SOL     OW 5689   3.415   6.035   0.112
 1597SOL    HW1 5690   3.353   6.098   0.065
 1597SOL    HW2 5691   3.371   6.002   0.196
 1598SOL     OW 5692   0.644   4.916   6.379
 1598SOL    HW1 5693   0.579   4.853   6.336
 1598SOL    HW2 5694   0.655   4.892   6.475
 1599SOL     OW 5695   4.364   5.502   3.582
 1599SOL    HW1 5696   4.300   5.472   3.653
 1599SOL    HW2 5697   4.445   5.443   3.584
 1600SOL     OW 5698   4.075   0.477   1.856
 1600SOL    HW1 5699   3.986   0.491   1.812
 1600SOL    HW2 5700   4.145   0.465   1.786
 1601SOL     OW 5701   6.611   1.580   4.756
 1601SOL    HW1 5702   6.566   1.511   4.812
 1601SOL    HW2 5703   6.554   1.600   4.676
 1602SOL     OW 5704   4.406   6.002   4.270
 1602SOL    HW1 5705   4.352   6.027   4.350
 1602SOL    HW2 5706   4.400   5.903   4.256
 1603SOL     OW 5707   2.817   4.770   2.848
 1603SOL    HW1 5708   2.751   4.733   2.783
 1603SOL    HW2 5709   2.800   4.732   2.939
 1604SOL     OW 5710   4.623   4.806   2.757
 1604SOL    HW1 5711   4.678   4.802   2.840
 1604SOL    HW2 5712   4.601   4.901   2.736
 1605SOL     OW 5713   4.567   4.820   0.592
 1605SOL    HW1 5714   4.501   4.803   0.519
 1605SOL    HW2 5715   4.575   4.918   0.608
 1606SOL     OW 5716   3.161   6.024   4.530
 1606SOL    HW1 5717   3.230   6.094   4.545
 1606SOL    HW2 5718   3.190   5.938   4.572
 1607SOL     OW 5719   4.307   4.704   3.831
 1607SOL    HW1 5720   4.324   4.635   3.901
 1607SOL    HW2 5721   4.251   4.778   3.868
 1608SOL     OW 5722   5.546   1.809   3.604
 1608SOL    HW1 5723   5.623   1.759   3.564
 1608SOL    HW2 5724   5.489   1.747   3.658
 1609SOL     OW 5725   2.338   6.647   1.570
 1609SOL    HW1 5726   2.435   6.653   1.590
 1609SOL    HW2 5727   2.294   6.734   1.593
 1610SOL     OW 5728   5.722   6.901   0.994
 1610SOL    HW1 5729   5.651   6.888   0.925
 1610SOL    HW2 5730   5.726   6.820   1.053
 1611SOL     OW 5731   1.237   4.079   0.360
 1611SOL    HW1 5732   1.156   4.029   0.390
 1611SOL    HW2 5733   1.258   4.055   0.265
 1612SOL     OW 5734   4.937   0.701   2.536
 1612SOL    HW1 5735   4.845   0.741   2.539
 1612SOL    HW2 5736   4.932   0.608   2.501
 1613SOL     OW 5737   6.715   5.298   2.308
 1613SOL    HW1 5738   6.722   5.363   2.232
 1613SOL    HW2 5739   6.802   5.295   2.358
 1614SOL     OW 5740   6.203   1.524   5.965
 1614SOL    HW1 5741   6.132   1.593   5.951
 1614SOL    HW2 5742   6.160   1.435   5.979
 1615SOL     OW 5743   0.055   3.736   5.913
 1615SOL    HW1 5744   7.012   3.784   5.851
 1615SOL    HW2 5745   0.149   3.743   5.877
 1616SOL     OW 5746   0.975   0.068   3.922
 1616SOL    HW1 5747   0.894   0.126   3.924
 1616SOL    HW2 5748   0.949   6.992   3.939
 1617SOL     OW 5749   6.643   5.443   3.451
 1617SOL    HW1 5750   6.549   5.454   3.419
 1617SOL    HW2 5751   6.692   5.529   3.440
 1618SOL     OW 5752   3.365   5.230   3.142
 1618SOL    HW1 5753   3.376   5.323   3.107
 1618SOL    HW2 5754   3.333   5.234   3.237
 1619SOL     OW 5755   0.787   4.416   6.590
 1619SOL    HW1 5756   0.869   4.359   6.587
 1619SOL    HW2 5757   0.791   4.476   6.670
 1620SOL     OW 5758   3.289   6.057   4.163
 1620SOL    HW1 5759   3.209   6.104   4.199
 1620SOL    HW2 5760   3.308   5.976   4.218
 1621SOL     OW 5761   4.586   5.506   0.654
 1621SOL    HW1 5762   4.652   5.556   0.709
 1621SOL    HW2 5763   4.538   5.440   0.712
 1622SOL     OW 5764   6.284   4.059   4.426
 1622SOL    HW1 5765   6.274   4.101   4.516
 1622SOL    HW2 5766   6.318   3.965   4.437
 1623SOL     OW 5767   0.211   1.996   3.035
 1623SOL    HW1 5768   0.152   2.019   2.958
 1623SOL    HW2 5769   0.191   1.904   3.067
 1624SOL     OW 5770   3.758   2.823   0.309
 1624SOL    HW1 5771   3.767   2.905   0.252
 1624SOL    HW2 5772   3.672   2.826   0.358
 1625SOL     OW 5773   0.604   6.884   1.101
 1625SOL    HW1 5774   0.678   6.944   1.071
 1625SOL    HW2 5775   0.557   6.848   1.020
 1626SOL     OW 5776   2.774   1.673   1.972
 1626SOL    HW1 5777   2.773   1.736   2.049
 1626SOL    HW2 5778   2.694   1.689   1.914
 1627SOL     OW 5779   4.166   2.097   5.736
 1627SOL    HW1 5780   4.107   2.018   5.754
 1627SOL    HW2 5781   4.119   2.180   5.766
 1628SOL     OW 5782   5.458   6.861   0.900
 1628SOL    HW1 5783   5.390   6.801   0.942
 1628SOL    HW2 5784   5.447   6.859   0.800
 1629SOL     OW 5785   1.527   0.104   3.572
 1629SOL    HW1 5786   1.560   0.194   3.544
 1629SOL    HW2 5787   1.507   0.104   3.670
 1630SOL     OW 5788   0.389   3.401   6.364
 1630SOL    HW1 5789   0.457   3.415   6.292
 1630SOL    HW2 5790   0.430   3.418   6.453
 1631SOL     OW 5791   6.814   4.036   0.703
 1631SOL    HW1 5792   6.798   4.115   0.761
 1631SOL    HW2 5793   6.781   3.953   0.749
 1632SOL     OW 5794   6.443   5.442   2.434
 1632SOL    HW1 5795   6.449   5.472   2.529
 1632SOL    HW2 5796   6.520   5.382   2.413
 1633SOL     OW 5797   5.282   3.778   5.053
 1633SOL    HW1 5798   5.186   3.770   5.079
 1633SOL    HW2 5799   5.339   3.774   5.135
 1634SOL     OW 5800   6.950   2.147   5.403
 1634SOL    HW1 5801   6.954   2.103   5.314
 1634SOL    HW2 5802   6.904   2.235   5.395
 1635SOL     OW 5803   3.116   6.643   3.642
 1635SOL    HW1 5804   3.070   6.555   3.658
 1635SOL    HW2 5805   3.105   6.670   3.547
 1636SOL     OW 5806   5.988   6.062   1.294
 1636SOL    HW1 5807   5.982   6.161   1.280
 1636SOL    HW2 5808   6.080   6.038   1.327
 1637SOL     OW 5809   1.085   1.023   3.274
 1637SOL    HW1 5810   1.010   1.048   3.335
 1637SOL    HW2 5811   1.054   1.029   3.179
 1638SOL     OW 5812   5.350   2.568   2.261
 1638SOL    HW1 5813   5.337   2.666   2.277
 1638SOL    HW2 5814   5.396   2.554   2.173
 1639SOL     OW 5815   5.155   2.156   2.542
 1639SOL    HW1 5816   5.079   2.120   2.596
 1639SOL    HW2 5817   5.151   2.119   2.449
 1640SOL     OW 5818   5.610   0.581   6.314
 1640SOL    HW1 5819   5.611   0.582   6.414
 1640SOL    HW2 5820   5.700   0.608   6.280
 1641SOL     OW 5821   5.997   1.781   3.183
 1641SOL    HW1 5822   6.007   1.736   3.272
 1641SOL    HW2 5823   5.948   1.867   3.194
 1642SOL     OW 5824   6.740   3.299   6.300
 1642SOL    HW1 5825   6.825   3.259   6.335
 1642SOL    HW2 5826   6.704   3.241   6.227
 1643SOL     OW 5827   2.259   5.502   4.368
 1643SOL    HW1 5828   2.357   5.511   4.349
 1643SOL    HW2 5829   2.211   5.477   4.284
 1644SOL     OW 5830   6.370   2.241   1.890
 1644SOL    HW1 5831   6.394   2.177   1.818
 1644SOL    HW2 5832   6.449   2.298   1.912
 1645SOL     OW 5833   2.092   0.787   5.079
 1645SOL    HW1 5834   2.113   0.775   5.176
 1645SOL    HW2 5835   2.103   0.883   5.054
 1646SOL     OW 5836   1.524   4.897   0.654
 1646SOL    HW1 5837   1.486   4.923   0.743
 1646SOL    HW2 5838   1.493   4.805   0.630
 1647SOL     OW 5839   5.568   3.062   4.496
 1647SOL    HW1 5840   5.512   3.002   4.437
 1647SOL    HW2 5841   5.562   3.156   4.463
 1648SOL     OW 5842   5.854   6.229   1.559
 1648SOL    HW1 5843   5.759   6.248   1.536
 1648SOL    HW2 5844   5.912   6.248   1.480
 1649SOL     OW 5845   3.584   1.900   3.470
 1649SOL    HW1 5846   3.507   1.851   3.429
 1649SOL    HW2 5847   3.639   1.942   3.397
 1650SOL     OW 5848   3.121   3.655   5.537
 1650SOL    HW1 5849   3.046   3.665   5.604
 1650SOL    HW2 5850   3.127   3.738   5.482
 1651SOL     OW 5851   1.072   2.510   3.871
 1651SOL    HW1 5852   1.043   2.416   3.855
 1651SOL    HW2 5853   1.143   2.535   3.805
 1652SOL     OW 5854   0.637   3.116   1.686
 1652SOL    HW1 5855   0.548   3.115   1.640
 1652SOL    HW2 5856   0.703   3.168   1.631
 1653SOL     OW 5857   0.536   4.834   2.297
 1653SOL    HW1 5858   0.601   4.812   2.370
 1653SOL    HW2 5859   0.502   4.927   2.310
 1654SOL     OW 5860   0.172   3.085   2.209
 1654SOL    HW1 5861   0.209   3.149   2.276
 1654SOL    HW2 5862   0.081   3.115   2.180
 1655SOL     OW 5863   0.124   0.464   5.663
 1655SOL    HW1 5864   0.122   0.539   5.728
 1655SOL    HW2 5865   0.033   0.422   5.657
 1656SOL     OW 5866   2.370   4.345   3.281
 1656SOL    HW1 5867   2.381   4.290   3.198
 1656SOL    HW2 5868   2.331   4.434   3.257
 1657SOL     OW 5869   0.142   6.692   5.928
 1657SOL    HW1 5870   0.186   6.611   5.890
 1657SOL    HW2 5871   0.077   6.729   5.862
 1658SOL     OW 5872   5.430   6.273   5.996
 1658SOL    HW1 5873   5.449   6.244   5.902
 1658SOL    HW2 5874   5.351   6.334   5.997
 1659SOL     OW 5875   3.714   6.732   5.757
 1659SOL    HW1 5876   3.801   6.764   5.720
 1659SOL    HW2 5877   3.729   6.646   5.806
 1660SOL     OW 5878   2.519   0.955   2.138
 1660SOL    HW1 5879   2.602   0.929   2.089
 1660SOL    HW2 5880   2.440   0.946   2.077
 1661SOL     OW 5881   4.990   4.346   2.374
 1661SOL    HW1 5882   4.916   4.291   2.336
 1661SOL    HW2 5883   5.065   4.287   2.403
 1662SOL     OW 5884   0.424   1.906   3.941
 1662SOL    HW1 5885   0.495   1.850   3.899
 1662SOL    HW2 5886   0.344   1.850   3.962
 1663SOL     OW 5887   5.036   4.309   1.114
 1663SOL    HW1 5888   5.101   4.338   1.044
 1663SOL    HW2 5889   5.063   4.346   1.203
 1664SOL     OW 5890   1.166   0.287   6.527
 1664SOL    HW1 5891   1.075   0.323   6.548
 1664SOL    HW2 5892   1.158   0.219   6.454
 1665SOL     OW 5893   2.968   4.270   6.785
 1665SOL    HW1 5894   3.037   4.337   6.814
 1665SOL    HW2 5895   2.932   4.297   6.695
 1666SOL     OW 5896   4.677   6.590   6.042
 1666SOL    HW1 5897   4.706   6.503   6.001
 1666SOL    HW2 5898   4.625   6.642   5.975
 1667SOL     OW 5899   6.856   6.137   0.827
 1667SOL    HW1 5900   6.940   6.162   0.874
 1667SOL    HW2 5901   6.792   6.097   0.892
 1668SOL     OW 5902   5.785   3.891   2.329
 1668SOL    HW1 5903   5.827   3.978   2.356
 1668SOL    HW2 5904   5.850   3.817   2.343
 1669SOL     OW 5905   6.795   3.577   5.304
 1669SOL    HW1 5906   6.723   3.644   5.322
 1669SOL    HW2 5907   6.875   3.623   5.267
 1670SOL     OW 5908   2.502   4.317   5.657
 1670SOL    HW1 5909   2.586   4.361   5.624
 1670SOL    HW2 5910   2.485   4.234   5.604
 1671SOL     OW 5911   5.782   2.371   0.624
 1671SOL    HW1 5912   5.822   2.463   0.619
 1671SOL    HW2 5913   5.762   2.338   0.532
 1672SOL     OW 5914   0.951   2.710   1.166
 1672SOL    HW1 5915   0.874   2.647   1.160
 1672SOL    HW2 5916   1.013   2.695   1.089
 1673SOL     OW 5917   1.504   0.710   4.740
 1673SOL    HW1 5918   1.555   0.682   4.659
 1673SOL    HW2 5919   1.415   0.747   4.713
 1674SOL     OW 5920   4.923   2.080   2.626
 1674SOL    HW1 5921   4.887   2.048   2.539
 1674SOL    HW2 5922   4.893   2.175   2.641
 1675SOL     OW 5923   5.207   0.664   1.780
 1675SOL    HW1 5924   5.169   0.641   1.869
 1675SOL    HW2 5925   5.282   0.602   1.758
 1676SOL     OW 5926   0.907   2.668   3.406
 1676SOL    HW1 5927   0.938   2.590   3.352
 1676SOL    HW2 5928   0.809   2.660   3.423
 1677SOL     OW 5929   3.418   3.147   3.136
 1677SOL    HW1 5930   3.496   3.097   3.100
 1677SOL    HW2 5931   3.399   3.226   3.077
 1678SOL     OW 5932   1.323   0.382   0.810
 1678SOL    HW1 5933   1.336   0.476   0.840
 1678SOL    HW2 5934   1.343   0.375   0.713
 1679SOL     OW 5935   6.645   1.489   6.667
 1679SOL    HW1 5936   6.689   1.576   6.688
 1679SOL    HW2 5937   6.640   1.433   6.750
 1680SOL     OW 5938   5.656   2.529   3.479
 1680SOL    HW1 5939   5.581   2.535   3.412
 1680SOL    HW2 5940   5.689   2.435   3.485
 1681SOL     OW 5941   3.093   6.163   5.134
 1681SOL    HW1 5942   3.036   6.084   5.110
 1681SOL    HW2 5943   3.156   6.137   5.207
 1682SOL     OW 5944   3.749   0.411   4.063
 1682SOL    HW1 5945   3.744   0.341   4.134
 1682SOL    HW2 5946   3.844   0.422   4.034
 1683SOL     OW 5947   6.225   3.208   2.956
 1683SOL    HW1 5948   6.250   3.125   2.906
 1683SOL    HW2 5949   6.152   3.187   3.021
 1684SOL     OW 5950   2.571   4.985   2.223
 1684SOL    HW1 5951   2.632   5.063   2.235
 1684SOL    HW2 5952   2.478   5.017   2.209
 1685SOL     OW 5953   0.345   1.243   5.889
 1685SOL    HW1 5954   0.337   1.240   5.789
 1685SOL    HW2 5955   0.433   1.284   5.914
 1686SOL     OW 5956   4.487   5.135   2.851
 1686SOL    HW1 5957   4.408   5.189   2.822
 1686SOL    HW2 5958   4.550   5.125   2.774
 1687SOL     OW 5959   4.962   4.760   1.194
 1687SOL    HW1 5960   4.947   4.676   1.142
 1687SOL    HW2 5961   4.940   4.744   1.290
 1688SOL     OW 5962   0.966   0.167   2.690
 1688SOL    HW1 5963   0.952   0.258   2.651
 1688SOL    HW2 5964   0.879   0.119   2.697
 1689SOL     OW 5965   4.672   0.611   1.547
 1689SOL    HW1 5966   4.706   0.603   1.454
 1689SOL    HW2 5967   4.586   0.559   1.556
 1690SOL     OW 5968   0.026   4.934   3.804
 1690SOL    HW1 5969   6.967   4.944   3.743
 1690SOL    HW2 5970   0.045   4.836   3.817
 1691SOL     OW 5971   4.502   2.527   5.154
 1691SOL    HW1 5972   4.581   2.569   5.111
 1691SOL    HW2 5973   4.425   2.525   5.089
 1692SOL     OW 5974   4.863   5.085   1.243
 1692SOL    HW1 5975   4.837   5.069   1.339
 1692SOL    HW2 5976   4.961   5.106   1.238
 1693SOL     OW 5977   5.748   6.707   5.869
 1693SOL    HW1 5978   5.673   6.717   5.935
 1693SOL    HW2 5979   5.724   6.755   5.784
 1694SOL     OW 5980   4.871   2.022   6.287
 1694SOL    HW1 5981   4.907   2.048   6.198
 1694SOL    HW2 5982   4.946   2.017   6.353
 1695SOL     OW 5983   3.202   0.806   6.134
 1695SOL    HW1 5984   3.161   0.886   6.177
 1695SOL    HW2 5985   3.280   0.776   6.190
 1696SOL     OW 5986   4.414   5.940   0.347
 1696SOL    HW1 5987   4.417   6.040   0.356
 1696SOL    HW2 5988   4.500   5.901   0.380
 1697SOL     OW 5989   4.817   2.768   1.983
 1697SOL    HW1 5990   4.760   2.732   2.058
 1697SOL    HW2 5991   4.791   2.864   1.967
 1698SOL     OW 5992   3.916   1.343   1.550
 1698SOL    HW1 5993   4.000   1.390   1.578
 1698SOL    HW2 5994   3.839   1.379   1.603
 1699SOL     OW 5995   2.245   0.251   7.012
 1699SOL    HW1 5996   2.294   0.270   6.926
 1699SOL    HW2 5997   2.148   0.233   6.991
 1700SOL     OW 5998   5.335   2.752   2.875
 1700SOL    HW1 5999   5.253   2.701   2.850
 1700SOL    HW2 6000   5.404   2.690   2.912
 1701SOL     OW 6001   0.166   6.100   5.308
 1701SOL    HW1 6002   0.171   6.001   5.326
 1701SOL    HW2 6003   0.083   6.119   5.255
 1702SOL     OW 6004   2.179   2.441   6.782
 1702SOL    HW1 6005   2.127   2.517   6.821
 1702SOL    HW2 6006   2.116   2.376   6.739
 1703SOL     OW 6007   1.415   1.570   1.872
 1703SOL    HW1 6008   1.363   1.558   1.957
 1703SOL    HW2 6009   1.455   1.482   1.846
 1704SOL     OW 6010   3.354   2.266   0.894
 1704SOL    HW1 6011   3.335   2.295   0.988
 1704SOL    HW2 6012   3.339   2.342   0.832
 1705SOL     OW 6013   4.668   2.695   0.604
 1705SOL    HW1 6014   4.762   2.680   0.635
 1705SOL    HW2 6015   4.604   2.655   0.670
 1706SOL     OW 6016   6.005   2.352   6.579
 1706SOL    HW1 6017   5.934   2.410   6.540
 1706SOL    HW2 6018   6.078   2.409   6.615
 1707SOL     OW 6019   4.405   1.361   2.289
 1707SOL    HW1 6020   4.364   1.285   2.339
 1707SOL    HW2 6021   4.334   1.410   2.240
 1708SOL     OW 6022   2.878   4.870   2.126
 1708SOL    HW1 6023   2.861   4.775   2.100
 1708SOL    HW2 6024   2.956   4.905   2.073
 1709SOL     OW 6025   5.014   5.036   0.825
 1709SOL    HW1 6026   4.916   5.020   0.837
 1709SOL    HW2 6027   5.032   5.060   0.730
 1710SOL     OW 6028   4.748   4.172   2.356
 1710SOL    HW1 6029   4.754   4.192   2.259
 1710SOL    HW2 6030   4.767   4.075   2.371
 1711SOL     OW 6031   3.727   5.308   6.773
 1711SOL    HW1 6032   3.753   5.228   6.827
 1711SOL    HW2 6033   3.729   5.390   6.829
 1712SOL     OW 6034   0.761   1.382   1.846
 1712SOL    HW1 6035   0.828   1.362   1.774
 1712SOL    HW2 6036   0.772   1.477   1.876
 1713SOL     OW 6037   3.401   1.288   2.584
 1713SOL    HW1 6038   3.429   1.314   2.677
 1713SOL    HW2 6039   3.472   1.315   2.519
 1714SOL     OW 6040   2.814   3.814   0.969
 1714SOL    HW1 6041   2.808   3.715   0.985
 1714SOL    HW2 6042   2.908   3.837   0.944
 1715SOL     OW 6043   1.801   6.085   1.848
 1715SOL    HW1 6044   1.854   6.141   1.785
 1715SOL    HW2 6045   1.862   6.024   1.898
 1716SOL     OW 6046   3.686   1.139   2.820
 1716SOL    HW1 6047   3.607   1.136   2.880
 1716SOL    HW2 6048   3.769   1.122   2.874
 1717SOL     OW 6049   3.297   5.764   4.566
 1717SOL    HW1 6050   3.324   5.676   4.604
 1717SOL    HW2 6051   3.377   5.813   4.531
 1718SOL     OW 6052   2.018   2.665   1.471
 1718SOL    HW1 6053   2.065   2.660   1.559
 1718SOL    HW2 6054   1.990   2.759   1.453
 1719SOL     OW 6055   1.087   5.327   2.331
 1719SOL    HW1 6056   1.183   5.321   2.305
 1719SOL    HW2 6057   1.034   5.260   2.278
 1720SOL     OW 6058   0.869   3.211   5.459
 1720SOL    HW1 6059   0.791   3.184   5.516
 1720SOL    HW2 6060   0.945   3.239   5.519
 1721SOL     OW 6061   2.107   2.754   0.179
 1721SOL    HW1 6062   2.183   2.776   0.117
 1721SOL    HW2 6063   2.032   2.818   0.164
 1722SOL     OW 6064   2.653   2.420   4.468
 1722SOL    HW1 6065   2.730   2.379   4.517
 1722SOL    HW2 6066   2.570   2.413   4.524
 1723SOL     OW 6067   6.034   4.307   1.228
 1723SOL    HW1 6068   6.057   4.210   1.240
 1723SOL    HW2 6069   5.939   4.322   1.256
 1724SOL     OW 6070   5.545   2.448   1.089
 1724SOL    HW1 6071   5.544   2.436   0.990
 1724SOL    HW2 6072   5.627   2.406   1.127
 1725SOL     OW 6073   1.810   6.338   6.042
 1725SOL    HW1 6074   1.748   6.412   6.018
 1725SOL    HW2 6075   1.789   6.257   5.988
 1726SOL     OW 6076   5.434   4.145   2.869
 1726SOL    HW1 6077   5.343   4.139   2.910
 1726SOL    HW2 6078   5.459   4.241   2.858
 1727SOL     OW 6079   3.181   3.986   3.187
 1727SOL    HW1 6080   3.245   4.060   3.169
 1727SOL    HW2 6081   3.151   3.991   3.282
 1728SOL     OW 6082   5.800   2.417   4.072
 1728SOL    HW1 6083   5.799   2.510   4.109
 1728SOL    HW2 6084   5.723   2.365   4.109
 1729SOL     OW 6085   1.254   2.783   2.860
 1729SOL    HW1 6086   1.249   2.715   2.932
 1729SOL    HW2 6087   1.224   2.872   2.895
 1730SOL     OW 6088   2.043   6.355   4.472
 1730SOL    HW1 6089   2.077   6.274   4.426
 1730SOL    HW2 6090   1.966   6.330   4.531
 1731SOL     OW 6091   5.350   5.148   3.559
 1731SOL    HW1 6092   5.355   5.225   3.622
 1731SOL    HW2 6093   5.432   5.091   3.570
 1732SOL     OW 6094   2.866   3.718   5.191
 1732SOL    HW1 6095   2.870   3.618   5.192
 1732SOL    HW2 6096   2.771   3.747   5.183
 1733SOL     OW 6097   2.021   3.022   5.934
 1733SOL    HW1 6098   2.047   2.959   6.007
 1733SOL    HW2 6099   1.982   3.105   5.974
 1734SOL     OW 6100   6.387   2.854   1.023
 1734SOL    HW1 6101   6.306   2.911   1.010
 1734SOL    HW2 6102   6.429   2.876   1.111
 1735SOL     OW 6103   3.719   5.479   6.094
 1735SOL    HW1 6104   3.771   5.444   6.016
 1735SOL    HW2 6105   3.765   5.454   6.179
 1736SOL     OW 6106   5.237   2.308   6.364
 1736SOL    HW1 6107   5.270   2.251   6.289
 1736SOL    HW2 6108   5.144   2.338   6.343
 1737SOL     OW 6109   3.367   1.153   5.796
 1737SOL    HW1 6110   3.385   1.058   5.822
 1737SOL    HW2 6111   3.454   1.202   5.786
 1738SOL     OW 6112   2.137   3.397   2.909
 1738SOL    HW1 6113   2.155   3.338   2.830
 1738SOL    HW2 6114   2.155   3.347   2.993
 1739SOL     OW 6115   5.339   7.014   3.027
 1739SOL    HW1 6116   5.296   0.062   2.968
 1739SOL    HW2 6117   5.402   6.958   2.973
 1740SOL     OW 6118   5.950   2.965   4.799
 1740SOL    HW1 6119   5.857   2.989   4.769
 1740SOL    HW2 6120   5.985   3.037   4.859
 1741SOL     OW 6121   0.612   2.008   4.778
 1741SOL    HW1 6122   0.576   2.102   4.777
 1741SOL    HW2 6123   0.592   1.963   4.692
 1742SOL     OW 6124   6.365   6.371   6.772
 1742SOL    HW1 6125   6.284   6.417   6.809
 1742SOL    HW2 6126   6.387   6.410   6.683
 1743SOL     OW 6127   1.822   1.978   2.187
 1743SOL    HW1 6128   1.769   1.982   2.101
 1743SOL    HW2 6129   1.857   2.069   2.208
 1744SOL     OW 6130   3.494   2.151   5.346
 1744SOL    HW1 6131   3.574   2.092   5.336
 1744SOL    HW2 6132   3.442   2.152   5.261
 1745SOL     OW 6133   6.203   6.120   0.976
 1745SOL    HW1 6134   6.130   6.088   0.915
 1745SOL    HW2 6135   6.195   6.075   1.064
 1746SOL     OW 6136   2.636   4.715   3.406
 1746SOL    HW1 6137   2.585   4.632   3.427
 1746SOL    HW2 6138   2.573   4.792   3.396
 1747SOL     OW 6139   4.015   6.827   2.596
 1747SOL    HW1 6140   4.064   6.741   2.612
 1747SOL    HW2 6141   3.949   6.815   2.522
 1748SOL     OW 6142   6.913   2.349   4.402
 1748SOL    HW1 6143   6.967   2.423   4.362
 1748SOL    HW2 6144   6.889   2.284   4.331
 1749SOL     OW 6145   6.682   5.435   1.727
 1749SOL    HW1 6146   6.764   5.440   1.670
 1749SOL    HW2 6147   6.649   5.340   1.729
 1750SOL     OW 6148   3.094   0.835   6.987
 1750SOL    HW1 6149   3.075   0.896   0.045
 1750SOL    HW2 6150   3.191   0.815   6.983
 1751SOL     OW 6151   5.473   3.400   4.730
 1751SOL    HW1 6152   5.461   3.496   4.704
 1751SOL    HW2 6153   5.383   3.358   4.743
 1752SOL     OW 6154   0.263   0.759   2.173
 1752SOL    HW1 6155   0.337   0.715   2.224
 1752SOL    HW2 6156   0.201   0.803   2.238
 1753SOL     OW 6157   6.713   1.413   1.241
 1753SOL    HW1 6158   6.625   1.443   1.204
 1753SOL    HW2 6159   6.776   1.396   1.166
 1754SOL     OW 6160   3.089   5.373   3.698
 1754SOL    HW1 6161   3.179   5.331   3.684
 1754SOL    HW2 6162   3.019   5.322   3.648
 1755SOL     OW 6163   6.691   0.427   5.685
 1755SOL    HW1 6164   6.767   0.378   5.643
 1755SOL    HW2 6165   6.606   0.407   5.636
 1756SOL     OW 6166   4.452   5.976   0.831
 1756SOL    HW1 6167   4.508   6.034   0.772
 1756SOL    HW2 6168   4.415   5.899   0.779
 1757SOL     OW 6169   2.829   4.810   5.280
 1757SOL    HW1 6170   2.763   4.862   5.226
 1757SOL    HW2 6171   2.861   4.732   5.228
 1758SOL     OW 6172   1.502   5.848   4.128
 1758SOL    HW1 6173   1.555   5.808   4.203
 1758SOL    HW2 6174   1.565   5.883   4.058
 1759SOL     OW 6175   1.194   5.809   0.326
 1759SOL    HW1 6176   1.143   5.783   0.244
 1759SOL    HW2 6177   1.290   5.825   0.301
 1760SOL     OW 6178   6.882   1.534   4.404
 1760SOL    HW1 6179   6.782   1.529   4.409
 1760SOL    HW2 6180   6.919   1.562   4.493
 1761SOL     OW 6181   5.307   1.249   2.641
 1761SOL    HW1 6182   5.329   1.232   2.736
 1761SOL    HW2 6183   5.381   1.216   2.582
 1762SOL     OW 6184   0.447   1.637   5.860
 1762SOL    HW1 6185   0.381   1.599   5.925
 1762SOL    HW2 6186   0.424   1.732   5.842
 1763SOL     OW 6187   1.339   4.898   3.815
 1763SOL    HW1 6188   1.317   4.936   3.905
 1763SOL    HW2 6189   1.430   4.927   3.788
 1764SOL     OW 6190   0.983   6.412   3.620
 1764SOL    HW1 6191   0.933   6.422   3.534
 1764SOL    HW2 6192   0.991   6.501   3.665
 1765SOL     OW 6193   5.635   4.182   2.088
 1765SOL    HW1 6194   5.618   4.090   2.123
 1765SOL    HW2 6195   5.693   4.177   2.008
 1766SOL     OW 6196   4.343   4.563   4.049
 1766SOL    HW1 6197   4.389   4.559   4.138
 1766SOL    HW2 6198   4.347   4.473   4.005
 1767SOL     OW 6199   0.434   4.797   1.733
 1767SOL    HW1 6200   0.414   4.862   1.659
 1767SOL    HW2 6201   0.398   4.833   1.819
 1768SOL     OW 6202   5.329   4.486   2.626
 1768SOL    HW1 6203   5.370   4.489   2.534
 1768SOL    HW2 6204   5.232   4.510   2.620
 1769SOL     OW 6205   5.473   0.221   0.808
 1769SOL    HW1 6206   5.569   0.194   0.815
 1769SOL    HW2 6207   5.423   0.187   0.888
 1770SOL     OW 6208   2.008   5.001   0.578
 1770SOL    HW1 6209   2.025   4.940   0.500
 1770SOL    HW2 6210   1.968   4.949   0.653
 1771SOL     OW 6211   2.021   3.352   5.931
 1771SOL    HW1 6212   2.034   3.438   5.883
 1771SOL    HW2 6213   2.109   3.306   5.943
 1772SOL     OW 6214   2.285   4.142   2.118
 1772SOL    HW1 6215   2.249   4.228   2.081
 1772SOL    HW2 6216   2.215   4.098   2.173
 1773SOL     OW 6217   2.302   6.175   5.988
 1773SOL    HW1 6218   2.374   6.213   6.046
 1773SOL    HW2 6219   2.248   6.250   5.949
 1774SOL     OW 6220   5.391   5.741   1.406
 1774SOL    HW1 6221   5.393   5.806   1.330
 1774SOL    HW2 6222   5.308   5.687   1.402
 1775SOL     OW 6223   2.126   5.242   0.814
 1775SOL    HW1 6224   2.127   5.221   0.912
 1775SOL    HW2 6225   2.198   5.191   0.768
 1776SOL     OW 6226   4.299   2.654   5.745
 1776SOL    HW1 6227   4.263   2.564   5.770
 1776SOL    HW2 6228   4.395   2.661   5.772
 1777SOL     OW 6229   4.554   6.284   6.755
 1777SOL    HW1 6230   4.645   6.306   6.721
 1777SOL    HW2 6231   4.539   6.331   6.842
 1778SOL     OW 6232   6.012   0.059   4.343
 1778SOL    HW1 6233   6.112   0.056   4.349
 1778SOL    HW2 6234   5.985   0.101   4.256
 1779SOL     OW 6235   5.557   0.731   4.402
 1779SOL    HW1 6236   5.514   0.805   4.453
 1779SOL    HW2 6237   5.655   0.749   4.392
 1780SOL     OW 6238   1.984   5.514   5.588
 1780SOL    HW1 6239   1.978   5.430   5.642
 1780SOL    HW2 6240   1.930   5.586   5.632
 1781SOL     OW 6241   4.021   0.978   5.458
 1781SOL    HW1 6242   4.099   1.019   5.504
 1781SOL    HW2 6243   3.938   0.995   5.511
 1782SOL     OW 6244   5.284   1.195   2.341
 1782SOL    HW1 6245   5.230   1.195   2.425
 1782SOL    HW2 6246   5.376   1.228   2.361
 1783SOL     OW 6247   1.852   4.385   0.044
 1783SOL    HW1 6248   1.793   4.324   0.097
 1783SOL    HW2 6249   1.919   4.427   0.105
 1784SOL     OW 6250   3.021   7.007   1.678
 1784SOL    HW1 6251   2.952   7.003   1.751
 1784SOL    HW2 6252   3.032   6.916   1.639
 1785SOL     OW 6253   1.633   6.942   4.351
 1785SOL    HW1 6254   1.731   6.946   4.328
 1785SOL    HW2 6255   1.590   6.868   4.300
 1786SOL     OW 6256   0.858   6.075   1.552
 1786SOL    HW1 6257   0.842   6.156   1.494
 1786SOL    HW2 6258   0.957   6.064   1.566
 1787SOL     OW 6259   2.086   3.521   5.478
 1787SOL    HW1 6260   2.171   3.569   5.499
 1787SOL    HW2 6261   2.085   3.433   5.524
 1788SOL     OW 6262   4.119   3.274   0.618
 1788SOL    HW1 6263   4.149   3.206   0.686
 1788SOL    HW2 6264   4.128   3.366   0.657
 1789SOL     OW 6265   6.198   3.164   2.274
 1789SOL    HW1 6266   6.129   3.236   2.285
 1789SOL    HW2 6267   6.287   3.206   2.256
 1790SOL     OW 6268   1.604   2.395   4.776
 1790SOL    HW1 6269   1.563   2.456   4.843
 1790SOL    HW2 6270   1.635   2.311   4.822
 1791SOL     OW 6271   5.086   0.164   3.783
 1791SOL    HW1 6272   5.027   0.245   3.776
 1791SOL    HW2 6273   5.041   0.094   3.838
 1792SOL     OW 6274   6.981   3.011   6.584
 1792SOL    HW1 6275   6.976   2.927   6.637
 1792SOL    HW2 6276   0.054   3.048   6.588
 1793SOL     OW 6277   6.680   1.412   5.232
 1793SOL    HW1 6278   6.597   1.431   5.284
 1793SOL    HW2 6279   6.745   1.362   5.291
 1794SOL     OW 6280   0.112   1.426   6.278
 1794SOL    HW1 6281   0.154   1.381   6.357
 1794SOL    HW2 6282   0.021   1.388   6.264
 1795SOL     OW 6283   5.238   4.569   1.059
 1795SOL    HW1 6284   5.252   4.650   1.002
 1795SOL    HW2 6285   5.301   4.570   1.136
 1796SOL     OW 6286   6.793   0.311   0.444
 1796SOL    HW1 6287   6.820   0.215   0.447
 1796SOL    HW2 6288   6.870   0.368   0.472
 1797SOL     OW 6289   2.813   5.463   5.648
 1797SOL    HW1 6290   2.826   5.514   5.733
 1797SOL    HW2 6291   2.860   5.375   5.654
 1798SOL     OW 6292   2.027   3.889   5.427
 1798SOL    HW1 6293   2.077   3.843   5.353
 1798SOL    HW2 6294   1.929   3.876   5.414
 1799SOL     OW 6295   3.100   1.253   1.425
 1799SOL    HW1 6296   3.074   1.347   1.448
 1799SOL    HW2 6297   3.199   1.244   1.431
 1800SOL     OW 6298   6.178   3.446   5.710
 1800SOL    HW1 6299   6.113   3.380   5.673
 1800SOL    HW2 6300   6.252   3.460   5.645
 1801SOL     OW 6301   0.482   0.397   3.230
 1801SOL    HW1 6302   0.443   0.466   3.292
 1801SOL    HW2 6303   0.427   0.314   3.233
 1802SOL     OW 6304   6.235   4.715   3.883
 1802SOL    HW1 6305   6.274   4.793   3.932
 1802SOL    HW2 6306   6.292   4.634   3.898
 1803SOL     OW 6307   0.023   0.408   3.798
 1803SOL    HW1 6308   6.994   0.455   3.872
 1803SOL    HW2 6309   6.981   0.343   3.753
 1804SOL     OW 6310   1.903   2.157   6.108
 1804SOL    HW1 6311   1.835   2.163   6.181
 1804SOL    HW2 6312   1.863   2.189   6.023
 1805SOL     OW 6313   6.451   4.946   0.677
 1805SOL    HW1 6314   6.423   4.890   0.599
 1805SOL    HW2 6315   6.537   4.992   0.655
 1806SOL     OW 6316   0.273   1.686   0.751
 1806SOL    HW1 6317   0.204   1.719   0.816
 1806SOL    HW2 6318   0.360   1.674   0.798
 1807SOL     OW 6319   6.121   2.658   3.088
 1807SOL    HW1 6320   6.067   2.726   3.138
 1807SOL    HW2 6321   6.205   2.701   3.055
 1808SOL     OW 6322   5.672   1.318   6.145
 1808SOL    HW1 6323   5.727   1.336   6.226
 1808SOL    HW2 6324   5.727   1.269   6.077
 1809SOL     OW 6325   5.822   0.391   5.580
 1809SOL    HW1 6326   5.755   0.408   5.508
 1809SOL    HW2 6327   5.912   0.424   5.551
 1810SOL     OW 6328   1.414   0.643   4.398
 1810SOL    HW1 6329   1.499   0.672   4.442
 1810SOL    HW2 6330   1.393   0.549   4.424
 1811SOL     OW 6331   3.490   6.312   2.148
 1811SOL    HW1 6332   3.441   6.257   2.079
 1811SOL    HW2 6333   3.451   6.404   2.151
 1812SOL     OW 6334   3.975   6.780   6.736
 1812SOL    HW1 6335   3.966   6.868   6.782
 1812SOL    HW2 6336   3.885   6.741   6.721
 1813SOL     OW 6337   4.881   3.972   2.080
 1813SOL    HW1 6338   4.815   4.046   2.071
 1813SOL    HW2 6339   4.867   3.925   2.168
 1814SOL     OW 6340   6.446   5.854   0.454
 1814SOL    HW1 6341   6.516   5.791   0.487
 1814SOL    HW2 6342   6.390   5.809   0.385
 1815SOL     OW 6343   4.835   6.014   1.453
 1815SOL    HW1 6344   4.897   5.978   1.383
 1815SOL    HW2 6345   4.777   5.940   1.488
 1816SOL     OW 6346   4.392   4.841   5.466
 1816SOL    HW1 6347   4.343   4.924   5.440
 1816SOL    HW2 6348   4.452   4.860   5.543
 1817SOL     OW 6349   0.401   2.799   3.490
 1817SOL    HW1 6350   0.382   2.876   3.551
 1817SOL    HW2 6351   0.441   2.833   3.405
 1818SOL     OW 6352   2.548   1.169   0.303
 1818SOL    HW1 6353   2.619   1.127   0.247
 1818SOL    HW2 6354   2.526   1.110   0.380
 1819SOL     OW 6355   1.502   4.051   1.842
 1819SOL    HW1 6356   1.454   4.039   1.929
 1819SOL    HW2 6357   1.600   4.067   1.860
 1820SOL     OW 6358   3.805   0.491   4.444
 1820SOL    HW1 6359   3.882   0.466   4.504
 1820SOL    HW2 6360   3.799   0.424   4.370
 1821SOL     OW 6361   3.227   1.478   2.467
 1821SOL    HW1 6362   3.306   1.417   2.461
 1821SOL    HW2 6363   3.229   1.543   2.391
 1822SOL     OW 6364   1.001   3.765   3.618
 1822SOL    HW1 6365   1.084   3.771   3.563
 1822SOL    HW2 6366   0.981   3.669   3.639
 1823SOL     OW 6367   4.270   6.941   3.168
 1823SOL    HW1 6368   4.216   6.859   3.152
 1823SOL    HW2 6369   4.242   7.013   3.104
 1824SOL     OW 6370   4.326   3.099   1.765
 1824SOL    HW1 6371   4.326   3.117   1.666
 1824SOL    HW2 6372   4.409   3.049   1.789
 1825SOL     OW 6373   0.957   3.206   5.876
 1825SOL    HW1 6374   0.970   3.274   5.948
 1825SOL    HW2 6375   0.906   3.128   5.913
 1826SOL     OW 6376   3.698   2.343   1.481
 1826SOL    HW1 6377   3.651   2.389   1.557
 1826SOL    HW2 6378   3.774   2.401   1.450
 1827SOL     OW 6379   5.572   4.572   0.606
 1827SOL    HW1 6380   5.492   4.552   0.550
 1827SOL    HW2 6381   5.546   4.574   0.702
 1828SOL     OW 6382   1.409   4.083   4.485
 1828SOL    HW1 6383   1.364   4.166   4.452
 1828SOL    HW2 6384   1.380   4.065   4.579
 1829SOL     OW 6385   3.389   6.520   1.809
 1829SOL    HW1 6386   3.395   6.508   1.908
 1829SOL    HW2 6387   3.293   6.528   1.782
 1830SOL     OW 6388   4.314   1.302   6.082
 1830SOL    HW1 6389   4.244   1.291   6.153
 1830SOL    HW2 6390   4.317   1.397   6.052
 1831SOL     OW 6391   3.406   4.636   0.563
 1831SOL    HW1 6392   3.432   4.541   0.575
 1831SOL    HW2 6393   3.331   4.659   0.625
 1832SOL     OW 6394   2.286   3.220   5.971
 1832SOL    HW1 6395   2.285   3.219   6.071
 1832SOL    HW2 6396   2.255   3.131   5.936
 1833SOL     OW 6397   6.282   0.996   6.847
 1833SOL    HW1 6398   6.308   0.923   6.784
 1833SOL    HW2 6399   6.341   0.993   6.927
 1834SOL     OW 6400   0.529   3.425   6.092
 1834SOL    HW1 6401   0.431   3.417   6.079
 1834SOL    HW2 6402   0.575   3.425   6.003
 1835SOL     OW 6403   6.746   6.026   1.054
 1835SOL    HW1 6404   6.732   5.927   1.060
 1835SOL    HW2 6405   6.843   6.046   1.062
 1836SOL     OW 6406   5.303   1.726   2.915
 1836SOL    HW1 6407   5.265   1.750   2.825
 1836SOL    HW2 6408   5.258   1.643   2.948
 1837SOL     OW 6409   2.614   2.257   6.978
 1837SOL    HW1 6410   2.647   2.342   6.937
 1837SOL    HW2 6411   2.653   2.248   0.051
 1838SOL     OW 6412   5.003   1.376   0.773
 1838SOL    HW1 6413   4.945   1.363   0.692
 1838SOL    HW2 6414   5.002   1.472   0.801
 1839SOL     OW 6415   6.168   0.702   0.486
 1839SOL    HW1 6416   6.226   0.671   0.562
 1839SOL    HW2 6417   6.204   0.667   0.400
 1840SOL     OW 6418   4.398   6.267   4.159
 1840SOL    HW1 6419   4.485   6.311   4.139
 1840SOL    HW2 6420   4.378   6.276   4.257
 1841SOL     OW 6421   1.650   0.588   1.459
 1841SOL    HW1 6422   1.709   0.586   1.539
 1841SOL    HW2 6423   1.704   0.571   1.376
 1842SOL     OW 6424   0.196   5.124   1.265
 1842SOL    HW1 6425   0.263   5.194   1.288
 1842SOL    HW2 6426   0.242   5.046   1.223
 1843SOL     OW 6427   2.426   0.796   6.971
 1843SOL    HW1 6428   2.459   0.703   6.985
 1843SOL    HW2 6429   2.504   0.857   6.959
 1844SOL     OW 6430   5.655   2.679   6.629
 1844SOL    HW1 6431   5.556   2.674   6.617
 1844SOL    HW2 6432   5.683   2.618   6.703
 1845SOL     OW 6433   1.087   2.730   3.576
 1845SOL    HW1 6434   1.167   2.718   3.517
 1845SOL    HW2 6435   1.004   2.718   3.521
 1846SOL     OW 6436   2.953   1.076   1.549
 1846SOL    HW1 6437   3.000   1.149   1.499
 1846SOL    HW2 6438   2.912   1.113   1.632
 1847SOL     OW 6439   2.151   5.563   6.291
 1847SOL    HW1 6440   2.145   5.611   6.379
 1847SOL    HW2 6441   2.216   5.610   6.232
 1848SOL     OW 6442   3.692   6.298   3.443
 1848SOL    HW1 6443   3.737   6.211   3.424
 1848SOL    HW2 6444   3.617   6.312   3.378
 1849SOL     OW 6445   4.594   2.533   2.483
 1849SOL    HW1 6446   4.638   2.529   2.394
 1849SOL    HW2 6447   4.558   2.625   2.499
 1850SOL     OW 6448   4.167   2.047   1.181
 1850SOL    HW1 6449   4.238   2.096   1.132
 1850SOL    HW2 6450   4.092   2.110   1.203
 1851SOL     OW 6451   0.179   4.738   4.537
 1851SOL    HW1 6452   0.113   4.776   4.473
 1851SOL    HW2 6453   0.268   4.728   4.492
 1852SOL     OW 6454   0.591   7.004   3.546
 1852SOL    HW1 6455   0.562   7.010   3.450
 1852SOL    HW2 6456   0.512   6.983   3.603
 1853SOL     OW 6457   0.757   2.546   5.699
 1853SOL    HW1 6458   0.728   2.591   5.614
 1853SOL    HW2 6459   0.726   2.600   5.777
 1854SOL     OW 6460   0.108   0.098   3.506
 1854SOL    HW1 6461   0.079   0.137   3.419
 1854SOL    HW2 6462   0.179   0.030   3.490
 1855SOL     OW 6463   5.588   2.449   4.951
 1855SOL    HW1 6464   5.539   2.382   5.008
 1855SOL    HW2 6465   5.565   2.541   4.982
 1856SOL     OW 6466   4.629   3.403   0.095
 1856SOL    HW1 6467   4.676   3.337   0.153
 1856SOL    HW2 6468   4.650   3.384   7.018
 1857SOL     OW 6469   3.920   0.910   6.619
 1857SOL    HW1 6470   3.877   0.903   6.709
 1857SOL    HW2 6471   3.877   0.983   6.568
 1858SOL     OW 6472   5.498   2.000   4.439
 1858SOL    HW1 6473   5.538   1.966   4.524
 1858SOL    HW2 6474   5.415   2.053   4.460
 1859SOL     OW 6475   7.009   1.178   3.702
 1859SOL    HW1 6476   0.076   1.204   3.747
 1859SOL    HW2 6477   6.973   1.095   3.744
 1860SOL     OW 6478   2.764   1.233   6.441
 1860SOL    HW1 6479   2.711   1.306   6.398
 1860SOL    HW2 6480   2.711   1.191   6.515
 1861SOL     OW 6481   6.287   6.503   4.907
 1861SOL    HW1 6482   6.349   6.581   4.913
 1861SOL    HW2 6483   6.216   6.513   4.977
 1862SOL     OW 6484   3.247   6.215   5.840
 1862SOL    HW1 6485   3.214   6.195   5.748
 1862SOL    HW2 6486   3.207   6.151   5.905
 1863SOL     OW 6487   6.628   1.762   1.174
 1863SOL    HW1 6488   6.722   1.739   1.149
 1863SOL    HW2 6489   6.607   1.725   1.264
 1864SOL     OW 6490   2.913   6.450   1.860
 1864SOL    HW1 6491   2.976   6.399   1.801
 1864SOL    HW2 6492   2.928   6.423   1.955
 1865SOL     OW 6493   6.299   2.438   5.886
 1865SOL    HW1 6494   6.356   2.358   5.869
 1865SOL    HW2 6495   6.356   2.520   5.890
 1866SOL     OW 6496   0.655   5.792   3.182
 1866SOL    HW1 6497   0.712   5.738   3.243
 1866SOL    HW2 6498   0.599   5.856   3.236
 1867SOL     OW 6499   0.852   1.670   1.644
 1867SOL    HW1 6500   0.950   1.683   1.659
 1867SOL    HW2 6501   0.839   1.595   1.579
 1868SOL     OW 6502   5.641   3.594   6.313
 1868SOL    HW1 6503   5.549   3.606   6.274
 1868SOL    HW2 6504   5.709   3.625   6.247
 1869SOL     OW 6505   5.286   0.649   5.334
 1869SOL    HW1 6506   5.376   0.678   5.367
 1869SOL    HW2 6507   5.217   0.713   5.367
 1870SOL     OW 6508   5.975   0.407   6.170
 1870SOL    HW1 6509   5.935   0.320   6.143
 1870SOL    HW2 6510   6.074   0.397   6.180
 1871SOL     OW 6511   0.780   6.308   0.165
 1871SOL    HW1 6512   0.868   6.291   0.210
 1871SOL    HW2 6513   0.739   6.221   0.139
 1872SOL     OW 6514   2.337   2.659   1.538
 1872SOL    HW1 6515   2.382   2.670   1.626
 1872SOL    HW2 6516   2.282   2.740   1.518
 1873SOL     OW 6517   5.927   1.260   1.561
 1873SOL    HW1 6518   5.955   1.331   1.625
 1873SOL    HW2 6519   5.967   1.173   1.588
 1874SOL     OW 6520   1.276   5.650   6.788
 1874SOL    HW1 6521   1.233   5.646   6.698
 1874SOL    HW2 6522   1.250   5.569   6.840
 1875SOL     OW 6523   0.220   6.208   2.021
 1875SOL    HW1 6524   0.167   6.211   2.106
 1875SOL    HW2 6525   0.291   6.138   2.029
 1876SOL     OW 6526   0.490   4.839   0.886
 1876SOL    HW1 6527   0.513   4.878   0.797
 1876SOL    HW2 6528   0.466   4.743   0.876
 1877SOL     OW 6529   1.447   1.685   2.166
 1877SOL    HW1 6530   1.483   1.659   2.256
 1877SOL    HW2 6531   1.349   1.703   2.173
 1878SOL     OW 6532   5.101   3.726   4.115
 1878SOL    HW1 6533   5.099   3.791   4.039
 1878SOL    HW2 6534   5.180   3.745   4.173
 1879SOL     OW 6535   4.536   6.410   4.662
 1879SOL    HW1 6536   4.509   6.416   4.758
 1879SOL    HW2 6537   4.604   6.338   4.651
 1880SOL     OW 6538   0.912   1.930   4.479
 1880SOL    HW1 6539   0.988   1.866   4.488
 1880SOL    HW2 6540   0.867   1.916   4.391
 1881SOL     OW 6541   2.196   0.968   3.590
 1881SOL    HW1 6542   2.236   0.884   3.625
 1881SOL    HW2 6543   2.096   0.960   3.588
 1882SOL     OW 6544   2.874   5.438   0.434
 1882SOL    HW1 6545   2.778   5.411   0.440
 1882SOL    HW2 6546   2.886   5.510   0.366
 1883SOL     OW 6547   2.401   2.686   2.396
 1883SOL    HW1 6548   2.375   2.738   2.314
 1883SOL    HW2 6549   2.357   2.726   2.476
 1884SOL     OW 6550   4.936   1.010   0.386
 1884SOL    HW1 6551   4.891   1.026   0.474
 1884SOL    HW2 6552   4.967   0.915   0.382
 1885SOL     OW 6553   0.036   1.892   0.467
 1885SOL    HW1 6554   0.043   1.973   0.409
 1885SOL    HW2 6555   0.126   1.872   0.506
 1886SOL     OW 6556   3.608   2.831   5.848
 1886SOL    HW1 6557   3.599   2.930   5.834
 1886SOL    HW2 6558   3.532   2.799   5.905
 1887SOL     OW 6559   0.765   6.147   4.871
 1887SOL    HW1 6560   0.791   6.244   4.873
 1887SOL    HW2 6561   0.680   6.135   4.921
 1888SOL     OW 6562   1.813   2.299   5.881
 1888SOL    HW1 6563   1.901   2.304   5.834
 1888SOL    HW2 6564   1.788   2.389   5.914
 1889SOL     OW 6565   2.807   3.409   0.445
 1889SOL    HW1 6566   2.791   3.312   0.428
 1889SOL    HW2 6567   2.818   3.457   0.358
 1890SOL     OW 6568   6.255   5.749   6.678
 1890SOL    HW1 6569   6.293   5.757   6.770
 1890SOL    HW2 6570   6.319   5.701   6.619
 1891SOL     OW 6571   5.457   3.521   6.719
 1891SOL    HW1 6572   5.516   3.601   6.734
 1891SOL    HW2 6573   5.372   3.532   6.770
 1892SOL     OW 6574   4.157   7.015   2.394
 1892SOL    HW1 6575   4.237   6.956   2.382
 1892SOL    HW2 6576   4.099   6.979   2.466
 1893SOL     OW 6577   2.736   1.166   5.899
 1893SOL    HW1 6578   2.796   1.194   5.974
 1893SOL    HW2 6579   2.653   1.222   5.900
 1894SOL     OW 6580   4.929   3.821   1.528
 1894SOL    HW1 6581   4.872   3.761   1.584
 1894SOL    HW2 6582   4.877   3.903   1.504
 1895SOL     OW 6583   4.310   6.138   3.469
 1895SOL    HW1 6584   4.269   6.141   3.378
 1895SOL    HW2 6585   4.255   6.080   3.529
 1896SOL     OW 6586   5.930   1.944   5.332
 1896SOL    HW1 6587   5.982   1.858   5.330
 1896SOL    HW2 6588   5.965   2.003   5.405
 1897SOL     OW 6589   5.973   4.848   3.290
 1897SOL    HW1 6590   5.951   4.940   3.323
 1897SOL    HW2 6591   6.045   4.854   3.220
 1898SOL     OW 6592   6.179   6.546   6.931
 1898SOL    HW1 6593   6.197   6.617   6.862
 1898SOL    HW2 6594   6.080   6.538   6.944
 1899SOL     OW 6595   1.681   2.362   3.424
 1899SOL    HW1 6596   1.737   2.371   3.341
 1899SOL    HW2 6597   1.732   2.309   3.492
 1900SOL     OW 6598   2.643   6.172   1.732
 1900SOL    HW1 6599   2.664   6.268   1.719
 1900SOL    HW2 6600   2.626   6.129   1.644
 1901SOL     OW 6601   1.248   0.582   5.922
 1901SOL    HW1 6602   1.151   0.602   5.939
 1901SOL    HW2 6603   1.274   0.620   5.833
 1902SOL     OW 6604   1.272   2.673   5.062
 1902SOL    HW1 6605   1.208   2.623   5.003
 1902SOL    HW2 6606   1.340   2.720   5.006
 1903SOL     OW 6607   6.762   4.704   3.802
 1903SOL    HW1 6608   6.761   4.762   3.720
 1903SOL    HW2 6609   6.849   4.655   3.807
 1904SOL     OW 6610   0.311   0.431   4.254
 1904SOL    HW1 6611   0.275   0.368   4.323
 1904SOL    HW2 6612   0.411   0.427   4.254
 1905SOL     OW 6613   6.314   2.881   4.428
 1905SOL    HW1 6614   6.294   2.915   4.520
 1905SOL    HW2 6615   6.230   2.848   4.385
 1906SOL     OW 6616   3.067   6.211   6.151
 1906SOL    HW1 6617   3.101   6.188   6.242
 1906SOL    HW2 6618   3.002   6.287   6.159
 1907SOL     OW 6619   4.548   6.140   3.828
 1907SOL    HW1 6620   4.645   6.144   3.807
 1907SOL    HW2 6621   4.502   6.220   3.789
 1908SOL     OW 6622   5.347   6.281   0.599
 1908SOL    HW1 6623   5.350   6.262   0.697
 1908SOL    HW2 6624   5.429   6.330   0.572
 1909SOL     OW 6625   4.615   5.499   3.804
 1909SOL    HW1 6626   4.527   5.537   3.777
 1909SOL    HW2 6627   4.664   5.565   3.861
 1910SOL     OW 6628   4.993   3.494   5.196
 1910SOL    HW1 6629   4.924   3.562   5.172
 1910SOL    HW2 6630   5.051   3.475   5.117
 1911SOL     OW 6631   0.096   3.496   5.657
 1911SOL    HW1 6632   0.143   3.511   5.570
 1911SOL    HW2 6633   0.097   3.580   5.711
 1912SOL     OW 6634   2.843   5.648   3.154
 1912SOL    HW1 6635   2.881   5.618   3.067
 1912SOL    HW2 6636   2.787   5.574   3.193
 1913SOL     OW 6637   1.384   4.462   5.230
 1913SOL    HW1 6638   1.389   4.451   5.131
 1913SOL    HW2 6639   1.445   4.397   5.275
 1914SOL     OW 6640   4.483   1.219   5.382
 1914SOL    HW1 6641   4.426   1.160   5.439
 1914SOL    HW2 6642   4.444   1.311   5.380
 1915SOL     OW 6643   2.843   0.411   5.191
 1915SOL    HW1 6644   2.892   0.497   5.202
 1915SOL    HW2 6645   2.809   0.380   5.280
 1916SOL     OW 6646   4.069   5.985   2.946
 1916SOL    HW1 6647   4.158   6.019   2.976
 1916SOL    HW2 6648   4.081   5.923   2.869
 1917SOL     OW 6649   3.473   3.711   4.386
 1917SOL    HW1 6650   3.451   3.711   4.483
 1917SOL    HW2 6651   3.402   3.760   4.335
 1918SOL     OW 6652   6.549   6.874   5.445
 1918SOL    HW1 6653   6.459   6.840   5.417
 1918SOL    HW2 6654   6.608   6.797   5.468
 1919SOL     OW 6655   6.542   0.182   2.632
 1919SOL    HW1 6656   6.448   0.169   2.664
 1919SOL    HW2 6657   6.600   0.206   2.709
 1920SOL     OW 6658   6.551   6.102   5.049
 1920SOL    HW1 6659   6.500   6.121   5.133
 1920SOL    HW2 6660   6.508   6.149   4.972
 1921SOL     OW 6661   1.677   0.005   6.890
 1921SOL    HW1 6662   1.691   6.926   6.879
 1921SOL    HW2 6663   1.634   0.023   6.978
 1922SOL     OW 6664   4.172   4.033   0.703
 1922SOL    HW1 6665   4.202   4.104   0.640
 1922SOL    HW2 6666   4.194   4.061   0.797
 1923SOL     OW 6667   1.721   2.828   0.250
 1923SOL    HW1 6668   1.631   2.863   0.224
 1923SOL    HW2 6669   1.792   2.879   0.202
 1924SOL     OW 6670   0.506   4.385   1.250
 1924SOL    HW1 6671   0.466   4.476   1.248
 1924SOL    HW2 6672   0.464   4.331   1.322
 1925SOL     OW 6673   3.661   4.419   0.232
 1925SOL    HW1 6674   3.681   4.384   0.141
 1925SOL    HW2 6675   3.646   4.518   0.227
 1926SOL     OW 6676   0.455   0.375   3.798
 1926SOL    HW1 6677   0.376   0.371   3.737
 1926SOL    HW2 6678   0.531   0.323   3.757
 1927SOL     OW 6679   4.502   3.452   0.708
 1927SOL    HW1 6680   4.422   3.451   0.769
 1927SOL    HW2 6681   4.534   3.358   0.695
 1928SOL     OW 6682   0.263   5.622   5.126
 1928SOL    HW1 6683   0.257   5.530   5.165
 1928SOL    HW2 6684   0.181   5.639   5.071
 1929SOL     OW 6685   1.563   5.540   3.426
 1929SOL    HW1 6686   1.541   5.629   3.385
 1929SOL    HW2 6687   1.590   5.554   3.522
 1930SOL     OW 6688   6.970   4.938   6.786
 1930SOL    HW1 6689   6.896   4.917   6.850
 1930SOL    HW2 6690   6.975   5.037   6.773
 1931SOL     OW 6691   0.430   1.899   5.138
 1931SOL    HW1 6692   0.390   1.991   5.139
 1931SOL    HW2 6693   0.516   1.901   5.086
 1932SOL     OW 6694   5.981   2.813   2.642
 1932SOL    HW1 6695   6.024   2.840   2.556
 1932SOL    HW2 6696   6.016   2.872   2.716
 1933SOL     OW 6697   2.252   5.174   0.537
 1933SOL    HW1 6698   2.295   5.109   0.600
 1933SOL    HW2 6699   2.153   5.159   0.535
 1934SOL     OW 6700   6.777   6.376   3.982
 1934SOL    HW1 6701   6.741   6.369   4.075
 1934SOL    HW2 6702   6.701   6.380   3.918
 1935SOL     OW 6703   2.306   0.777   3.319
 1935SOL    HW1 6704   2.292   0.706   3.388
 1935SOL    HW2 6705   2.221   0.829   3.308
 1936SOL     OW 6706   6.775   6.418   5.352
 1936SOL    HW1 6707   6.704   6.349   5.363
 1936SOL    HW2 6708   6.847   6.404   5.420
 1937SOL     OW 6709   3.992   0.934   2.740
 1937SOL    HW1 6710   3.919   0.943   2.672
 1937SOL    HW2 6711   3.994   0.840   2.774
 1938SOL     OW 6712   5.078   1.159   4.366
 1938SOL    HW1 6713   5.003   1.205   4.411
 1938SOL    HW2 6714   5.164   1.185   4.409
 1939SOL     OW 6715   2.766   0.797   3.984
 1939SOL    HW1 6716   2.795   0.831   3.895
 1939SOL    HW2 6717   2.812   0.711   4.004
 1940SOL     OW 6718   6.345   4.913   6.334
 1940SOL    HW1 6719   6.376   4.927   6.428
 1940SOL    HW2 6720   6.268   4.848   6.334
 1941SOL     OW 6721   5.349   5.116   2.771
 1941SOL    HW1 6722   5.359   5.152   2.864
 1941SOL    HW2 6723   5.306   5.026   2.774
 1942SOL     OW 6724   6.981   4.404   3.432
 1942SOL    HW1 6725   6.996   4.488   3.381
 1942SOL    HW2 6726   0.028   4.335   3.403
 1943SOL     OW 6727   3.071   5.577   2.672
 1943SOL    HW1 6728   3.121   5.505   2.624
 1943SOL    HW2 6729   3.129   5.658   2.680
 1944SOL     OW 6730   6.757   0.035   1.879
 1944SOL    HW1 6731   6.856   0.048   1.885
 1944SOL    HW2 6732   6.737   6.975   1.821
 1945SOL     OW 6733   3.226   4.976   3.897
 1945SOL    HW1 6734   3.278   4.949   3.978
 1945SOL    HW2 6735   3.289   5.014   3.829
 1946SOL     OW 6736   1.772   6.349   6.992
 1946SOL    HW1 6737   1.700   6.388   0.030
 1946SOL    HW2 6738   1.784   6.252   7.014
 1947SOL     OW 6739   5.352   0.086   3.756
 1947SOL    HW1 6740   5.260   0.125   3.750
 1947SOL    HW2 6741   5.366   0.023   3.680
 1948SOL     OW 6742   6.837   4.014   5.242
 1948SOL    HW1 6743   6.888   3.935   5.208
 1948SOL    HW2 6744   6.751   4.023   5.193
 1949SOL     OW 6745   4.841   3.989   6.453
 1949SOL    HW1 6746   4.904   4.012   6.379
 1949SOL    HW2 6747   4.880   3.916   6.509
 1950SOL     OW 6748   3.067   5.080   1.128
 1950SOL    HW1 6749   3.056   4.990   1.171
 1950SOL    HW2 6750   3.065   5.071   1.029
 1951SOL     OW 6751   6.504   3.193   0.376
 1951SOL    HW1 6752   6.514   3.194   0.475
 1951SOL    HW2 6753   6.489   3.099   0.345
 1952SOL     OW 6754   3.615   2.871   5.179
 1952SOL    HW1 6755   3.641   2.847   5.085
 1952SOL    HW2 6756   3.557   2.798   5.216
 1953SOL     OW 6757   0.086   2.534   4.767
 1953SOL    HW1 6758   0.009   2.527   4.830
 1953SOL    HW2 6759   0.111   2.443   4.735
 1954SOL     OW 6760   2.374   2.315   3.427
 1954SOL    HW1 6761   2.320   2.232   3.443
 1954SOL    HW2 6762   2.315   2.395   3.436
 1955SOL     OW 6763   5.997   5.533   1.800
 1955SOL    HW1 6764   5.978   5.590   1.720
 1955SOL    HW2 6765   5.955   5.573   1.881
 1956SOL     OW 6766   5.600   6.346   2.152
 1956SOL    HW1 6767   5.517   6.324   2.203
 1956SOL    HW2 6768   5.675   6.286   2.182
 1957SOL     OW 6769   0.944   6.779   5.606
 1957SOL    HW1 6770   0.922   6.838   5.528
 1957SOL    HW2 6771   1.014   6.823   5.662
 1958SOL     OW 6772   4.519   3.235   5.724
 1958SOL    HW1 6773   4.517   3.146   5.770
 1958SOL    HW2 6774   4.549   3.223   5.629
 1959SOL     OW 6775   2.280   2.102   0.333
 1959SOL    HW1 6776   2.216   2.172   0.302
 1959SOL    HW2 6777   2.264   2.017   0.283
 1960SOL     OW 6778   5.518   6.350   2.821
 1960SOL    HW1 6779   5.512   6.257   2.858
 1960SOL    HW2 6780   5.597   6.397   2.860
 1961SOL     OW 6781   6.158   4.970   5.577
 1961SOL    HW1 6782   6.239   4.943   5.629
 1961SOL    HW2 6783   6.172   4.951   5.480
 1962SOL     OW 6784   6.771   6.924   3.623
 1962SOL    HW1 6785   6.720   6.978   3.691
 1962SOL    HW2 6786   6.709   6.893   3.552
 1963SOL     OW 6787   2.736   0.196   3.104
 1963SOL    HW1 6788   2.657   0.172   3.048
 1963SOL    HW2 6789   2.742   0.295   3.112
 1964SOL     OW 6790   5.622   4.390   2.268
 1964SOL    HW1 6791   5.718   4.402   2.291
 1964SOL    HW2 6792   5.614   4.328   2.190
 1965SOL     OW 6793   2.365   5.619   3.877
 1965SOL    HW1 6794   2.443   5.571   3.837
 1965SOL    HW2 6795   2.284   5.604   3.819
 1966SOL     OW 6796   6.045   6.218   6.606
 1966SOL    HW1 6797   6.012   6.171   6.525
 1966SOL    HW2 6798   6.051   6.317   6.588
 1967SOL     OW 6799   4.977   3.334   4.666
 1967SOL    HW1 6800   4.996   3.426   4.699
 1967SOL    HW2 6801   4.958   3.274   4.744
 1968SOL     OW 6802   3.757   5.534   5.224
 1968SOL    HW1 6803   3.851   5.524   5.192
 1968SOL    HW2 6804   3.753   5.601   5.298
 1969SOL     OW 6805   0.051   2.026   1.311
 1969SOL    HW1 6806   0.057   1.929   1.335
 1969SOL    HW2 6807   6.975   2.050   1.292
 1970SOL     OW 6808   1.862   6.837   3.670
 1970SOL    HW1 6809   1.852   6.737   3.663
 1970SOL    HW2 6810   1.842   6.866   3.764
 1971SOL     OW 6811   0.277   1.024   6.422
 1971SOL    HW1 6812   0.300   1.070   6.336
 1971SOL    HW2 6813   0.345   0.954   6.443
 1972SOL     OW 6814   1.668   5.982   3.911
 1972SOL    HW1 6815   1.753   6.029   3.934
 1972SOL    HW2 6816   1.612   6.040   3.852
 1973SOL     OW 6817   2.255   2.831   6.721
 1973SOL    HW1 6818   2.200   2.866   6.797
 1973SOL    HW2 6819   2.336   2.888   6.709
 1974SOL     OW 6820   5.636   6.634   4.526
 1974SOL    HW1 6821   5.606   6.571   4.597
 1974SOL    HW2 6822   5.656   6.723   4.566
 1975SOL     OW 6823   2.936   0.428   3.592
 1975SOL    HW1 6824   2.923   0.500   3.523
 1975SOL    HW2 6825   2.959   0.470   3.680
 1976SOL     OW 6826   6.858   4.449   0.021
 1976SOL    HW1 6827   6.943   4.397   0.011
 1976SOL    HW2 6828   6.799   4.404   0.087
 1977SOL     OW 6829   2.919   2.138   5.295
 1977SOL    HW1 6830   3.001   2.193   5.311
 1977SOL    HW2 6831   2.931   2.083   5.212
 1978SOL     OW 6832   0.028   1.909   4.969
 1978SOL    HW1 6833   0.012   1.982   4.902
 1978SOL    HW2 6834   6.985   1.833   4.950
 1979SOL     OW 6835   5.744   4.575   3.207
 1979SOL    HW1 6836   5.836   4.548   3.236
 1979SOL    HW2 6837   5.747   4.610   3.114
 1980SOL     OW 6838   3.429   0.945   1.242
 1980SOL    HW1 6839   3.396   0.856   1.275
 1980SOL    HW2 6840   3.396   0.961   1.149
 1981SOL     OW 6841   4.924   3.411   1.651
 1981SOL    HW1 6842   4.883   3.429   1.740
 1981SOL    HW2 6843   4.909   3.315   1.626
 1982SOL     OW 6844   5.928   6.959   5.439
 1982SOL    HW1 6845   5.859   0.010   5.457
 1982SOL    HW2 6846   5.958   6.964   5.344
 1983SOL     OW 6847   0.664   4.519   2.403
 1983SOL    HW1 6848   0.696   4.599   2.453
 1983SOL    HW2 6849   0.710   4.515   2.314
 1984SOL     OW 6850   4.321   1.040   5.542
 1984SOL    HW1 6851   4.294   1.037   5.638
 1984SOL    HW2 6852   4.353   0.949   5.514
 1985SOL     OW 6853   1.877   6.495   1.319
 1985SOL    HW1 6854   1.976   6.496   1.335
 1985SOL    HW2 6855   1.857   6.431   1.244
 1986SOL     OW 6856   0.183   2.088   6.928
 1986SOL    HW1 6857   0.282   2.081   6.932
 1986SOL    HW2 6858   0.156   2.133   6.842
 1987SOL     OW 6859   2.933   4.395   0.371
 1987SOL    HW1 6860   2.921   4.303   0.410
 1987SOL    HW2 6861   2.974   4.455   0.439
 1988SOL     OW 6862   4.722   3.340   0.492
 1988SOL    HW1 6863   4.654   3.281   0.534
 1988SOL    HW2 6864   4.735   3.422   0.548
 1989SOL     OW 6865   2.621   1.232   4.003
 1989SOL    HW1 6866   2.641   1.320   4.046
 1989SOL    HW2 6867   2.670   1.226   3.916
 1990SOL     OW 6868   2.225   1.426   2.886
 1990SOL    HW1 6869   2.320   1.396   2.873
 1990SOL    HW2 6870   2.193   1.471   2.802
 1991SOL     OW 6871   4.972   5.428   3.587
 1991SOL    HW1 6872   4.949   5.470   3.675
 1991SOL    HW2 6873   5.018   5.495   3.529
 1992SOL     OW 6874   2.191   6.633   5.267
 1992SOL    HW1 6875   2.134   6.557   5.235
 1992SOL    HW2 6876   2.140   6.684   5.336
 1993SOL     OW 6877   3.476   3.215   4.171
 1993SOL    HW1 6878   3.537   3.200   4.249
 1993SOL    HW2 6879   3.508   3.162   4.092
 1994SOL     OW 6880   6.025   2.560   2.021
 1994SOL    HW1 6881   6.073   2.536   2.106
 1994SOL    HW2 6882   5.928   2.575   2.040
 1995SOL     OW 6883   4.316   2.645   1.419
 1995SOL    HW1 6884   4.250   2.650   1.494
 1995SOL    HW2 6885   4.401   2.606   1.453
 1996SOL     OW 6886   2.864   3.950   5.415
 1996SOL    HW1 6887   2.864   3.927   5.512
 1996SOL    HW2 6888   2.808   3.884   5.365
 1997SOL     OW 6889   5.890   0.300   4.207
 1997SOL    HW1 6890   5.835   0.240   4.149
 1997SOL    HW2 6891   5.964   0.340   4.153
 1998SOL     OW 6892   3.363   5.044   4.970
 1998SOL    HW1 6893   3.318   4.970   5.020
 1998SOL    HW2 6894   3.316   5.131   4.989
 1999SOL     OW 6895   2.261   0.654   1.836
 1999SOL    HW1 6896   2.242   0.611   1.747
 1999SOL    HW2 6897   2.209   0.606   1.907
 2000SOL     OW 6898   3.553   1.595   4.596
 2000SOL    HW1 6899   3.643   1.593   4.554
 2000SOL    HW2 6900   3.487   1.552   4.535
 2001SOL     OW 6901   2.544   3.556   0.068
 2001SOL    HW1 6902   2.554   3.459   0.047
 2001SOL    HW2 6903   2.613   3.583   0.135
 2002SOL     OW 6904   1.407   5.497   4.806
 2002SOL    HW1 6905   1.381   5.426   4.740
 2002SOL    HW2 6906   1.338   5.570   4.803
 2003SOL     OW 6907   6.384   4.764   3.294
 2003SOL    HW1 6908   6.413   4.860   3.291
 2003SOL    HW2 6909   6.462   4.706   3.269
 2004SOL     OW 6910   3.301   0.380   6.453
 2004SOL    HW1 6911   3.232   0.308   6.465
 2004SOL    HW2 6912   3.332   0.381   6.358
 2005SOL     OW 6913   2.875   6.636   5.108
 2005SOL    HW1 6914   2.938   6.708   5.138
 2005SOL    HW2 6915   2.906   6.548   5.144
 2006SOL     OW 6916   4.661   5.773   3.549
 2006SOL    HW1 6917   4.648   5.871   3.566
 2006SOL    HW2 6918   4.584   5.722   3.587
 2007SOL     OW 6919   6.539   5.408   6.939
 2007SOL    HW1 6920   6.528   5.405   0.019
 2007SOL    HW2 6921   6.501   5.493   6.904
 2008SOL     OW 6922   6.760   6.486   4.420
 2008SOL    HW1 6923   6.768   6.469   4.518
 2008SOL    HW2 6924   6.850   6.479   4.377
 2009SOL     OW 6925   0.701   0.301   0.537
 2009SOL    HW1 6926   0.738   0.322   0.447
 2009SOL    HW2 6927   0.712   0.381   0.597
 2010SOL     OW 6928   1.142   0.042   1.109
 2010SOL    HW1 6929   1.061   0.010   1.061
 2010SOL    HW2 6930   1.198   6.983   1.135
 2011SOL     OW 6931   6.836   2.217   4.634
 2011SOL    HW1 6932   6.742   2.251   4.643
 2011SOL    HW2 6933   6.886   2.273   4.569
 2012SOL     OW 6934   0.133   3.460   0.649
 2012SOL    HW1 6935   0.140   3.438   0.552
 2012SOL    HW2 6936   0.214   3.512   0.677
 2013SOL     OW 6937   4.754   1.083   2.396
 2013SOL    HW1 6938   4.722   0.992   2.371
 2013SOL    HW2 6939   4.708   1.151   2.340
 2014SOL     OW 6940   2.546   5.370   3.437
 2014SOL    HW1 6941   2.554   5.273   3.458
 2014SOL    HW2 6942   2.596   5.391   3.353
 2015SOL     OW 6943   3.378   6.492   0.264
 2015SOL    HW1 6944   3.324   6.430   0.207
 2015SOL    HW2 6945   3.421   6.561   0.206
 2016SOL     OW 6946   6.116   4.994   3.553
 2016SOL    HW1 6947   6.051   5.015   3.480
 2016SOL    HW2 6948   6.206   5.031   3.529
 2017SOL     OW 6949   2.060   5.022   2.046
 2017SOL    HW1 6950   1.968   5.038   2.012
 2017SOL    HW2 6951   2.113   4.972   1.978
 2018SOL     OW 6952   0.384   4.202   6.578
 2018SOL    HW1 6953   0.344   4.123   6.533
 2018SOL    HW2 6954   0.405   4.272   6.510
 2019SOL     OW 6955   5.461   1.450   3.013
 2019SOL    HW1 6956   5.386   1.487   3.068
 2019SOL    HW2 6957   5.548   1.487   3.046
 2020SOL     OW 6958   1.324   5.610   3.163
 2020SOL    HW1 6959   1.318   5.660   3.249
 2020SOL    HW2 6960   1.391   5.536   3.172
 2021SOL     OW 6961   1.519   6.618   1.466
 2021SOL    HW1 6962   1.616   6.637   1.477
 2021SOL    HW2 6963   1.496   6.619   1.368
 2022SOL     OW 6964   2.846   4.552   1.240
 2022SOL    HW1 6965   2.924   4.529   1.181
 2022SOL    HW2 6966   2.765   4.567   1.183
 2023SOL     OW 6967   6.306   1.473   6.393
 2023SOL    HW1 6968   6.327   1.535   6.468
 2023SOL    HW2 6969   6.341   1.511   6.307
 2024SOL     OW 6970   6.071   0.416   2.737
 2024SOL    HW1 6971   6.134   0.493   2.744
 2024SOL    HW2 6972   6.072   0.364   2.823
 2025SOL     OW 6973   6.744   0.832   0.607
 2025SOL    HW1 6974   6.789   0.920   0.593
 2025SOL    HW2 6975   6.784   0.765   0.544
 2026SOL     OW 6976   1.336   1.937   5.689
 2026SOL    HW1 6977   1.343   1.940   5.789
 2026SOL    HW2 6978   1.294   2.021   5.657
 2027SOL     OW 6979   0.562   1.564   2.430
 2027SOL    HW1 6980   0.642   1.556   2.490
 2027SOL    HW2 6981   0.482   1.526   2.477
 2028SOL     OW 6982   3.477   3.944   5.873
 2028SOL    HW1 6983   3.401   3.932   5.809
 2028SOL    HW2 6984   3.564   3.933   5.824
 2029SOL     OW 6985   1.736   0.493   0.480
 2029SOL    HW1 6986   1.813   0.557   0.480
 2029SOL    HW2 6987   1.685   0.503   0.395
 2030SOL     OW 6988   1.257   1.470   2.915
 2030SOL    HW1 6989   1.320   1.512   2.981
 2030SOL    HW2 6990   1.180   1.533   2.899
 2031SOL     OW 6991   4.786   0.136   2.918
 2031SOL    HW1 6992   4.874   0.096   2.893
 2031SOL    HW2 6993   4.771   0.127   3.016
 2032SOL     OW 6994   5.499   6.540   1.463
 2032SOL    HW1 6995   5.479   6.514   1.368
 2032SOL    HW2 6996   5.488   6.638   1.474
 2033SOL     OW 6997   0.010   5.297   6.430
 2033SOL    HW1 6998   0.006   5.354   6.349
 2033SOL    HW2 6999   6.974   5.338   6.503
 2034SOL     OW 7000   2.745   0.040   3.334
 2034SOL    HW1 7001   2.731   0.098   3.254
 2034SOL    HW2 7002   2.837   0.055   3.371
 2035SOL     OW 7003   1.226   2.863   1.380
 2035SOL    HW1 7004   1.277   2.886   1.463
 2035SOL    HW2 7005   1.128   2.860   1.401
 2036SOL     OW 7006   0.989   4.287   0.557
 2036SOL    HW1 7007   0.920   4.298   0.485
 2036SOL    HW2 7008   0.959   4.215   0.621
 2037SOL     OW 7009   6.972   1.210   6.207
 2037SOL    HW1 7010   6.989   1.139   6.275
 2037SOL    HW2 7011   0.000   1.187   6.122
 2038SOL     OW 7012   0.700   0.266   5.071
 2038SOL    HW1 7013   0.683   0.359   5.102
 2038SOL    HW2 7014   0.787   0.234   5.108
 2039SOL     OW 7015   1.536   5.100   1.879
 2039SOL    HW1 7016   1.581   5.117   1.791
 2039SOL    HW2 7017   1.566   5.012   1.916
 2040SOL     OW 7018   3.196   3.567   4.255
 2040SOL    HW1 7019   3.230   3.490   4.202
 2040SOL    HW2 7020   3.231   3.652   4.215
 2041SOL     OW 7021   6.592   3.773   6.591
 2041SOL    HW1 7022   6.520   3.772   6.660
 2041SOL    HW2 7023   6.598   3.864   6.550
 2042SOL     OW 7024   3.386   5.251   0.323
 2042SOL    HW1 7025   3.311   5.303   0.364
 2042SOL    HW2 7026   3.404   5.286   0.231
 2043SOL     OW 7027   4.419   4.490   2.541
 2043SOL    HW1 7028   4.446   4.544   2.462
 2043SOL    HW2 7029   4.491   4.425   2.563
 2044SOL     OW 7030   6.426   0.450   1.928
 2044SOL    HW1 7031   6.519   0.423   1.903
 2044SOL    HW2 7032   6.423   0.472   2.026
 2045SOL     OW 7033   2.026   5.277   6.130
 2045SOL    HW1 7034   1.972   5.360   6.115
 2045SOL    HW2 7035   2.121   5.302   6.146
 2046SOL     OW 7036   6.116   0.449   4.522
 2046SOL    HW1 7037   6.018   0.429   4.531
 2046SOL    HW2 7038   6.159   0.447   4.613
 2047SOL     OW 7039   5.500   2.643   0.080
 2047SOL    HW1 7040   5.472   2.569   0.019
 2047SOL    HW2 7041   5.496   2.730   0.032
 2048SOL     OW 7042   3.900   6.835   5.566
 2048SOL    HW1 7043   3.975   6.830   5.500
 2048SOL    HW2 7044   3.849   6.920   5.552
 2049SOL     OW 7045   4.687   6.225   0.375
 2049SOL    HW1 7046   4.621   6.222   0.450
 2049SOL    HW2 7047   4.695   6.134   0.334
 2050SOL     OW 7048   5.389   1.211   4.276
 2050SOL    HW1 7049   5.306   1.247   4.233
 2050SOL    HW2 7050   5.444   1.287   4.310
 2051SOL     OW 7051   2.408   5.397   0.566
 2051SOL    HW1 7052   2.373   5.427   0.655
 2051SOL    HW2 7053   2.352   5.322   0.531
 2052SOL     OW 7054   1.359   2.758   0.626
 2052SOL    HW1 7055   1.321   2.832   0.681
 2052SOL    HW2 7056   1.459   2.762   0.628
 2053SOL     OW 7057   5.159   0.761   0.580
 2053SOL    HW1 7058   5.155   0.858   0.606
 2053SOL    HW2 7059   5.106   0.747   0.497
 2054SOL     OW 7060   6.666   3.406   1.711
 2054SOL    HW1 7061   6.606   3.379   1.635
 2054SOL    HW2 7062   6.693   3.324   1.762
 2055SOL     OW 7063   6.268   1.925   4.063
 2055SOL    HW1 7064   6.361   1.892   4.078
 2055SOL    HW2 7065   6.204   1.872   4.119
 2056SOL     OW 7066   1.225   0.471   2.660
 2056SOL    HW1 7067   1.295   0.452   2.591
 2056SOL    HW2 7068   1.252   0.430   2.747
 2057SOL     OW 7069   6.762   2.570   4.103
 2057SOL    HW1 7070   6.797   2.478   4.118
 2057SOL    HW2 7071   6.701   2.595   4.178
 2058SOL     OW 7072   0.187   2.129   1.564
 2058SOL    HW1 7073   0.153   2.105   1.474
 2058SOL    HW2 7074   0.208   2.227   1.567
 2059SOL     OW 7075   1.521   1.117   6.616
 2059SOL    HW1 7076   1.531   1.047   6.545
 2059SOL    HW2 7077   1.426   1.148   6.620
 2060SOL     OW 7078   0.687   5.109   2.053
 2060SOL    HW1 7079   0.663   5.194   2.100
 2060SOL    HW2 7080   0.620   5.092   1.980
 2061SOL     OW 7081   0.478   1.577   1.112
 2061SOL    HW1 7082   0.378   1.579   1.114
 2061SOL    HW2 7083   0.514   1.659   1.157
 2062SOL     OW 7084   4.524   0.294   3.095
 2062SOL    HW1 7085   4.587   0.217   3.098
 2062SOL    HW2 7086   4.430   0.260   3.088
 2063SOL     OW 7087   2.874   1.988   0.678
 2063SOL    HW1 7088   2.889   1.907   0.735
 2063SOL    HW2 7089   2.963   2.027   0.652
 2064SOL     OW 7090   0.787   2.577   0.598
 2064SOL    HW1 7091   0.719   2.525   0.651
 2064SOL    HW2 7092   0.740   2.644   0.541
 2065SOL     OW 7093   5.896   3.002   2.105
 2065SOL    HW1 7094   5.832   2.943   2.154
 2065SOL    HW2 7095   5.970   3.030   2.166
 2066SOL     OW 7096   2.213   6.674   3.290
 2066SOL    HW1 7097   2.254   6.748   3.343
 2066SOL    HW2 7098   2.265   6.660   3.206
 2067SOL     OW 7099   0.258   6.697   1.178
 2067SOL    HW1 7100   0.298   6.659   1.094
 2067SOL    HW2 7101   0.297   6.787   1.195
 2068SOL     OW 7102   1.932   1.084   5.304
 2068SOL    HW1 7103   1.927   1.182   5.323
 2068SOL    HW2 7104   1.915   1.033   5.388
 2069SOL     OW 7105   0.580   1.709   1.609
 2069SOL    HW1 7106   0.677   1.696   1.625
 2069SOL    HW2 7107   0.531   1.704   1.696
 2070SOL     OW 7108   0.925   1.325   3.191
 2070SOL    HW1 7109   1.025   1.325   3.203
 2070SOL    HW2 7110   0.892   1.419   3.188
 2071SOL     OW 7111   1.642   6.338   4.895
 2071SOL    HW1 7112   1.720   6.277   4.899
 2071SOL    HW2 7113   1.563   6.294   4.939
 2072SOL     OW 7114   4.723   4.890   2.200
 2072SOL    HW1 7115   4.732   4.821   2.128
 2072SOL    HW2 7116   4.719   4.845   2.289
 2073SOL     OW 7117   3.423   6.680   5.390
 2073SOL    HW1 7118   3.418   6.761   5.332
 2073SOL    HW2 7119   3.330   6.653   5.417
 2074SOL     OW 7120   6.578   1.830   1.738
 2074SOL    HW1 7121   6.585   1.730   1.740
 2074SOL    HW2 7122   6.545   1.863   1.826
 2075SOL     OW 7123   4.019   3.591   5.954
 2075SOL    HW1 7124   3.976   3.614   6.042
 2075SOL    HW2 7125   4.028   3.491   5.947
 2076SOL     OW 7126   4.783   0.562   1.111
 2076SOL    HW1 7127   4.699   0.544   1.163
 2076SOL    HW2 7128   4.759   0.607   1.025
 2077SOL     OW 7129   5.213   1.887   3.115
 2077SOL    HW1 7130   5.125   1.845   3.139
 2077SOL    HW2 7131   5.257   1.833   3.043
 2078SOL     OW 7132   4.073   5.624   5.338
 2078SOL    HW1 7133   4.161   5.645   5.296
 2078SOL    HW2 7134   4.086   5.555   5.409
 2079SOL     OW 7135   5.835   1.418   3.496
 2079SOL    HW1 7136   5.743   1.395   3.529
 2079SOL    HW2 7137   5.903   1.388   3.563
 2080SOL     OW 7138   3.282   2.155   4.494
 2080SOL    HW1 7139   3.201   2.165   4.551
 2080SOL    HW2 7140   3.301   2.242   4.447
 2081SOL     OW 7141   0.551   6.413   5.085
 2081SOL    HW1 7142   0.488   6.491   5.089
 2081SOL    HW2 7143   0.634   6.435   5.135
 2082SOL     OW 7144   4.964   0.387   1.609
 2082SOL    HW1 7145   4.922   0.453   1.547
 2082SOL    HW2 7146   5.024   0.434   1.673
 2083SOL     OW 7147   3.281   5.094   5.632
 2083SOL    HW1 7148   3.260   5.137   5.545
 2083SOL    HW2 7149   3.227   5.010   5.643
 2084SOL     OW 7150   0.090   3.423   2.845
 2084SOL    HW1 7151   0.143   3.418   2.930
 2084SOL    HW2 7152   0.025   3.347   2.841
 2085SOL     OW 7153   5.815   6.389   6.511
 2085SOL    HW1 7154   5.870   6.311   6.480
 2085SOL    HW2 7155   5.758   6.360   6.588
 2086SOL     OW 7156   2.891   4.912   0.849
 2086SOL    HW1 7157   2.963   4.969   0.808
 2086SOL    HW2 7158   2.928   4.864   0.928
 2087SOL     OW 7159   5.801   6.145   3.773
 2087SOL    HW1 7160   5.829   6.140   3.677
 2087SOL    HW2 7161   5.843   6.225   3.815
 2088SOL     OW 7162   2.809   0.146   0.569
 2088SOL    HW1 7163   2.877   0.113   0.504
 2088SOL    HW2 7164   2.845   0.137   0.662
 2089SOL     OW 7165   2.867   0.545   6.513
 2089SOL    HW1 7166   2.778   0.501   6.525
 2089SOL    HW2 7167   2.921   0.535   6.596
 2090SOL     OW 7168   3.408   2.932   3.791
 2090SOL    HW1 7169   3.436   3.027   3.777
 2090SOL    HW2 7170   3.344   2.928   3.868
 2091SOL     OW 7171   2.203   4.771   0.262
 2091SOL    HW1 7172   2.183   4.704   0.333
 2091SOL    HW2 7173   2.120   4.790   0.210
 2092SOL     OW 7174   6.337   6.319   0.461
 2092SOL    HW1 7175   6.290   6.313   0.549
 2092SOL    HW2 7176   6.302   6.247   0.400
 2093SOL     OW 7177   1.546   2.391   1.680
 2093SOL    HW1 7178   1.479   2.351   1.618
 2093SOL    HW2 7179   1.575   2.481   1.645
 2094SOL     OW 7180   5.545   0.449   2.505
 2094SOL    HW1 7181   5.524   0.373   2.444
 2094SOL    HW2 7182   5.472   0.517   2.501
 2095SOL     OW 7183   6.978   4.852   5.064
 2095SOL    HW1 7184   6.976   4.792   4.984
 2095SOL    HW2 7185   6.890   4.848   5.111
 2096SOL     OW 7186   4.918   3.673   2.914
 2096SOL    HW1 7187   4.906   3.770   2.937
 2096SOL    HW2 7188   4.913   3.662   2.815
 2097SOL     OW 7189   6.634   3.080   6.924
 2097SOL    HW1 7190   6.551   3.136   6.929
 2097SOL    HW2 7191   6.701   3.124   6.864
 2098SOL     OW 7192   4.897   0.230   4.384
 2098SOL    HW1 7193   4.948   0.156   4.340
 2098SOL    HW2 7194   4.938   0.250   4.473
 2099SOL     OW 7195   2.698   1.502   4.126
 2099SOL    HW1 7196   2.705   1.549   4.038
 2099SOL    HW2 7197   2.656   1.563   4.193
 2100SOL     OW 7198   3.498   3.846   6.499
 2100SOL    HW1 7199   3.401   3.864   6.481
 2100SOL    HW2 7200   3.540   3.807   6.418
 2101SOL     OW 7201   6.712   0.559   3.368
 2101SOL    HW1 7202   6.769   0.608   3.302
 2101SOL    HW2 7203   6.629   0.525   3.323
 2102SOL     OW 7204   0.323   4.908   1.953
 2102SOL    HW1 7205   0.348   4.834   2.015
 2102SOL    HW2 7206   0.234   4.945   1.980
 2103SOL     OW 7207   2.751   3.867   6.944
 2103SOL    HW1 7208   2.742   3.803   0.001
 2103SOL    HW2 7209   2.841   3.856   6.901
 2104SOL     OW 7210   1.356   3.566   4.970
 2104SOL    HW1 7211   1.447   3.532   4.993
 2104SOL    HW2 7212   1.290   3.490   4.973
 2105SOL     OW 7213   5.961   5.911   1.643
 2105SOL    HW1 7214   5.970   5.898   1.742
 2105SOL    HW2 7215   5.917   5.999   1.625
 2106SOL     OW 7216   5.170   6.143   6.830
 2106SOL    HW1 7217   5.217   6.113   6.914
 2106SOL    HW2 7218   5.157   6.066   6.769
 2107SOL     OW 7219   3.636   4.306   6.688
 2107SOL    HW1 7220   3.551   4.355   6.707
 2107SOL    HW2 7221   3.615   4.228   6.629
 2108SOL     OW 7222   5.353   4.614   5.694
 2108SOL    HW1 7223   5.394   4.705   5.687
 2108SOL    HW2 7224   5.334   4.579   5.602
 2109SOL     OW 7225   5.454   6.647   2.528
 2109SOL    HW1 7226   5.512   6.566   2.535
 2109SOL    HW2 7227   5.401   6.657   2.612
 2110SOL     OW 7228   2.402   4.843   5.144
 2110SOL    HW1 7229   2.451   4.923   5.179
 2110SOL    HW2 7230   2.460   4.762   5.154
 2111SOL     OW 7231   1.267   2.642   6.615
 2111SOL    HW1 7232   1.178   2.598   6.625
 2111SOL    HW2 7233   1.277   2.680   6.523
 2112SOL     OW 7234   5.202   3.214   1.349
 2112SOL    HW1 7235   5.201   3.261   1.437
 2112SOL    HW2 7236   5.110   3.177   1.330
 2113SOL     OW 7237   0.166   1.108   2.936
 2113SOL    HW1 7238   0.236   1.154   2.990
 2113SOL    HW2 7239   0.136   1.169   2.862
 2114SOL     OW 7240   1.845   3.862   6.522
 2114SOL    HW1 7241   1.818   3.931   6.454
 2114SOL    HW2 7242   1.917   3.900   6.580
 2115SOL     OW 7243   2.689   4.995   1.925
 2115SOL    HW1 7244   2.697   5.093   1.906
 2115SOL    HW2 7245   2.725   4.975   2.016
 2116SOL     OW 7246   6.870   4.096   3.267
 2116SOL    HW1 7247   6.817   4.018   3.299
 2116SOL    HW2 7248   6.958   4.063   3.230
 2117SOL     OW 7249   6.675   5.042   0.577
 2117SOL    HW1 7250   6.678   5.113   0.507
 2117SOL    HW2 7251   6.768   5.018   0.604
 2118SOL     OW 7252   6.934   3.986   2.146
 2118SOL    HW1 7253   6.961   3.919   2.076
 2118SOL    HW2 7254   6.906   4.071   2.101
 2119SOL     OW 7255   3.210   5.771   1.169
 2119SOL    HW1 7256   3.292   5.826   1.153
 2119SOL    HW2 7257   3.230   5.701   1.237
 2120SOL     OW 7258   0.427   5.541   2.215
 2120SOL    HW1 7259   0.455   5.633   2.241
 2120SOL    HW2 7260   0.478   5.511   2.135
 2121SOL     OW 7261   0.651   4.083   4.877
 2121SOL    HW1 7262   0.722   4.021   4.843
 2121SOL    HW2 7263   0.561   4.049   4.849
 2122SOL     OW 7264   4.401   4.385   5.362
 2122SOL    HW1 7265   4.498   4.378   5.339
 2122SOL    HW2 7266   4.347   4.378   5.278
 2123SOL     OW 7267   4.986   4.533   3.463
 2123SOL    HW1 7268   4.949   4.447   3.498
 2123SOL    HW2 7269   4.940   4.556   3.377
 2124SOL     OW 7270   2.451   1.137   1.217
 2124SOL    HW1 7271   2.509   1.177   1.288
 2124SOL    HW2 7272   2.387   1.073   1.258
 2125SOL     OW 7273   2.483   0.121   1.365
 2125SOL    HW1 7274   2.576   0.142   1.395
 2125SOL    HW2 7275   2.476   0.136   1.266
 2126SOL     OW 7276   2.766   0.761   2.095
 2126SOL    HW1 7277   2.848   0.720   2.053
 2126SOL    HW2 7278   2.766   0.742   2.193
 2127SOL     OW 7279   5.743   3.195   4.983
 2127SOL    HW1 7280   5.714   3.156   4.895
 2127SOL    HW2 7281   5.688   3.156   5.057
 2128SOL     OW 7282   0.699   4.862   4.274
 2128SOL    HW1 7283   0.751   4.946   4.287
 2128SOL    HW2 7284   0.720   4.822   4.185
 2129SOL     OW 7285   3.928   2.229   5.781
 2129SOL    HW1 7286   3.972   2.235   5.691
 2129SOL    HW2 7287   3.831   2.210   5.770
 2130SOL     OW 7288   3.995   6.376   3.622
 2130SOL    HW1 7289   3.987   6.470   3.654
 2130SOL    HW2 7290   4.067   6.330   3.672
 2131SOL     OW 7291   5.462   2.232   6.730
 2131SOL    HW1 7292   5.366   2.231   6.702
 2131SOL    HW2 7293   5.488   2.142   6.765
 2132SOL     OW 7294   2.384   2.996   0.306
 2132SOL    HW1 7295   2.328   2.913   0.310
 2132SOL    HW2 7296   2.373   3.047   0.391
 2133SOL     OW 7297   3.021   3.489   5.865
 2133SOL    HW1 7298   3.072   3.535   5.937
 2133SOL    HW2 7299   2.923   3.500   5.881
 2134SOL     OW 7300   0.991   6.793   1.303
 2134SOL    HW1 7301   0.939   6.876   1.323
 2134SOL    HW2 7302   1.070   6.788   1.364
 2135SOL     OW 7303   6.493   4.348   4.434
 2135SOL    HW1 7304   6.499   4.444   4.408
 2135SOL    HW2 7305   6.583   4.316   4.465
 2136SOL     OW 7306   1.437   4.984   0.892
 2136SOL    HW1 7307   1.482   4.934   0.966
 2136SOL    HW2 7308   1.372   5.050   0.930
 2137SOL     OW 7309   1.863   6.105   4.311
 2137SOL    HW1 7310   1.824   6.058   4.390
 2137SOL    HW2 7311   1.945   6.058   4.281
 2138SOL     OW 7312   5.278   1.407   1.620
 2138SOL    HW1 7313   5.195   1.415   1.565
 2138SOL    HW2 7314   5.290   1.490   1.675
 2139SOL     OW 7315   2.792   0.233   5.406
 2139SOL    HW1 7316   2.717   0.167   5.401
 2139SOL    HW2 7317   2.879   0.184   5.414
 2140SOL     OW 7318   2.321   1.621   4.923
 2140SOL    HW1 7319   2.417   1.594   4.929
 2140SOL    HW2 7320   2.263   1.540   4.933
 2141SOL     OW 7321   6.468   3.616   2.761
 2141SOL    HW1 7322   6.488   3.556   2.838
 2141SOL    HW2 7323   6.411   3.568   2.694
 2142SOL     OW 7324   1.437   2.391   2.783
 2142SOL    HW1 7325   1.472   2.404   2.875
 2142SOL    HW2 7326   1.403   2.297   2.773
 2143SOL     OW 7327   0.914   4.619   6.481
 2143SOL    HW1 7328   0.875   4.659   6.398
 2143SOL    HW2 7329   0.855   4.547   6.514
 2144SOL     OW 7330   6.206   4.524   3.624
 2144SOL    HW1 7331   6.259   4.608   3.621
 2144SOL    HW2 7332   6.108   4.546   3.623
 2145SOL     OW 7333   4.682   0.895   3.450
 2145SOL    HW1 7334   4.708   0.874   3.356
 2145SOL    HW2 7335   4.584   0.919   3.452
 2146SOL     OW 7336   2.325   3.007   0.024
 2146SOL    HW1 7337   2.350   3.017   0.120
 2146SOL    HW2 7338   2.351   2.916   7.011
 2147SOL     OW 7339   5.896   0.111   4.587
 2147SOL    HW1 7340   5.887   0.211   4.591
 2147SOL    HW2 7341   5.932   0.085   4.497
 2148SOL     OW 7342   0.459   3.275   5.789
 2148SOL    HW1 7343   0.528   3.334   5.747
 2148SOL    HW2 7344   0.407   3.326   5.857
 2149SOL     OW 7345   0.865   0.288   0.314
 2149SOL    HW1 7346   0.827   0.290   0.221
 2149SOL    HW2 7347   0.944   0.349   0.318
 2150SOL     OW 7348   1.889   2.414   1.606
 2150SOL    HW1 7349   1.988   2.417   1.595
 2150SOL    HW2 7350   1.847   2.380   1.521
 2151SOL     OW 7351   1.103   5.401   0.284
 2151SOL    HW1 7352   1.041   5.478   0.296
 2151SOL    HW2 7353   1.187   5.432   0.239
 2152SOL     OW 7354   5.210   5.729   4.546
 2152SOL    HW1 7355   5.242   5.756   4.455
 2152SOL    HW2 7356   5.161   5.642   4.540
 2153SOL     OW 7357   4.975   1.352   3.529
 2153SOL    HW1 7358   4.889   1.316   3.565
 2153SOL    HW2 7359   5.037   1.275   3.510
 2154SOL     OW 7360   3.587   0.585   3.117
 2154SOL    HW1 7361   3.586   0.505   3.177
 2154SOL    HW2 7362   3.676   0.630   3.123
 2155SOL     OW 7363   4.267   0.635   0.633
 2155SOL    HW1 7364   4.295   0.670   0.722
 2155SOL    HW2 7365   4.218   0.549   0.644
 2156SOL     OW 7366   4.943   1.549   4.857
 2156SOL    HW1 7367   4.935   1.599   4.771
 2156SOL    HW2 7368   5.019   1.586   4.910
 2157SOL     OW 7369   3.492   6.256   4.239
 2157SOL    HW1 7370   3.586   6.231   4.262
 2157SOL    HW2 7371   3.454   6.186   4.178
 2158SOL     OW 7372   3.576   0.090   0.446
 2158SOL    HW1 7373   3.542   0.162   0.506
 2158SOL    HW2 7374   3.662   0.119   0.405
 2159SOL     OW 7375   0.652   0.916   6.051
 2159SOL    HW1 7376   0.619   0.981   5.982
 2159SOL    HW2 7377   0.606   0.828   6.039
 2160SOL     OW 7378   5.671   6.945   0.549
 2160SOL    HW1 7379   5.673   0.025   0.566
 2160SOL    HW2 7380   5.758   6.917   0.508
 2161SOL     OW 7381   1.631   2.676   1.648
 2161SOL    HW1 7382   1.723   2.672   1.687
 2161SOL    HW2 7383   1.636   2.715   1.556
 2162SOL     OW 7384   1.379   6.567   1.677
 2162SOL    HW1 7385   1.305   6.633   1.689
 2162SOL    HW2 7386   1.423   6.581   1.589
 2163SOL     OW 7387   1.989   2.617   2.823
 2163SOL    HW1 7388   1.993   2.698   2.883
 2163SOL    HW2 7389   2.077   2.569   2.827
 2164SOL     OW 7390   2.161   3.076   2.512
 2164SOL    HW1 7391   2.183   3.173   2.508
 2164SOL    HW2 7392   2.073   3.059   2.467
 2165SOL     OW 7393   6.796   1.594   3.570
 2165SOL    HW1 7394   6.862   1.520   3.573
 2165SOL    HW2 7395   6.789   1.636   3.661
 2166SOL     OW 7396   0.079   4.003   2.596
 2166SOL    HW1 7397   0.005   3.946   2.561
 2166SOL    HW2 7398   0.167   3.969   2.563
 2167SOL     OW 7399   2.307   1.917   3.076
 2167SOL    HW1 7400   2.337   1.889   3.167
 2167SOL    HW2 7401   2.221   1.870   3.053
 2168SOL     OW 7402   1.405   1.950   2.972
 2168SOL    HW1 7403   1.354   1.868   3.001
 2168SOL    HW2 7404   1.431   2.003   3.053
 2169SOL     OW 7405   0.820   0.078   1.693
 2169SOL    HW1 7406   0.826   7.009   1.646
 2169SOL    HW2 7407   0.772   0.144   1.635
 2170SOL     OW 7408   1.246   3.981   5.481
 2170SOL    HW1 7409   1.293   3.896   5.456
 2170SOL    HW2 7410   1.148   3.963   5.489
 2171SOL     OW 7411   6.635   5.694   1.661
 2171SOL    HW1 7412   6.649   5.599   1.690
 2171SOL    HW2 7413   6.594   5.745   1.737
 2172SOL     OW 7414   1.354   1.307   5.585
 2172SOL    HW1 7415   1.269   1.300   5.532
 2172SOL    HW2 7416   1.415   1.372   5.540
 2173SOL     OW 7417   5.877   1.050   4.973
 2173SOL    HW1 7418   5.793   1.077   4.926
 2173SOL    HW2 7419   5.861   1.048   5.072
 2174SOL     OW 7420   5.591   0.154   6.188
 2174SOL    HW1 7421   5.573   0.082   6.121
 2174SOL    HW2 7422   5.669   0.209   6.158
 2175SOL     OW 7423   2.637   3.834   5.283
 2175SOL    HW1 7424   2.602   3.745   5.312
 2175SOL    HW2 7425   2.561   3.891   5.251
 2176SOL     OW 7426   5.511   2.363   2.683
 2176SOL    HW1 7427   5.573   2.321   2.749
 2176SOL    HW2 7428   5.419   2.370   2.723
 2177SOL     OW 7429   0.550   0.342   4.701
 2177SOL    HW1 7430   0.585   0.411   4.636
 2177SOL    HW2 7431   0.501   0.388   4.775
 2178SOL     OW 7432   0.575   2.095   2.740
 2178SOL    HW1 7433   0.502   2.107   2.673
 2178SOL    HW2 7434   0.631   2.178   2.744
 2179SOL     OW 7435   1.777   4.605   6.159
 2179SOL    HW1 7436   1.861   4.580   6.206
 2179SOL    HW2 7437   1.793   4.605   6.060
 2180SOL     OW 7438   0.589   6.430   2.857
 2180SOL    HW1 7439   0.601   6.338   2.897
 2180SOL    HW2 7440   0.543   6.488   2.924
 2181SOL     OW 7441   2.898   4.859   4.598
 2181SOL    HW1 7442   2.843   4.940   4.576
 2181SOL    HW2 7443   2.913   4.856   4.697
 2182SOL     OW 7444   6.718   6.513   2.907
 2182SOL    HW1 7445   6.776   6.432   2.912
 2182SOL    HW2 7446   6.657   6.505   2.828
 2183SOL     OW 7447   3.325   3.126   6.368
 2183SOL    HW1 7448   3.242   3.120   6.313
 2183SOL    HW2 7449   3.385   3.049   6.345
 2184SOL     OW 7450   6.448   1.493   0.018
 2184SOL    HW1 7451   6.372   1.496   0.083
 2184SOL    HW2 7452   6.450   1.578   6.984
 2185SOL     OW 7453   1.290   0.017   6.628
 2185SOL    HW1 7454   1.267   0.085   6.560
 2185SOL    HW2 7455   1.322   0.062   6.712
 2186SOL     OW 7456   0.098   5.586   5.461
 2186SOL    HW1 7457   0.163   5.515   5.433
 2186SOL    HW2 7458   0.014   5.543   5.494
 2187SOL     OW 7459   0.502   5.815   2.275
 2187SOL    HW1 7460   0.509   5.873   2.357
 2187SOL    HW2 7461   0.553   5.857   2.201
 2188SOL     OW 7462   2.571   0.503   0.916
 2188SOL    HW1 7463   2.590   0.569   0.844
 2188SOL    HW2 7464   2.620   0.417   0.896
 2189SOL     OW 7465   1.814   1.479   1.523
 2189SOL    HW1 7466   1.720   1.443   1.522
 2189SOL    HW2 7467   1.869   1.425   1.587
 2190SOL     OW 7468   6.279   4.235   1.977
 2190SOL    HW1 7469   6.192   4.212   1.934
 2190SOL    HW2 7470   6.350   4.240   1.906
 2191SOL     OW 7471   2.822   0.351   7.005
 2191SOL    HW1 7472   2.894   0.409   0.024
 2191SOL    HW2 7473   2.817   0.266   0.037
 2192SOL     OW 7474   5.074   1.995   1.772
 2192SOL    HW1 7475   5.027   2.045   1.845
 2192SOL    HW2 7476   5.057   2.040   1.684
 2193SOL     OW 7477   1.737   6.920   5.421
 2193SOL    HW1 7478   1.807   6.878   5.364
 2193SOL    HW2 7479   1.761   7.015   5.440
 2194SOL     OW 7480   0.960   3.959   6.234
 2194SOL    HW1 7481   0.948   3.941   6.137
 2194SOL    HW2 7482   0.880   4.009   6.269
 2195SOL     OW 7483   0.651   3.514   4.760
 2195SOL    HW1 7484   0.646   3.485   4.856
 2195SOL    HW2 7485   0.649   3.433   4.701
 2196SOL     OW 7486   2.629   0.426   6.523
 2196SOL    HW1 7487   2.592   0.464   6.438
 2196SOL    HW2 7488   2.605   0.329   6.530
 2197SOL     OW 7489   3.571   5.338   5.877
 2197SOL    HW1 7490   3.560   5.382   5.966
 2197SOL    HW2 7491   3.495   5.275   5.862
 2198SOL     OW 7492   0.766   0.656   0.056
 2198SOL    HW1 7493   0.847   0.650   0.114
 2198SOL    HW2 7494   0.699   0.719   0.096
 2199SOL     OW 7495   3.934   6.602   4.934
 2199SOL    HW1 7496   3.904   6.538   5.006
 2199SOL    HW2 7497   3.934   6.695   4.970
 2200SOL     OW 7498   2.259   1.838   3.982
 2200SOL    HW1 7499   2.332   1.770   3.992
 2200SOL    HW2 7500   2.170   1.792   3.988
 2201SOL     OW 7501   6.029   3.721   4.992
 2201SOL    HW1 7502   6.016   3.765   5.081
 2201SOL    HW2 7503   6.071   3.631   5.005
 2202SOL     OW 7504   3.592   0.042   1.921
 2202SOL    HW1 7505   3.626   0.134   1.899
 2202SOL    HW2 7506   3.669   6.999   1.932
 2203SOL     OW 7507   2.152   4.810   1.112
 2203SOL    HW1 7508   2.171   4.815   1.014
 2203SOL    HW2 7509   2.080   4.743   1.129
 2204SOL     OW 7510   5.640   3.349   0.750
 2204SOL    HW1 7511   5.643   3.327   0.652
 2204SOL    HW2 7512   5.716   3.303   0.796
 2205SOL     OW 7513   0.406   5.549   0.397
 2205SOL    HW1 7514   0.327   5.518   0.345
 2205SOL    HW2 7515   0.489   5.539   0.341
 2206SOL     OW 7516   3.904   2.479   5.870
 2206SOL    HW1 7517   3.932   2.538   5.794
 2206SOL    HW2 7518   3.931   2.385   5.851
 2207SOL     OW 7519   4.706   5.612   0.870
 2207SOL    HW1 7520   4.701   5.709   0.892
 2207SOL    HW2 7521   4.728   5.560   0.953
 2208SOL     OW 7522   6.674   6.426   3.731
 2208SOL    HW1 7523   6.647   6.339   3.691
 2208SOL    HW2 7524   6.766   6.451   3.700
 2209SOL     OW 7525   2.541   5.868   4.196
 2209SOL    HW1 7526   2.562   5.788   4.252
 2209SOL    HW2 7527   2.462   5.847   4.137
 2210SOL     OW 7528   4.491   0.237   1.282
 2210SOL    HW1 7529   4.544   0.218   1.200
 2210SOL    HW2 7530   4.549   0.281   1.350
 2211SOL     OW 7531   0.538   1.984   0.976
 2211SOL    HW1 7532   0.548   1.922   0.899
 2211SOL    HW2 7533   0.607   2.057   0.970
 2212SOL     OW 7534   3.168   5.758   6.642
 2212SOL    HW1 7535   3.189   5.701   6.722
 2212SOL    HW2 7536   3.069   5.773   6.637
 2213SOL     OW 7537   3.321   1.722   4.635
 2213SOL    HW1 7538   3.417   1.695   4.623
 2213SOL    HW2 7539   3.262   1.651   4.598
 2214SOL     OW 7540   4.304   3.790   6.822
 2214SOL    HW1 7541   4.332   3.693   6.821
 2214SOL    HW2 7542   4.343   3.834   6.903
 2215SOL     OW 7543   3.975   0.117   0.100
 2215SOL    HW1 7544   3.975   0.019   0.079
 2215SOL    HW2 7545   3.956   0.169   0.017
 2216SOL     OW 7546   0.585   6.940   6.521
 2216SOL    HW1 7547   0.670   6.915   6.569
 2216SOL    HW2 7548   0.608   6.987   6.436
 2217SOL     OW 7549   4.262   0.894   3.881
 2217SOL    HW1 7550   4.293   0.846   3.799
 2217SOL    HW2 7551   4.310   0.981   3.890
 2218SOL     OW 7552   0.632   6.077   5.742
 2218SOL    HW1 7553   0.674   6.156   5.697
 2218SOL    HW2 7554   0.550   6.050   5.691
 2219SOL     OW 7555   6.099   1.046   0.931
 2219SOL    HW1 7556   6.025   1.016   0.991
 2219SOL    HW2 7557   6.073   1.031   0.836
 2220SOL     OW 7558   0.376   5.972   4.957
 2220SOL    HW1 7559   0.284   5.938   4.935
 2220SOL    HW2 7560   0.368   6.055   5.013
 2221SOL     OW 7561   6.599   1.742   3.898
 2221SOL    HW1 7562   6.526   1.749   3.830
 2221SOL    HW2 7563   6.627   1.647   3.908
 2222SOL     OW 7564   5.074   0.025   2.532
 2222SOL    HW1 7565   5.099   0.102   2.591
 2222SOL    HW2 7566   5.036   0.059   2.446
 2223SOL     OW 7567   0.556   6.471   5.445
 2223SOL    HW1 7568   0.524   6.546   5.502
 2223SOL    HW2 7569   0.482   6.405   5.433
 2224SOL     OW 7570   6.370   4.066   0.494
 2224SOL    HW1 7571   6.272   4.062   0.475
 2224SOL    HW2 7572   6.420   4.085   0.409
 2225SOL     OW 7573   6.649   6.102   2.656
 2225SOL    HW1 7574   6.672   6.066   2.565
 2225SOL    HW2 7575   6.664   6.200   2.657
 2226SOL     OW 7576   2.492   5.045   0.366
 2226SOL    HW1 7577   2.451   5.031   0.277
 2226SOL    HW2 7578   2.434   5.106   0.421
 2227SOL     OW 7579   3.599   2.065   1.737
 2227SOL    HW1 7580   3.687   2.063   1.689
 2227SOL    HW2 7581   3.600   2.137   1.806
 2228SOL     OW 7582   5.553   5.312   6.771
 2228SOL    HW1 7583   5.508   5.336   6.684
 2228SOL    HW2 7584   5.493   5.338   6.847
 2229SOL     OW 7585   3.540   3.426   3.203
 2229SOL    HW1 7586   3.595   3.363   3.147
 2229SOL    HW2 7587   3.475   3.475   3.144
 2230SOL     OW 7588   5.697   0.452   0.193
 2230SOL    HW1 7589   5.697   0.355   0.167
 2230SOL    HW2 7590   5.604   0.478   0.222
 2231SOL     OW 7591   1.381   6.770   6.617
 2231SOL    HW1 7592   1.429   6.746   6.533
 2231SOL    HW2 7593   1.357   6.867   6.615
 2232SOL     OW 7594   1.042   0.847   5.073
 2232SOL    HW1 7595   1.127   0.899   5.080
 2232SOL    HW2 7596   1.063   0.750   5.061
 2233SOL     OW 7597   3.061   4.564   1.048
 2233SOL    HW1 7598   3.013   4.490   1.001
 2233SOL    HW2 7599   3.154   4.571   1.015
 2234SOL     OW 7600   4.810   1.567   1.691
 2234SOL    HW1 7601   4.723   1.550   1.644
 2234SOL    HW2 7602   4.806   1.529   1.784
 2235SOL     OW 7603   1.083   1.792   3.095
 2235SOL    HW1 7604   1.041   1.871   3.140
 2235SOL    HW2 7605   1.152   1.752   3.155
 2236SOL     OW 7606   1.877   4.541   5.214
 2236SOL    HW1 7607   1.959   4.499   5.254
 2236SOL    HW2 7608   1.894   4.639   5.199
 2237SOL     OW 7609   6.785   4.996   5.940
 2237SOL    HW1 7610   6.719   4.982   6.013
 2237SOL    HW2 7611   6.878   4.981   5.976
 2238SOL     OW 7612   5.740   4.077   1.853
 2238SOL    HW1 7613   5.703   3.984   1.848
 2238SOL    HW2 7614   5.739   4.118   1.762
 2239SOL     OW 7615   4.637   6.454   3.291
 2239SOL    HW1 7616   4.726   6.454   3.334
 2239SOL    HW2 7617   4.606   6.548   3.277
 2240SOL     OW 7618   5.033   4.964   2.996
 2240SOL    HW1 7619   5.117   4.919   2.964
 2240SOL    HW2 7620   5.049   5.002   3.087
 2241SOL     OW 7621   0.419   1.312   1.287
 2241SOL    HW1 7622   0.499   1.287   1.234
 2241SOL    HW2 7623   0.432   1.404   1.325
 2242SOL     OW 7624   4.849   2.554   3.277
 2242SOL    HW1 7625   4.761   2.599   3.292
 2242SOL    HW2 7626   4.882   2.514   3.362
 2243SOL     OW 7627   1.900   6.472   0.444
 2243SOL    HW1 7628   1.947   6.551   0.483
 2243SOL    HW2 7629   1.855   6.420   0.517
 2244SOL     OW 7630   2.542   0.950   0.470
 2244SOL    HW1 7631   2.448   0.960   0.501
 2244SOL    HW2 7632   2.561   0.854   0.449
 2245SOL     OW 7633   0.143   0.433   0.103
 2245SOL    HW1 7634   0.075   0.488   0.054
 2245SOL    HW2 7635   0.225   0.423   0.047
 2246SOL     OW 7636   2.608   1.015   5.467
 2246SOL    HW1 7637   2.611   1.106   5.509
 2246SOL    HW2 7638   2.677   1.008   5.395
 2247SOL     OW 7639   2.960   3.750   2.524
 2247SOL    HW1 7640   2.891   3.677   2.528
 2247SOL    HW2 7641   2.993   3.761   2.430
 2248SOL     OW 7642   4.661   4.067   5.191
 2248SOL    HW1 7643   4.595   4.125   5.239
 2248SOL    HW2 7644   4.681   3.986   5.247
 2249SOL     OW 7645   1.487   6.161   3.252
 2249SOL    HW1 7646   1.541   6.149   3.168
 2249SOL    HW2 7647   1.404   6.106   3.246
 2250SOL     OW 7648   4.542   5.519   6.398
 2250SOL    HW1 7649   4.541   5.485   6.492
 2250SOL    HW2 7650   4.449   5.545   6.371
 2251SOL     OW 7651   5.730   6.211   5.542
 2251SOL    HW1 7652   5.742   6.113   5.524
 2251SOL    HW2 7653   5.710   6.224   5.639
 2252SOL     OW 7654   4.428   1.700   2.891
 2252SOL    HW1 7655   4.486   1.671   2.967
 2252SOL    HW2 7656   4.344   1.647   2.891
 2253SOL     OW 7657   0.487   3.501   1.439
 2253SOL    HW1 7658   0.578   3.524   1.476
 2253SOL    HW2 7659   0.419   3.509   1.512
 2254SOL     OW 7660   4.066   3.437   2.600
 2254SOL    HW1 7661   3.995   3.390   2.653
 2254SOL    HW2 7662   4.088   3.524   2.644
 2255SOL     OW 7663   2.861   3.438   6.402
 2255SOL    HW1 7664   2.775   3.488   6.399
 2255SOL    HW2 7665   2.925   3.476   6.335
 2256SOL     OW 7666   4.877   0.072   1.614
 2256SOL    HW1 7667   4.811   0.112   1.549
 2256SOL    HW2 7668   4.968   0.109   1.595
 2257SOL     OW 7669   0.440   1.231   5.134
 2257SOL    HW1 7670   0.526   1.244   5.084
 2257SOL    HW2 7671   0.413   1.317   5.177
 2258SOL     OW 7672   2.292   5.746   4.100
 2258SOL    HW1 7673   2.229   5.680   4.141
 2258SOL    HW2 7674   2.332   5.708   4.017
 2259SOL     OW 7675   6.016   2.197   4.673
 2259SOL    HW1 7676   6.106   2.160   4.651
 2259SOL    HW2 7677   5.969   2.223   4.589
 2260SOL     OW 7678   0.857   4.084   1.331
 2260SOL    HW1 7679   0.949   4.082   1.369
 2260SOL    HW2 7680   0.854   4.149   1.255
 2261SOL     OW 7681   5.492   4.027   6.927
 2261SOL    HW1 7682   5.401   4.065   6.911
 2261SOL    HW2 7683   5.560   4.100   6.929
 2262SOL     OW 7684   6.648   0.442   4.796
 2262SOL    HW1 7685   6.720   0.396   4.744
 2262SOL    HW2 7686   6.689   0.500   4.866
 2263SOL     OW 7687   2.345   4.473   6.362
 2263SOL    HW1 7688   2.430   4.438   6.400
 2263SOL    HW2 7689   2.280   4.491   6.435
 2264SOL     OW 7690   2.120   7.008   5.598
 2264SOL    HW1 7691   2.190   0.010   5.667
 2264SOL    HW2 7692   2.133   0.047   5.518
 2265SOL     OW 7693   0.414   6.389   4.694
 2265SOL    HW1 7694   0.432   6.477   4.736
 2265SOL    HW2 7695   0.494   6.359   4.641
 2266SOL     OW 7696   4.016   2.196   6.794
 2266SOL    HW1 7697   4.074   2.142   6.732
 2266SOL    HW2 7698   4.036   2.171   6.888
 2267SOL     OW 7699   5.028   2.486   4.187
 2267SOL    HW1 7700   5.078   2.403   4.212
 2267SOL    HW2 7701   4.968   2.513   4.262
 2268SOL     OW 7702   0.732   5.731   5.145
 2268SOL    HW1 7703   0.674   5.797   5.193
 2268SOL    HW2 7704   0.674   5.667   5.094
 2269SOL     OW 7705   1.863   2.420   5.037
 2269SOL    HW1 7706   1.890   2.496   5.096
 2269SOL    HW2 7707   1.783   2.375   5.075
 2270SOL     OW 7708   4.996   2.087   5.819
 2270SOL    HW1 7709   4.979   1.989   5.815
 2270SOL    HW2 7710   5.039   2.116   5.733
 2271SOL     OW 7711   5.001   5.353   5.924
 2271SOL    HW1 7712   4.988   5.452   5.919
 2271SOL    HW2 7713   4.918   5.307   5.893
 2272SOL     OW 7714   5.704   0.920   5.900
 2272SOL    HW1 7715   5.786   0.951   5.949
 2272SOL    HW2 7716   5.662   0.843   5.949
 2273SOL     OW 7717   1.041   2.370   3.025
 2273SOL    HW1 7718   1.044   2.452   2.968
 2273SOL    HW2 7719   1.034   2.289   2.966
 2274SOL     OW 7720   0.078   1.824   6.831
 2274SOL    HW1 7721   0.123   1.913   6.835
 2274SOL    HW2 7722   0.131   1.762   6.773
 2275SOL     OW 7723   5.743   4.972   2.961
 2275SOL    HW1 7724   5.651   4.939   2.981
 2275SOL    HW2 7725   5.770   5.039   3.030
 2276SOL     OW 7726   1.475   2.871   1.066
 2276SOL    HW1 7727   1.423   2.795   1.104
 2276SOL    HW2 7728   1.489   2.940   1.137
 2277SOL     OW 7729   3.824   3.262   3.432
 2277SOL    HW1 7730   3.902   3.291   3.377
 2277SOL    HW2 7731   3.823   3.314   3.518
 2278SOL     OW 7732   0.122   2.301   3.907
 2278SOL    HW1 7733   0.117   2.401   3.908
 2278SOL    HW2 7734   0.212   2.273   3.874
 2279SOL     OW 7735   0.736   5.970   5.334
 2279SOL    HW1 7736   0.636   5.973   5.325
 2279SOL    HW2 7737   0.777   5.976   5.243
 2280SOL     OW 7738   4.928   1.776   5.337
 2280SOL    HW1 7739   4.954   1.857   5.285
 2280SOL    HW2 7740   4.971   1.695   5.296
 2281SOL     OW 7741   5.707   6.950   2.703
 2281SOL    HW1 7742   5.763   0.014   2.694
 2281SOL    HW2 7743   5.656   6.934   2.619
 2282SOL     OW 7744   4.271   6.227   5.078
 2282SOL    HW1 7745   4.260   6.302   5.144
 2282SOL    HW2 7746   4.317   6.150   5.122
 2283SOL     OW 7747   0.235   0.504   3.994
 2283SOL    HW1 7748   0.198   0.436   3.931
 2283SOL    HW2 7749   0.292   0.459   4.062
 2284SOL     OW 7750   1.398   2.866   6.721
 2284SOL    HW1 7751   1.351   2.779   6.708
 2284SOL    HW2 7752   1.396   2.918   6.636
 2285SOL     OW 7753   1.767   4.274   6.437
 2285SOL    HW1 7754   1.823   4.317   6.508
 2285SOL    HW2 7755   1.804   4.297   6.347
 2286SOL     OW 7756   4.697   5.705   4.023
 2286SOL    HW1 7757   4.653   5.793   4.008
 2286SOL    HW2 7758   4.688   5.679   4.119
 2287SOL     OW 7759   2.070   0.934   3.192
 2287SOL    HW1 7760   2.088   0.959   3.097
 2287SOL    HW2 7761   2.079   1.015   3.250
 2288SOL     OW 7762   6.925   6.599   3.142
 2288SOL    HW1 7763   6.880   6.606   3.052
 2288SOL    HW2 7764   6.988   6.522   3.141
 2289SOL     OW 7765   0.568   5.430   1.678
 2289SOL    HW1 7766   0.627   5.350   1.671
 2289SOL    HW2 7767   0.550   5.467   1.587
 2290SOL     OW 7768   0.343   6.006   0.764
 2290SOL    HW1 7769   0.423   6.047   0.718
 2290SOL    HW2 7770   0.344   5.907   0.751
 2291SOL     OW 7771   2.404   2.193   6.620
 2291SOL    HW1 7772   2.466   2.152   6.687
 2291SOL    HW2 7773   2.423   2.291   6.611
 2292SOL     OW 7774   1.169   1.248   4.903
 2292SOL    HW1 7775   1.205   1.340   4.918
 2292SOL    HW2 7776   1.235   1.180   4.935
 2293SOL     OW 7777   5.636   5.217   2.398
 2293SOL    HW1 7778   5.647   5.142   2.333
 2293SOL    HW2 7779   5.647   5.181   2.491
 2294SOL     OW 7780   3.511   6.566   6.583
 2294SOL    HW1 7781   3.433   6.548   6.644
 2294SOL    HW2 7782   3.489   6.533   6.491
 2295SOL     OW 7783   1.049   2.406   1.368
 2295SOL    HW1 7784   1.052   2.503   1.344
 2295SOL    HW2 7785   0.955   2.379   1.388
 2296SOL     OW 7786   3.170   6.439   0.043
 2296SOL    HW1 7787   3.081   6.402   0.069
 2296SOL    HW2 7788   3.164   6.539   0.038
 2297SOL     OW 7789   4.727   6.087   5.654
 2297SOL    HW1 7790   4.645   6.140   5.671
 2297SOL    HW2 7791   4.719   6.039   5.567
 2298SOL     OW 7792   3.911   3.033   6.970
 2298SOL    HW1 7793   4.000   2.991   6.988
 2298SOL    HW2 7794   3.873   3.069   0.036
 2299SOL     OW 7795   4.781   5.992   0.259
 2299SOL    HW1 7796   4.751   5.912   0.207
 2299SOL    HW2 7797   4.868   6.025   0.223
 2300SOL     OW 7798   1.755   5.018   1.156
 2300SOL    HW1 7799   1.748   5.102   1.209
 2300SOL    HW2 7800   1.840   4.971   1.178
 2301SOL     OW 7801   4.161   3.516   2.357
 2301SOL    HW1 7802   4.128   3.477   2.442
 2301SOL    HW2 7803   4.247   3.564   2.373
 2302SOL     OW 7804   2.910   5.526   2.896
 2302SOL    HW1 7805   2.915   5.430   2.923
 2302SOL    HW2 7806   2.964   5.540   2.814
 2303SOL     OW 7807   1.308   2.607   4.566
 2303SOL    HW1 7808   1.305   2.704   4.542
 2303SOL    HW2 7809   1.253   2.555   4.501
 2304SOL     OW 7810   2.449   0.952   3.837
 2304SOL    HW1 7811   2.499   0.949   3.923
 2304SOL    HW2 7812   2.449   1.046   3.802
 2305SOL     OW 7813   3.902   5.306   1.876
 2305SOL    HW1 7814   3.864   5.225   1.829
 2305SOL    HW2 7815   3.830   5.375   1.885
 2306SOL     OW 7816   1.146   3.863   1.112
 2306SOL    HW1 7817   1.243   3.851   1.089
 2306SOL    HW2 7818   1.125   3.811   1.195
 2307SOL     OW 7819   0.436   2.466   2.910
 2307SOL    HW1 7820   0.504   2.474   2.983
 2307SOL    HW2 7821   0.371   2.393   2.933
 2308SOL     OW 7822   0.151   0.071   0.517
 2308SOL    HW1 7823   0.105   0.125   0.587
 2308SOL    HW2 7824   0.244   0.106   0.504
 2309SOL     OW 7825   3.310   5.466   6.231
 2309SOL    HW1 7826   3.300   5.520   6.314
 2309SOL    HW2 7827   3.347   5.375   6.253
 2310SOL     OW 7828   5.704   0.641   2.095
 2310SOL    HW1 7829   5.745   0.683   2.013
 2310SOL    HW2 7830   5.613   0.680   2.110
 2311SOL     OW 7831   3.303   0.212   2.810
 2311SOL    HW1 7832   3.287   0.133   2.752
 2311SOL    HW2 7833   3.332   0.181   2.901
 2312SOL     OW 7834   3.693   1.284   2.552
 2312SOL    HW1 7835   3.700   1.237   2.464
 2312SOL    HW2 7836   3.697   1.218   2.627
 2313SOL     OW 7837   5.198   3.716   1.692
 2313SOL    HW1 7838   5.235   3.795   1.644
 2313SOL    HW2 7839   5.116   3.743   1.743
 2314SOL     OW 7840   6.126   0.168   2.686
 2314SOL    HW1 7841   6.087   0.260   2.692
 2314SOL    HW2 7842   6.212   0.165   2.737
 2315SOL     OW 7843   4.415   5.295   5.478
 2315SOL    HW1 7844   4.363   5.331   5.555
 2315SOL    HW2 7845   4.478   5.365   5.444
 2316SOL     OW 7846   3.208   1.681   5.879
 2316SOL    HW1 7847   3.156   1.605   5.841
 2316SOL    HW2 7848   3.158   1.722   5.956
 2317SOL     OW 7849   6.383   5.358   3.693
 2317SOL    HW1 7850   6.397   5.437   3.633
 2317SOL    HW2 7851   6.298   5.370   3.744
 2318SOL     OW 7852   1.697   4.529   4.953
 2318SOL    HW1 7853   1.703   4.628   4.965
 2318SOL    HW2 7854   1.780   4.486   4.989
 2319SOL     OW 7855   2.592   5.076   4.174
 2319SOL    HW1 7856   2.576   4.981   4.202
 2319SOL    HW2 7857   2.662   5.116   4.234
 2320SOL     OW 7858   1.622   3.444   4.938
 2320SOL    HW1 7859   1.700   3.460   4.878
 2320SOL    HW2 7860   1.572   3.363   4.907
 2321SOL     OW 7861   2.715   5.365   5.960
 2321SOL    HW1 7862   2.664   5.283   5.935
 2321SOL    HW2 7863   2.656   5.427   6.013
 2322SOL     OW 7864   1.188   3.527   2.232
 2322SOL    HW1 7865   1.187   3.441   2.283
 2322SOL    HW2 7866   1.275   3.574   2.247
 2323SOL     OW 7867   2.194   4.907   1.836
 2323SOL    HW1 7868   2.157   4.817   1.811
 2323SOL    HW2 7869   2.290   4.897   1.859
 2324SOL     OW 7870   0.002   5.781   1.728
 2324SOL    HW1 7871   7.007   5.840   1.808
 2324SOL    HW2 7872   0.041   5.694   1.756
 2325SOL     OW 7873   6.743   5.346   1.967
 2325SOL    HW1 7874   6.802   5.417   2.005
 2325SOL    HW2 7875   6.725   5.366   1.871
 2326SOL     OW 7876   1.127   0.780   6.570
 2326SOL    HW1 7877   1.150   0.858   6.511
 2326SOL    HW2 7878   1.101   0.814   6.661
 2327SOL     OW 7879   6.591   0.634   2.791
 2327SOL    HW1 7880   6.647   0.708   2.753
 2327SOL    HW2 7881   6.538   0.669   2.869
 2328SOL     OW 7882   1.984   2.662   2.327
 2328SOL    HW1 7883   1.888   2.642   2.307
 2328SOL    HW2 7884   2.012   2.612   2.409
 2329SOL     OW 7885   0.458   5.987   3.837
 2329SOL    HW1 7886   0.420   6.076   3.811
 2329SOL    HW2 7887   0.399   5.944   3.906
 2330SOL     OW 7888   6.439   2.808   6.903
 2330SOL    HW1 7889   6.447   2.896   6.857
 2330SOL    HW2 7890   6.529   2.765   6.908
 2331SOL     OW 7891   3.854   6.003   0.215
 2331SOL    HW1 7892   3.776   5.943   0.197
 2331SOL    HW2 7893   3.889   5.986   0.307
 2332SOL     OW 7894   5.582   6.532   6.287
 2332SOL    HW1 7895   5.660   6.593   6.297
 2332SOL    HW2 7896   5.501   6.573   6.329
 2333SOL     OW 7897   0.125   5.096   2.387
 2333SOL    HW1 7898   0.223   5.078   2.375
 2333SOL    HW2 7899   0.076   5.064   2.306
 2334SOL     OW 7900   2.718   0.655   5.917
 2334SOL    HW1 7901   2.642   0.595   5.891
 2334SOL    HW2 7902   2.705   0.745   5.875
 2335SOL     OW 7903   6.167   1.571   3.532
 2335SOL    HW1 7904   6.245   1.549   3.474
 2335SOL    HW2 7905   6.115   1.488   3.551
 2336SOL     OW 7906   2.357   1.720   2.477
 2336SOL    HW1 7907   2.306   1.657   2.418
 2336SOL    HW2 7908   2.355   1.686   2.571
 2337SOL     OW 7909   4.031   1.893   1.678
 2337SOL    HW1 7910   4.006   1.873   1.773
 2337SOL    HW2 7911   3.974   1.967   1.643
 2338SOL     OW 7912   0.172   4.257   4.291
 2338SOL    HW1 7913   0.271   4.241   4.297
 2338SOL    HW2 7914   0.142   4.250   4.196
 2339SOL     OW 7915   3.262   2.917   2.392
 2339SOL    HW1 7916   3.163   2.933   2.392
 2339SOL    HW2 7917   3.294   2.907   2.298
 2340SOL     OW 7918   0.946   4.988   6.248
 2340SOL    HW1 7919   0.898   4.902   6.269
 2340SOL    HW2 7920   1.043   4.969   6.232
 2341SOL     OW 7921   2.441   4.495   3.496
 2341SOL    HW1 7922   2.432   4.421   3.429
 2341SOL    HW2 7923   2.466   4.456   3.585
 2342SOL     OW 7924   3.457   6.705   3.962
 2342SOL    HW1 7925   3.418   6.787   4.003
 2342SOL    HW2 7926   3.416   6.624   4.003
 2343SOL     OW 7927   1.676   6.449   2.430
 2343SOL    HW1 7928   1.595   6.493   2.469
 2343SOL    HW2 7929   1.759   6.495   2.464
 2344SOL     OW 7930   6.306   4.561   1.005
 2344SOL    HW1 7931   6.219   4.598   0.972
 2344SOL    HW2 7932   6.297   4.531   1.099
 2345SOL     OW 7933   2.879   6.122   4.866
 2345SOL    HW1 7934   2.890   6.169   4.778
 2345SOL    HW2 7935   2.836   6.185   4.931
 2346SOL     OW 7936   3.844   3.833   6.139
 2346SOL    HW1 7937   3.870   3.914   6.192
 2346SOL    HW2 7938   3.839   3.857   6.042
 2347SOL     OW 7939   1.223   2.199   1.803
 2347SOL    HW1 7940   1.205   2.278   1.745
 2347SOL    HW2 7941   1.235   2.118   1.746
 2348SOL     OW 7942   1.169   5.317   3.213
 2348SOL    HW1 7943   1.144   5.254   3.287
 2348SOL    HW2 7944   1.194   5.406   3.251
 2349SOL     OW 7945   0.529   4.448   6.517
 2349SOL    HW1 7946   0.500   4.542   6.530
 2349SOL    HW2 7947   0.628   4.441   6.535
 2350SOL     OW 7948   6.499   4.510   6.229
 2350SOL    HW1 7949   6.530   4.604   6.245
 2350SOL    HW2 7950   6.419   4.512   6.168
 2351SOL     OW 7951   2.709   4.697   3.132
 2351SOL    HW1 7952   2.649   4.630   3.088
 2351SOL    HW2 7953   2.682   4.709   3.228
 2352SOL     OW 7954   0.288   3.150   3.313
 2352SOL    HW1 7955   0.265   3.053   3.304
 2352SOL    HW2 7956   0.228   3.192   3.381
 2353SOL     OW 7957   4.366   5.721   5.241
 2353SOL    HW1 7958   4.460   5.755   5.241
 2353SOL    HW2 7959   4.316   5.762   5.164
 2354SOL     OW 7960   2.579   1.662   4.320
 2354SOL    HW1 7961   2.590   1.611   4.405
 2354SOL    HW2 7962   2.641   1.740   4.319
 2355SOL     OW 7963   2.129   6.048   4.678
 2355SOL    HW1 7964   2.175   6.039   4.590
 2355SOL    HW2 7965   2.036   6.011   4.671
 2356SOL     OW 7966   0.261   3.039   6.617
 2356SOL    HW1 7967   0.258   2.947   6.656
 2356SOL    HW2 7968   0.291   3.104   6.687
 2357SOL     OW 7969   3.060   0.742   2.394
 2357SOL    HW1 7970   2.964   0.753   2.421
 2357SOL    HW2 7971   3.118   0.751   2.476
 2358SOL     OW 7972   3.485   4.760   6.308
 2358SOL    HW1 7973   3.423   4.788   6.381
 2358SOL    HW2 7974   3.433   4.741   6.225
 2359SOL     OW 7975   0.959   0.570   5.433
 2359SOL    HW1 7976   0.884   0.619   5.389
 2359SOL    HW2 7977   0.977   0.485   5.383
 2360SOL     OW 7978   6.364   3.302   0.662
 2360SOL    HW1 7979   6.463   3.291   0.663
 2360SOL    HW2 7980   6.327   3.275   0.751
 2361SOL     OW 7981   3.448   1.719   5.772
 2361SOL    HW1 7982   3.443   1.814   5.744
 2361SOL    HW2 7983   3.361   1.692   5.815
 2362SOL     OW 7984   3.457   5.098   3.799
 2362SOL    HW1 7985   3.542   5.086   3.852
 2362SOL    HW2 7986   3.478   5.096   3.701
 2363SOL     OW 7987   3.814   1.428   3.783
 2363SOL    HW1 7988   3.751   1.404   3.857
 2363SOL    HW2 7989   3.818   1.353   3.717
 2364SOL     OW 7990   1.140   2.054   1.438
 2364SOL    HW1 7991   1.227   2.099   1.419
 2364SOL    HW2 7992   1.077   2.119   1.480
 2365SOL     OW 7993   5.884   1.967   0.111
 2365SOL    HW1 7994   5.800   2.013   0.083
 2365SOL    HW2 7995   5.923   2.013   0.191
 2366SOL     OW 7996   3.734   5.539   1.110
 2366SOL    HW1 7997   3.651   5.486   1.127
 2366SOL    HW2 7998   3.813   5.478   1.112
 2367SOL     OW 7999   1.958   3.329   6.634
 2367SOL    HW1 8000   1.870   3.374   6.626
 2367SOL    HW2 8001   1.964   3.283   6.723
 2368SOL     OW 8002   5.953   6.950   3.742
 2368SOL    HW1 8003   5.876   6.908   3.695
 2368SOL    HW2 8004   5.949   6.930   3.840
 2369SOL     OW 8005   1.952   0.393   3.861
 2369SOL    HW1 8006   1.950   0.371   3.763
 2369SOL    HW2 8007   2.005   0.476   3.876
 2370SOL     OW 8008   5.425   2.908   6.627
 2370SOL    HW1 8009   5.502   2.965   6.599
 2370SOL    HW2 8010   5.411   2.835   6.559
 2371SOL     OW 8011   2.649   0.146   1.615
 2371SOL    HW1 8012   2.733   0.188   1.649
 2371SOL    HW2 8013   2.570   0.195   1.652
 2372SOL     OW 8014   6.864   2.937   2.245
 2372SOL    HW1 8015   6.777   2.968   2.206
 2372SOL    HW2 8016   6.883   2.844   2.215
 2373SOL     OW 8017   1.764   3.556   5.926
 2373SOL    HW1 8018   1.715   3.607   5.854
 2373SOL    HW2 8019   1.724   3.465   5.935
 2374SOL     OW 8020   6.245   1.971   4.645
 2374SOL    HW1 8021   6.234   1.908   4.722
 2374SOL    HW2 8022   6.330   2.023   4.656
 2375SOL     OW 8023   3.499   5.941   5.436
 2375SOL    HW1 8024   3.537   5.946   5.344
 2375SOL    HW2 8025   3.530   6.020   5.489
 2376SOL     OW 8026   6.364   3.163   3.813
 2376SOL    HW1 8027   6.459   3.133   3.814
 2376SOL    HW2 8028   6.317   3.122   3.734
 2377SOL     OW 8029   3.080   3.245   3.904
 2377SOL    HW1 8030   3.066   3.182   3.827
 2377SOL    HW2 8031   3.006   3.313   3.904
 2378SOL     OW 8032   5.192   2.507   6.874
 2378SOL    HW1 8033   5.188   2.495   6.775
 2378SOL    HW2 8034   5.121   2.572   6.903
 2379SOL     OW 8035   6.614   0.491   0.794
 2379SOL    HW1 8036   6.632   0.406   0.744
 2379SOL    HW2 8037   6.540   0.476   0.860
 2380SOL     OW 8038   5.830   2.630   1.007
 2380SOL    HW1 8039   5.881   2.545   0.999
 2380SOL    HW2 8040   5.732   2.610   1.014
 2381SOL     OW 8041   1.815   5.860   3.081
 2381SOL    HW1 8042   1.744   5.908   3.031
 2381SOL    HW2 8043   1.902   5.869   3.032
 2382SOL     OW 8044   2.103   3.051   5.046
 2382SOL    HW1 8045   2.089   3.123   4.978
 2382SOL    HW2 8046   2.201   3.037   5.060
 2383SOL     OW 8047   6.725   5.912   1.495
 2383SOL    HW1 8048   6.697   5.981   1.561
 2383SOL    HW2 8049   6.699   5.821   1.529
 2384SOL     OW 8050   4.816   1.981   2.100
 2384SOL    HW1 8051   4.734   2.024   2.064
 2384SOL    HW2 8052   4.893   2.044   2.095
 2385SOL     OW 8053   0.264   1.403   0.139
 2385SOL    HW1 8054   0.212   1.326   0.178
 2385SOL    HW2 8055   0.219   1.433   0.055
 2386SOL     OW 8056   5.399   5.628   5.148
 2386SOL    HW1 8057   5.391   5.536   5.110
 2386SOL    HW2 8058   5.360   5.629   5.240
 2387SOL     OW 8059   2.180   1.030   3.930
 2387SOL    HW1 8060   2.255   0.973   3.895
 2387SOL    HW2 8061   2.138   1.081   3.855
 2388SOL     OW 8062   6.495   2.954   3.569
 2388SOL    HW1 8063   6.519   2.889   3.641
 2388SOL    HW2 8064   6.406   2.995   3.589
 2389SOL     OW 8065   4.096   4.984   3.160
 2389SOL    HW1 8066   4.015   4.977   3.218
 2389SOL    HW2 8067   4.155   5.057   3.194
 2390SOL     OW 8068   3.672   4.104   2.960
 2390SOL    HW1 8069   3.591   4.057   2.924
 2390SOL    HW2 8070   3.643   4.175   3.025
 2391SOL     OW 8071   4.690   5.112   6.346
 2391SOL    HW1 8072   4.778   5.114   6.297
 2391SOL    HW2 8073   4.628   5.179   6.306
 2392SOL     OW 8074   2.970   0.473   6.758
 2392SOL    HW1 8075   2.968   0.471   6.858
 2392SOL    HW2 8076   2.960   0.379   6.723
 2393SOL     OW 8077   4.211   4.715   5.926
 2393SOL    HW1 8078   4.296   4.756   5.893
 2393SOL    HW2 8079   4.228   4.620   5.952
 2394SOL     OW 8080   0.208   4.298   4.644
 2394SOL    HW1 8081   0.213   4.398   4.650
 2394SOL    HW2 8082   0.296   4.261   4.615
 2395SOL     OW 8083   4.039   6.352   5.972
 2395SOL    HW1 8084   4.073   6.428   5.917
 2395SOL    HW2 8085   4.114   6.290   5.993
 2396SOL     OW 8086   4.086   4.652   0.163
 2396SOL    HW1 8087   4.044   4.575   0.211
 2396SOL    HW2 8088   4.087   4.732   0.224
 2397SOL     OW 8089   0.648   4.307   4.581
 2397SOL    HW1 8090   0.574   4.240   4.580
 2397SOL    HW2 8091   0.618   4.390   4.626
 2398SOL     OW 8092   4.688   4.636   5.900
 2398SOL    HW1 8093   4.761   4.631   5.968
 2398SOL    HW2 8094   4.686   4.551   5.847
 2399SOL     OW 8095   4.623   1.840   1.826
 2399SOL    HW1 8096   4.536   1.885   1.844
 2399SOL    HW2 8097   4.653   1.790   1.908
 2400SOL     OW 8098   2.503   4.885   0.912
 2400SOL    HW1 8099   2.468   4.860   1.002
 2400SOL    HW2 8100   2.552   4.808   0.872
 2401SOL     OW 8101   6.328   5.994   6.118
 2401SOL    HW1 8102   6.426   5.978   6.103
 2401SOL    HW2 8103   6.311   6.007   6.215
 2402SOL     OW 8104   0.583   0.049   4.203
 2402SOL    HW1 8105   0.566   0.096   4.117
 2402SOL    HW2 8106   0.596   6.971   4.186
 2403SOL     OW 8107   0.620   2.556   4.945
 2403SOL    HW1 8108   0.532   2.580   4.904
 2403SOL    HW2 8109   0.657   2.475   4.899
 2404SOL     OW 8110   1.853   0.717   0.766
 2404SOL    HW1 8111   1.756   0.694   0.774
 2404SOL    HW2 8112   1.888   0.682   0.679
 2405SOL     OW 8113   3.249   4.102   2.317
 2405SOL    HW1 8114   3.183   4.088   2.391
 2405SOL    HW2 8115   3.340   4.117   2.356
 2406SOL     OW 8116   4.416   1.765   0.734
 2406SOL    HW1 8117   4.386   1.786   0.827
 2406SOL    HW2 8118   4.485   1.830   0.705
 2407SOL     OW 8119   6.024   1.345   3.667
 2407SOL    HW1 8120   6.042   1.247   3.668
 2407SOL    HW2 8121   6.036   1.382   3.759
 2408SOL     OW 8122   4.704   4.472   1.870
 2408SOL    HW1 8123   4.694   4.501   1.774
 2408SOL    HW2 8124   4.618   4.436   1.903
 2409SOL     OW 8125   2.381   3.676   0.892
 2409SOL    HW1 8126   2.329   3.596   0.862
 2409SOL    HW2 8127   2.435   3.711   0.816
 2410SOL     OW 8128   3.244   3.230   3.541
 2410SOL    HW1 8129   3.244   3.329   3.557
 2410SOL    HW2 8130   3.300   3.209   3.461
 2411SOL     OW 8131   5.482   0.160   4.898
 2411SOL    HW1 8132   5.405   0.213   4.863
 2411SOL    HW2 8133   5.567   0.211   4.885
 2412SOL     OW 8134   4.624   3.607   1.056
 2412SOL    HW1 8135   4.672   3.591   1.142
 2412SOL    HW2 8136   4.650   3.538   0.990
 2413SOL     OW 8137   5.188   0.587   2.054
 2413SOL    HW1 8138   5.131   0.505   2.066
 2413SOL    HW2 8139   5.146   0.663   2.104
 2414SOL     OW 8140   4.886   3.175   3.873
 2414SOL    HW1 8141   4.855   3.223   3.792
 2414SOL    HW2 8142   4.863   3.078   3.865
 2415SOL     OW 8143   4.743   1.003   3.152
 2415SOL    HW1 8144   4.763   1.002   3.054
 2415SOL    HW2 8145   4.816   1.053   3.200
 2416SOL     OW 8146   5.257   1.575   5.791
 2416SOL    HW1 8147   5.309   1.538   5.868
 2416SOL    HW2 8148   5.287   1.669   5.772
 2417SOL     OW 8149   3.220   2.949   4.568
 2417SOL    HW1 8150   3.308   2.998   4.564
 2417SOL    HW2 8151   3.236   2.857   4.603
 2418SOL     OW 8152   3.495   2.894   2.992
 2418SOL    HW1 8153   3.406   2.871   3.033
 2418SOL    HW2 8154   3.562   2.907   3.064
 2419SOL     OW 8155   0.351   6.993   2.705
 2419SOL    HW1 8156   0.313   0.027   2.629
 2419SOL    HW2 8157   0.382   6.904   2.671
 2420SOL     OW 8158   2.214   6.884   1.618
 2420SOL    HW1 8159   2.227   6.916   1.712
 2420SOL    HW2 8160   2.210   6.963   1.557
 2421SOL     OW 8161   2.446   2.140   4.968
 2421SOL    HW1 8162   2.497   2.222   4.940
 2421SOL    HW2 8163   2.389   2.162   5.047
 2422SOL     OW 8164   5.125   1.771   1.216
 2422SOL    HW1 8165   5.223   1.782   1.228
 2422SOL    HW2 8166   5.107   1.730   1.127
 2423SOL     OW 8167   2.361   5.711   2.589
 2423SOL    HW1 8168   2.314   5.686   2.505
 2423SOL    HW2 8169   2.458   5.688   2.581
 2424SOL     OW 8170   6.169   0.938   0.334
 2424SOL    HW1 8171   6.210   0.904   0.249
 2424SOL    HW2 8172   6.166   0.864   0.401
 2425SOL     OW 8173   6.769   0.130   4.086
 2425SOL    HW1 8174   6.805   0.211   4.039
 2425SOL    HW2 8175   6.817   0.048   4.052
 2426SOL     OW 8176   2.476   4.492   4.265
 2426SOL    HW1 8177   2.497   4.532   4.355
 2426SOL    HW2 8178   2.499   4.395   4.266
 2427SOL     OW 8179   6.410   6.815   6.101
 2427SOL    HW1 8180   6.471   6.737   6.085
 2427SOL    HW2 8181   6.463   6.890   6.141
 2428SOL     OW 8182   0.421   0.699   0.794
 2428SOL    HW1 8183   0.350   0.731   0.857
 2428SOL    HW2 8184   0.472   0.777   0.758
 2429SOL     OW 8185   5.390   6.007   2.144
 2429SOL    HW1 8186   5.386   5.933   2.211
 2429SOL    HW2 8187   5.306   6.009   2.090
 2430SOL     OW 8188   5.995   1.093   2.677
 2430SOL    HW1 8189   6.056   1.121   2.751
 2430SOL    HW2 8190   5.983   0.994   2.680
 2431SOL     OW 8191   4.202   0.618   2.071
 2431SOL    HW1 8192   4.258   0.553   2.122
 2431SOL    HW2 8193   4.170   0.575   1.987
 2432SOL     OW 8194   2.918   6.395   2.124
 2432SOL    HW1 8195   2.935   6.476   2.180
 2432SOL    HW2 8196   2.895   6.318   2.184
 2433SOL     OW 8197   4.231   6.867   0.237
 2433SOL    HW1 8198   4.230   6.952   0.290
 2433SOL    HW2 8199   4.232   6.789   0.300
 2434SOL     OW 8200   4.272   2.325   6.040
 2434SOL    HW1 8201   4.180   2.303   6.072
 2434SOL    HW2 8202   4.336   2.254   6.069
 2435SOL     OW 8203   5.927   5.323   4.943
 2435SOL    HW1 8204   6.004   5.354   4.888
 2435SOL    HW2 8205   5.961   5.279   5.027
 2436SOL     OW 8206   2.992   5.391   0.064
 2436SOL    HW1 8207   2.898   5.416   0.087
 2436SOL    HW2 8208   3.049   5.473   0.060
 2437SOL     OW 8209   6.973   0.156   6.015
 2437SOL    HW1 8210   6.916   0.102   6.078
 2437SOL    HW2 8211   6.923   0.171   5.930
 2438SOL     OW 8212   2.750   2.806   1.414
 2438SOL    HW1 8213   2.703   2.718   1.406
 2438SOL    HW2 8214   2.685   2.880   1.395
 2439SOL     OW 8215   6.060   4.282   5.284
 2439SOL    HW1 8216   5.969   4.243   5.269
 2439SOL    HW2 8217   6.053   4.382   5.291
 2440SOL     OW 8218   5.898   5.109   6.333
 2440SOL    HW1 8219   5.929   5.130   6.240
 2440SOL    HW2 8220   5.959   5.153   6.399
 2441SOL     OW 8221   5.902   2.345   1.026
 2441SOL    HW1 8222   5.844   2.268   1.001
 2441SOL    HW2 8223   5.925   2.339   1.123
 2442SOL     OW 8224   6.951   3.857   4.525
 2442SOL    HW1 8225   6.878   3.843   4.458
 2442SOL    HW2 8226   6.910   3.886   4.612
 2443SOL     OW 8227   3.185   4.942   5.884
 2443SOL    HW1 8228   3.097   4.966   5.926
 2443SOL    HW2 8229   3.182   4.847   5.854
 2444SOL     OW 8230   2.860   3.426   5.165
 2444SOL    HW1 8231   2.778   3.375   5.191
 2444SOL    HW2 8232   2.935   3.361   5.149
 2445SOL     OW 8233   0.667   0.437   1.067
 2445SOL    HW1 8234   0.667   0.449   1.166
 2445SOL    HW2 8235   0.683   0.526   1.023
 2446SOL     OW 8236   5.814   3.903   6.272
 2446SOL    HW1 8237   5.891   3.850   6.236
 2446SOL    HW2 8238   5.757   3.935   6.197
 2447SOL     OW 8239   0.454   2.104   0.002
 2447SOL    HW1 8240   0.497   2.187   6.986
 2447SOL    HW2 8241   0.454   2.106   0.102
 2448SOL     OW 8242   0.805   0.205   4.698
 2448SOL    HW1 8243   0.798   0.171   4.605
 2448SOL    HW2 8244   0.718   0.191   4.746
 2449SOL     OW 8245   0.196   2.761   4.813
 2449SOL    HW1 8246   0.165   2.673   4.777
 2449SOL    HW2 8247   0.201   2.756   4.913
 2450SOL     OW 8248   2.009   3.347   2.666
 2450SOL    HW1 8249   1.964   3.262   2.694
 2450SOL    HW2 8250   1.971   3.424   2.719
 2451SOL     OW 8251   2.608   6.495   4.222
 2451SOL    HW1 8252   2.544   6.472   4.149
 2451SOL    HW2 8253   2.643   6.587   4.208
 2452SOL     OW 8254   1.634   2.406   4.204
 2452SOL    HW1 8255   1.559   2.382   4.144
 2452SOL    HW2 8256   1.598   2.451   4.286
 2453SOL     OW 8257   6.952   3.463   1.059
 2453SOL    HW1 8258   7.005   3.525   1.117
 2453SOL    HW2 8259   6.928   3.381   1.111
 2454SOL     OW 8260   2.194   0.540   2.605
 2454SOL    HW1 8261   2.146   0.468   2.555
 2454SOL    HW2 8262   2.257   0.587   2.543
 2455SOL     OW 8263   5.003   4.300   0.503
 2455SOL    HW1 8264   4.952   4.219   0.474
 2455SOL    HW2 8265   5.097   4.294   0.467
 2456SOL     OW 8266   3.131   6.244   1.055
 2456SOL    HW1 8267   3.158   6.203   1.142
 2456SOL    HW2 8268   3.050   6.300   1.068
 2457SOL     OW 8269   5.891   6.320   1.261
 2457SOL    HW1 8270   5.915   6.395   1.199
 2457SOL    HW2 8271   5.801   6.283   1.236
 2458SOL     OW 8272   0.477   5.988   3.299
 2458SOL    HW1 8273   0.477   5.994   3.398
 2458SOL    HW2 8274   0.385   6.009   3.264
 2459SOL     OW 8275   1.137   0.651   0.626
 2459SOL    HW1 8276   1.147   0.556   0.597
 2459SOL    HW2 8277   1.133   0.656   0.725
 2460SOL     OW 8278   3.604   5.249   1.510
 2460SOL    HW1 8279   3.528   5.267   1.448
 2460SOL    HW2 8280   3.575   5.188   1.583
 2461SOL     OW 8281   5.205   1.152   3.430
 2461SOL    HW1 8282   5.232   1.057   3.446
 2461SOL    HW2 8283   5.284   1.212   3.446
 2462SOL     OW 8284   2.748   4.863   6.457
 2462SOL    HW1 8285   2.704   4.817   6.380
 2462SOL    HW2 8286   2.846   4.868   6.442
 2463SOL     OW 8287   0.213   1.862   4.358
 2463SOL    HW1 8288   0.125   1.826   4.388
 2463SOL    HW2 8289   0.270   1.786   4.325
 2464SOL     OW 8290   1.163   3.471   1.555
 2464SOL    HW1 8291   1.110   3.390   1.530
 2464SOL    HW2 8292   1.105   3.533   1.608
 2465SOL     OW 8293   6.209   4.839   3.111
 2465SOL    HW1 8294   6.165   4.766   3.058
 2465SOL    HW2 8295   6.275   4.799   3.174
 2466SOL     OW 8296   3.419   1.703   2.125
 2466SOL    HW1 8297   3.467   1.677   2.209
 2466SOL    HW2 8298   3.446   1.641   2.051
 2467SOL     OW 8299   6.805   1.426   5.624
 2467SOL    HW1 8300   6.812   1.391   5.531
 2467SOL    HW2 8301   6.787   1.524   5.622
 2468SOL     OW 8302   6.975   4.087   0.227
 2468SOL    HW1 8303   7.017   4.177   0.218
 2468SOL    HW2 8304   6.997   4.031   0.147
 2469SOL     OW 8305   3.266   3.129   5.395
 2469SOL    HW1 8306   3.240   3.210   5.447
 2469SOL    HW2 8307   3.312   3.156   5.311
 2470SOL     OW 8308   5.642   2.805   0.413
 2470SOL    HW1 8309   5.605   2.892   0.446
 2470SOL    HW2 8310   5.597   2.729   0.461
 2471SOL     OW 8311   0.231   0.307   3.657
 2471SOL    HW1 8312   0.155   0.361   3.693
 2471SOL    HW2 8313   0.198   0.215   3.634
 2472SOL     OW 8314   5.575   1.397   3.623
 2472SOL    HW1 8315   5.516   1.477   3.634
 2472SOL    HW2 8316   5.548   1.327   3.689
 2473SOL     OW 8317   0.348   7.007   5.626
 2473SOL    HW1 8318   0.447   0.004   5.621
 2473SOL    HW2 8319   0.316   0.005   5.719
 2474SOL     OW 8320   6.176   5.804   4.644
 2474SOL    HW1 8321   6.111   5.845   4.579
 2474SOL    HW2 8322   6.230   5.876   4.687
 2475SOL     OW 8323   4.718   2.279   6.235
 2475SOL    HW1 8324   4.739   2.189   6.274
 2475SOL    HW2 8325   4.640   2.319   6.283
 2476SOL     OW 8326   0.742   1.617   3.509
 2476SOL    HW1 8327   0.830   1.571   3.522
 2476SOL    HW2 8328   0.750   1.712   3.538
 2477SOL     OW 8329   4.681   5.113   2.643
 2477SOL    HW1 8330   4.780   5.098   2.652
 2477SOL    HW2 8331   4.652   5.088   2.551
 2478SOL     OW 8332   6.518   7.013   3.450
 2478SOL    HW1 8333   6.540   0.047   3.532
 2478SOL    HW2 8334   6.431   0.026   3.412
 2479SOL     OW 8335   0.486   2.477   0.012
 2479SOL    HW1 8336   0.560   2.446   0.072
 2479SOL    HW2 8337   0.512   2.464   6.936
 2480SOL     OW 8338   0.970   4.667   2.209
 2480SOL    HW1 8339   0.895   4.610   2.175
 2480SOL    HW2 8340   0.942   4.763   2.206
 2481SOL     OW 8341   3.898   4.953   2.557
 2481SOL    HW1 8342   3.802   4.929   2.541
 2481SOL    HW2 8343   3.907   4.993   2.649
 2482SOL     OW 8344   4.724   2.612   3.863
 2482SOL    HW1 8345   4.738   2.644   3.956
 2482SOL    HW2 8346   4.803   2.559   3.833
 2483SOL     OW 8347   0.489   2.673   6.632
 2483SOL    HW1 8348   0.410   2.721   6.669
 2483SOL    HW2 8349   0.505   2.703   6.537
 2484SOL     OW 8350   3.727   3.069   6.257
 2484SOL    HW1 8351   3.789   3.002   6.215
 2484SOL    HW2 8352   3.736   3.157   6.211
 2485SOL     OW 8353   1.143   6.006   1.176
 2485SOL    HW1 8354   1.236   5.976   1.158
 2485SOL    HW2 8355   1.135   6.104   1.158
 2486SOL     OW 8356   0.759   5.099   3.124
 2486SOL    HW1 8357   0.710   5.122   3.040
 2486SOL    HW2 8358   0.703   5.036   3.179
 2487SOL     OW 8359   2.899   1.087   1.110
 2487SOL    HW1 8360   2.873   1.011   1.170
 2487SOL    HW2 8361   2.907   1.170   1.165
 2488SOL     OW 8362   2.918   6.544   6.514
 2488SOL    HW1 8363   2.965   6.526   6.428
 2488SOL    HW2 8364   2.959   6.491   6.588
 2489SOL     OW 8365   6.622   6.103   4.623
 2489SOL    HW1 8366   6.548   6.150   4.575
 2489SOL    HW2 8367   6.587   6.019   4.663
 2490SOL     OW 8368   5.288   3.212   1.784
 2490SOL    HW1 8369   5.236   3.127   1.788
 2490SOL    HW2 8370   5.372   3.203   1.837
 2491SOL     OW 8371   6.981   4.264   2.626
 2491SOL    HW1 8372   6.882   4.280   2.629
 2491SOL    HW2 8373   6.999   4.166   2.618
 2492SOL     OW 8374   4.100   1.883   5.968
 2492SOL    HW1 8375   4.029   1.854   5.904
 2492SOL    HW2 8376   4.106   1.817   6.043
 2493SOL     OW 8377   6.682   1.246   4.728
 2493SOL    HW1 8378   6.609   1.249   4.659
 2493SOL    HW2 8379   6.769   1.228   4.684
 2494SOL     OW 8380   4.287   4.582   1.136
 2494SOL    HW1 8381   4.214   4.546   1.078
 2494SOL    HW2 8382   4.372   4.586   1.085
 2495SOL     OW 8383   6.558   0.904   3.275
 2495SOL    HW1 8384   6.553   0.841   3.198
 2495SOL    HW2 8385   6.653   0.909   3.307
 2496SOL     OW 8386   1.878   5.676   6.750
 2496SOL    HW1 8387   1.963   5.679   6.803
 2496SOL    HW2 8388   1.815   5.746   6.784
 2497SOL     OW 8389   5.656   0.686   6.968
 2497SOL    HW1 8390   5.738   0.679   0.006
 2497SOL    HW2 8391   5.625   0.781   6.966
 2498SOL     OW 8392   0.528   3.012   4.994
 2498SOL    HW1 8393   0.568   3.057   5.074
 2498SOL    HW2 8394   0.590   3.023   4.916
 2499SOL     OW 8395   5.193   0.377   0.142
 2499SOL    HW1 8396   5.208   0.476   0.142
 2499SOL    HW2 8397   5.255   0.334   0.208
 2500SOL     OW 8398   4.243   3.478   6.603
 2500SOL    HW1 8399   4.278   3.519   6.518
 2500SOL    HW2 8400   4.167   3.533   6.637
 2501SOL     OW 8401   6.292   5.048   0.885
 2501SOL    HW1 8402   6.301   4.993   0.969
 2501SOL    HW2 8403   6.364   5.023   0.821
 2502SOL     OW 8404   1.038   6.451   2.862
 2502SOL    HW1 8405   1.014   6.545   2.887
 2502SOL    HW2 8406   1.068   6.402   2.944
 2503SOL     OW 8407   4.842   6.968   4.485
 2503SOL    HW1 8408   4.894   6.924   4.411
 2503SOL    HW2 8409   4.894   0.025   4.522
 2504SOL     OW 8410   2.208   4.203   3.032
 2504SOL    HW1 8411   2.127   4.188   3.089
 2504SOL    HW2 8412   2.224   4.122   2.975
 2505SOL     OW 8413   5.141   4.256   4.573
 2505SOL    HW1 8414   5.120   4.278   4.668
 2505SOL    HW2 8415   5.073   4.297   4.513
 2506SOL     OW 8416   0.820   1.717   0.834
 2506SOL    HW1 8417   0.877   1.679   0.907
 2506SOL    HW2 8418   0.877   1.771   0.772
 2507SOL     OW 8419   6.628   6.169   0.639
 2507SOL    HW1 8420   6.707   6.149   0.698
 2507SOL    HW2 8421   6.566   6.231   0.686
 2508SOL     OW 8422   2.309   2.438   1.861
 2508SOL    HW1 8423   2.242   2.434   1.787
 2508SOL    HW2 8424   2.398   2.411   1.827
 2509SOL     OW 8425   5.401   0.999   3.666
 2509SOL    HW1 8426   5.462   0.978   3.590
 2509SOL    HW2 8427   5.415   1.094   3.695
 2510SOL     OW 8428   3.767   6.203   2.142
 2510SOL    HW1 8429   3.788   6.177   2.236
 2510SOL    HW2 8430   3.685   6.260   2.141
 2511SOL     OW 8431   0.711   6.625   3.723
 2511SOL    HW1 8432   0.692   6.609   3.820
 2511SOL    HW2 8433   0.726   6.722   3.707
 2512SOL     OW 8434   5.525   2.826   4.328
 2512SOL    HW1 8435   5.490   2.741   4.365
 2512SOL    HW2 8436   5.622   2.836   4.351
 2513SOL     OW 8437   0.143   4.654   1.335
 2513SOL    HW1 8438   0.165   4.738   1.285
 2513SOL    HW2 8439   0.048   4.656   1.364
 2514SOL     OW 8440   0.589   2.540   3.216
 2514SOL    HW1 8441   0.603   2.594   3.133
 2514SOL    HW2 8442   0.505   2.571   3.261
 2515SOL     OW 8443   1.006   4.715   0.123
 2515SOL    HW1 8444   1.058   4.762   0.194
 2515SOL    HW2 8445   1.052   4.629   0.099
 2516SOL     OW 8446   5.309   6.090   4.257
 2516SOL    HW1 8447   5.324   6.096   4.158
 2516SOL    HW2 8448   5.225   6.140   4.280
 2517SOL     OW 8449   2.879   5.564   0.667
 2517SOL    HW1 8450   2.823   5.647   0.670
 2517SOL    HW2 8451   2.882   5.529   0.574
 2518SOL     OW 8452   1.908   3.204   6.372
 2518SOL    HW1 8453   1.830   3.149   6.399
 2518SOL    HW2 8454   1.946   3.250   6.452
 2519SOL     OW 8455   5.384   4.069   5.269
 2519SOL    HW1 8456   5.294   4.092   5.232
 2519SOL    HW2 8457   5.449   4.058   5.193
 2520SOL     OW 8458   3.340   5.499   1.767
 2520SOL    HW1 8459   3.322   5.573   1.832
 2520SOL    HW2 8460   3.423   5.520   1.716
 2521SOL     OW 8461   5.869   0.026   5.837
 2521SOL    HW1 8462   5.814   6.969   5.871
 2521SOL    HW2 8463   5.945   7.009   5.783
 2522SOL     OW 8464   1.975   4.543   4.026
 2522SOL    HW1 8465   1.971   4.555   3.927
 2522SOL    HW2 8466   2.042   4.607   4.065
 2523SOL     OW 8467   0.454   2.592   5.514
 2523SOL    HW1 8468   0.401   2.561   5.435
 2523SOL    HW2 8469   0.409   2.670   5.557
 2524SOL     OW 8470   0.967   6.968   5.386
 2524SOL    HW1 8471   0.924   0.018   5.444
 2524SOL    HW2 8472   1.065   6.965   5.404
 2525SOL     OW 8473   1.803   4.089   2.939
 2525SOL    HW1 8474   1.719   4.118   2.893
 2525SOL    HW2 8475   1.858   4.033   2.876
 2526SOL     OW 8476   1.048   2.483   4.955
 2526SOL    HW1 8477   1.026   2.501   4.859
 2526SOL    HW2 8478   1.088   2.392   4.964
 2527SOL     OW 8479   6.548   7.000   3.766
 2527SOL    HW1 8480   6.519   0.066   3.809
 2527SOL    HW2 8481   6.486   6.927   3.791
 2528SOL     OW 8482   5.848   5.118   0.155
 2528SOL    HW1 8483   5.858   5.151   0.249
 2528SOL    HW2 8484   5.907   5.039   0.141
 2529SOL     OW 8485   5.356   4.050   4.986
 2529SOL    HW1 8486   5.275   4.101   4.957
 2529SOL    HW2 8487   5.344   3.953   4.965
 2530SOL     OW 8488   0.761   6.340   3.772
 2530SOL    HW1 8489   0.759   6.436   3.743
 2530SOL    HW2 8490   0.843   6.296   3.733
 2531SOL     OW 8491   5.040   1.425   0.131
 2531SOL    HW1 8492   5.017   1.372   0.213
 2531SOL    HW2 8493   4.962   1.484   0.107
 2532SOL     OW 8494   0.848   4.672   6.203
 2532SOL    HW1 8495   0.789   4.716   6.135
 2532SOL    HW2 8496   0.932   4.641   6.158
 2533SOL     OW 8497   6.098   6.759   5.576
 2533SOL    HW1 8498   6.111   6.781   5.672
 2533SOL    HW2 8499   6.011   6.796   5.544
 2534SOL     OW 8500   0.002   1.740   2.700
 2534SOL    HW1 8501   7.006   1.713   2.795
 2534SOL    HW2 8502   0.096   1.719   2.673
 2535SOL     OW 8503   2.034   1.361   3.071
 2535SOL    HW1 8504   1.965   1.433   3.062
 2535SOL    HW2 8505   2.104   1.372   3.001
 2536SOL     OW 8506   0.531   0.620   3.857
 2536SOL    HW1 8507   0.496   0.536   3.817
 2536SOL    HW2 8508   0.526   0.615   3.957
 2537SOL     OW 8509   3.745   5.846   2.093
 2537SOL    HW1 8510   3.724   5.840   1.995
 2537SOL    HW2 8511   3.685   5.785   2.144
 2538SOL     OW 8512   1.450   4.496   4.550
 2538SOL    HW1 8513   1.539   4.459   4.577
 2538SOL    HW2 8514   1.438   4.587   4.590
 2539SOL     OW 8515   2.673   0.910   5.776
 2539SOL    HW1 8516   2.736   0.862   5.714
 2539SOL    HW2 8517   2.714   0.996   5.806
 2540SOL     OW 8518   5.411   1.732   2.498
 2540SOL    HW1 8519   5.444   1.785   2.420
 2540SOL    HW2 8520   5.376   1.795   2.568
 2541SOL     OW 8521   0.358   0.761   6.195
 2541SOL    HW1 8522   0.401   0.808   6.273
 2541SOL    HW2 8523   0.429   0.718   6.139
 2542SOL     OW 8524   3.928   2.032   3.479
 2542SOL    HW1 8525   3.844   2.060   3.527
 2542SOL    HW2 8526   3.908   2.022   3.381
 2543SOL     OW 8527   0.024   1.618   4.193
 2543SOL    HW1 8528   7.004   1.581   4.277
 2543SOL    HW2 8529   0.122   1.630   4.204
 2544SOL     OW 8530   6.735   5.955   1.922
 2544SOL    HW1 8531   6.746   5.971   1.824
 2544SOL    HW2 8532   6.748   5.858   1.941
 2545SOL     OW 8533   6.214   1.966   0.209
 2545SOL    HW1 8534   6.195   1.995   0.303
 2545SOL    HW2 8535   6.233   2.046   0.152
 2546SOL     OW 8536   6.295   3.137   1.840
 2546SOL    HW1 8537   6.344   3.219   1.871
 2546SOL    HW2 8538   6.245   3.098   1.917
 2547SOL     OW 8539   5.419   4.194   1.115
 2547SOL    HW1 8540   5.349   4.133   1.077
 2547SOL    HW2 8541   5.378   4.252   1.185
 2548SOL     OW 8542   5.954   0.352   5.880
 2548SOL    HW1 8543   5.986   0.428   5.936
 2548SOL    HW2 8544   5.931   0.275   5.938
 2549SOL     OW 8545   2.747   4.477   0.674
 2549SOL    HW1 8546   2.670   4.416   0.660
 2549SOL    HW2 8547   2.719   4.571   0.656
 2550SOL     OW 8548   3.707   6.122   0.568
 2550SOL    HW1 8549   3.693   6.199   0.506
 2550SOL    HW2 8550   3.642   6.127   0.643
 2551SOL     OW 8551   3.847   4.920   1.115
 2551SOL    HW1 8552   3.752   4.900   1.089
 2551SOL    HW2 8553   3.908   4.894   1.040
 2552SOL     OW 8554   2.417   4.560   1.911
 2552SOL    HW1 8555   2.487   4.561   1.840
 2552SOL    HW2 8556   2.460   4.543   2.000
 2553SOL     OW 8557   4.639   1.435   0.337
 2553SOL    HW1 8558   4.687   1.494   0.272
 2553SOL    HW2 8559   4.619   1.347   0.294
 2554SOL     OW 8560   1.501   5.408   0.808
 2554SOL    HW1 8561   1.566   5.419   0.884
 2554SOL    HW2 8562   1.434   5.337   0.831
 2555SOL     OW 8563   6.454   0.154   5.067
 2555SOL    HW1 8564   6.403   0.116   5.144
 2555SOL    HW2 8565   6.527   0.090   5.041
 2556SOL     OW 8566   4.307   6.891   0.549
 2556SOL    HW1 8567   4.281   6.797   0.527
 2556SOL    HW2 8568   4.225   6.943   0.575
 2557SOL     OW 8569   2.698   0.903   6.964
 2557SOL    HW1 8570   2.733   0.979   6.908
 2557SOL    HW2 8571   2.745   0.819   6.938
 2558SOL     OW 8572   5.497   1.828   1.749
 2558SOL    HW1 8573   5.558   1.772   1.806
 2558SOL    HW2 8574   5.536   1.836   1.657
 2559SOL     OW 8575   0.374   5.285   3.107
 2559SOL    HW1 8576   0.430   5.204   3.085
 2559SOL    HW2 8577   0.318   5.309   3.028
 2560SOL     OW 8578   5.230   2.321   2.833
 2560SOL    HW1 8579   5.165   2.254   2.870
 2560SOL    HW2 8580   5.191   2.365   2.752
 2561SOL     OW 8581   3.320   7.001   4.315
 2561SOL    HW1 8582   3.268   0.029   4.245
 2561SOL    HW2 8583   3.411   6.978   4.280
 2562SOL     OW 8584   1.686   6.890   5.004
 2562SOL    HW1 8585   1.774   6.844   5.016
 2562SOL    HW2 8586   1.614   6.835   5.047
 2563SOL     OW 8587   3.446   2.717   6.655
 2563SOL    HW1 8588   3.508   2.788   6.623
 2563SOL    HW2 8589   3.488   2.668   6.731
 2564SOL     OW 8590   1.212   2.165   0.287
 2564SOL    HW1 8591   1.283   2.143   0.220
 2564SOL    HW2 8592   1.128   2.189   0.239
 2565SOL     OW 8593   0.866   0.804   0.712
 2565SOL    HW1 8594   0.957   0.766   0.698
 2565SOL    HW2 8595   0.871   0.904   0.707
 2566SOL     OW 8596   2.841   0.798   1.130
 2566SOL    HW1 8597   2.903   0.736   1.179
 2566SOL    HW2 8598   2.756   0.807   1.181
 2567SOL     OW 8599   1.360   0.597   6.400
 2567SOL    HW1 8600   1.304   0.665   6.354
 2567SOL    HW2 8601   1.417   0.641   6.469
 2568SOL     OW 8602   2.041   5.626   1.124
 2568SOL    HW1 8603   1.991   5.543   1.103
 2568SOL    HW2 8604   2.046   5.639   1.223
 2569SOL     OW 8605   1.942   0.174   0.111
 2569SOL    HW1 8606   1.946   0.172   0.011
 2569SOL    HW2 8607   1.933   0.081   0.146
 2570SOL     OW 8608   0.545   5.848   4.407
 2570SOL    HW1 8609   0.623   5.803   4.449
 2570SOL    HW2 8610   0.576   5.920   4.345
 2571SOL     OW 8611   3.157   4.050   3.752
 2571SOL    HW1 8612   3.175   4.076   3.846
 2571SOL    HW2 8613   3.079   3.987   3.749
 2572SOL     OW 8614   2.039   5.191   2.309
 2572SOL    HW1 8615   2.022   5.113   2.369
 2572SOL    HW2 8616   2.123   5.176   2.257
 2573SOL     OW 8617   6.924   1.676   3.205
 2573SOL    HW1 8618   6.917   1.769   3.242
 2573SOL    HW2 8619   6.855   1.618   3.248
 2574SOL     OW 8620   0.750   3.366   1.887
 2574SOL    HW1 8621   0.651   3.358   1.897
 2574SOL    HW2 8622   0.794   3.281   1.915
 2575SOL     OW 8623   4.796   3.510   6.168
 2575SOL    HW1 8624   4.742   3.460   6.100
 2575SOL    HW2 8625   4.773   3.607   6.163
 2576SOL     OW 8626   1.618   6.922   3.418
 2576SOL    HW1 8627   1.615   6.943   3.320
 2576SOL    HW2 8628   1.574   6.996   3.469
 2577SOL     OW 8629   1.803   5.259   1.323
 2577SOL    HW1 8630   1.743   5.322   1.372
 2577SOL    HW2 8631   1.877   5.229   1.384
 2578SOL     OW 8632   4.379   2.101   4.550
 2578SOL    HW1 8633   4.317   2.059   4.484
 2578SOL    HW2 8634   4.348   2.082   4.643
 2579SOL     OW 8635   6.905   1.427   6.456
 2579SOL    HW1 8636   6.987   1.473   6.423
 2579SOL    HW2 8637   6.917   1.404   6.553
 2580SOL     OW 8638   1.276   1.431   6.221
 2580SOL    HW1 8639   1.177   1.415   6.225
 2580SOL    HW2 8640   1.297   1.490   6.143
 2581SOL     OW 8641   6.438   6.743   4.888
 2581SOL    HW1 8642   6.429   6.747   4.788
 2581SOL    HW2 8643   6.532   6.768   4.913
 2582SOL     OW 8644   0.605   5.279   2.632
 2582SOL    HW1 8645   0.509   5.304   2.633
 2582SOL    HW2 8646   0.661   5.361   2.620
 2583SOL     OW 8647   2.383   1.068   6.514
 2583SOL    HW1 8648   2.413   0.974   6.497
 2583SOL    HW2 8649   2.301   1.066   6.571
 2584SOL     OW 8650   4.962   6.835   2.636
 2584SOL    HW1 8651   4.921   6.883   2.714
 2584SOL    HW2 8652   5.005   6.901   2.575
 2585SOL     OW 8653   4.191   1.521   2.140
 2585SOL    HW1 8654   4.107   1.492   2.095
 2585SOL    HW2 8655   4.254   1.560   2.071
 2586SOL     OW 8656   6.677   1.250   4.253
 2586SOL    HW1 8657   6.635   1.253   4.162
 2586SOL    HW2 8658   6.771   1.218   4.245
 2587SOL     OW 8659   6.770   5.882   2.810
 2587SOL    HW1 8660   6.861   5.905   2.845
 2587SOL    HW2 8661   6.738   5.956   2.751
 2588SOL     OW 8662   4.951   0.137   1.890
 2588SOL    HW1 8663   5.027   0.081   1.856
 2588SOL    HW2 8664   4.902   0.177   1.813
 2589SOL     OW 8665   5.221   5.778   0.705
 2589SOL    HW1 8666   5.200   5.834   0.626
 2589SOL    HW2 8667   5.141   5.770   0.764
 2590SOL     OW 8668   3.247   6.360   3.103
 2590SOL    HW1 8669   3.158   6.397   3.078
 2590SOL    HW2 8670   3.287   6.311   3.026
 2591SOL     OW 8671   6.357   6.936   1.142
 2591SOL    HW1 8672   6.333   6.889   1.226
 2591SOL    HW2 8673   6.417   6.877   1.087
 2592SOL     OW 8674   3.305   4.810   1.582
 2592SOL    HW1 8675   3.330   4.856   1.496
 2592SOL    HW2 8676   3.312   4.711   1.570
 2593SOL     OW 8677   3.666   0.171   2.868
 2593SOL    HW1 8678   3.626   0.121   2.944
 2593SOL    HW2 8679   3.680   0.110   2.790
 2594SOL     OW 8680   1.181   6.195   6.579
 2594SOL    HW1 8681   1.234   6.277   6.557
 2594SOL    HW2 8682   1.087   6.208   6.549
 2595SOL     OW 8683   6.340   2.586   3.846
 2595SOL    HW1 8684   6.362   2.596   3.943
 2595SOL    HW2 8685   6.252   2.540   3.837
 2596SOL     OW 8686   4.155   2.345   1.347
 2596SOL    HW1 8687   4.207   2.310   1.425
 2596SOL    HW2 8688   4.058   2.353   1.374
 2597SOL     OW 8689   2.136   2.155   6.507
 2597SOL    HW1 8690   2.157   2.058   6.518
 2597SOL    HW2 8691   2.213   2.211   6.537
 2598SOL     OW 8692   6.384   1.463   2.528
 2598SOL    HW1 8693   6.383   1.459   2.429
 2598SOL    HW2 8694   6.314   1.402   2.565
 2599SOL     OW 8695   4.567   4.669   6.309
 2599SOL    HW1 8696   4.589   4.762   6.277
 2599SOL    HW2 8697   4.485   4.672   6.366
 2600SOL     OW 8698   6.549   2.891   4.133
 2600SOL    HW1 8699   6.499   2.969   4.171
 2600SOL    HW2 8700   6.642   2.919   4.109
 2601SOL     OW 8701   3.748   3.829   4.821
 2601SOL    HW1 8702   3.731   3.830   4.919
 2601SOL    HW2 8703   3.833   3.877   4.801
 2602SOL     OW 8704   6.543   5.957   5.801
 2602SOL    HW1 8705   6.456   5.920   5.834
 2602SOL    HW2 8706   6.610   5.883   5.791
 2603SOL     OW 8707   1.834   2.432   6.742
 2603SOL    HW1 8708   1.867   2.473   6.826
 2603SOL    HW2 8709   1.792   2.503   6.685
 2604SOL     OW 8710   6.137   1.328   0.842
 2604SOL    HW1 8711   6.168   1.347   0.749
 2604SOL    HW2 8712   6.138   1.229   0.858
 2605SOL     OW 8713   5.175   3.494   3.947
 2605SOL    HW1 8714   5.075   3.497   3.942
 2605SOL    HW2 8715   5.207   3.573   3.999
 2606SOL     OW 8716   6.600   4.569   1.344
 2606SOL    HW1 8717   6.651   4.595   1.263
 2606SOL    HW2 8718   6.504   4.551   1.320
 2607SOL     OW 8719   1.116   1.748   4.455
 2607SOL    HW1 8720   1.176   1.792   4.522
 2607SOL    HW2 8721   1.162   1.668   4.416
 2608SOL     OW 8722   5.191   6.961   0.528
 2608SOL    HW1 8723   5.173   6.989   0.623
 2608SOL    HW2 8724   5.183   0.022   0.468
 2609SOL     OW 8725   0.665   2.997   3.860
 2609SOL    HW1 8726   0.740   3.025   3.919
 2609SOL    HW2 8727   0.621   2.915   3.897
 2610SOL     OW 8728   5.718   5.266   4.762
 2610SOL    HW1 8729   5.778   5.254   4.841
 2610SOL    HW2 8730   5.622   5.262   4.792
 2611SOL     OW 8731   2.919   5.667   2.424
 2611SOL    HW1 8732   2.993   5.653   2.490
 2611SOL    HW2 8733   2.952   5.722   2.347
 2612SOL     OW 8734   6.641   6.982   5.035
 2612SOL    HW1 8735   6.662   6.980   4.938
 2612SOL    HW2 8736   6.725   6.996   5.088
 2613SOL     OW 8737   3.390   0.895   0.333
 2613SOL    HW1 8738   3.322   0.964   0.311
 2613SOL    HW2 8739   3.354   0.833   0.403
 2614SOL     OW 8740   6.199   6.053   6.952
 2614SOL    HW1 8741   6.227   5.961   6.979
 2614SOL    HW2 8742   6.281   6.110   6.942
 2615SOL     OW 8743   5.489   5.051   2.179
 2615SOL    HW1 8744   5.454   4.960   2.200
 2615SOL    HW2 8745   5.436   5.091   2.104
 2616SOL     OW 8746   4.086   3.692   2.159
 2616SOL    HW1 8747   4.112   3.674   2.064
 2616SOL    HW2 8748   4.099   3.609   2.213
 2617SOL     OW 8749   2.762   0.303   0.902
 2617SOL    HW1 8750   2.776   0.363   0.981
 2617SOL    HW2 8751   2.772   0.208   0.930
 2618SOL     OW 8752   1.122   0.213   0.680
 2618SOL    HW1 8753   1.133   0.290   0.617
 2618SOL    HW2 8754   1.154   0.129   0.635
 2619SOL     OW 8755   5.712   1.770   1.092
 2619SOL    HW1 8756   5.766   1.700   1.139
 2619SOL    HW2 8757   5.744   1.778   0.998
 2620SOL     OW 8758   1.663   5.219   3.885
 2620SOL    HW1 8759   1.619   5.139   3.843
 2620SOL    HW2 8760   1.718   5.189   3.963
 2621SOL     OW 8761   0.519   5.751   3.480
 2621SOL    HW1 8762   0.437   5.713   3.437
 2621SOL    HW2 8763   0.597   5.690   3.463
 2622SOL     OW 8764   2.378   3.000   5.826
 2622SOL    HW1 8765   2.324   2.927   5.784
 2622SOL    HW2 8766   2.392   3.074   5.759
 2623SOL     OW 8767   3.448   0.811   6.517
 2623SOL    HW1 8768   3.493   0.826   6.605
 2623SOL    HW2 8769   3.365   0.757   6.530
 2624SOL     OW 8770   6.558   2.072   3.932
 2624SOL    HW1 8771   6.540   1.998   3.996
 2624SOL    HW2 8772   6.512   2.155   3.963
 2625SOL     OW 8773   4.405   0.227   5.473
 2625SOL    HW1 8774   4.488   0.189   5.513
 2625SOL    HW2 8775   4.345   0.152   5.445
 2626SOL     OW 8776   2.528   6.885   2.212
 2626SOL    HW1 8777   2.573   6.972   2.233
 2626SOL    HW2 8778   2.595   6.811   2.219
 2627SOL     OW 8779   0.707   1.330   4.557
 2627SOL    HW1 8780   0.702   1.246   4.611
 2627SOL    HW2 8781   0.628   1.336   4.497
 2628SOL     OW 8782   3.754   6.029   6.329
 2628SOL    HW1 8783   3.847   5.995   6.318
 2628SOL    HW2 8784   3.757   6.127   6.352
 2629SOL     OW 8785   3.047   3.749   1.253
 2629SOL    HW1 8786   3.048   3.674   1.319
 2629SOL    HW2 8787   3.120   3.814   1.275
 2630SOL     OW 8788   2.764   2.307   2.290
 2630SOL    HW1 8789   2.813   2.329   2.206
 2630SOL    HW2 8790   2.711   2.387   2.320
 2631SOL     OW 8791   4.471   6.688   4.617
 2631SOL    HW1 8792   4.444   6.596   4.645
 2631SOL    HW2 8793   4.560   6.684   4.570
 2632SOL     OW 8794   5.635   0.943   1.080
 2632SOL    HW1 8795   5.626   1.007   1.003
 2632SOL    HW2 8796   5.577   0.863   1.063
 2633SOL     OW 8797   0.020   2.711   6.050
 2633SOL    HW1 8798   6.959   2.665   6.087
 2633SOL    HW2 8799   0.072   2.752   6.124
 2634SOL     OW 8800   3.333   5.141   1.179
 2634SOL    HW1 8801   3.365   5.170   1.089
 2634SOL    HW2 8802   3.234   5.125   1.176
 2635SOL     OW 8803   5.962   4.679   3.512
 2635SOL    HW1 8804   5.981   4.747   3.441
 2635SOL    HW2 8805   5.869   4.693   3.548
 2636SOL     OW 8806   5.759   0.231   4.873
 2636SOL    HW1 8807   5.734   0.326   4.893
 2636SOL    HW2 8808   5.859   0.224   4.865
 2637SOL     OW 8809   4.881   6.585   2.731
 2637SOL    HW1 8810   4.924   6.664   2.686
 2637SOL    HW2 8811   4.919   6.501   2.693
 2638SOL     OW 8812   5.363   5.563   0.772
 2638SOL    HW1 8813   5.323   5.647   0.734
 2638SOL    HW2 8814   5.444   5.586   0.825
 2639SOL     OW 8815   6.645   6.571   6.898
 2639SOL    HW1 8816   6.653   6.475   6.872
 2639SOL    HW2 8817   6.553   6.589   6.933
 2640SOL     OW 8818   5.903   6.942   6.233
 2640SOL    HW1 8819   5.817   6.919   6.280
 2640SOL    HW2 8820   5.925   6.870   6.167
 2641SOL     OW 8821   5.906   5.222   0.404
 2641SOL    HW1 8822   5.861   5.299   0.361
 2641SOL    HW2 8823   5.884   5.220   0.501
 2642SOL     OW 8824   6.751   0.179   3.449
 2642SOL    HW1 8825   6.754   0.219   3.357
 2642SOL    HW2 8826   6.682   0.226   3.503
 2643SOL     OW 8827   0.927   0.880   2.119
 2643SOL    HW1 8828   0.929   0.790   2.075
 2643SOL    HW2 8829   0.916   0.867   2.218
 2644SOL     OW 8830   0.056   5.647   5.920
 2644SOL    HW1 8831   0.150   5.616   5.937
 2644SOL    HW2 8832   0.016   5.593   5.845
 2645SOL     OW 8833   6.138   5.434   6.092
 2645SOL    HW1 8834   6.080   5.446   6.172
 2645SOL    HW2 8835   6.230   5.408   6.121
 2646SOL     OW 8836   6.447   6.248   6.978
 2646SOL    HW1 8837   6.433   6.306   6.899
 2646SOL    HW2 8838   6.452   6.304   0.041
 2647SOL     OW 8839   3.341   3.044   0.440
 2647SOL    HW1 8840   3.394   3.117   0.397
 2647SOL    HW2 8841   3.356   3.046   0.539
 2648SOL     OW 8842   4.024   1.039   3.235
 2648SOL    HW1 8843   4.052   1.024   3.330
 2648SOL    HW2 8844   4.039   1.135   3.211
 2649SOL     OW 8845   3.478   2.683   5.295
 2649SOL    HW1 8846   3.463   2.738   5.378
 2649SOL    HW2 8847   3.421   2.601   5.299
 2650SOL     OW 8848   6.943   6.373   2.536
 2650SOL    HW1 8849   6.971   6.452   2.482
 2650SOL    HW2 8850   7.003   6.296   2.514
 2651SOL     OW 8851   0.650   0.211   3.682
 2651SOL    HW1 8852   0.734   0.262   3.665
 2651SOL    HW2 8853   0.654   0.123   3.633
 2652SOL     OW 8854   3.293   3.212   2.798
 2652SOL    HW1 8855   3.331   3.131   2.843
 2652SOL    HW2 8856   3.368   3.270   2.766
 2653SOL     OW 8857   6.162   5.387   0.029
 2653SOL    HW1 8858   6.250   5.424   0.060
 2653SOL    HW2 8859   6.169   5.287   0.023
 2654SOL     OW 8860   5.673   1.613   6.058
 2654SOL    HW1 8861   5.724   1.532   6.085
 2654SOL    HW2 8862   5.728   1.695   6.078
 2655SOL     OW 8863   4.789   5.438   5.226
 2655SOL    HW1 8864   4.755   5.469   5.137
 2655SOL    HW2 8865   4.721   5.459   5.297
 2656SOL     OW 8866   5.271   3.531   4.393
 2656SOL    HW1 8867   5.283   3.618   4.345
 2656SOL    HW2 8868   5.174   3.511   4.402
 2657SOL     OW 8869   2.849   2.246   5.808
 2657SOL    HW1 8870   2.882   2.340   5.816
 2657SOL    HW2 8871   2.831   2.209   5.899
 2658SOL     OW 8872   5.907   4.509   5.607
 2658SOL    HW1 8873   5.957   4.566   5.542
 2658SOL    HW2 8874   5.933   4.534   5.700
 2659SOL     OW 8875   6.631   1.737   2.836
 2659SOL    HW1 8876   6.616   1.680   2.755
 2659SOL    HW2 8877   6.562   1.809   2.840
 2660SOL     OW 8878   6.523   1.907   2.549
 2660SOL    HW1 8879   6.542   1.946   2.459
 2660SOL    HW2 8880   6.424   1.901   2.563
 2661SOL     OW 8881   3.728   6.516   1.888
 2661SOL    HW1 8882   3.744   6.545   1.982
 2661SOL    HW2 8883   3.684   6.589   1.837
 2662SOL     OW 8884   3.924   6.903   3.757
 2662SOL    HW1 8885   3.936   6.897   3.856
 2662SOL    HW2 8886   3.903   6.997   3.732
 2663SOL     OW 8887   0.900   4.449   3.191
 2663SOL    HW1 8888   0.882   4.411   3.282
 2663SOL    HW2 8889   0.856   4.539   3.184
 2664SOL     OW 8890   4.192   3.826   1.741
 2664SOL    HW1 8891   4.260   3.896   1.720
 2664SOL    HW2 8892   4.143   3.852   1.824
 2665SOL     OW 8893   4.580   0.923   4.519
 2665SOL    HW1 8894   4.637   0.973   4.584
 2665SOL    HW2 8895   4.531   0.850   4.567
 2666SOL     OW 8896   5.097   6.020   1.975
 2666SOL    HW1 8897   5.030   5.992   2.044
 2666SOL    HW2 8898   5.059   6.093   1.919
 2667SOL     OW 8899   1.581   4.978   3.714
 2667SOL    HW1 8900   1.664   4.922   3.720
 2667SOL    HW2 8901   1.589   5.042   3.637
 2668SOL     OW 8902   6.053   2.550   5.758
 2668SOL    HW1 8903   6.124   2.513   5.818
 2668SOL    HW2 8904   6.085   2.636   5.717
 2669SOL     OW 8905   4.013   5.424   5.539
 2669SOL    HW1 8906   3.974   5.347   5.490
 2669SOL    HW2 8907   3.941   5.470   5.591
 2670SOL     OW 8908   1.808   0.145   5.683
 2670SOL    HW1 8909   1.891   0.200   5.689
 2670SOL    HW2 8910   1.751   0.179   5.609
 2671SOL     OW 8911   3.429   4.209   5.975
 2671SOL    HW1 8912   3.402   4.184   6.068
 2671SOL    HW2 8913   3.453   4.127   5.923
 2672SOL     OW 8914   0.910   4.051   0.681
 2672SOL    HW1 8915   0.892   3.996   0.762
 2672SOL    HW2 8916   0.930   3.991   0.603
 2673SOL     OW 8917   4.472   2.469   3.723
 2673SOL    HW1 8918   4.548   2.478   3.787
 2673SOL    HW2 8919   4.482   2.536   3.649
 2674SOL     OW 8920   5.815   5.421   5.600
 2674SOL    HW1 8921   5.860   5.361   5.666
 2674SOL    HW2 8922   5.815   5.377   5.510
 2675SOL     OW 8923   0.416   3.643   4.878
 2675SOL    HW1 8924   0.500   3.602   4.843
 2675SOL    HW2 8925   0.363   3.679   4.801
 2676SOL     OW 8926   4.408   0.317   1.985
 2676SOL    HW1 8927   4.320   0.281   2.017
 2676SOL    HW2 8928   4.430   0.399   2.038
 2677SOL     OW 8929   2.938   4.803   2.398
 2677SOL    HW1 8930   2.906   4.711   2.420
 2677SOL    HW2 8931   2.902   4.830   2.309
 2678SOL     OW 8932   0.204   6.492   6.499
 2678SOL    HW1 8933   0.115   6.445   6.506
 2678SOL    HW2 8934   0.255   6.478   6.584
 2679SOL     OW 8935   2.994   4.825   1.131
 2679SOL    HW1 8936   3.020   4.732   1.104
 2679SOL    HW2 8937   2.908   4.821   1.183
 2680SOL     OW 8938   1.399   1.845   1.904
 2680SOL    HW1 8939   1.301   1.866   1.903
 2680SOL    HW2 8940   1.412   1.746   1.896
 2681SOL     OW 8941   1.421   1.264   2.834
 2681SOL    HW1 8942   1.410   1.231   2.740
 2681SOL    HW2 8943   1.356   1.338   2.851
 2682SOL     OW 8944   6.712   2.461   3.528
 2682SOL    HW1 8945   6.613   2.467   3.536
 2682SOL    HW2 8946   6.745   2.387   3.586
 2683SOL     OW 8947   1.494   0.132   1.824
 2683SOL    HW1 8948   1.560   0.143   1.898
 2683SOL    HW2 8949   1.510   0.045   1.778
 2684SOL     OW 8950   2.752   5.897   3.007
 2684SOL    HW1 8951   2.789   5.823   3.063
 2684SOL    HW2 8952   2.693   5.955   3.063
 2685SOL     OW 8953   5.924   6.095   5.145
 2685SOL    HW1 8954   5.942   6.001   5.177
 2685SOL    HW2 8955   5.825   6.109   5.136
 2686SOL     OW 8956   1.309   2.867   4.474
 2686SOL    HW1 8957   1.338   2.932   4.545
 2686SOL    HW2 8958   1.314   2.912   4.385
 2687SOL     OW 8959   4.825   4.627   3.253
 2687SOL    HW1 8960   4.801   4.708   3.306
 2687SOL    HW2 8961   4.861   4.654   3.164
 2688SOL     OW 8962   3.819   5.189   5.700
 2688SOL    HW1 8963   3.809   5.156   5.794
 2688SOL    HW2 8964   3.748   5.149   5.643
 2689SOL     OW 8965   0.334   3.106   4.165
 2689SOL    HW1 8966   0.325   3.052   4.082
 2689SOL    HW2 8967   0.416   3.077   4.216
 2690SOL     OW 8968   2.892   3.391   3.001
 2690SOL    HW1 8969   2.879   3.390   3.100
 2690SOL    HW2 8970   2.922   3.301   2.969
 2691SOL     OW 8971   1.742   5.724   1.370
 2691SOL    HW1 8972   1.688   5.765   1.444
 2691SOL    HW2 8973   1.788   5.797   1.319
 2692SOL     OW 8974   6.946   5.338   3.266
 2692SOL    HW1 8975   6.939   5.406   3.194
 2692SOL    HW2 8976   0.022   5.310   3.277
 2693SOL     OW 8977   1.858   3.539   3.390
 2693SOL    HW1 8978   1.949   3.560   3.425
 2693SOL    HW2 8979   1.832   3.446   3.417
 2694SOL     OW 8980   2.150   0.537   2.895
 2694SOL    HW1 8981   2.201   0.608   2.943
 2694SOL    HW2 8982   2.162   0.547   2.797
 2695SOL     OW 8983   4.010   2.208   3.056
 2695SOL    HW1 8984   3.941   2.138   3.037
 2695SOL    HW2 8985   4.045   2.195   3.149
 2696SOL     OW 8986   4.228   3.624   5.043
 2696SOL    HW1 8987   4.285   3.559   5.094
 2696SOL    HW2 8988   4.275   3.712   5.039
 2697SOL     OW 8989   2.391   2.145   4.335
 2697SOL    HW1 8990   2.355   2.108   4.420
 2697SOL    HW2 8991   2.346   2.101   4.258
 2698SOL     OW 8992   1.998   3.587   6.809
 2698SOL    HW1 8993   2.083   3.640   6.815
 2698SOL    HW2 8994   1.985   3.556   6.715
 2699SOL     OW 8995   2.965   5.872   2.251
 2699SOL    HW1 8996   3.029   5.902   2.180
 2699SOL    HW2 8997   2.980   5.926   2.334
 2700SOL     OW 8998   1.232   3.658   2.875
 2700SOL    HW1 8999   1.328   3.630   2.882
 2700SOL    HW2 9000   1.174   3.589   2.919
 2701SOL     OW 9001   3.295   0.094   5.775
 2701SOL    HW1 9002   3.338   0.063   5.861
 2701SOL    HW2 9003   3.364   0.099   5.703
 2702SOL     OW 9004   6.855   6.988   2.925
 2702SOL    HW1 9005   6.835   6.946   2.836
 2702SOL    HW2 9006   6.952   7.012   2.929
 2703SOL     OW 9007   1.328   1.831   3.261
 2703SOL    HW1 9008   1.423   1.812   3.239
 2703SOL    HW2 9009   1.319   1.851   3.358
 2704SOL     OW 9010   1.851   5.850   0.538
 2704SOL    HW1 9011   1.868   5.949   0.533
 2704SOL    HW2 9012   1.936   5.803   0.562
 2705SOL     OW 9013   0.366   4.542   2.381
 2705SOL    HW1 9014   0.465   4.558   2.386
 2705SOL    HW2 9015   0.328   4.540   2.473
 2706SOL     OW 9016   6.839   2.214   2.078
 2706SOL    HW1 9017   6.795   2.130   2.109
 2706SOL    HW2 9018   6.898   2.193   2.000
 2707SOL     OW 9019   1.987   1.666   5.753
 2707SOL    HW1 9020   2.032   1.755   5.761
 2707SOL    HW2 9021   2.054   1.593   5.767
 2708SOL     OW 9022   2.010   3.380   0.628
 2708SOL    HW1 9023   2.006   3.309   0.558
 2708SOL    HW2 9024   1.920   3.388   0.673
 2709SOL     OW 9025   4.257   6.906   1.941
 2709SOL    HW1 9026   4.207   6.932   1.858
 2709SOL    HW2 9027   4.246   6.977   2.011
 2710SOL     OW 9028   6.144   4.287   2.649
 2710SOL    HW1 9029   6.190   4.367   2.689
 2710SOL    HW2 9030   6.125   4.304   2.553
 2711SOL     OW 9031   1.395   6.912   1.681
 2711SOL    HW1 9032   1.296   6.924   1.677
 2711SOL    HW2 9033   1.419   6.862   1.764
 2712SOL     OW 9034   3.151   5.516   1.567
 2712SOL    HW1 9035   3.212   5.521   1.646
 2712SOL    HW2 9036   3.146   5.422   1.535
 2713SOL     OW 9037   2.012   2.604   4.826
 2713SOL    HW1 9038   1.912   2.603   4.831
 2713SOL    HW2 9039   2.048   2.514   4.850
 2714SOL     OW 9040   5.430   6.643   5.488
 2714SOL    HW1 9041   5.439   6.695   5.572
 2714SOL    HW2 9042   5.422   6.545   5.510
 2715SOL     OW 9043   6.908   0.619   0.088
 2715SOL    HW1 9044   6.854   0.553   0.140
 2715SOL    HW2 9045   6.853   0.657   0.014
 2716SOL     OW 9046   0.436   6.603   3.010
 2716SOL    HW1 9047   0.351   6.618   2.959
 2716SOL    HW2 9048   0.417   6.547   3.090
 2717SOL     OW 9049   1.392   0.756   2.971
 2717SOL    HW1 9050   1.441   0.693   3.031
 2717SOL    HW2 9051   1.377   0.843   3.018
 2718SOL     OW 9052   1.163   4.437   3.104
 2718SOL    HW1 9053   1.074   4.422   3.147
 2718SOL    HW2 9054   1.176   4.370   3.031
 2719SOL     OW 9055   4.103   4.800   2.855
 2719SOL    HW1 9056   4.050   4.719   2.831
 2719SOL    HW2 9057   4.042   4.877   2.871
 2720SOL     OW 9058   0.389   5.814   4.058
 2720SOL    HW1 9059   0.295   5.779   4.067
 2720SOL    HW2 9060   0.449   5.740   4.028
 2721SOL     OW 9061   5.046   6.985   4.887
 2721SOL    HW1 9062   5.137   6.963   4.923
 2721SOL    HW2 9063   4.995   0.017   4.956
 2722SOL     OW 9064   1.523   5.608   1.208
 2722SOL    HW1 9065   1.433   5.580   1.242
 2722SOL    HW2 9066   1.584   5.625   1.286
 2723SOL     OW 9067   1.581   1.029   5.333
 2723SOL    HW1 9068   1.615   1.066   5.419
 2723SOL    HW2 9069   1.620   0.939   5.316
 2724SOL     OW 9070   3.028   5.385   6.367
 2724SOL    HW1 9071   3.103   5.357   6.427
 2724SOL    HW2 9072   3.054   5.371   6.272
 2725SOL     OW 9073   3.197   5.000   3.432
 2725SOL    HW1 9074   3.156   4.976   3.520
 2725SOL    HW2 9075   3.172   4.932   3.363
 2726SOL     OW 9076   4.848   6.255   2.523
 2726SOL    HW1 9077   4.898   6.214   2.447
 2726SOL    HW2 9078   4.756   6.218   2.527
 2727SOL     OW 9079   1.908   5.592   3.343
 2727SOL    HW1 9080   1.844   5.660   3.379
 2727SOL    HW2 9081   1.985   5.638   3.298
 2728SOL     OW 9082   3.843   0.044   5.437
 2728SOL    HW1 9083   3.771   0.039   5.368
 2728SOL    HW2 9084   3.927   0.077   5.395
 2729SOL     OW 9085   6.583   5.122   2.457
 2729SOL    HW1 9086   6.631   5.034   2.460
 2729SOL    HW2 9087   6.633   5.185   2.398
 2730SOL     OW 9088   1.267   4.417   1.157
 2730SOL    HW1 9089   1.181   4.455   1.190
 2730SOL    HW2 9090   1.326   4.492   1.123
 2731SOL     OW 9091   3.059   3.734   1.730
 2731SOL    HW1 9092   3.151   3.699   1.711
 2731SOL    HW2 9093   3.054   3.763   1.825
 2732SOL     OW 9094   5.342   2.374   4.062
 2732SOL    HW1 9095   5.370   2.331   3.976
 2732SOL    HW2 9096   5.423   2.390   4.118
 2733SOL     OW 9097   1.877   0.869   5.854
 2733SOL    HW1 9098   1.964   0.824   5.833
 2733SOL    HW2 9099   1.805   0.800   5.863
 2734SOL     OW 9100   2.300   6.274   3.731
 2734SOL    HW1 9101   2.223   6.315   3.682
 2734SOL    HW2 9102   2.384   6.286   3.679
 2735SOL     OW 9103   2.341   5.035   1.399
 2735SOL    HW1 9104   2.399   5.097   1.346
 2735SOL    HW2 9105   2.398   4.983   1.463
 2736SOL     OW 9106   3.308   7.018   6.678
 2736SOL    HW1 9107   3.380   6.989   6.614
 2736SOL    HW2 9108   3.293   0.097   6.670
 2737SOL     OW 9109   4.292   3.546   5.537
 2737SOL    HW1 9110   4.292   3.547   5.437
 2737SOL    HW2 9111   4.202   3.573   5.571
 2738SOL     OW 9112   6.167   4.389   4.111
 2738SOL    HW1 9113   6.098   4.406   4.041
 2738SOL    HW2 9114   6.137   4.312   4.168
 2739SOL     OW 9115   5.643   3.636   0.718
 2739SOL    HW1 9116   5.657   3.677   0.808
 2739SOL    HW2 9117   5.615   3.540   0.730
 2740SOL     OW 9118   6.894   2.879   3.041
 2740SOL    HW1 9119   6.917   2.784   3.018
 2740SOL    HW2 9120   6.976   2.936   3.028
 2741SOL     OW 9121   1.296   2.548   5.750
 2741SOL    HW1 9122   1.360   2.612   5.708
 2741SOL    HW2 9123   1.204   2.564   5.714
 2742SOL     OW 9124   2.584   6.472   5.377
 2742SOL    HW1 9125   2.533   6.397   5.419
 2742SOL    HW2 9126   2.681   6.462   5.399
 2743SOL     OW 9127   6.227   4.582   0.589
 2743SOL    HW1 9128   6.167   4.591   0.669
 2743SOL    HW2 9129   6.174   4.549   0.511
 2744SOL     OW 9130   4.242   0.327   6.974
 2744SOL    HW1 9131   4.228   0.283   6.885
 2744SOL    HW2 9132   4.309   0.274   0.007
 2745SOL     OW 9133   2.367   5.937   1.216
 2745SOL    HW1 9134   2.449   5.937   1.273
 2745SOL    HW2 9135   2.287   5.919   1.273
 2746SOL     OW 9136   1.063   2.508   6.125
 2746SOL    HW1 9137   1.011   2.469   6.049
 2746SOL    HW2 9138   1.157   2.524   6.095
 2747SOL     OW 9139   5.464   5.527   4.024
 2747SOL    HW1 9140   5.511   5.445   3.992
 2747SOL    HW2 9141   5.414   5.507   4.108
 2748SOL     OW 9142   4.116   1.344   4.512
 2748SOL    HW1 9143   4.140   1.247   4.523
 2748SOL    HW2 9144   4.150   1.395   4.591
 2749SOL     OW 9145   4.899   4.294   3.561
 2749SOL    HW1 9146   4.801   4.291   3.581
 2749SOL    HW2 9147   4.944   4.215   3.603
 2750SOL     OW 9148   6.960   6.030   1.396
 2750SOL    HW1 9149   6.880   5.991   1.440
 2750SOL    HW2 9150   7.012   6.084   1.462
 2751SOL     OW 9151   1.470   0.176   0.551
 2751SOL    HW1 9152   1.472   0.274   0.532
 2751SOL    HW2 9153   1.540   0.129   0.497
 2752SOL     OW 9154   6.643   6.436   5.863
 2752SOL    HW1 9155   6.579   6.446   5.788
 2752SOL    HW2 9156   6.672   6.340   5.870
 2753SOL     OW 9157   2.820   5.531   5.142
 2753SOL    HW1 9158   2.920   5.529   5.136
 2753SOL    HW2 9159   2.792   5.529   5.238
 2754SOL     OW 9160   0.865   6.014   4.040
 2754SOL    HW1 9161   0.860   6.085   4.109
 2754SOL    HW2 9162   0.812   5.934   4.069
 2755SOL     OW 9163   3.905   5.756   2.299
 2755SOL    HW1 9164   3.862   5.791   2.216
 2755SOL    HW2 9165   4.004   5.746   2.284
 2756SOL     OW 9166   6.950   3.767   5.177
 2756SOL    HW1 9167   0.026   3.796   5.189
 2756SOL    HW2 9168   6.929   3.762   5.079
 2757SOL     OW 9169   4.687   3.682   6.669
 2757SOL    HW1 9170   4.672   3.708   6.574
 2757SOL    HW2 9171   4.603   3.644   6.707
 2758SOL     OW 9172   0.159   6.772   2.044
 2758SOL    HW1 9173   0.090   6.740   1.979
 2758SOL    HW2 9174   0.180   6.699   2.109
 2759SOL     OW 9175   3.725   3.657   5.242
 2759SOL    HW1 9176   3.727   3.721   5.164
 2759SOL    HW2 9177   3.772   3.699   5.320
 2760SOL     OW 9178   5.907   5.897   2.559
 2760SOL    HW1 9179   5.857   5.868   2.477
 2760SOL    HW2 9180   6.004   5.908   2.537
 2761SOL     OW 9181   1.576   3.210   3.183
 2761SOL    HW1 9182   1.590   3.309   3.186
 2761SOL    HW2 9183   1.663   3.164   3.202
 2762SOL     OW 9184   3.132   1.941   0.934
 2762SOL    HW1 9185   3.200   1.936   0.861
 2762SOL    HW2 9186   3.176   1.972   1.018
 2763SOL     OW 9187   6.268   1.688   4.721
 2763SOL    HW1 9188   6.300   1.593   4.726
 2763SOL    HW2 9189   6.313   1.735   4.645
 2764SOL     OW 9190   0.230   3.360   3.147
 2764SOL    HW1 9191   0.161   3.404   3.204
 2764SOL    HW2 9192   0.262   3.277   3.192
 2765SOL     OW 9193   5.526   6.599   6.022
 2765SOL    HW1 9194   5.595   6.546   5.973
 2765SOL    HW2 9195   5.547   6.598   6.120
 2766SOL     OW 9196   4.269   6.949   6.999
 2766SOL    HW1 9197   4.261   6.929   0.078
 2766SOL    HW2 9198   4.179   6.943   6.956
 2767SOL     OW 9199   0.722   5.344   6.649
 2767SOL    HW1 9200   0.693   5.392   6.566
 2767SOL    HW2 9201   0.754   5.253   6.625
 2768SOL     OW 9202   4.233   0.161   1.631
 2768SOL    HW1 9203   4.177   0.088   1.670
 2768SOL    HW2 9204   4.320   0.122   1.598
 2769SOL     OW 9205   0.795   4.946   5.380
 2769SOL    HW1 9206   0.778   4.957   5.478
 2769SOL    HW2 9207   0.830   5.032   5.343
 2770SOL     OW 9208   2.282   6.577   0.364
 2770SOL    HW1 9209   2.211   6.609   0.426
 2770SOL    HW2 9210   2.372   6.587   0.407
 2771SOL     OW 9211   4.397   0.342   5.226
 2771SOL    HW1 9212   4.361   0.435   5.231
 2771SOL    HW2 9213   4.405   0.304   5.318
 2772SOL     OW 9214   4.815   1.262   3.811
 2772SOL    HW1 9215   4.782   1.201   3.883
 2772SOL    HW2 9216   4.738   1.310   3.770
 2773SOL     OW 9217   6.082   2.448   4.859
 2773SOL    HW1 9218   6.048   2.359   4.887
 2773SOL    HW2 9219   6.174   2.437   4.820
 2774SOL     OW 9220   5.912   1.564   4.186
 2774SOL    HW1 9221   5.911   1.541   4.283
 2774SOL    HW2 9222   5.925   1.480   4.132
 2775SOL     OW 9223   6.847   3.507   4.013
 2775SOL    HW1 9224   6.947   3.504   4.013
 2775SOL    HW2 9225   6.815   3.545   4.100
 2776SOL     OW 9226   4.887   4.840   6.016
 2776SOL    HW1 9227   4.974   4.836   5.968
 2776SOL    HW2 9228   4.897   4.799   6.107
 2777SOL     OW 9229   2.003   2.234   6.731
 2777SOL    HW1 9230   1.927   2.297   6.745
 2777SOL    HW2 9231   2.018   2.222   6.633
 2778SOL     OW 9232   2.660   0.733   6.270
 2778SOL    HW1 9233   2.758   0.718   6.258
 2778SOL    HW2 9234   2.643   0.775   6.359
 2779SOL     OW 9235   5.009   0.928   1.635
 2779SOL    HW1 9236   5.051   0.941   1.545
 2779SOL    HW2 9237   5.005   1.015   1.683
 2780SOL     OW 9238   6.947   1.212   4.651
 2780SOL    HW1 9239   0.007   1.156   4.630
 2780SOL    HW2 9240   6.969   1.275   4.726
 2781SOL     OW 9241   5.891   1.115   3.367
 2781SOL    HW1 9242   5.857   1.207   3.383
 2781SOL    HW2 9243   5.933   1.079   3.451
 2782SOL     OW 9244   5.373   0.710   5.933
 2782SOL    HW1 9245   5.465   0.683   5.962
 2782SOL    HW2 9246   5.328   0.760   6.007
 2783SOL     OW 9247   5.852   3.608   1.701
 2783SOL    HW1 9248   5.950   3.588   1.710
 2783SOL    HW2 9249   5.800   3.522   1.701
 2784SOL     OW 9250   0.391   3.240   1.169
 2784SOL    HW1 9251   0.387   3.149   1.128
 2784SOL    HW2 9252   0.439   3.302   1.108
 2785SOL     OW 9253   6.056   3.364   2.360
 2785SOL    HW1 9254   5.999   3.409   2.292
 2785SOL    HW2 9255   6.043   3.409   2.449
 2786SOL     OW 9256   1.175   6.509   6.914
 2786SOL    HW1 9257   1.174   6.601   6.874
 2786SOL    HW2 9258   1.085   6.467   6.903
 2787SOL     OW 9259   0.403   5.820   6.856
 2787SOL    HW1 9260   0.319   5.841   6.805
 2787SOL    HW2 9261   0.383   5.752   6.927
 2788SOL     OW 9262   2.551   0.165   6.522
 2788SOL    HW1 9263   2.464   0.160   6.473
 2788SOL    HW2 9264   2.561   0.084   6.579
 2789SOL     OW 9265   1.008   2.473   4.684
 2789SOL    HW1 9266   0.913   2.481   4.652
 2789SOL    HW2 9267   1.070   2.471   4.605
 2790SOL     OW 9268   0.519   5.633   1.482
 2790SOL    HW1 9269   0.424   5.617   1.510
 2790SOL    HW2 9270   0.543   5.728   1.499
 2791SOL     OW 9271   1.511   3.112   4.112
 2791SOL    HW1 9272   1.602   3.079   4.088
 2791SOL    HW2 9273   1.518   3.195   4.168
 2792SOL     OW 9274   3.566   1.486   5.959
 2792SOL    HW1 9275   3.552   1.566   5.900
 2792SOL    HW2 9276   3.660   1.485   5.992
 2793SOL     OW 9277   3.617   3.824   0.336
 2793SOL    HW1 9278   3.532   3.793   0.295
 2793SOL    HW2 9279   3.690   3.758   0.317
 2794SOL     OW 9280   1.669   2.324   0.247
 2794SOL    HW1 9281   1.715   2.406   0.214
 2794SOL    HW2 9282   1.733   2.247   0.248
 2795SOL     OW 9283   1.676   6.185   0.839
 2795SOL    HW1 9284   1.593   6.216   0.884
 2795SOL    HW2 9285   1.659   6.098   0.794
 2796SOL     OW 9286   1.783   6.027   6.563
 2796SOL    HW1 9287   1.699   6.044   6.512
 2796SOL    HW2 9288   1.862   6.032   6.502
 2797SOL     OW 9289   5.336   4.843   3.128
 2797SOL    HW1 9290   5.295   4.885   3.047
 2797SOL    HW2 9291   5.400   4.907   3.170
 2798SOL     OW 9292   5.596   1.286   1.855
 2798SOL    HW1 9293   5.679   1.249   1.898
 2798SOL    HW2 9294   5.619   1.323   1.765
 2799SOL     OW 9295   3.610   6.741   4.869
 2799SOL    HW1 9296   3.666   6.763   4.949
 2799SOL    HW2 9297   3.588   6.644   4.869
 2800SOL     OW 9298   4.925   0.494   6.481
 2800SOL    HW1 9299   4.992   0.499   6.406
 2800SOL    HW2 9300   4.855   0.426   6.458
 2801SOL     OW 9301   0.203   4.538   4.014
 2801SOL    HW1 9302   0.204   4.555   4.112
 2801SOL    HW2 9303   0.287   4.491   3.987
 2802SOL     OW 9304   1.675   5.161   4.985
 2802SOL    HW1 9305   1.685   5.235   4.918
 2802SOL    HW2 9306   1.761   5.110   4.991
 2803SOL     OW 9307   3.574   2.517   6.498
 2803SOL    HW1 9308   3.667   2.503   6.463
 2803SOL    HW2 9309   3.570   2.602   6.550
 2804SOL     OW 9310   6.966   2.820   3.412
 2804SOL    HW1 9311   6.974   2.878   3.493
 2804SOL    HW2 9312   6.872   2.821   3.379
 2805SOL     OW 9313   3.793   4.518   0.706
 2805SOL    HW1 9314   3.704   4.483   0.736
 2805SOL    HW2 9315   3.864   4.454   0.733
 2806SOL     OW 9316   0.209   3.072   5.165
 2806SOL    HW1 9317   0.176   3.055   5.258
 2806SOL    HW2 9318   0.178   3.161   5.134
 2807SOL     OW 9319   4.386   1.109   4.025
 2807SOL    HW1 9320   4.404   1.035   4.090
 2807SOL    HW2 9321   4.308   1.164   4.058
 2808SOL     OW 9322   0.725   5.679   5.733
 2808SOL    HW1 9323   0.690   5.589   5.704
 2808SOL    HW2 9324   0.664   5.716   5.804
 2809SOL     OW 9325   0.423   6.051   2.118
 2809SOL    HW1 9326   0.417   5.953   2.135
 2809SOL    HW2 9327   0.487   6.093   2.182
 2810SOL     OW 9328   1.400   6.677   2.844
 2810SOL    HW1 9329   1.349   6.695   2.760
 2810SOL    HW2 9330   1.498   6.673   2.824
 2811SOL     OW 9331   1.304   1.318   1.051
 2811SOL    HW1 9332   1.215   1.274   1.063
 2811SOL    HW2 9333   1.365   1.256   1.001
 2812SOL     OW 9334   1.308   2.314   0.549
 2812SOL    HW1 9335   1.216   2.332   0.514
 2812SOL    HW2 9336   1.360   2.263   0.481
 2813SOL     OW 9337   0.749   3.530   1.574
 2813SOL    HW1 9338   0.827   3.573   1.620
 2813SOL    HW2 9339   0.750   3.432   1.594
 2814SOL     OW 9340   2.716   4.275   6.871
 2814SOL    HW1 9341   2.813   4.259   6.850
 2814SOL    HW2 9342   2.662   4.196   6.844
 2815SOL     OW 9343   6.470   5.367   4.627
 2815SOL    HW1 9344   6.556   5.405   4.660
 2815SOL    HW2 9345   6.485   5.275   4.591
 2816SOL     OW 9346   0.974   5.432   4.725
 2816SOL    HW1 9347   1.030   5.352   4.749
 2816SOL    HW2 9348   0.888   5.429   4.775
 2817SOL     OW 9349   3.178   0.915   2.193
 2817SOL    HW1 9350   3.186   1.015   2.185
 2817SOL    HW2 9351   3.140   0.892   2.283
 2818SOL     OW 9352   1.498   0.767   0.263
 2818SOL    HW1 9353   1.403   0.800   0.264
 2818SOL    HW2 9354   1.549   0.811   0.337
 2819SOL     OW 9355   0.824   0.122   6.674
 2819SOL    HW1 9356   0.767   0.185   6.621
 2819SOL    HW2 9357   0.827   0.034   6.628
 2820SOL     OW 9358   1.337   2.063   0.037
 2820SOL    HW1 9359   1.409   2.005   7.017
 2820SOL    HW2 9360   1.362   2.159   0.027
 2821SOL     OW 9361   2.973   3.265   6.086
 2821SOL    HW1 9362   2.971   3.364   6.080
 2821SOL    HW2 9363   2.923   3.226   6.008
 2822SOL     OW 9364   4.906   2.642   0.739
 2822SOL    HW1 9365   5.001   2.639   0.768
 2822SOL    HW2 9366   4.846   2.641   0.819
 2823SOL     OW 9367   4.733   3.595   1.568
 2823SOL    HW1 9368   4.634   3.580   1.562
 2823SOL    HW2 9369   4.777   3.511   1.601
 2824SOL     OW 9370   0.914   4.509   4.630
 2824SOL    HW1 9371   1.011   4.492   4.613
 2824SOL    HW2 9372   0.877   4.437   4.689
 2825SOL     OW 9373   5.437   1.471   5.959
 2825SOL    HW1 9374   5.530   1.504   5.972
 2825SOL    HW2 9375   5.413   1.410   6.035
 2826SOL     OW 9376   2.526   2.990   6.658
 2826SOL    HW1 9377   2.586   3.068   6.644
 2826SOL    HW2 9378   2.521   2.935   6.574
 2827SOL     OW 9379   5.986   1.719   6.345
 2827SOL    HW1 9380   5.995   1.744   6.441
 2827SOL    HW2 9381   6.056   1.767   6.292
 2828SOL     OW 9382   1.591   3.618   1.424
 2828SOL    HW1 9383   1.661   3.620   1.352
 2828SOL    HW2 9384   1.604   3.696   1.486
 2829SOL     OW 9385   3.540   3.542   1.853
 2829SOL    HW1 9386   3.461   3.546   1.792
 2829SOL    HW2 9387   3.603   3.472   1.820
 2830SOL     OW 9388   2.972   5.925   5.029
 2830SOL    HW1 9389   2.960   5.993   4.957
 2830SOL    HW2 9390   2.884   5.883   5.051
 2831SOL     OW 9391   6.990   1.817   1.524
 2831SOL    HW1 9392   0.016   1.850   1.607
 2831SOL    HW2 9393   6.913   1.877   1.502
 2832SOL     OW 9394   0.833   3.932   2.616
 2832SOL    HW1 9395   0.866   3.906   2.707
 2832SOL    HW2 9396   0.830   3.851   2.558
 2833SOL     OW 9397   0.497   2.432   2.448
 2833SOL    HW1 9398   0.524   2.362   2.382
 2833SOL    HW2 9399   0.548   2.516   2.431
 2834SOL     OW 9400   3.960   6.857   4.068
 2834SOL    HW1 9401   3.867   6.864   4.032
 2834SOL    HW2 9402   4.001   6.770   4.039
 2835SOL     OW 9403   6.731   0.691   6.920
 2835SOL    HW1 9404   6.698   0.785   6.924
 2835SOL    HW2 9405   6.654   0.630   6.899
 2836SOL     OW 9406   3.426   5.484   2.998
 2836SOL    HW1 9407   3.419   5.491   2.898
 2836SOL    HW2 9408   3.521   5.465   3.023
 2837SOL     OW 9409   5.174   4.233   1.782
 2837SOL    HW1 9410   5.272   4.248   1.789
 2837SOL    HW2 9411   5.148   4.152   1.834
 2838SOL     OW 9412   6.799   3.820   6.093
 2838SOL    HW1 9413   6.736   3.820   6.016
 2838SOL    HW2 9414   6.876   3.881   6.073
 2839SOL     OW 9415   6.043   3.302   5.351
 2839SOL    HW1 9416   5.984   3.366   5.401
 2839SOL    HW2 9417   6.130   3.347   5.329
 2840SOL     OW 9418   6.253   6.443   4.629
 2840SOL    HW1 9419   6.338   6.491   4.605
 2840SOL    HW2 9420   6.235   6.454   4.726
 2841SOL     OW 9421   5.878   4.116   2.436
 2841SOL    HW1 9422   5.842   4.191   2.492
 2841SOL    HW2 9423   5.970   4.092   2.468
 2842SOL     OW 9424   0.780   6.889   3.718
 2842SOL    HW1 9425   0.748   6.959   3.654
 2842SOL    HW2 9426   0.879   6.896   3.728
 2843SOL     OW 9427   2.300   2.649   3.242
 2843SOL    HW1 9428   2.367   2.636   3.315
 2843SOL    HW2 9429   2.229   2.713   3.274
 2844SOL     OW 9430   5.355   3.393   0.633
 2844SOL    HW1 9431   5.372   3.358   0.725
 2844SOL    HW2 9432   5.262   3.428   0.627
 2845SOL     OW 9433   2.934   1.502   1.444
 2845SOL    HW1 9434   2.870   1.528   1.371
 2845SOL    HW2 9435   2.884   1.483   1.528
 2846SOL     OW 9436   6.153   0.037   6.693
 2846SOL    HW1 9437   6.115   0.028   6.601
 2846SOL    HW2 9438   6.224   0.107   6.693
 2847SOL     OW 9439   4.393   5.354   0.816
 2847SOL    HW1 9440   4.423   5.259   0.808
 2847SOL    HW2 9441   4.331   5.376   0.741
 2848SOL     OW 9442   0.489   4.127   6.174
 2848SOL    HW1 9443   0.581   4.121   6.212
 2848SOL    HW2 9444   0.480   4.213   6.124
 2849SOL     OW 9445   5.233   1.252   1.248
 2849SOL    HW1 9446   5.275   1.337   1.280
 2849SOL    HW2 9447   5.135   1.265   1.238
 2850SOL     OW 9448   1.138   0.348   1.804
 2850SOL    HW1 9449   1.075   0.309   1.872
 2850SOL    HW2 9450   1.210   0.399   1.851
 2851SOL     OW 9451   3.407   3.112   1.363
 2851SOL    HW1 9452   3.330   3.094   1.303
 2851SOL    HW2 9453   3.415   3.038   1.430
 2852SOL     OW 9454   0.432   5.527   5.668
 2852SOL    HW1 9455   0.426   5.595   5.595
 2852SOL    HW2 9456   0.506   5.463   5.648
 2853SOL     OW 9457   0.477   4.270   5.422
 2853SOL    HW1 9458   0.444   4.307   5.509
 2853SOL    HW2 9459   0.450   4.331   5.348
 2854SOL     OW 9460   3.050   0.557   6.305
 2854SOL    HW1 9461   2.991   0.552   6.385
 2854SOL    HW2 9462   3.015   0.627   6.242
 2855SOL     OW 9463   2.364   1.385   4.248
 2855SOL    HW1 9464   2.324   1.295   4.236
 2855SOL    HW2 9465   2.302   1.455   4.212
 2856SOL     OW 9466   0.411   5.534   4.474
 2856SOL    HW1 9467   0.365   5.620   4.453
 2856SOL    HW2 9468   0.346   5.472   4.517
 2857SOL     OW 9469   6.773   4.582   1.099
 2857SOL    HW1 9470   6.768   4.578   1.000
 2857SOL    HW2 9471   6.864   4.552   1.129
 2858SOL     OW 9472   5.413   4.509   2.365
 2858SOL    HW1 9473   5.498   4.456   2.359
 2858SOL    HW2 9474   5.372   4.515   2.274
 2859SOL     OW 9475   5.918   4.767   1.610
 2859SOL    HW1 9476   5.853   4.734   1.542
 2859SOL    HW2 9477   5.998   4.708   1.612
 2860SOL     OW 9478   1.135   0.266   2.930
 2860SOL    HW1 9479   1.060   0.259   2.865
 2860SOL    HW2 9480   1.101   0.250   3.022
 2861SOL     OW 9481   4.873   4.275   6.037
 2861SOL    HW1 9482   4.948   4.334   6.067
 2861SOL    HW2 9483   4.824   4.240   6.118
 2862SOL     OW 9484   5.010   1.652   0.928
 2862SOL    HW1 9485   4.919   1.656   0.971
 2862SOL    HW2 9486   5.023   1.732   0.871
 2863SOL     OW 9487   5.703   2.365   5.438
 2863SOL    HW1 9488   5.656   2.450   5.461
 2863SOL    HW2 9489   5.795   2.366   5.478
 2864SOL     OW 9490   3.482   4.128   0.750
 2864SOL    HW1 9491   3.413   4.147   0.680
 2864SOL    HW2 9492   3.540   4.052   0.721
 2865SOL     OW 9493   5.706   5.096   5.348
 2865SOL    HW1 9494   5.741   5.186   5.322
 2865SOL    HW2 9495   5.707   5.088   5.448
 2866SOL     OW 9496   3.831   4.669   0.489
 2866SOL    HW1 9497   3.810   4.609   0.566
 2866SOL    HW2 9498   3.890   4.744   0.520
 2867SOL     OW 9499   6.003   6.359   3.395
 2867SOL    HW1 9500   6.019   6.456   3.415
 2867SOL    HW2 9501   6.090   6.310   3.398
 2868SOL     OW 9502   0.319   0.116   5.876
 2868SOL    HW1 9503   0.284   0.116   5.970
 2868SOL    HW2 9504   0.402   0.171   5.871
 2869SOL     OW 9505   6.367   4.515   3.975
 2869SOL    HW1 9506   6.318   4.467   4.047
 2869SOL    HW2 9507   6.466   4.505   3.990
 2870SOL     OW 9508   7.000   2.193   1.795
 2870SOL    HW1 9509   6.951   2.106   1.796
 2870SOL    HW2 9510   0.047   2.193   1.720
 2871SOL     OW 9511   5.124   1.498   2.985
 2871SOL    HW1 9512   5.160   1.505   3.078
 2871SOL    HW2 9513   5.061   1.421   2.980
 2872SOL     OW 9514   2.385   2.259   2.364
 2872SOL    HW1 9515   2.406   2.194   2.292
 2872SOL    HW2 9516   2.323   2.216   2.431
 2873SOL     OW 9517   1.216   6.966   1.404
 2873SOL    HW1 9518   1.201   7.010   1.492
 2873SOL    HW2 9519   1.288   7.016   1.355
 2874SOL     OW 9520   2.100   1.656   3.348
 2874SOL    HW1 9521   2.152   1.641   3.432
 2874SOL    HW2 9522   2.151   1.718   3.288
 2875SOL     OW 9523   2.478   6.851   3.132
 2875SOL    HW1 9524   2.466   6.945   3.100
 2875SOL    HW2 9525   2.436   6.788   3.066
 2876SOL     OW 9526   1.436   6.149   1.002
 2876SOL    HW1 9527   1.429   6.199   1.088
 2876SOL    HW2 9528   1.417   6.052   1.018
 2877SOL     OW 9529   1.696   2.567   5.307
 2877SOL    HW1 9530   1.787   2.591   5.272
 2877SOL    HW2 9531   1.673   2.627   5.384
 2878SOL     OW 9532   4.067   3.193   4.427
 2878SOL    HW1 9533   4.142   3.240   4.381
 2878SOL    HW2 9534   4.032   3.252   4.500
 2879SOL     OW 9535   5.154   4.429   0.102
 2879SOL    HW1 9536   5.067   4.460   0.066
 2879SOL    HW2 9537   5.212   4.508   0.122
 2880SOL     OW 9538   1.868   1.360   3.628
 2880SOL    HW1 9539   1.922   1.396   3.552
 2880SOL    HW2 9540   1.773   1.349   3.599
 2881SOL     OW 9541   5.207   4.752   0.579
 2881SOL    HW1 9542   5.108   4.759   0.589
 2881SOL    HW2 9543   5.241   4.827   0.523
 2882SOL     OW 9544   4.402   6.563   6.962
 2882SOL    HW1 9545   4.311   6.559   6.922
 2882SOL    HW2 9546   4.395   6.558   0.043
 2883SOL     OW 9547   5.802   6.560   3.652
 2883SOL    HW1 9548   5.892   6.591   3.683
 2883SOL    HW2 9549   5.737   6.635   3.657
 2884SOL     OW 9550   6.092   5.752   3.876
 2884SOL    HW1 9551   6.074   5.685   3.947
 2884SOL    HW2 9552   6.058   5.842   3.905
 2885SOL     OW 9553   1.672   2.787   3.915
 2885SOL    HW1 9554   1.636   2.850   3.847
 2885SOL    HW2 9555   1.770   2.805   3.929
 2886SOL     OW 9556   2.282   4.756   5.466
 2886SOL    HW1 9557   2.269   4.748   5.565
 2886SOL    HW2 9558   2.379   4.748   5.444
 2887SOL     OW 9559   6.961   5.810   3.039
 2887SOL    HW1 9560   6.919   5.846   3.122
 2887SOL    HW2 9561   6.893   5.758   2.987
 2888SOL     OW 9562   4.890   6.800   6.167
 2888SOL    HW1 9563   4.852   6.867   6.104
 2888SOL    HW2 9564   4.831   6.793   6.248
 2889SOL     OW 9565   4.640   6.069   4.344
 2889SOL    HW1 9566   4.624   6.115   4.432
 2889SOL    HW2 9567   4.553   6.040   4.306
 2890SOL     OW 9568   0.947   2.365   0.549
 2890SOL    HW1 9569   0.897   2.279   0.558
 2890SOL    HW2 9570   0.884   2.442   0.556
 2891SOL     OW 9571   0.618   1.808   5.390
 2891SOL    HW1 9572   0.523   1.780   5.374
 2891SOL    HW2 9573   0.679   1.732   5.369
 2892SOL     OW 9574   5.479   4.392   1.789
 2892SOL    HW1 9575   5.435   4.331   1.855
 2892SOL    HW2 9576   5.417   4.468   1.768
 2893SOL     OW 9577   6.949   5.463   5.181
 2893SOL    HW1 9578   0.012   5.441   5.232
 2893SOL    HW2 9579   6.962   5.440   5.084
 2894SOL     OW 9580   2.449   5.466   1.672
 2894SOL    HW1 9581   2.525   5.404   1.652
 2894SOL    HW2 9582   2.424   5.516   1.588
 2895SOL     OW 9583   4.016   6.850   5.803
 2895SOL    HW1 9584   4.027   6.950   5.795
 2895SOL    HW2 9585   3.978   6.815   5.717
 2896SOL     OW 9586   6.208   0.466   4.776
 2896SOL    HW1 9587   6.207   0.561   4.747
 2896SOL    HW2 9588   6.281   0.453   4.844
 2897SOL     OW 9589   3.467   4.988   3.261
 2897SOL    HW1 9590   3.439   5.071   3.212
 2897SOL    HW2 9591   3.564   4.969   3.242
 2898SOL     OW 9592   4.766   2.453   2.270
 2898SOL    HW1 9593   4.747   2.356   2.290
 2898SOL    HW2 9594   4.858   2.476   2.303
 2899SOL     OW 9595   6.903   3.514   0.765
 2899SOL    HW1 9596   6.918   3.475   0.856
 2899SOL    HW2 9597   6.991   3.524   0.719
 2900SOL     OW 9598   2.118   2.673   6.136
 2900SOL    HW1 9599   2.113   2.772   6.124
 2900SOL    HW2 9600   2.126   2.628   6.047
 2901SOL     OW 9601   0.866   3.833   2.880
 2901SOL    HW1 9602   0.934   3.760   2.890
 2901SOL    HW2 9603   0.782   3.807   2.926
 2902SOL     OW 9604   5.790   5.407   3.533
 2902SOL    HW1 9605   5.711   5.384   3.476
 2902SOL    HW2 9606   5.759   5.436   3.624
 2903SOL     OW 9607   6.368   4.789   0.477
 2903SOL    HW1 9608   6.321   4.709   0.516
 2903SOL    HW2 9609   6.408   4.764   0.389
 2904SOL     OW 9610   2.373   4.477   5.011
 2904SOL    HW1 9611   2.333   4.390   5.039
 2904SOL    HW2 9612   2.311   4.523   4.946
 2905SOL     OW 9613   1.918   5.380   1.114
 2905SOL    HW1 9614   1.851   5.360   1.186
 2905SOL    HW2 9615   1.982   5.303   1.106
 2906SOL     OW 9616   6.320   6.154   5.190
 2906SOL    HW1 9617   6.234   6.189   5.152
 2906SOL    HW2 9618   6.319   6.164   5.290
 2907SOL     OW 9619   0.594   1.051   5.280
 2907SOL    HW1 9620   0.535   1.112   5.226
 2907SOL    HW2 9621   0.685   1.092   5.289
 2908SOL     OW 9622   4.233   0.016   3.451
 2908SOL    HW1 9623   4.284   6.965   3.501
 2908SOL    HW2 9624   4.238   7.016   3.353
 2909SOL     OW 9625   6.784   6.569   1.554
 2909SOL    HW1 9626   6.871   6.604   1.519
 2909SOL    HW2 9627   6.802   6.509   1.632
 2910SOL     OW 9628   0.790   1.195   4.313
 2910SOL    HW1 9629   0.813   1.246   4.396
 2910SOL    HW2 9630   0.773   1.099   4.336
 2911SOL     OW 9631   0.320   4.131   5.809
 2911SOL    HW1 9632   0.411   4.172   5.804
 2911SOL    HW2 9633   0.323   4.051   5.869
 2912SOL     OW 9634   0.993   1.029   1.335
 2912SOL    HW1 9635   0.957   1.081   1.413
 2912SOL    HW2 9636   1.047   0.952   1.368
 2913SOL     OW 9637   1.951   6.444   3.097
 2913SOL    HW1 9638   1.996   6.424   3.184
 2913SOL    HW2 9639   1.901   6.530   3.104
 2914SOL     OW 9640   3.856   5.228   1.203
 2914SOL    HW1 9641   3.810   5.142   1.178
 2914SOL    HW2 9642   3.863   5.235   1.303
 2915SOL     OW 9643   2.770   0.144   3.697
 2915SOL    HW1 9644   2.817   0.059   3.670
 2915SOL    HW2 9645   2.834   0.221   3.689
 2916SOL     OW 9646   1.269   5.575   0.145
 2916SOL    HW1 9647   1.278   5.657   0.089
 2916SOL    HW2 9648   1.352   5.561   0.200
 2917SOL     OW 9649   2.714   6.735   2.821
 2917SOL    HW1 9650   2.627   6.762   2.780
 2917SOL    HW2 9651   2.790   6.767   2.765
 2918SOL     OW 9652   5.298   2.565   1.646
 2918SOL    HW1 9653   5.247   2.644   1.680
 2918SOL    HW2 9654   5.387   2.561   1.692
 2919SOL     OW 9655   0.064   6.026   4.945
 2919SOL    HW1 9656   0.117   6.086   4.885
 2919SOL    HW2 9657   6.988   6.025   4.915
 2920SOL     OW 9658   2.540   2.389   1.706
 2920SOL    HW1 9659   2.593   2.456   1.653
 2920SOL    HW2 9660   2.602   2.330   1.757
 2921SOL     OW 9661   1.523   5.813   3.383
 2921SOL    HW1 9662   1.530   5.838   3.480
 2921SOL    HW2 9663   1.582   5.873   3.329
 2922SOL     OW 9664   4.301   5.158   4.264
 2922SOL    HW1 9665   4.368   5.213   4.313
 2922SOL    HW2 9666   4.348   5.083   4.218
 2923SOL     OW 9667   0.421   5.507   4.831
 2923SOL    HW1 9668   0.333   5.554   4.829
 2923SOL    HW2 9669   0.478   5.546   4.903
 2924SOL     OW 9670   5.511   2.081   6.422
 2924SOL    HW1 9671   5.495   2.110   6.327
 2924SOL    HW2 9672   5.590   2.020   6.425
 2925SOL     OW 9673   5.999   6.609   4.925
 2925SOL    HW1 9674   5.928   6.589   4.993
 2925SOL    HW2 9675   5.982   6.555   4.842
 2926SOL     OW 9676   6.509   2.357   3.996
 2926SOL    HW1 9677   6.412   2.334   4.001
 2926SOL    HW2 9678   6.525   2.443   4.044
 2927SOL     OW 9679   1.180   2.027   2.141
 2927SOL    HW1 9680   1.242   2.097   2.176
 2927SOL    HW2 9681   1.178   2.030   2.041
 2928SOL     OW 9682   5.977   3.061   0.336
 2928SOL    HW1 9683   5.976   3.111   0.423
 2928SOL    HW2 9684   6.072   3.046   0.308
 2929SOL     OW 9685   2.023   2.277   4.425
 2929SOL    HW1 9686   2.112   2.308   4.392
 2929SOL    HW2 9687   2.028   2.179   4.448
 2930SOL     OW 9688   0.016   3.762   4.170
 2930SOL    HW1 9689   6.986   3.846   4.190
 2930SOL    HW2 9690   0.084   3.745   4.241
 2931SOL     OW 9691   5.621   4.725   5.804
 2931SOL    HW1 9692   5.561   4.753   5.879
 2931SOL    HW2 9693   5.579   4.752   5.717
 2932SOL     OW 9694   5.980   5.014   1.505
 2932SOL    HW1 9695   5.970   4.915   1.519
 2932SOL    HW2 9696   6.010   5.057   1.590
 2933SOL     OW 9697   0.892   0.019   0.249
 2933SOL    HW1 9698   0.990   0.026   0.232
 2933SOL    HW2 9699   0.856   0.107   0.277
 2934SOL     OW 9700   4.408   5.411   1.762
 2934SOL    HW1 9701   4.448   5.321   1.779
 2934SOL    HW2 9702   4.327   5.402   1.704
 2935SOL     OW 9703   0.654   2.685   5.960
 2935SOL    HW1 9704   0.644   2.749   6.037
 2935SOL    HW2 9705   0.691   2.599   5.994
 2936SOL     OW 9706   4.805   6.874   2.327
 2936SOL    HW1 9707   4.775   6.965   2.357
 2936SOL    HW2 9708   4.834   6.879   2.231
 2937SOL     OW 9709   5.731   4.053   3.132
 2937SOL    HW1 9710   5.665   4.126   3.115
 2937SOL    HW2 9711   5.823   4.092   3.133
 2938SOL     OW 9712   0.598   5.674   6.651
 2938SOL    HW1 9713   0.552   5.760   6.675
 2938SOL    HW2 9714   0.681   5.694   6.599
 2939SOL     OW 9715   0.000   5.991   1.141
 2939SOL    HW1 9716   6.981   5.903   1.111
 2939SOL    HW2 9717   6.995   6.007   1.237
 2940SOL     OW 9718   4.784   6.261   3.745
 2940SOL    HW1 9719   4.870   6.250   3.795
 2940SOL    HW2 9720   4.776   6.188   3.677
 2941SOL     OW 9721   2.326   4.782   2.608
 2941SOL    HW1 9722   2.276   4.704   2.648
 2941SOL    HW2 9723   2.261   4.849   2.573
 2942SOL     OW 9724   3.394   1.942   1.602
 2942SOL    HW1 9725   3.486   1.965   1.633
 2942SOL    HW2 9726   3.366   1.854   1.642
 2943SOL     OW 9727   5.960   3.853   3.205
 2943SOL    HW1 9728   5.982   3.839   3.108
 2943SOL    HW2 9729   6.034   3.816   3.261
 2944SOL     OW 9730   1.816   6.001   2.240
 2944SOL    HW1 9731   1.897   6.003   2.298
 2944SOL    HW2 9732   1.800   6.093   2.202
 2945SOL     OW 9733   5.103   3.633   1.437
 2945SOL    HW1 9734   5.016   3.682   1.446
 2945SOL    HW2 9735   5.137   3.610   1.528
 2946SOL     OW 9736   3.745   2.940   4.112
 2946SOL    HW1 9737   3.695   3.015   4.068
 2946SOL    HW2 9738   3.804   2.895   4.045
 2947SOL     OW 9739   6.032   5.489   0.995
 2947SOL    HW1 9740   5.933   5.494   0.978
 2947SOL    HW2 9741   6.049   5.452   1.086
 2948SOL     OW 9742   7.010   3.815   1.927
 2948SOL    HW1 9743   0.013   3.735   1.983
 2948SOL    HW2 9744   0.073   3.846   1.879
 2949SOL     OW 9745   2.223   6.129   0.509
 2949SOL    HW1 9746   2.237   6.211   0.565
 2949SOL    HW2 9747   2.233   6.153   0.412
 2950SOL     OW 9748   6.177   5.897   2.499
 2950SOL    HW1 9749   6.236   5.944   2.565
 2950SOL    HW2 9750   6.232   5.868   2.421
 2951SOL     OW 9751   0.808   1.692   1.299
 2951SOL    HW1 9752   0.842   1.774   1.346
 2951SOL    HW2 9753   0.729   1.716   1.242
 2952SOL     OW 9754   0.058   1.835   5.325
 2952SOL    HW1 9755   6.980   1.820   5.309
 2952SOL    HW2 9756   0.070   1.886   5.410
 2953SOL     OW 9757   1.747   5.221   3.127
 2953SOL    HW1 9758   1.754   5.127   3.161
 2953SOL    HW2 9759   1.770   5.285   3.201
 2954SOL     OW 9760   0.713   4.113   6.335
 2954SOL    HW1 9761   0.782   4.174   6.374
 2954SOL    HW2 9762   0.668   4.062   6.408
 2955SOL     OW 9763   1.609   4.736   6.317
 2955SOL    HW1 9764   1.664   4.695   6.244
 2955SOL    HW2 9765   1.557   4.665   6.364
 2956SOL     OW 9766   5.345   4.476   4.387
 2956SOL    HW1 9767   5.307   4.419   4.315
 2956SOL    HW2 9768   5.271   4.524   4.435
 2957SOL     OW 9769   2.388   5.592   1.428
 2957SOL    HW1 9770   2.467   5.625   1.377
 2957SOL    HW2 9771   2.309   5.650   1.409
 2958SOL     OW 9772   1.564   3.990   2.503
 2958SOL    HW1 9773   1.589   4.055   2.575
 2958SOL    HW2 9774   1.496   4.032   2.442
 2959SOL     OW 9775   0.163   3.581   3.756
 2959SOL    HW1 9776   0.166   3.570   3.856
 2959SOL    HW2 9777   0.202   3.670   3.732
 2960SOL     OW 9778   4.933   6.937   1.295
 2960SOL    HW1 9779   4.931   0.013   1.267
 2960SOL    HW2 9780   4.896   6.930   1.388
 2961SOL     OW 9781   5.583   2.577   1.774
 2961SOL    HW1 9782   5.638   2.494   1.762
 2961SOL    HW2 9783   5.535   2.573   1.861
 2962SOL     OW 9784   6.904   0.189   3.690
 2962SOL    HW1 9785   6.970   0.143   3.630
 2962SOL    HW2 9786   6.832   0.231   3.635
 2963SOL     OW 9787   1.674   0.775   5.245
 2963SOL    HW1 9788   1.598   0.784   5.181
 2963SOL    HW2 9789   1.742   0.712   5.207
 2964SOL     OW 9790   1.527   0.747   6.603
 2964SOL    HW1 9791   1.560   0.684   6.673
 2964SOL    HW2 9792   1.604   0.775   6.545
 2965SOL     OW 9793   6.237   0.358   6.233
 2965SOL    HW1 9794   6.325   0.404   6.222
 2965SOL    HW2 9795   6.245   0.288   6.304
 2966SOL     OW 9796   2.757   5.527   2.256
 2966SOL    HW1 9797   2.693   5.601   2.238
 2966SOL    HW2 9798   2.826   5.558   2.321
 2967SOL     OW 9799   5.660   6.721   5.110
 2967SOL    HW1 9800   5.657   6.815   5.078
 2967SOL    HW2 9801   5.717   6.716   5.192
 2968SOL     OW 9802   0.976   3.891   0.910
 2968SOL    HW1 9803   1.044   3.871   0.981
 2968SOL    HW2 9804   0.885   3.865   0.943
 2969SOL     OW 9805   4.673   2.834   5.071
 2969SOL    HW1 9806   4.737   2.801   5.139
 2969SOL    HW2 9807   4.675   2.775   4.990
 2970SOL     OW 9808   2.674   2.511   5.488
 2970SOL    HW1 9809   2.750   2.561   5.446
 2970SOL    HW2 9810   2.708   2.425   5.527
 2971SOL     OW 9811   4.818   3.129   6.998
 2971SOL    HW1 9812   4.913   3.114   6.970
 2971SOL    HW2 9813   4.817   3.182   0.064
 2972SOL     OW 9814   6.966   5.443   6.197
 2972SOL    HW1 9815   6.948   5.368   6.134
 2972SOL    HW2 9816   0.018   5.502   6.160
 2973SOL     OW 9817   5.192   0.990   4.655
 2973SOL    HW1 9818   5.227   1.084   4.657
 2973SOL    HW2 9819   5.220   0.946   4.570
 2974SOL     OW 9820   4.863   6.853   1.781
 2974SOL    HW1 9821   4.942   6.797   1.758
 2974SOL    HW2 9822   4.871   6.942   1.737
 2975SOL     OW 9823   6.099   3.556   4.743
 2975SOL    HW1 9824   6.078   3.518   4.653
 2975SOL    HW2 9825   6.014   3.578   4.790
 2976SOL     OW 9826   3.371   1.228   1.486
 2976SOL    HW1 9827   3.366   1.146   1.543
 2976SOL    HW2 9828   3.418   1.206   1.400
 2977SOL     OW 9829   1.307   0.639   1.692
 2977SOL    HW1 9830   1.210   0.656   1.708
 2977SOL    HW2 9831   1.328   0.544   1.712
 2978SOL     OW 9832   4.018   5.364   6.536
 2978SOL    HW1 9833   4.097   5.425   6.527
 2978SOL    HW2 9834   4.028   5.308   6.619
 2979SOL     OW 9835   3.059   0.899   4.916
 2979SOL    HW1 9836   3.126   0.946   4.858
 2979SOL    HW2 9837   2.967   0.917   4.882
 2980SOL     OW 9838   3.264   3.042   4.301
 2980SOL    HW1 9839   3.295   3.136   4.308
 2980SOL    HW2 9840   3.209   3.018   4.381
 2981SOL     OW 9841   2.263   1.386   1.336
 2981SOL    HW1 9842   2.228   1.443   1.409
 2981SOL    HW2 9843   2.341   1.333   1.369
 2982SOL     OW 9844   1.929   0.784   1.276
 2982SOL    HW1 9845   1.869   0.841   1.333
 2982SOL    HW2 9846   1.914   0.806   1.180
 2983SOL     OW 9847   6.442   3.354   5.653
 2983SOL    HW1 9848   6.483   3.265   5.675
 2983SOL    HW2 9849   6.453   3.415   5.732
 2984SOL     OW 9850   0.423   5.927   1.406
 2984SOL    HW1 9851   0.415   5.876   1.320
 2984SOL    HW2 9852   0.343   5.909   1.463
 2985SOL     OW 9853   5.899   0.590   0.088
 2985SOL    HW1 9854   5.930   0.530   0.014
 2985SOL    HW2 9855   5.835   0.541   0.146
 2986SOL     OW 9856   3.561   3.188   2.012
 2986SOL    HW1 9857   3.561   3.090   2.034
 2986SOL    HW2 9858   3.655   3.221   2.010
 2987SOL     OW 9859   2.482   6.179   4.617
 2987SOL    HW1 9860   2.505   6.120   4.695
 2987SOL    HW2 9861   2.527   6.144   4.535
 2988SOL     OW 9862   6.478   1.672   5.539
 2988SOL    HW1 9863   6.454   1.644   5.632
 2988SOL    HW2 9864   6.416   1.744   5.509
 2989SOL     OW 9865   5.736   3.419   4.629
 2989SOL    HW1 9866   5.642   3.402   4.660
 2989SOL    HW2 9867   5.778   3.488   4.687
 2990SOL     OW 9868   5.385   1.988   4.891
 2990SOL    HW1 9869   5.440   2.009   4.811
 2990SOL    HW2 9870   5.431   2.023   4.973
 2991SOL     OW 9871   0.211   3.423   0.378
 2991SOL    HW1 9872   0.163   3.363   0.314
 2991SOL    HW2 9873   0.227   3.512   0.335
 2992SOL     OW 9874   0.920   3.743   4.577
 2992SOL    HW1 9875   0.917   3.643   4.573
 2992SOL    HW2 9876   0.987   3.777   4.512
 2993SOL     OW 9877   3.335   4.628   0.915
 2993SOL    HW1 9878   3.397   4.584   0.850
 2993SOL    HW2 9879   3.359   4.601   1.008
 2994SOL     OW 9880   3.080   5.156   4.512
 2994SOL    HW1 9881   2.987   5.190   4.517
 2994SOL    HW2 9882   3.132   5.187   4.591
 2995SOL     OW 9883   4.733   0.864   1.636
 2995SOL    HW1 9884   4.830   0.884   1.625
 2995SOL    HW2 9885   4.717   0.766   1.626
 2996SOL     OW 9886   6.649   0.928   3.834
 2996SOL    HW1 9887   6.712   0.899   3.762
 2996SOL    HW2 9888   6.579   0.858   3.848
 2997SOL     OW 9889   5.095   6.245   4.298
 2997SOL    HW1 9890   5.035   6.299   4.238
 2997SOL    HW2 9891   5.107   6.294   4.385
 2998SOL     OW 9892   2.537   1.122   1.774
 2998SOL    HW1 9893   2.458   1.112   1.835
 2998SOL    HW2 9894   2.620   1.100   1.825
 2999SOL     OW 9895   1.922   4.176   0.888
 2999SOL    HW1 9896   1.852   4.140   0.950
 2999SOL    HW2 9897   1.914   4.132   0.799
 3000SOL     OW 9898   2.131   4.180   5.454
 3000SOL    HW1 9899   2.093   4.089   5.435
 3000SOL    HW2 9900   2.211   4.195   5.396
 3001SOL     OW 9901   4.143   0.781   6.282
 3001SOL    HW1 9902   4.056   0.731   6.279
 3001SOL    HW2 9903   4.158   0.816   6.374
 3002SOL     OW 9904   1.920   1.725   1.807
 3002SOL    HW1 9905   2.001   1.668   1.801
 3002SOL    HW2 9906   1.859   1.689   1.877
 3003SOL     OW 9907   1.267   6.130   0.781
 3003SOL    HW1 9908   1.329   6.145   0.858
 3003SOL    HW2 9909   1.316   6.149   0.695
 3004SOL     OW 9910   2.841   6.838   3.568
 3004SOL    HW1 9911   2.889   6.902   3.509
 3004SOL    HW2 9912   2.777   6.783   3.513
 3005SOL     OW 9913   2.420   1.745   0.738
 3005SOL    HW1 9914   2.486   1.791   0.679
 3005SOL    HW2 9915   2.420   1.788   0.828
 3006SOL     OW 9916   5.254   1.324   5.707
 3006SOL    HW1 9917   5.261   1.412   5.756
 3006SOL    HW2 9918   5.288   1.251   5.766
 3007SOL     OW 9919   6.281   5.627   6.346
 3007SOL    HW1 9920   6.340   5.621   6.426
 3007SOL    HW2 9921   6.228   5.712   6.350
 3008SOL     OW 9922   4.558   3.885   5.535
 3008SOL    HW1 9923   4.640   3.905   5.481
 3008SOL    HW2 9924   4.552   3.787   5.552
 3009SOL     OW 9925   5.709   3.336   2.291
 3009SOL    HW1 9926   5.759   3.325   2.206
 3009SOL    HW2 9927   5.611   3.342   2.272
 3010SOL     OW 9928   4.569   5.174   1.976
 3010SOL    HW1 9929   4.527   5.183   2.066
 3010SOL    HW2 9930   4.501   5.141   1.910
 3011SOL     OW 9931   6.338   0.206   0.324
 3011SOL    HW1 9932   6.322   0.108   0.329
 3011SOL    HW2 9933   6.251   0.254   0.317
 3012SOL     OW 9934   1.889   1.667   5.082
 3012SOL    HW1 9935   1.927   1.686   5.173
 3012SOL    HW2 9936   1.952   1.700   5.012
 3013SOL     OW 9937   0.797   4.623   5.624
 3013SOL    HW1 9938   0.721   4.622   5.689
 3013SOL    HW2 9939   0.762   4.612   5.532
 3014SOL     OW 9940   4.969   0.053   6.376
 3014SOL    HW1 9941   4.878   0.015   6.388
 3014SOL    HW2 9942   5.020   0.046   6.462
 3015SOL     OW 9943   2.146   0.712   5.886
 3015SOL    HW1 9944   2.227   0.747   5.838
 3015SOL    HW2 9945   2.151   0.738   5.983
 3016SOL     OW 9946   2.041   0.392   4.175
 3016SOL    HW1 9947   2.088   0.469   4.132
 3016SOL    HW2 9948   2.039   0.405   4.274
 3017SOL     OW 9949   1.558   5.871   0.593
 3017SOL    HW1 9950   1.640   5.816   0.576
 3017SOL    HW2 9951   1.550   5.890   0.691
 3018SOL     OW 9952   3.238   1.737   1.678
 3018SOL    HW1 9953   3.147   1.767   1.648
 3018SOL    HW2 9954   3.232   1.648   1.722
 3019SOL     OW 9955   1.653   6.874   5.920
 3019SOL    HW1 9956   1.689   6.892   6.012
 3019SOL    HW2 9957   1.639   6.961   5.873
 3020SOL     OW 9958   5.386   4.890   0.031
 3020SOL    HW1 9959   5.472   4.939   0.015
 3020SOL    HW2 9960   5.401   4.792   0.020
 3021SOL     OW 9961   4.615   0.564   4.596
 3021SOL    HW1 9962   4.667   0.638   4.552
 3021SOL    HW2 9963   4.658   0.541   4.683
 3022SOL     OW 9964   3.805   5.831   3.942
 3022SOL    HW1 9965   3.794   5.911   3.883
 3022SOL    HW2 9966   3.864   5.855   4.019
 3023SOL     OW 9967   6.051   4.588   5.076
 3023SOL    HW1 9968   5.980   4.620   5.138
 3023SOL    HW2 9969   6.018   4.507   5.027
 3024SOL     OW 9970   7.015   0.929   0.395
 3024SOL    HW1 9971   6.921   0.928   0.361
 3024SOL    HW2 9972   0.024   1.024   0.412
 3025SOL     OW 9973   4.276   5.486   0.238
 3025SOL    HW1 9974   4.375   5.474   0.227
 3025SOL    HW2 9975   4.257   5.555   0.307
 3026SOL     OW 9976   0.484   0.674   1.951
 3026SOL    HW1 9977   0.424   0.605   1.992
 3026SOL    HW2 9978   0.437   0.716   1.873
 3027SOL     OW 9979   3.911   6.872   0.437
 3027SOL    HW1 9980   3.943   6.834   0.351
 3027SOL    HW2 9981   3.812   6.889   0.431
 3028SOL     OW 9982   3.321   3.442   4.643
 3028SOL    HW1 9983   3.294   3.534   4.616
 3028SOL    HW2 9984   3.395   3.447   4.710
 3029SOL     OW 9985   6.445   3.635   4.742
 3029SOL    HW1 9986   6.451   3.734   4.754
 3029SOL    HW2 9987   6.463   3.589   4.830
 3030SOL     OW 9988   1.690   3.081   6.501
 3030SOL    HW1 9989   1.595   3.057   6.524
 3030SOL    HW2 9990   1.752   3.031   6.561
 3031SOL     OW 9991   0.942   5.320   0.672
 3031SOL    HW1 9992   0.897   5.406   0.647
 3031SOL    HW2 9993   1.026   5.339   0.722
 3032SOL     OW 9994   2.393   6.802   3.489
 3032SOL    HW1 9995   2.409   6.748   3.572
 3032SOL    HW2 9996   2.481   6.824   3.447
 3033SOL     OW 9997   1.356   1.972   5.974
 3033SOL    HW1 9998   1.351   1.929   6.064
 3033SOL    HW2 9999   1.439   2.028   5.968
 3034SOL     OW10000   5.418   3.021   2.905
 3034SOL    HW110001   5.340   3.082   2.920
 3034SOL    HW210002   5.386   2.934   2.868
 3035SOL     OW10003   0.288   3.473   0.091
 3035SOL    HW110004   0.234   3.540   0.039
 3035SOL    HW210005   0.236   3.389   0.100
 3036SOL     OW10006   3.463   2.562   6.011
 3036SOL    HW110007   3.401   2.619   5.957
 3036SOL    HW210008   3.410   2.505   6.073
 3037SOL     OW10009   1.174   5.256   6.611
 3037SOL    HW110010   1.107   5.326   6.636
 3037SOL    HW210011   1.212   5.277   6.522
 3038SOL     OW10012   5.999   5.441   6.321
 3038SOL    HW110013   6.061   5.514   6.351
 3038SOL    HW210014   5.997   5.368   6.389
 3039SOL     OW10015   5.868   4.000   5.832
 3039SOL    HW110016   5.798   3.932   5.810
 3039SOL    HW210017   5.881   4.061   5.754
 3040SOL     OW10018   4.714   5.989   5.936
 3040SOL    HW110019   4.728   6.016   5.841
 3040SOL    HW210020   4.726   6.068   5.996
 3041SOL     OW10021   1.061   4.625   5.748
 3041SOL    HW110022   0.984   4.664   5.698
 3041SOL    HW210023   1.130   4.593   5.683
 3042SOL     OW10024   0.173   5.150   3.752
 3042SOL    HW110025   0.102   5.182   3.815
 3042SOL    HW210026   0.175   5.050   3.754
 3043SOL     OW10027   2.760   4.937   1.575
 3043SOL    HW110028   2.794   5.022   1.534
 3043SOL    HW210029   2.831   4.867   1.569
 3044SOL     OW10030   3.804   3.282   4.647
 3044SOL    HW110031   3.822   3.195   4.693
 3044SOL    HW210032   3.887   3.338   4.647
 3045SOL     OW10033   5.525   1.506   2.392
 3045SOL    HW110034   5.616   1.504   2.434
 3045SOL    HW210035   5.474   1.585   2.426
 3046SOL     OW10036   5.845   6.696   1.737
 3046SOL    HW110037   5.883   6.713   1.828
 3046SOL    HW210038   5.753   6.660   1.745
 3047SOL     OW10039   6.483   1.266   4.475
 3047SOL    HW110040   6.530   1.262   4.387
 3047SOL    HW210041   6.391   1.305   4.463
 3048SOL     OW10042   4.414   4.845   1.691
 3048SOL    HW110043   4.374   4.755   1.706
 3048SOL    HW210044   4.513   4.835   1.675
 3049SOL     OW10045   1.003   1.888   2.424
 3049SOL    HW110046   1.082   1.930   2.469
 3049SOL    HW210047   0.920   1.912   2.473
 3050SOL     OW10048   3.277   2.301   6.881
 3050SOL    HW110049   3.369   2.319   6.849
 3050SOL    HW210050   3.280   2.247   6.965
 3051SOL     OW10051   2.131   5.200   5.535
 3051SOL    HW110052   2.086   5.206   5.446
 3051SOL    HW210053   2.063   5.209   5.607
 3052SOL     OW10054   6.976   6.599   3.996
 3052SOL    HW110055   0.036   6.636   3.948
 3052SOL    HW210056   6.949   6.513   3.953
 3053SOL     OW10057   0.780   4.095   6.886
 3053SOL    HW110058   0.790   4.181   6.937
 3053SOL    HW210059   0.696   4.098   6.832
 3054SOL     OW10060   5.320   0.388   3.079
 3054SOL    HW110061   5.300   0.378   3.177
 3054SOL    HW210062   5.402   0.445   3.068
 3055SOL     OW10063   5.726   6.383   0.538
 3055SOL    HW110064   5.797   6.423   0.480
 3055SOL    HW210065   5.669   6.457   0.576
 3056SOL     OW10066   4.147   1.487   6.482
 3056SOL    HW110067   4.204   1.410   6.458
 3056SOL    HW210068   4.202   1.571   6.482
 3057SOL     OW10069   5.117   3.838   3.215
 3057SOL    HW110070   5.023   3.839   3.249
 3057SOL    HW210071   5.164   3.755   3.246
 3058SOL     OW10072   0.338   5.578   5.918
 3058SOL    HW110073   0.370   5.585   5.824
 3058SOL    HW210074   0.325   5.482   5.942
 3059SOL     OW10075   1.591   2.028   2.000
 3059SOL    HW110076   1.559   2.122   1.984
 3059SOL    HW210077   1.519   1.964   1.975
 3060SOL     OW10078   5.462   4.105   3.675
 3060SOL    HW110079   5.444   4.018   3.721
 3060SOL    HW210080   5.545   4.098   3.620
 3061SOL     OW10081   5.731   6.871   3.624
 3061SOL    HW110082   5.655   6.881   3.689
 3061SOL    HW210083   5.697   6.888   3.531
 3062SOL     OW10084   3.877   5.252   1.472
 3062SOL    HW110085   3.889   5.345   1.507
 3062SOL    HW210086   3.779   5.233   1.464
 3063SOL     OW10087   6.555   4.808   1.750
 3063SOL    HW110088   6.557   4.708   1.750
 3063SOL    HW210089   6.551   4.841   1.845
 3064SOL     OW10090   4.985   2.270   6.570
 3064SOL    HW110091   4.937   2.348   6.610
 3064SOL    HW210092   4.974   2.271   6.471
 3065SOL     OW10093   5.707   1.134   6.501
 3065SOL    HW110094   5.668   1.198   6.568
 3065SOL    HW210095   5.641   1.061   6.483
 3066SOL     OW10096   5.368   0.252   5.367
 3066SOL    HW110097   5.427   0.330   5.388
 3066SOL    HW210098   5.392   0.175   5.428
 3067SOL     OW10099   1.162   2.226   4.990
 3067SOL    HW110100   1.250   2.236   5.036
 3067SOL    HW210101   1.090   2.219   5.059
 3068SOL     OW10102   6.513   0.403   0.446
 3068SOL    HW110103   6.603   0.379   0.481
 3068SOL    HW210104   6.465   0.320   0.416
 3069SOL     OW10105   5.377   6.245   3.985
 3069SOL    HW110106   5.353   6.330   3.940
 3069SOL    HW210107   5.307   6.176   3.966
 3070SOL     OW10108   2.189   0.990   1.360
 3070SOL    HW110109   2.139   1.073   1.335
 3070SOL    HW210110   2.124   0.916   1.377
 3071SOL     OW10111   6.041   4.647   5.413
 3071SOL    HW110112   5.953   4.650   5.364
 3071SOL    HW210113   6.079   4.740   5.418
 3072SOL     OW10114   1.999   6.791   5.947
 3072SOL    HW110115   1.926   6.778   5.879
 3072SOL    HW210116   2.024   6.888   5.951
 3073SOL     OW10117   0.121   5.539   1.842
 3073SOL    HW110118   0.215   5.550   1.873
 3073SOL    HW210119   0.061   5.522   1.920
 3074SOL     OW10120   3.406   2.849   1.461
 3074SOL    HW110121   3.375   2.816   1.372
 3074SOL    HW210122   3.495   2.808   1.483
 3075SOL     OW10123   4.022   4.961   1.366
 3075SOL    HW110124   3.977   4.892   1.423
 3075SOL    HW210125   3.965   4.982   1.287
 3076SOL     OW10126   1.119   1.211   4.607
 3076SOL    HW110127   1.098   1.191   4.703
 3076SOL    HW210128   1.215   1.241   4.599
 3077SOL     OW10129   6.549   3.648   1.789
 3077SOL    HW110130   6.613   3.572   1.774
 3077SOL    HW210131   6.547   3.670   1.887
 3078SOL     OW10132   0.181   3.263   1.814
 3078SOL    HW110133   0.117   3.332   1.846
 3078SOL    HW210134   0.134   3.199   1.753
 3079SOL     OW10135   2.237   4.055   4.589
 3079SOL    HW110136   2.327   4.016   4.609
 3079SOL    HW210137   2.191   3.998   4.521
 3080SOL     OW10138   4.421   4.995   1.402
 3080SOL    HW110139   4.442   4.907   1.360
 3080SOL    HW210140   4.491   5.061   1.377
 3081SOL     OW10141   2.071   3.965   6.318
 3081SOL    HW110142   1.982   3.995   6.285
 3081SOL    HW210143   2.067   3.953   6.418
 3082SOL     OW10144   5.431   4.622   5.078
 3082SOL    HW110145   5.464   4.666   4.994
 3082SOL    HW210146   5.392   4.533   5.055
 3083SOL     OW10147   3.758   5.540   1.853
 3083SOL    HW110148   3.748   5.628   1.900
 3083SOL    HW210149   3.794   5.556   1.761
 3084SOL     OW10150   6.979   5.065   3.432
 3084SOL    HW110151   6.939   5.151   3.466
 3084SOL    HW210152   6.961   5.057   3.334
 3085SOL     OW10153   5.806   5.494   0.089
 3085SOL    HW110154   5.747   5.490   0.170
 3085SOL    HW210155   5.880   5.427   0.098
 3086SOL     OW10156   6.312   6.060   6.415
 3086SOL    HW110157   6.331   6.086   6.510
 3086SOL    HW210158   6.236   5.995   6.412
 3087SOL     OW10159   3.832   0.428   2.339
 3087SOL    HW110160   3.857   0.414   2.434
 3087SOL    HW210161   3.765   0.360   2.311
 3088SOL     OW10162   2.014   3.884   5.695
 3088SOL    HW110163   2.015   3.901   5.596
 3088SOL    HW210164   2.107   3.866   5.727
 3089SOL     OW10165   4.576   5.516   5.398
 3089SOL    HW110166   4.506   5.570   5.351
 3089SOL    HW210167   4.613   5.570   5.474
 3090SOL     OW10168   0.683   2.560   2.243
 3090SOL    HW110169   0.727   2.643   2.278
 3090SOL    HW210170   0.624   2.584   2.166
 3091SOL     OW10171   1.120   2.994   1.154
 3091SOL    HW110172   1.078   2.917   1.108
 3091SOL    HW210173   1.156   2.964   1.243
 3092SOL     OW10174   6.260   1.256   1.975
 3092SOL    HW110175   6.225   1.163   1.985
 3092SOL    HW210176   6.311   1.263   1.889
 3093SOL     OW10177   6.720   5.592   6.643
 3093SOL    HW110178   6.773   5.654   6.584
 3093SOL    HW210179   6.706   5.636   6.732
 3094SOL     OW10180   2.402   1.758   6.492
 3094SOL    HW110181   2.369   1.791   6.404
 3094SOL    HW210182   2.335   1.781   6.563
 3095SOL     OW10183   1.285   3.938   5.042
 3095SOL    HW110184   1.374   3.940   5.088
 3095SOL    HW210185   1.215   3.972   5.104
 3096SOL     OW10186   1.545   3.340   4.251
 3096SOL    HW110187   1.497   3.397   4.318
 3096SOL    HW210188   1.632   3.383   4.227
 3097SOL     OW10189   5.737   2.854   5.187
 3097SOL    HW110190   5.834   2.880   5.195
 3097SOL    HW210191   5.681   2.936   5.190
 3098SOL     OW10192   1.869   3.079   2.764
 3098SOL    HW110193   1.787   3.090   2.820
 3098SOL    HW210194   1.857   3.003   2.701
 3099SOL     OW10195   0.351   0.045   5.122
 3099SOL    HW110196   0.274   7.014   5.081
 3099SOL    HW210197   0.380   0.117   5.059
 3100SOL     OW10198   5.445   5.008   1.706
 3100SOL    HW110199   5.505   5.082   1.735
 3100SOL    HW210200   5.500   4.930   1.674
 3101SOL     OW10201   4.863   0.073   5.089
 3101SOL    HW110202   4.839   0.002   5.156
 3101SOL    HW210203   4.908   0.149   5.135
 3102SOL     OW10204   5.967   4.575   1.999
 3102SOL    HW110205   5.891   4.570   1.934
 3102SOL    HW210206   5.995   4.671   2.011
 3103SOL     OW10207   2.160   1.939   1.448
 3103SOL    HW110208   2.200   1.982   1.530
 3103SOL    HW210209   2.091   1.872   1.476
 3104SOL     OW10210   5.528   2.701   5.089
 3104SOL    HW110211   5.614   2.746   5.114
 3104SOL    HW210212   5.451   2.750   5.131
 3105SOL     OW10213   5.461   3.772   0.536
 3105SOL    HW110214   5.505   3.701   0.592
 3105SOL    HW210215   5.530   3.836   0.504
 3106SOL     OW10216   5.337   1.680   5.456
 3106SOL    HW110217   5.370   1.590   5.484
 3106SOL    HW210218   5.339   1.743   5.534
 3107SOL     OW10219   3.247   1.813   5.165
 3107SOL    HW110220   3.186   1.785   5.090
 3107SOL    HW210221   3.261   1.912   5.161
 3108SOL     OW10222   2.217   4.216   3.480
 3108SOL    HW110223   2.225   4.279   3.557
 3108SOL    HW210224   2.272   4.251   3.404
 3109SOL     OW10225   6.939   6.460   3.607
 3109SOL    HW110226   0.018   6.480   3.600
 3109SOL    HW210227   6.927   6.363   3.627
 3110SOL     OW10228   1.007   5.468   3.423
 3110SOL    HW110229   0.990   5.441   3.518
 3110SOL    HW210230   0.990   5.390   3.363
 3111SOL     OW10231   5.960   3.803   3.826
 3111SOL    HW110232   6.003   3.885   3.863
 3111SOL    HW210233   5.870   3.826   3.790
 3112SOL     OW10234   3.784   1.167   6.804
 3112SOL    HW110235   3.730   1.247   6.831
 3112SOL    HW210236   3.868   1.198   6.760
 3113SOL     OW10237   1.557   6.451   3.314
 3113SOL    HW110238   1.538   6.354   3.303
 3113SOL    HW210239   1.590   6.488   3.227
 3114SOL     OW10240   4.540   0.538   5.651
 3114SOL    HW110241   4.579   0.451   5.622
 3114SOL    HW210242   4.464   0.522   5.714
 3115SOL     OW10243   5.528   5.296   5.159
 3115SOL    HW110244   5.603   5.361   5.174
 3115SOL    HW210245   5.512   5.287   5.060
 3116SOL     OW10246   0.610   1.136   6.481
 3116SOL    HW110247   0.625   1.067   6.552
 3116SOL    HW210248   0.692   1.144   6.424
 3117SOL     OW10249   4.502   7.009   0.706
 3117SOL    HW110250   4.441   6.980   0.632
 3117SOL    HW210251   4.455   7.000   0.794
 3118SOL     OW10252   1.773   1.541   3.848
 3118SOL    HW110253   1.843   1.494   3.795
 3118SOL    HW210254   1.800   1.543   3.945
 3119SOL     OW10255   4.795   5.846   4.779
 3119SOL    HW110256   4.854   5.872   4.703
 3119SOL    HW210257   4.838   5.771   4.830
 3120SOL     OW10258   2.290   5.098   6.684
 3120SOL    HW110259   2.314   5.022   6.624
 3120SOL    HW210260   2.323   5.183   6.644
 3121SOL     OW10261   4.404   2.466   4.209
 3121SOL    HW110262   4.345   2.394   4.174
 3121SOL    HW210263   4.427   2.530   4.136
 3122SOL     OW10264   5.720   5.209   5.837
 3122SOL    HW110265   5.776   5.290   5.857
 3122SOL    HW210266   5.695   5.165   5.923
 3123SOL     OW10267   1.495   1.407   3.258
 3123SOL    HW110268   1.544   1.438   3.340
 3123SOL    HW210269   1.499   1.478   3.188
 3124SOL     OW10270   4.626   0.201   4.994
 3124SOL    HW110271   4.539   0.154   5.010
 3124SOL    HW210272   4.696   0.164   5.055
 3125SOL     OW10273   1.929   1.289   5.868
 3125SOL    HW110274   1.843   1.310   5.821
 3125SOL    HW210275   1.912   1.220   5.939
 3126SOL     OW10276   5.123   4.517   5.939
 3126SOL    HW110277   5.091   4.610   5.920
 3126SOL    HW210278   5.099   4.492   6.033
 3127SOL     OW10279   0.051   1.547   5.453
 3127SOL    HW110280   0.087   1.611   5.521
 3127SOL    HW210281   7.006   1.595   5.393
 3128SOL     OW10282   3.454   0.512   0.719
 3128SOL    HW110283   3.515   0.466   0.785
 3128SOL    HW210284   3.360   0.504   0.751
 3129SOL     OW10285   4.457   3.914   7.012
 3129SOL    HW110286   4.465   3.987   0.060
 3129SOL    HW210287   4.500   3.831   0.029
 3130SOL     OW10288   0.219   5.618   2.400
 3130SOL    HW110289   0.255   5.678   2.471
 3130SOL    HW210290   0.290   5.599   2.333
 3131SOL     OW10291   6.512   4.263   3.090
 3131SOL    HW110292   6.521   4.189   3.022
 3131SOL    HW210293   6.452   4.233   3.164
 3132SOL     OW10294   4.867   4.053   0.367
 3132SOL    HW110295   4.947   4.066   0.309
 3132SOL    HW210296   4.852   3.956   0.382
 3133SOL     OW10297   4.954   0.159   4.664
 3133SOL    HW110298   4.985   0.082   4.720
 3133SOL    HW210299   4.883   0.209   4.714
 3134SOL     OW10300   6.106   4.813   2.752
 3134SOL    HW110301   6.175   4.852   2.813
 3134SOL    HW210302   6.150   4.773   2.673
 3135SOL     OW10303   3.614   5.783   6.885
 3135SOL    HW110304   3.689   5.821   6.831
 3135SOL    HW210305   3.586   5.696   6.846
 3136SOL     OW10306   5.970   0.615   3.310
 3136SOL    HW110307   5.960   0.714   3.306
 3136SOL    HW210308   5.907   0.573   3.245
 3137SOL     OW10309   4.655   5.869   0.446
 3137SOL    HW110310   4.716   5.937   0.405
 3137SOL    HW210311   4.694   5.778   0.434
 3138SOL     OW10312   6.587   6.624   5.165
 3138SOL    HW110313   6.528   6.560   5.215
 3138SOL    HW210314   6.551   6.717   5.174
 3139SOL     OW10315   2.183   5.108   1.623
 3139SOL    HW110316   2.170   5.035   1.690
 3139SOL    HW210317   2.230   5.072   1.543
 3140SOL     OW10318   6.848   6.037   0.327
 3140SOL    HW110319   6.882   6.103   0.394
 3140SOL    HW210320   6.752   6.018   0.345
 3141SOL     OW10321   5.699   1.806   6.685
 3141SOL    HW110322   5.770   1.793   6.754
 3141SOL    HW210323   5.622   1.745   6.704
 3142SOL     OW10324   4.728   0.859   3.777
 3142SOL    HW110325   4.717   0.862   3.678
 3142SOL    HW210326   4.804   0.799   3.801
 3143SOL     OW10327   6.827   1.244   1.008
 3143SOL    HW110328   6.915   1.287   0.988
 3143SOL    HW210329   6.790   1.204   0.925
 3144SOL     OW10330   3.372   4.416   0.137
 3144SOL    HW110331   3.459   4.392   0.180
 3144SOL    HW210332   3.340   4.504   0.173
 3145SOL     OW10333   0.474   6.118   0.285
 3145SOL    HW110334   0.501   6.193   0.345
 3145SOL    HW210335   0.543   6.107   0.213
 3146SOL     OW10336   6.900   1.859   4.261
 3146SOL    HW110337   6.927   1.770   4.225
 3146SOL    HW210338   6.926   1.866   4.358
 3147SOL     OW10339   3.960   6.435   6.951
 3147SOL    HW110340   3.967   6.422   0.030
 3147SOL    HW210341   3.865   6.419   6.922
 3148SOL     OW10342   6.741   5.046   1.449
 3148SOL    HW110343   6.760   5.137   1.412
 3148SOL    HW210344   6.827   4.996   1.462
 3149SOL     OW10345   3.534   2.565   6.872
 3149SOL    HW110346   3.630   2.562   6.901
 3149SOL    HW210347   3.475   2.583   6.951
 3150SOL     OW10348   6.971   6.774   5.723
 3150SOL    HW110349   6.957   6.806   5.630
 3150SOL    HW210350   6.962   6.675   5.727
 3151SOL     OW10351   0.031   0.855   5.383
 3151SOL    HW110352   0.060   0.777   5.439
 3151SOL    HW210353   0.039   0.939   5.437
 3152SOL     OW10354   1.964   2.615   5.189
 3152SOL    HW110355   2.056   2.596   5.222
 3152SOL    HW210356   1.963   2.700   5.137
 3153SOL     OW10357   5.379   5.473   1.838
 3153SOL    HW110358   5.349   5.560   1.877
 3153SOL    HW210359   5.346   5.398   1.895
 3154SOL     OW10360   4.038   1.408   0.819
 3154SOL    HW110361   4.054   1.483   0.884
 3154SOL    HW210362   3.957   1.357   0.848
 3155SOL     OW10363   1.072   4.756   6.758
 3155SOL    HW110364   1.074   4.836   6.698
 3155SOL    HW210365   1.124   4.776   6.841
 3156SOL     OW10366   4.297   4.589   0.642
 3156SOL    HW110367   4.210   4.544   0.621
 3156SOL    HW210368   4.279   4.684   0.667
 3157SOL     OW10369   1.274   0.962   5.052
 3157SOL    HW110370   1.298   1.011   5.135
 3157SOL    HW210371   1.325   1.001   4.975
 3158SOL     OW10372   2.065   0.910   5.548
 3158SOL    HW110373   1.966   0.924   5.554
 3158SOL    HW210374   2.113   0.994   5.573
 3159SOL     OW10375   4.849   0.249   0.759
 3159SOL    HW110376   4.846   0.249   0.659
 3159SOL    HW210377   4.756   0.260   0.794
 3160SOL     OW10378   1.855   0.674   5.041
 3160SOL    HW110379   1.925   0.745   5.053
 3160SOL    HW210380   1.861   0.637   4.948
 3161SOL     OW10381   2.082   3.126   2.169
 3161SOL    HW110382   2.137   3.074   2.234
 3161SOL    HW210383   2.074   3.221   2.200
 3162SOL     OW10384   1.007   5.577   1.599
 3162SOL    HW110385   0.966   5.488   1.619
 3162SOL    HW210386   1.015   5.630   1.683
 3163SOL     OW10387   4.178   4.141   0.352
 3163SOL    HW110388   4.082   4.116   0.368
 3163SOL    HW210389   4.183   4.208   0.278
 3164SOL     OW10390   2.511   6.809   3.834
 3164SOL    HW110391   2.608   6.789   3.822
 3164SOL    HW210392   2.497   6.908   3.828
 3165SOL     OW10393   1.320   6.105   6.270
 3165SOL    HW110394   1.284   6.018   6.303
 3165SOL    HW210395   1.247   6.174   6.272
 3166SOL     OW10396   4.608   1.082   5.118
 3166SOL    HW110397   4.573   1.165   5.162
 3166SOL    HW210398   4.545   1.006   5.136
 3167SOL     OW10399   5.715   3.050   1.142
 3167SOL    HW110400   5.734   3.128   1.201
 3167SOL    HW210401   5.664   2.981   1.194
 3168SOL     OW10402   4.508   1.670   0.412
 3168SOL    HW110403   4.540   1.576   0.425
 3168SOL    HW210404   4.513   1.719   0.499
 3169SOL     OW10405   1.713   4.079   1.557
 3169SOL    HW110406   1.731   4.093   1.655
 3169SOL    HW210407   1.702   4.168   1.513
 3170SOL     OW10408   2.191   3.882   3.905
 3170SOL    HW110409   2.104   3.898   3.858
 3170SOL    HW210410   2.221   3.788   3.889
 3171SOL     OW10411   5.255   1.520   3.909
 3171SOL    HW110412   5.162   1.496   3.880
 3171SOL    HW210413   5.251   1.565   3.998
 3172SOL     OW10414   5.530   4.427   1.515
 3172SOL    HW110415   5.476   4.364   1.460
 3172SOL    HW210416   5.531   4.397   1.610
 3173SOL     OW10417   5.081   2.336   0.785
 3173SOL    HW110418   4.982   2.327   0.794
 3173SOL    HW210419   5.126   2.291   0.863
 3174SOL     OW10420   3.462   2.232   6.402
 3174SOL    HW110421   3.530   2.225   6.329
 3174SOL    HW210422   3.507   2.252   6.489
 3175SOL     OW10423   5.495   0.252   5.614
 3175SOL    HW110424   5.578   0.200   5.592
 3175SOL    HW210425   5.462   0.298   5.531
 3176SOL     OW10426   0.223   4.999   3.460
 3176SOL    HW110427   0.246   5.055   3.540
 3176SOL    HW210428   0.128   5.016   3.434
 3177SOL     OW10429   5.372   2.838   3.670
 3177SOL    HW110430   5.447   2.782   3.704
 3177SOL    HW210431   5.285   2.799   3.702
 3178SOL     OW10432   0.656   0.779   2.155
 3178SOL    HW110433   0.590   0.763   2.082
 3178SOL    HW210434   0.624   0.736   2.240
 3179SOL     OW10435   1.004   2.534   2.698
 3179SOL    HW110436   0.958   2.612   2.741
 3179SOL    HW210437   1.101   2.535   2.722
 3180SOL     OW10438   7.013   5.866   6.857
 3180SOL    HW110439   7.012   5.930   6.935
 3180SOL    HW210440   0.085   5.862   6.818
 3181SOL     OW10441   0.882   6.556   5.746
 3181SOL    HW110442   0.912   6.628   5.683
 3181SOL    HW210443   0.884   6.590   5.840
 3182SOL     OW10444   1.860   0.504   0.975
 3182SOL    HW110445   1.891   0.577   0.914
 3182SOL    HW210446   1.797   0.444   0.925
 3183SOL     OW10447   4.065   3.191   1.117
 3183SOL    HW110448   4.106   3.218   1.205
 3183SOL    HW210449   4.067   3.269   1.055
 3184SOL     OW10450   6.410   1.615   4.478
 3184SOL    HW110451   6.459   1.580   4.398
 3184SOL    HW210452   6.312   1.612   4.461
 3185SOL     OW10453   0.479   6.094   6.498
 3185SOL    HW110454   0.510   6.059   6.586
 3185SOL    HW210455   0.380   6.109   6.501
 3186SOL     OW10456   0.078   2.629   6.441
 3186SOL    HW110457   0.109   2.627   6.537
 3186SOL    HW210458   0.062   2.535   6.410
 3187SOL     OW10459   5.338   6.508   2.909
 3187SOL    HW110460   5.289   6.555   2.834
 3187SOL    HW210461   5.403   6.443   2.871
 3188SOL     OW10462   1.916   6.111   0.509
 3188SOL    HW110463   2.014   6.130   0.517
 3188SOL    HW210464   1.866   6.164   0.578
 3189SOL     OW10465   3.438   1.276   5.482
 3189SOL    HW110466   3.345   1.267   5.519
 3189SOL    HW210467   3.477   1.363   5.513
 3190SOL     OW10468   5.971   6.113   4.425
 3190SOL    HW110469   6.021   6.146   4.346
 3190SOL    HW210470   5.958   6.014   4.419
 3191SOL     OW10471   3.677   5.621   1.366
 3191SOL    HW110472   3.773   5.628   1.392
 3191SOL    HW210473   3.671   5.590   1.271
 3192SOL     OW10474   5.537   1.057   2.754
 3192SOL    HW110475   5.545   1.096   2.662
 3192SOL    HW210476   5.471   1.110   2.808
 3193SOL     OW10477   3.214   6.538   5.042
 3193SOL    HW110478   3.214   6.482   4.959
 3193SOL    HW210479   3.253   6.486   5.118
 3194SOL     OW10480   1.623   0.023   6.410
 3194SOL    HW110481   1.647   6.984   6.487
 3194SOL    HW210482   1.660   7.003   6.325
 3195SOL     OW10483   1.055   0.940   0.985
 3195SOL    HW110484   1.126   0.964   1.052
 3195SOL    HW210485   1.005   1.023   0.958
 3196SOL     OW10486   5.576   6.859   3.325
 3196SOL    HW110487   5.533   6.770   3.337
 3196SOL    HW210488   5.660   6.848   3.271
 3197SOL     OW10489   2.029   0.155   6.278
 3197SOL    HW110490   2.015   0.217   6.201
 3197SOL    HW210491   2.007   0.062   6.250
 3198SOL     OW10492   5.798   2.456   3.777
 3198SOL    HW110493   5.782   2.388   3.705
 3198SOL    HW210494   5.766   2.420   3.864
 3199SOL     OW10495   5.086   3.785   2.599
 3199SOL    HW110496   5.041   3.705   2.561
 3199SOL    HW210497   5.184   3.766   2.612
 3200SOL     OW10498   5.246   3.234   3.929
 3200SOL    HW110499   5.210   3.183   4.007
 3200SOL    HW210500   5.221   3.330   3.938
 3201SOL     OW10501   6.075   4.329   2.370
 3201SOL    HW110502   6.086   4.371   2.279
 3201SOL    HW210503   6.021   4.246   2.362
 3202SOL     OW10504   2.291   3.432   6.980
 3202SOL    HW110505   2.324   3.487   0.038
 3202SOL    HW210506   2.263   3.493   6.906
 3203SOL     OW10507   3.311   6.667   1.504
 3203SOL    HW110508   3.222   6.658   1.458
 3203SOL    HW210509   3.297   6.671   1.603
 3204SOL     OW10510   3.722   1.212   4.211
 3204SOL    HW110511   3.629   1.186   4.239
 3204SOL    HW210512   3.780   1.220   4.291
 3205SOL     OW10513   4.615   3.321   6.021
 3205SOL    HW110514   4.515   3.310   6.018
 3205SOL    HW210515   4.658   3.232   6.032
 3206SOL     OW10516   2.816   3.850   1.341
 3206SOL    HW110517   2.873   3.785   1.291
 3206SOL    HW210518   2.869   3.890   1.416
 3207SOL     OW10519   1.917   5.547   5.127
 3207SOL    HW110520   1.976   5.534   5.207
 3207SOL    HW210521   1.932   5.471   5.063
 3208SOL     OW10522   6.580   4.937   6.578
 3208SOL    HW110523   6.613   5.030   6.593
 3208SOL    HW210524   6.657   4.873   6.583
 3209SOL     OW10525   5.076   6.685   6.343
 3209SOL    HW110526   5.082   6.590   6.311
 3209SOL    HW210527   5.032   6.741   6.273
 3210SOL     OW10528   5.165   5.810   1.788
 3210SOL    HW110529   5.136   5.894   1.833
 3210SOL    HW210530   5.257   5.822   1.750
 3211SOL     OW10531   2.062   6.382   6.315
 3211SOL    HW110532   1.976   6.391   6.366
 3211SOL    HW210533   2.068   6.452   6.245
 3212SOL     OW10534   2.647   6.817   3.339
 3212SOL    HW110535   2.682   6.911   3.339
 3212SOL    HW210536   2.580   6.807   3.266
 3213SOL     OW10537   1.268   6.590   6.213
 3213SOL    HW110538   1.264   6.501   6.259
 3213SOL    HW210539   1.189   6.646   6.241
 3214SOL     OW10540   3.629   0.769   2.847
 3214SOL    HW110541   3.543   0.787   2.897
 3214SOL    HW210542   3.700   0.744   2.912
 3215SOL     OW10543   1.751   3.297   1.897
 3215SOL    HW110544   1.685   3.370   1.883
 3215SOL    HW210545   1.830   3.332   1.947
 3216SOL     OW10546   6.169   4.845   1.081
 3216SOL    HW110547   6.117   4.838   1.166
 3216SOL    HW210548   6.266   4.831   1.101
 3217SOL     OW10549   0.241   6.006   2.327
 3217SOL    HW110550   0.311   5.967   2.267
 3217SOL    HW210551   0.238   6.105   2.315
 3218SOL     OW10552   5.369   1.211   2.910
 3218SOL    HW110553   5.393   1.302   2.942
 3218SOL    HW210554   5.335   1.156   2.986
 3219SOL     OW10555   6.849   1.683   4.856
 3219SOL    HW110556   6.852   1.639   4.946
 3219SOL    HW210557   6.759   1.668   4.815
 3220SOL     OW10558   0.159   4.267   6.369
 3220SOL    HW110559   0.071   4.251   6.414
 3220SOL    HW210560   0.199   4.180   6.341
 3221SOL     OW10561   3.415   1.593   1.868
 3221SOL    HW110562   3.320   1.597   1.898
 3221SOL    HW210563   3.422   1.535   1.787
 3222SOL     OW10564   2.942   1.273   3.382
 3222SOL    HW110565   2.872   1.209   3.350
 3222SOL    HW210566   2.903   1.333   3.452
 3223SOL     OW10567   1.637   5.073   0.480
 3223SOL    HW110568   1.586   5.149   0.439
 3223SOL    HW210569   1.577   5.022   0.542
 3224SOL     OW10570   3.919   1.651   3.948
 3224SOL    HW110571   3.885   1.577   3.891
 3224SOL    HW210572   3.902   1.630   4.044
 3225SOL     OW10573   4.350   1.069   4.475
 3225SOL    HW110574   4.307   1.081   4.564
 3225SOL    HW210575   4.422   1.000   4.481
 3226SOL     OW10576   5.804   0.442   0.888
 3226SOL    HW110577   5.752   0.481   0.964
 3226SOL    HW210578   5.760   0.358   0.857
 3227SOL     OW10579   5.838   4.642   5.223
 3227SOL    HW110580   5.788   4.574   5.276
 3227SOL    HW210581   5.774   4.704   5.177
 3228SOL     OW10582   2.687   4.445   0.297
 3228SOL    HW110583   2.639   4.395   0.224
 3228SOL    HW210584   2.778   4.406   0.310
 3229SOL     OW10585   1.585   2.050   0.471
 3229SOL    HW110586   1.638   2.132   0.492
 3229SOL    HW210587   1.618   1.974   0.528
 3230SOL     OW10588   3.105   6.127   5.557
 3230SOL    HW110589   3.173   6.109   5.486
 3230SOL    HW210590   3.070   6.040   5.592
 3231SOL     OW10591   1.929   2.165   3.023
 3231SOL    HW110592   2.003   2.140   2.961
 3231SOL    HW210593   1.916   2.264   3.022
 3232SOL     OW10594   3.820   4.939   4.592
 3232SOL    HW110595   3.732   4.891   4.592
 3232SOL    HW210596   3.823   5.003   4.668
 3233SOL     OW10597   1.094   0.436   0.292
 3233SOL    HW110598   1.114   0.376   0.214
 3233SOL    HW210599   1.085   0.530   0.260
 3234SOL     OW10600   2.989   3.106   0.770
 3234SOL    HW110601   2.963   3.202   0.759
 3234SOL    HW210602   3.026   3.072   0.683
 3235SOL     OW10603   1.069   0.654   3.550
 3235SOL    HW110604   1.156   0.652   3.600
 3235SOL    HW210605   1.081   0.705   3.465
 3236SOL     OW10606   4.467   0.943   0.388
 3236SOL    HW110607   4.532   0.998   0.335
 3236SOL    HW210608   4.374   0.977   0.373
 3237SOL     OW10609   5.718   1.480   5.403
 3237SOL    HW110610   5.636   1.431   5.374
 3237SOL    HW210611   5.697   1.536   5.483
 3238SOL     OW10612   6.339   4.887   1.595
 3238SOL    HW110613   6.338   4.987   1.597
 3238SOL    HW210614   6.418   4.853   1.646
 3239SOL     OW10615   6.918   0.307   4.938
 3239SOL    HW110616   6.896   0.325   4.842
 3239SOL    HW210617   6.917   0.393   4.989
 3240SOL     OW10618   0.089   0.690   0.286
 3240SOL    HW110619   0.068   0.758   0.356
 3240SOL    HW210620   0.009   0.675   0.229
 3241SOL     OW10621   6.367   3.097   5.392
 3241SOL    HW110622   6.328   3.133   5.308
 3241SOL    HW210623   6.460   3.132   5.404
 3242SOL     OW10624   5.968   3.805   4.555
 3242SOL    HW110625   6.067   3.815   4.561
 3242SOL    HW210626   5.931   3.873   4.492
 3243SOL     OW10627   5.965   4.446   3.934
 3243SOL    HW110628   5.964   4.536   3.891
 3243SOL    HW210629   5.900   4.386   3.887
 3244SOL     OW10630   4.896   6.912   0.340
 3244SOL    HW110631   4.963   6.893   0.268
 3244SOL    HW210632   4.943   6.938   0.424
 3245SOL     OW10633   3.746   6.865   5.078
 3245SOL    HW110634   3.713   6.957   5.059
 3245SOL    HW210635   3.677   6.815   5.130
 3246SOL     OW10636   0.242   0.218   2.512
 3246SOL    HW110637   0.253   0.270   2.596
 3246SOL    HW210638   0.179   0.267   2.451
 3247SOL     OW10639   0.838   4.349   3.444
 3247SOL    HW110640   0.751   4.396   3.461
 3247SOL    HW210641   0.824   4.250   3.451
 3248SOL     OW10642   5.556   2.091   3.578
 3248SOL    HW110643   5.541   1.995   3.603
 3248SOL    HW210644   5.468   2.136   3.566
 3249SOL     OW10645   2.944   3.744   3.303
 3249SOL    HW110646   2.958   3.841   3.321
 3249SOL    HW210647   3.023   3.692   3.335
 3250SOL     OW10648   4.744   5.389   2.849
 3250SOL    HW110649   4.844   5.386   2.843
 3250SOL    HW210650   4.705   5.324   2.784
 3251SOL     OW10651   2.682   1.846   2.758
 3251SOL    HW110652   2.675   1.938   2.796
 3251SOL    HW210653   2.725   1.850   2.669
 3252SOL     OW10654   1.813   1.156   3.036
 3252SOL    HW110655   1.831   1.203   3.122
 3252SOL    HW210656   1.898   1.117   3.000
 3253SOL     OW10657   6.666   3.456   0.032
 3253SOL    HW110658   6.616   3.462   0.118
 3253SOL    HW210659   6.673   3.547   7.010
 3254SOL     OW10660   6.274   6.428   1.113
 3254SOL    HW110661   6.195   6.489   1.119
 3254SOL    HW210662   6.272   6.380   1.025
 3255SOL     OW10663   5.024   6.241   1.814
 3255SOL    HW110664   4.997   6.336   1.830
 3255SOL    HW210665   4.953   6.195   1.759
 3256SOL     OW10666   4.992   2.799   1.274
 3256SOL    HW110667   4.910   2.759   1.314
 3256SOL    HW210668   5.069   2.787   1.335
 3257SOL     OW10669   2.819   1.607   2.785
 3257SOL    HW110670   2.772   1.693   2.806
 3257SOL    HW210671   2.847   1.564   2.870
 3258SOL     OW10672   1.583   5.142   4.202
 3258SOL    HW110673   1.502   5.200   4.210
 3258SOL    HW210674   1.657   5.180   4.257
 3259SOL     OW10675   5.257   4.101   4.242
 3259SOL    HW110676   5.344   4.104   4.291
 3259SOL    HW210677   5.220   4.008   4.244
 3260SOL     OW10678   1.310   4.567   3.305
 3260SOL    HW110679   1.331   4.520   3.390
 3260SOL    HW210680   1.264   4.504   3.242
 3261SOL     OW10681   5.481   6.893   4.163
 3261SOL    HW110682   5.452   6.841   4.243
 3261SOL    HW210683   5.440   6.984   4.166
 3262SOL     OW10684   2.931   1.804   3.427
 3262SOL    HW110685   2.861   1.772   3.364
 3262SOL    HW210686   2.896   1.879   3.482
 3263SOL     OW10687   0.252   0.943   2.004
 3263SOL    HW110688   0.268   0.863   2.063
 3263SOL    HW210689   0.285   1.025   2.050
 3264SOL     OW10690   1.850   4.686   6.883
 3264SOL    HW110691   1.763   4.657   6.922
 3264SOL    HW210692   1.858   4.650   6.790
 3265SOL     OW10693   6.821   5.170   6.978
 3265SOL    HW110694   6.844   5.201   6.885
 3265SOL    HW210695   6.759   5.092   6.972
 3266SOL     OW10696   3.350   5.171   5.876
 3266SOL    HW110697   3.294   5.123   5.943
 3266SOL    HW210698   3.332   5.134   5.785
 3267SOL     OW10699   3.450   6.907   0.319
 3267SOL    HW110700   3.504   6.838   0.368
 3267SOL    HW210701   3.461   6.996   0.365
 3268SOL     OW10702   5.637   5.435   1.748
 3268SOL    HW110703   5.681   5.522   1.725
 3268SOL    HW210704   5.554   5.454   1.802
 3269SOL     OW10705   1.298   4.736   1.119
 3269SOL    HW110706   1.397   4.748   1.125
 3269SOL    HW210707   1.274   4.704   1.028
 3270SOL     OW10708   0.439   3.138   5.408
 3270SOL    HW110709   0.447   3.059   5.347
 3270SOL    HW210710   0.520   3.142   5.467
 3271SOL     OW10711   0.992   3.634   1.734
 3271SOL    HW110712   1.028   3.631   1.827
 3271SOL    HW210713   0.995   3.729   1.701
 3272SOL     OW10714   4.548   6.205   0.986
 3272SOL    HW110715   4.507   6.293   1.010
 3272SOL    HW210716   4.476   6.136   0.982
 3273SOL     OW10717   4.045   3.667   6.625
 3273SOL    HW110718   3.999   3.727   6.690
 3273SOL    HW210719   3.978   3.628   6.562
 3274SOL     OW10720   5.554   0.076   2.064
 3274SOL    HW110721   5.568   0.172   2.041
 3274SOL    HW210722   5.634   0.042   2.115
 3275SOL     OW10723   5.189   0.674   1.414
 3275SOL    HW110724   5.150   0.761   1.383
 3275SOL    HW210725   5.208   0.679   1.512
 3276SOL     OW10726   5.479   6.531   0.008
 3276SOL    HW110727   5.410   6.569   6.966
 3276SOL    HW210728   5.436   6.464   0.069
 3277SOL     OW10729   3.128   2.118   2.316
 3277SOL    HW110730   3.065   2.144   2.242
 3277SOL    HW210731   3.141   2.019   2.314
 3278SOL     OW10732   5.975   0.871   6.666
 3278SOL    HW110733   6.056   0.918   6.631
 3278SOL    HW210734   5.904   0.870   6.595
 3279SOL     OW10735   3.207   0.351   1.440
 3279SOL    HW110736   3.206   0.440   1.485
 3279SOL    HW210737   3.266   0.355   1.359
 3280SOL     OW10738   6.566   3.480   4.311
 3280SOL    HW110739   6.548   3.471   4.409
 3280SOL    HW210740   6.557   3.575   4.284
 3281SOL     OW10741   5.945   3.077   1.623
 3281SOL    HW110742   5.915   3.014   1.695
 3281SOL    HW210743   5.954   3.026   1.537
 3282SOL     OW10744   7.018   5.143   4.993
 3282SOL    HW110745   0.096   5.157   4.973
 3282SOL    HW210746   7.000   5.046   5.007
 3283SOL     OW10747   3.277   2.173   0.386
 3283SOL    HW110748   3.372   2.150   0.405
 3283SOL    HW210749   3.219   2.139   0.460
 3284SOL     OW10750   2.301   6.735   4.440
 3284SOL    HW110751   2.291   6.643   4.402
 3284SOL    HW210752   2.360   6.789   4.380
 3285SOL     OW10753   3.878   2.105   4.430
 3285SOL    HW110754   3.973   2.132   4.445
 3285SOL    HW210755   3.822   2.135   4.507
 3286SOL     OW10756   1.648   2.223   2.566
 3286SOL    HW110757   1.582   2.199   2.637
 3286SOL    HW210758   1.607   2.210   2.476
 3287SOL     OW10759   2.366   0.183   0.541
 3287SOL    HW110760   2.410   0.101   0.504
 3287SOL    HW210761   2.309   0.225   0.471
 3288SOL     OW10762   2.502   5.784   1.606
 3288SOL    HW110763   2.512   5.779   1.705
 3288SOL    HW210764   2.462   5.699   1.572
 3289SOL     OW10765   4.176   0.905   6.530
 3289SOL    HW110766   4.080   0.933   6.535
 3289SOL    HW210767   4.201   0.854   6.612
 3290SOL     OW10768   0.346   5.691   0.607
 3290SOL    HW110769   0.432   5.695   0.658
 3290SOL    HW210770   0.357   5.633   0.526
 3291SOL     OW10771   5.253   6.857   5.032
 3291SOL    HW110772   5.196   6.775   5.031
 3291SOL    HW210773   5.282   6.877   5.125
 3292SOL     OW10774   6.903   2.407   0.392
 3292SOL    HW110775   6.819   2.382   0.342
 3292SOL    HW210776   6.917   2.505   0.386
 3293SOL     OW10777   6.131   5.463   3.740
 3293SOL    HW110778   6.109   5.460   3.642
 3293SOL    HW210779   6.130   5.557   3.772
 3294SOL     OW10780   5.163   3.053   5.182
 3294SOL    HW110781   5.097   3.011   5.244
 3294SOL    HW210782   5.138   3.031   5.087
 3295SOL     OW10783   0.612   2.162   2.326
 3295SOL    HW110784   0.624   2.187   2.230
 3295SOL    HW210785   0.694   2.186   2.377
 3296SOL     OW10786   1.875   1.055   6.067
 3296SOL    HW110787   1.895   0.988   5.996
 3296SOL    HW210788   1.778   1.048   6.094
 3297SOL     OW10789   3.614   0.958   5.293
 3297SOL    HW110790   3.565   0.983   5.377
 3297SOL    HW210791   3.665   0.874   5.308
 3298SOL     OW10792   4.782   3.791   6.112
 3298SOL    HW110793   4.816   3.755   6.025
 3298SOL    HW210794   4.698   3.843   6.096
 3299SOL     OW10795   2.277   5.333   3.986
 3299SOL    HW110796   2.274   5.316   3.887
 3299SOL    HW210797   2.251   5.250   4.035
 3300SOL     OW10798   2.344   0.265   3.995
 3300SOL    HW110799   2.386   0.342   3.947
 3300SOL    HW210800   2.314   0.294   4.086
 3301SOL     OW10801   0.854   1.105   3.377
 3301SOL    HW110802   0.846   1.192   3.327
 3301SOL    HW210803   0.894   1.122   3.467
 3302SOL     OW10804   1.418   5.262   5.367
 3302SOL    HW110805   1.495   5.324   5.350
 3302SOL    HW210806   1.454   5.170   5.385
 3303SOL     OW10807   3.145   3.217   0.216
 3303SOL    HW110808   3.110   3.135   0.261
 3303SOL    HW210809   3.219   3.193   0.153
 3304SOL     OW10810   2.280   4.404   7.016
 3304SOL    HW110811   2.212   4.449   0.055
 3304SOL    HW210812   2.357   4.373   0.053
 3305SOL     OW10813   3.373   3.081   0.710
 3305SOL    HW110814   3.313   3.097   0.789
 3305SOL    HW210815   3.415   2.991   0.718
 3306SOL     OW10816   2.052   0.676   6.883
 3306SOL    HW110817   2.148   0.697   6.904
 3306SOL    HW210818   2.010   0.756   6.839
 3307SOL     OW10819   1.387   5.918   4.911
 3307SOL    HW110820   1.294   5.880   4.910
 3307SOL    HW210821   1.400   5.972   4.994
 3308SOL     OW10822   4.039   4.851   0.926
 3308SOL    HW110823   3.998   4.849   0.834
 3308SOL    HW210824   4.113   4.917   0.927
 3309SOL     OW10825   5.585   3.062   3.137
 3309SOL    HW110826   5.525   3.058   3.057
 3309SOL    HW210827   5.593   2.971   3.177
 3310SOL     OW10828   6.501   4.944   6.114
 3310SOL    HW110829   6.476   5.016   6.049
 3310SOL    HW210830   6.439   4.947   6.192
 3311SOL     OW10831   2.639   3.753   0.492
 3311SOL    HW110832   2.622   3.721   0.585
 3311SOL    HW210833   2.554   3.789   0.454
 3312SOL     OW10834   4.515   3.020   6.366
 3312SOL    HW110835   4.555   2.932   6.391
 3312SOL    HW210836   4.431   3.034   6.418
 3313SOL     OW10837   6.841   0.518   3.969
 3313SOL    HW110838   6.868   0.610   3.998
 3313SOL    HW210839   6.758   0.491   4.019
 3314SOL     OW10840   3.596   5.673   2.238
 3314SOL    HW110841   3.654   5.592   2.245
 3314SOL    HW210842   3.615   5.735   2.315
 3315SOL     OW10843   0.603   5.556   4.246
 3315SOL    HW110844   0.530   5.567   4.313
 3315SOL    HW210845   0.566   5.568   4.154
 3316SOL     OW10846   4.737   2.413   6.681
 3316SOL    HW110847   4.717   2.331   6.735
 3316SOL    HW210848   4.794   2.475   6.734
 3317SOL     OW10849   5.105   2.493   1.994
 3317SOL    HW110850   5.136   2.588   1.985
 3317SOL    HW210851   5.181   2.431   1.978
 3318SOL     OW10852   3.084   2.980   0.521
 3318SOL    HW110853   3.079   2.881   0.536
 3318SOL    HW210854   3.166   3.001   0.469
 3319SOL     OW10855   6.595   5.756   3.570
 3319SOL    HW110856   6.654   5.721   3.643
 3319SOL    HW210857   6.650   5.767   3.487
 3320SOL     OW10858   6.098   6.724   1.631
 3320SOL    HW110859   6.003   6.755   1.632
 3320SOL    HW210860   6.124   6.692   1.722
 3321SOL     OW10861   4.904   2.006   0.314
 3321SOL    HW110862   4.824   2.059   0.343
 3321SOL    HW210863   4.873   1.922   0.269
 3322SOL     OW10864   5.992   3.210   0.575
 3322SOL    HW110865   6.017   3.202   0.671
 3322SOL    HW210866   5.899   3.246   0.567
 3323SOL     OW10867   1.498   2.422   1.225
 3323SOL    HW110868   1.448   2.457   1.304
 3323SOL    HW210869   1.551   2.341   1.251
 3324SOL     OW10870   5.194   5.711   5.600
 3324SOL    HW110871   5.224   5.709   5.696
 3324SOL    HW210872   5.122   5.779   5.589
 3325SOL     OW10873   2.115   4.473   5.434
 3325SOL    HW110874   2.138   4.376   5.424
 3325SOL    HW210875   2.199   4.527   5.438
 3326SOL     OW10876   3.811   1.779   2.567
 3326SOL    HW110877   3.899   1.816   2.599
 3326SOL    HW210878   3.762   1.850   2.516
 3327SOL     OW10879   0.515   5.263   6.249
 3327SOL    HW110880   0.585   5.320   6.292
 3327SOL    HW210881   0.559   5.194   6.192
 3328SOL     OW10882   4.945   2.414   5.597
 3328SOL    HW110883   4.950   2.494   5.657
 3328SOL    HW210884   4.954   2.444   5.501
 3329SOL     OW10885   6.730   6.170   5.851
 3329SOL    HW110886   6.808   6.126   5.896
 3329SOL    HW210887   6.661   6.101   5.828
 3330SOL     OW10888   0.067   3.679   2.841
 3330SOL    HW110889   7.004   3.699   2.787
 3330SOL    HW210890   0.087   3.581   2.836
 3331SOL     OW10891   2.107   3.192   0.154
 3331SOL    HW110892   2.126   3.285   0.186
 3331SOL    HW210893   2.193   3.147   0.130
 3332SOL     OW10894   6.506   4.228   1.810
 3332SOL    HW110895   6.516   4.138   1.768
 3332SOL    HW210896   6.456   4.288   1.748
 3333SOL     OW10897   3.805   5.444   6.358
 3333SOL    HW110898   3.863   5.429   6.438
 3333SOL    HW210899   3.753   5.528   6.371
 3334SOL     OW10900   2.169   3.855   1.609
 3334SOL    HW110901   2.257   3.842   1.654
 3334SOL    HW210902   2.171   3.815   1.517
 3335SOL     OW10903   5.900   3.939   4.247
 3335SOL    HW110904   5.809   3.980   4.244
 3335SOL    HW210905   5.969   4.008   4.226
 3336SOL     OW10906   2.819   6.044   5.995
 3336SOL    HW110907   2.823   6.016   6.091
 3336SOL    HW210908   2.861   5.974   5.937
 3337SOL     OW10909   3.813   1.682   0.578
 3337SOL    HW110910   3.877   1.713   0.649
 3337SOL    HW210911   3.833   1.588   0.554
 3338SOL     OW10912   6.759   4.256   0.512
 3338SOL    HW110913   6.744   4.163   0.477
 3338SOL    HW210914   6.680   4.284   0.566
 3339SOL     OW10915   0.616   5.957   6.286
 3339SOL    HW110916   0.593   5.996   6.196
 3339SOL    HW210917   0.558   5.998   6.356
 3340SOL     OW10918   3.889   0.109   1.851
 3340SOL    HW110919   3.934   0.164   1.921
 3340SOL    HW210920   3.822   0.165   1.803
 3341SOL     OW10921   1.009   6.955   2.146
 3341SOL    HW110922   1.070   0.003   2.104
 3341SOL    HW210923   0.924   6.950   2.094
 3342SOL     OW10924   2.953   0.567   4.648
 3342SOL    HW110925   2.872   0.590   4.702
 3342SOL    HW210926   3.035   0.581   4.703
 3343SOL     OW10927   6.421   2.050   1.681
 3343SOL    HW110928   6.469   1.968   1.710
 3343SOL    HW210929   6.409   2.049   1.582
 3344SOL     OW10930   6.720   3.077   5.153
 3344SOL    HW110931   6.666   3.087   5.237
 3344SOL    HW210932   6.759   3.165   5.127
 3345SOL     OW10933   3.030   3.570   6.128
 3345SOL    HW110934   3.107   3.599   6.185
 3345SOL    HW210935   2.954   3.634   6.141
 3346SOL     OW10936   1.812   5.597   2.481
 3346SOL    HW110937   1.811   5.564   2.575
 3346SOL    HW210938   1.756   5.680   2.474
 3347SOL     OW10939   5.715   3.972   4.593
 3347SOL    HW110940   5.726   3.989   4.691
 3347SOL    HW210941   5.709   4.059   4.545
 3348SOL     OW10942   3.838   3.794   3.178
 3348SOL    HW110943   3.746   3.808   3.215
 3348SOL    HW210944   3.870   3.702   3.203
 3349SOL     OW10945   6.225   3.795   5.735
 3349SOL    HW110946   6.240   3.793   5.834
 3349SOL    HW210947   6.142   3.744   5.714
 3350SOL     OW10948   1.524   2.419   0.950
 3350SOL    HW110949   1.521   2.419   1.050
 3350SOL    HW210950   1.485   2.334   0.915
 3351SOL     OW10951   5.338   1.820   0.659
 3351SOL    HW110952   5.283   1.848   0.581
 3351SOL    HW210953   5.336   1.891   0.729
 3352SOL     OW10954   0.769   3.141   0.141
 3352SOL    HW110955   0.770   3.225   0.195
 3352SOL    HW210956   0.700   3.079   0.178
 3353SOL     OW10957   1.697   6.667   6.144
 3353SOL    HW110958   1.793   6.696   6.144
 3353SOL    HW210959   1.678   6.615   6.061
 3354SOL     OW10960   1.191   1.181   2.575
 3354SOL    HW110961   1.289   1.162   2.577
 3354SOL    HW210962   1.143   1.112   2.629
 3355SOL     OW10963   6.649   1.520   2.679
 3355SOL    HW110964   6.593   1.472   2.612
 3355SOL    HW210965   6.662   1.462   2.759
 3356SOL     OW10966   2.329   3.636   6.535
 3356SOL    HW110967   2.330   3.733   6.509
 3356SOL    HW210968   2.238   3.597   6.516
 3357SOL     OW10969   2.282   5.138   2.174
 3357SOL    HW110970   2.340   5.177   2.104
 3357SOL    HW210971   2.213   5.079   2.132
 3358SOL     OW10972   6.672   4.498   3.052
 3358SOL    HW110973   6.639   4.562   3.121
 3358SOL    HW210974   6.619   4.412   3.059
 3359SOL     OW10975   1.129   1.146   1.796
 3359SOL    HW110976   1.106   1.158   1.893
 3359SOL    HW210977   1.209   1.202   1.774
 3360SOL     OW10978   1.355   0.360   6.273
 3360SOL    HW110979   1.390   0.366   6.179
 3360SOL    HW210980   1.339   0.452   6.308
 3361SOL     OW10981   5.036   0.808   3.032
 3361SOL    HW110982   5.036   0.893   2.980
 3361SOL    HW210983   5.076   0.735   2.977
 3362SOL     OW10984   1.920   1.340   5.395
 3362SOL    HW110985   1.985   1.395   5.447
 3362SOL    HW210986   1.841   1.396   5.370
 3363SOL     OW10987   0.175   1.461   6.903
 3363SOL    HW110988   0.101   1.410   6.859
 3363SOL    HW210989   0.223   1.516   6.835
 3364SOL     OW10990   2.018   4.631   5.922
 3364SOL    HW110991   1.957   4.574   5.867
 3364SOL    HW210992   2.069   4.574   5.986
 3365SOL     OW10993   5.527   1.969   5.480
 3365SOL    HW110994   5.427   1.969   5.484
 3365SOL    HW210995   5.564   2.006   5.565
 3366SOL     OW10996   5.373   1.244   6.143
 3366SOL    HW110997   5.469   1.264   6.164
 3366SOL    HW210998   5.335   1.184   6.213
 3367SOL     OW10999   1.483   0.610   2.345
 3367SOL    HW111000   1.578   0.604   2.374
 3367SOL    HW211001   1.479   0.647   2.252
 3368SOL     OW11002   6.279   0.495   5.638
 3368SOL    HW111003   6.204   0.441   5.601
 3368SOL    HW211004   6.304   0.460   5.728
 3369SOL     OW11005   3.525   6.224   5.846
 3369SOL    HW111006   3.426   6.233   5.858
 3369SOL    HW211007   3.572   6.265   5.924
 3370SOL     OW11008   4.830   0.333   4.883
 3370SOL    HW111009   4.906   0.321   4.947
 3370SOL    HW211010   4.744   0.312   4.930
 3371SOL     OW11011   0.065   5.249   1.749
 3371SOL    HW111012   0.000   5.197   1.805
 3371SOL    HW211013   0.095   5.193   1.672
 3372SOL     OW11014   0.067   1.548   2.351
 3372SOL    HW111015   7.000   1.548   2.401
 3372SOL    HW211016   0.056   1.596   2.264
 3373SOL     OW11017   0.635   2.295   5.739
 3373SOL    HW111018   0.554   2.325   5.689
 3373SOL    HW211019   0.708   2.362   5.728
 3374SOL     OW11020   3.341   5.269   5.271
 3374SOL    HW111021   3.425   5.306   5.232
 3374SOL    HW211022   3.295   5.212   5.202
 3375SOL     OW11023   4.114   3.969   5.261
 3375SOL    HW111024   4.196   3.913   5.271
 3375SOL    HW211025   4.129   4.058   5.304
 3376SOL     OW11026   3.128   3.658   2.177
 3376SOL    HW111027   3.166   3.586   2.236
 3376SOL    HW211028   3.193   3.734   2.173
 3377SOL     OW11029   3.064   5.847   5.630
 3377SOL    HW111030   2.992   5.865   5.563
 3377SOL    HW211031   3.144   5.809   5.583
 3378SOL     OW11032   1.002   1.291   1.135
 3378SOL    HW111033   1.024   1.227   1.209
 3378SOL    HW211034   0.907   1.320   1.143
 3379SOL     OW11035   1.298   4.570   6.767
 3379SOL    HW111036   1.228   4.594   6.834
 3379SOL    HW211037   1.259   4.577   6.675
 3380SOL     OW11038   0.636   3.756   6.056
 3380SOL    HW111039   0.584   3.763   6.141
 3380SOL    HW211040   0.578   3.716   5.985
 3381SOL     OW11041   3.208   3.128   0.918
 3381SOL    HW111042   3.120   3.120   0.873
 3381SOL    HW211043   3.198   3.112   1.016
 3382SOL     OW11044   6.700   6.648   0.316
 3382SOL    HW111045   6.702   6.654   0.416
 3382SOL    HW211046   6.777   6.699   0.278
 3383SOL     OW11047   0.007   4.520   2.756
 3383SOL    HW111048   0.040   4.527   2.851
 3383SOL    HW211049   6.994   4.427   2.739
 3384SOL     OW11050   3.549   2.954   4.629
 3384SOL    HW111051   3.534   2.921   4.535
 3384SOL    HW211052   3.647   2.959   4.647
 3385SOL     OW11053   6.423   3.928   3.160
 3385SOL    HW111054   6.357   3.870   3.113
 3385SOL    HW211055   6.421   3.910   3.258
 3386SOL     OW11056   6.283   4.270   4.922
 3386SOL    HW111057   6.251   4.229   4.838
 3386SOL    HW211058   6.298   4.368   4.908
 3387SOL     OW11059   2.979   1.964   2.966
 3387SOL    HW111060   3.004   1.942   2.872
 3387SOL    HW211061   3.033   2.042   2.998
 3388SOL     OW11062   5.070   2.787   2.153
 3388SOL    HW111063   5.164   2.775   2.186
 3388SOL    HW211064   5.044   2.708   2.097
 3389SOL     OW11065   5.538   4.558   3.388
 3389SOL    HW111066   5.597   4.605   3.322
 3389SOL    HW211067   5.442   4.574   3.363
 3390SOL     OW11068   5.257   2.913   6.005
 3390SOL    HW111069   5.332   2.869   6.055
 3390SOL    HW211070   5.178   2.853   6.003
 3391SOL     OW11071   3.581   1.672   4.167
 3391SOL    HW111072   3.551   1.742   4.231
 3391SOL    HW211073   3.513   1.598   4.164
 3392SOL     OW11074   4.402   5.882   3.655
 3392SOL    HW111075   4.463   5.960   3.668
 3392SOL    HW211076   4.340   5.874   3.734
 3393SOL     OW11077   6.088   0.350   0.061
 3393SOL    HW111078   6.029   0.383   7.007
 3393SOL    HW211079   6.180   0.335   0.026
 3394SOL     OW11080   5.639   1.937   1.518
 3394SOL    HW111081   5.714   1.945   1.584
 3394SOL    HW211082   5.588   2.023   1.515
 3395SOL     OW11083   1.211   3.701   4.781
 3395SOL    HW111084   1.137   3.641   4.749
 3395SOL    HW211085   1.277   3.648   4.834
 3396SOL     OW11086   6.969   4.079   4.188
 3396SOL    HW111087   6.910   4.113   4.115
 3396SOL    HW211088   7.017   4.156   4.230
 3397SOL     OW11089   3.358   6.691   6.098
 3397SOL    HW111090   3.446   6.722   6.134
 3397SOL    HW211091   3.373   6.638   6.014
 3398SOL     OW11092   6.824   6.940   4.298
 3398SOL    HW111093   6.911   6.972   4.337
 3398SOL    HW211094   6.773   7.018   4.263
 3399SOL     OW11095   4.659   5.243   4.598
 3399SOL    HW111096   4.638   5.217   4.692
 3399SOL    HW211097   4.755   5.223   4.578
 3400SOL     OW11098   4.565   2.427   6.469
 3400SOL    HW111099   4.609   2.488   6.403
 3400SOL    HW211100   4.621   2.422   6.552
 3401SOL     OW11101   6.044   4.934   0.142
 3401SOL    HW111102   6.108   4.868   0.104
 3401SOL    HW211103   6.071   4.959   0.235
 3402SOL     OW11104   4.808   5.711   1.990
 3402SOL    HW111105   4.831   5.620   2.025
 3402SOL    HW211106   4.713   5.732   2.011
 3403SOL     OW11107   2.929   1.513   5.260
 3403SOL    HW111108   2.829   1.525   5.255
 3403SOL    HW211109   2.972   1.600   5.283
 3404SOL     OW11110   4.479   0.781   1.233
 3404SOL    HW111111   4.386   0.808   1.209
 3404SOL    HW211112   4.531   0.861   1.260
 3405SOL     OW11113   5.811   3.765   0.508
 3405SOL    HW111114   5.766   3.719   0.584
 3405SOL    HW211115   5.909   3.750   0.513
 3406SOL     OW11116   1.516   4.821   2.015
 3406SOL    HW111117   1.589   4.754   2.001
 3406SOL    HW211118   1.430   4.786   1.979
 3407SOL     OW11119   1.626   5.825   2.620
 3407SOL    HW111120   1.526   5.838   2.622
 3407SOL    HW211121   1.648   5.733   2.652
 3408SOL     OW11122   5.182   4.024   2.704
 3408SOL    HW111123   5.159   3.943   2.651
 3408SOL    HW211124   5.157   4.010   2.800
 3409SOL     OW11125   2.847   0.439   5.575
 3409SOL    HW111126   2.889   0.362   5.527
 3409SOL    HW211127   2.766   0.408   5.624
 3410SOL     OW11128   6.677   0.180   6.609
 3410SOL    HW111129   6.716   0.124   6.682
 3410SOL    HW211130   6.745   0.245   6.576
 3411SOL     OW11131   5.003   2.217   2.164
 3411SOL    HW111132   5.063   2.148   2.205
 3411SOL    HW211133   5.035   2.238   2.071
 3412SOL     OW11134   3.907   4.102   0.394
 3412SOL    HW111135   3.921   4.128   0.489
 3412SOL    HW211136   3.825   4.044   0.387
 3413SOL     OW11137   3.955   2.096   2.684
 3413SOL    HW111138   3.870   2.079   2.735
 3413SOL    HW211139   4.008   2.167   2.730
 3414SOL     OW11140   3.404   1.988   5.706
 3414SOL    HW111141   3.326   2.000   5.768
 3414SOL    HW211142   3.385   2.035   5.619
 3415SOL     OW11143   0.205   5.455   3.935
 3415SOL    HW111144   0.199   5.482   3.839
 3415SOL    HW211145   0.128   5.396   3.958
 3416SOL     OW11146   1.665   4.366   5.311
 3416SOL    HW111147   1.698   4.461   5.309
 3416SOL    HW211148   1.722   4.310   5.251
 3417SOL     OW11149   5.398   0.253   2.367
 3417SOL    HW111150   5.399   0.284   2.272
 3417SOL    HW211151   5.403   0.153   2.370
 3418SOL     OW11152   3.248   1.357   6.299
 3418SOL    HW111153   3.155   1.335   6.331
 3418SOL    HW211154   3.256   1.331   6.202
 3419SOL     OW11155   4.460   4.067   0.250
 3419SOL    HW111156   4.363   4.060   0.272
 3419SOL    HW211157   4.515   4.047   0.331
 3420SOL     OW11158   4.275   2.265   4.044
 3420SOL    HW111159   4.250   2.313   3.960
 3420SOL    HW211160   4.192   2.242   4.095
 3421SOL     OW11161   0.262   6.222   4.361
 3421SOL    HW111162   0.353   6.190   4.388
 3421SOL    HW211163   0.226   6.283   4.432
 3422SOL     OW11164   2.898   1.205   1.809
 3422SOL    HW111165   2.885   1.299   1.841
 3422SOL    HW211166   2.996   1.186   1.804
 3423SOL     OW11167   2.567   0.479   1.179
 3423SOL    HW111168   2.655   0.483   1.227
 3423SOL    HW211169   2.580   0.508   1.084
 3424SOL     OW11170   4.242   1.496   2.794
 3424SOL    HW111171   4.151   1.496   2.751
 3424SOL    HW211172   4.298   1.424   2.753
 3425SOL     OW11173   4.361   4.582   1.713
 3425SOL    HW111174   4.327   4.620   1.800
 3425SOL    HW211175   4.420   4.503   1.732
 3426SOL     OW11176   4.337   3.376   0.429
 3426SOL    HW111177   4.280   3.326   0.493
 3426SOL    HW211178   4.392   3.444   0.478
 3427SOL     OW11179   6.886   2.039   6.921
 3427SOL    HW111180   6.975   1.995   6.933
 3427SOL    HW211181   6.817   1.970   6.897
 3428SOL     OW11182   4.571   4.347   2.905
 3428SOL    HW111183   4.562   4.390   2.995
 3428SOL    HW211184   4.616   4.258   2.915
 3429SOL     OW11185   1.001   3.281   6.760
 3429SOL    HW111186   1.064   3.221   6.809
 3429SOL    HW211187   0.908   3.261   6.788
 3430SOL     OW11188   1.541   6.481   0.052
 3430SOL    HW111189   1.518   6.547   0.124
 3430SOL    HW211190   1.492   6.504   6.988
 3431SOL     OW11191   0.720   5.848   0.372
 3431SOL    HW111192   0.627   5.818   0.352
 3431SOL    HW211193   0.733   5.850   0.472
 3432SOL     OW11194   3.305   1.620   6.628
 3432SOL    HW111195   3.252   1.626   6.712
 3432SOL    HW211196   3.332   1.712   6.599
 3433SOL     OW11197   4.114   0.778   5.038
 3433SOL    HW111198   4.112   0.684   5.069
 3433SOL    HW211199   4.025   0.821   5.057
 3434SOL     OW11200   4.373   1.990   2.576
 3434SOL    HW111201   4.346   1.976   2.671
 3434SOL    HW211202   4.367   2.087   2.553
 3435SOL     OW11203   0.350   1.056   0.204
 3435SOL    HW111204   0.307   0.990   0.266
 3435SOL    HW211205   0.305   1.052   0.115
 3436SOL     OW11206   3.824   6.580   3.417
 3436SOL    HW111207   3.818   6.490   3.460
 3436SOL    HW211208   3.893   6.635   3.464
 3437SOL     OW11209   3.564   6.894   6.456
 3437SOL    HW111210   3.549   6.798   6.478
 3437SOL    HW211211   3.612   6.938   6.532
 3438SOL     OW11212   1.254   3.462   6.618
 3438SOL    HW111213   1.325   3.474   6.548
 3438SOL    HW211214   1.295   3.425   6.701
 3439SOL     OW11215   2.720   5.595   3.638
 3439SOL    HW111216   2.689   5.515   3.690
 3439SOL    HW211217   2.734   5.672   3.700
 3440SOL     OW11218   4.801   2.321   0.759
 3440SOL    HW111219   4.729   2.384   0.730
 3440SOL    HW211220   4.777   2.279   0.846
 3441SOL     OW11221   3.088   0.531   3.838
 3441SOL    HW111222   3.126   0.578   3.759
 3441SOL    HW211223   3.129   0.440   3.845
 3442SOL     OW11224   1.845   4.859   3.075
 3442SOL    HW111225   1.807   4.882   2.985
 3442SOL    HW211226   1.909   4.783   3.065
 3443SOL     OW11227   6.189   0.891   3.671
 3443SOL    HW111228   6.251   0.966   3.646
 3443SOL    HW211229   6.215   0.855   3.761
 3444SOL     OW11230   4.386   5.396   6.977
 3444SOL    HW111231   4.355   5.330   6.907
 3444SOL    HW211232   4.311   5.459   6.998
 3445SOL     OW11233   6.076   4.148   4.270
 3445SOL    HW111234   6.006   4.187   4.329
 3445SOL    HW211235   6.159   4.132   4.323
 3446SOL     OW11236   3.613   6.860   2.995
 3446SOL    HW111237   3.572   6.847   2.905
 3446SOL    HW211238   3.561   6.809   3.064
 3447SOL     OW11239   5.615   5.575   6.365
 3447SOL    HW111240   5.665   5.540   6.285
 3447SOL    HW211241   5.537   5.629   6.335
 3448SOL     OW11242   3.639   2.269   1.041
 3448SOL    HW111243   3.581   2.265   1.122
 3448SOL    HW211244   3.624   2.356   0.993
 3449SOL     OW11245   6.433   5.928   3.926
 3449SOL    HW111246   6.429   5.928   3.826
 3449SOL    HW211247   6.514   5.977   3.957
 3450SOL     OW11248   1.185   1.632   1.364
 3450SOL    HW111249   1.194   1.698   1.290
 3450SOL    HW211250   1.092   1.594   1.363
 3451SOL     OW11251   1.038   5.482   4.455
 3451SOL    HW111252   1.025   5.488   4.554
 3451SOL    HW211253   0.952   5.458   4.412
 3452SOL     OW11254   6.026   2.095   6.696
 3452SOL    HW111255   6.013   2.188   6.663
 3452SOL    HW211256   5.977   2.083   6.783
 3453SOL     OW11257   5.551   5.486   5.705
 3453SOL    HW111258   5.641   5.465   5.666
 3453SOL    HW211259   5.522   5.577   5.673
 3454SOL     OW11260   0.700   0.579   0.568
 3454SOL    HW111261   0.765   0.635   0.620
 3454SOL    HW211262   0.630   0.637   0.527
 3455SOL     OW11263   2.046   2.558   4.508
 3455SOL    HW111264   2.017   2.462   4.503
 3455SOL    HW211265   2.073   2.579   4.602
 3456SOL     OW11266   6.275   6.899   1.951
 3456SOL    HW111267   6.332   6.956   1.892
 3456SOL    HW211268   6.284   6.803   1.923
 3457SOL     OW11269   2.178   5.199   3.179
 3457SOL    HW111270   2.168   5.299   3.176
 3457SOL    HW211271   2.221   5.172   3.265
 3458SOL     OW11272   5.126   5.570   1.093
 3458SOL    HW111273   5.108   5.546   1.188
 3458SOL    HW211274   5.146   5.487   1.041
 3459SOL     OW11275   6.335   6.343   3.571
 3459SOL    HW111276   6.428   6.318   3.600
 3459SOL    HW211277   6.286   6.261   3.543
 3460SOL     OW11278   4.142   3.239   6.660
 3460SOL    HW111279   4.070   3.253   6.728
 3460SOL    HW211280   4.191   3.325   6.646
 3461SOL     OW11281   3.296   5.729   2.531
 3461SOL    HW111282   3.354   5.681   2.596
 3461SOL    HW211283   3.300   5.683   2.442
 3462SOL     OW11284   5.332   3.165   3.282
 3462SOL    HW111285   5.309   3.122   3.195
 3462SOL    HW211286   5.381   3.100   3.340
 3463SOL     OW11287   2.181   2.754   1.046
 3463SOL    HW111288   2.180   2.837   0.991
 3463SOL    HW211289   2.275   2.733   1.073
 3464SOL     OW11290   4.475   2.722   6.838
 3464SOL    HW111291   4.548   2.779   6.801
 3464SOL    HW211292   4.513   2.654   6.901
 3465SOL     OW11293   2.079   3.573   2.189
 3465SOL    HW111294   2.145   3.556   2.116
 3465SOL    HW211295   1.990   3.536   2.163
 3466SOL     OW11296   5.966   4.687   3.797
 3466SOL    HW111297   5.964   4.674   3.698
 3466SOL    HW211298   6.060   4.705   3.827
 3467SOL     OW11299   3.174   2.671   1.161
 3467SOL    HW111300   3.118   2.752   1.143
 3467SOL    HW211301   3.126   2.611   1.225
 3468SOL     OW11302   3.531   1.611   0.996
 3468SOL    HW111303   3.461   1.551   1.036
 3468SOL    HW211304   3.617   1.599   1.045
 3469SOL     OW11305   4.133   6.010   5.587
 3469SOL    HW111306   4.219   5.983   5.544
 3469SOL    HW211307   4.115   6.106   5.568
 3470SOL     OW11308   0.681   2.704   1.764
 3470SOL    HW111309   0.741   2.717   1.842
 3470SOL    HW211310   0.590   2.739   1.786
 3471SOL     OW11311   4.836   3.163   3.582
 3471SOL    HW111312   4.923   3.171   3.532
 3471SOL    HW211313   4.811   3.067   3.591
 3472SOL     OW11314   4.313   1.304   3.445
 3472SOL    HW111315   4.329   1.399   3.474
 3472SOL    HW211316   4.214   1.288   3.439
 3473SOL     OW11317   0.120   4.296   1.925
 3473SOL    HW111318   0.161   4.386   1.930
 3473SOL    HW211319   0.191   4.226   1.931
 3474SOL     OW11320   5.792   5.092   4.011
 3474SOL    HW111321   5.869   5.086   3.948
 3474SOL    HW211322   5.813   5.157   4.084
 3475SOL     OW11323   6.877   4.128   3.915
 3475SOL    HW111324   6.779   4.148   3.916
 3475SOL    HW211325   6.907   4.111   3.821
 3476SOL     OW11326   1.185   0.958   3.616
 3476SOL    HW111327   1.174   0.936   3.519
 3476SOL    HW211328   1.102   0.935   3.666
 3477SOL     OW11329   0.322   4.091   1.979
 3477SOL    HW111330   0.415   4.125   1.991
 3477SOL    HW211331   0.294   4.041   2.061
 3478SOL     OW11332   1.969   0.648   0.539
 3478SOL    HW111333   1.994   0.721   0.475
 3478SOL    HW211334   2.048   0.622   0.594
 3479SOL     OW11335   1.528   4.243   4.154
 3479SOL    HW111336   1.617   4.230   4.199
 3479SOL    HW211337   1.468   4.296   4.214
 3480SOL     OW11338   1.610   4.730   0.100
 3480SOL    HW111339   1.529   4.725   0.159
 3480SOL    HW211340   1.679   4.788   0.144
 3481SOL     OW11341   6.154   1.091   4.969
 3481SOL    HW111342   6.179   0.999   4.940
 3481SOL    HW211343   6.055   1.102   4.962
 3482SOL     OW11344   5.984   3.923   5.167
 3482SOL    HW111345   5.904   3.981   5.156
 3482SOL    HW211346   6.057   3.975   5.212
 3483SOL     OW11347   5.240   2.963   4.676
 3483SOL    HW111348   5.175   2.944   4.750
 3483SOL    HW211349   5.310   2.892   4.673
 3484SOL     OW11350   2.032   3.380   5.239
 3484SOL    HW111351   2.070   3.290   5.263
 3484SOL    HW211352   2.056   3.446   5.310
 3485SOL     OW11353   0.418   2.343   6.387
 3485SOL    HW111354   0.340   2.338   6.324
 3485SOL    HW211355   0.486   2.406   6.350
 3486SOL     OW11356   2.231   7.000   4.873
 3486SOL    HW111357   2.251   6.983   4.777
 3486SOL    HW211358   2.133   7.016   4.884
 3487SOL     OW11359   5.028   1.510   6.807
 3487SOL    HW111360   5.001   1.429   6.860
 3487SOL    HW211361   5.017   1.492   6.710
 3488SOL     OW11362   5.847   0.781   4.355
 3488SOL    HW111363   5.905   0.847   4.402
 3488SOL    HW211364   5.904   0.712   4.311
 3489SOL     OW11365   3.339   6.629   0.514
 3489SOL    HW111366   3.367   6.575   0.434
 3489SOL    HW211367   3.243   6.653   0.505
 3490SOL     OW11368   3.390   5.671   0.147
 3490SOL    HW111369   3.376   5.630   0.057
 3490SOL    HW211370   3.478   5.718   0.149
 3491SOL     OW11371   5.074   4.627   6.462
 3491SOL    HW111372   5.167   4.642   6.496
 3491SOL    HW211373   5.045   4.535   6.486
 3492SOL     OW11374   5.957   4.579   2.772
 3492SOL    HW111375   6.010   4.664   2.772
 3492SOL    HW211376   5.963   4.536   2.862
 3493SOL     OW11377   6.003   3.235   4.889
 3493SOL    HW111378   6.014   3.276   4.798
 3493SOL    HW211379   5.905   3.229   4.910
 3494SOL     OW11380   4.374   1.633   1.949
 3494SOL    HW111381   4.438   1.669   2.017
 3494SOL    HW211382   4.386   1.683   1.863
 3495SOL     OW11383   0.658   2.755   2.594
 3495SOL    HW111384   0.565   2.750   2.628
 3495SOL    HW211385   0.721   2.719   2.663
 3496SOL     OW11386   5.364   5.293   1.259
 3496SOL    HW111387   5.405   5.341   1.180
 3496SOL    HW211388   5.390   5.341   1.343
 3497SOL     OW11389   3.463   0.229   2.488
 3497SOL    HW111390   3.363   0.221   2.489
 3497SOL    HW211391   3.490   0.310   2.540
 3498SOL     OW11392   2.192   2.300   1.353
 3498SOL    HW111393   2.220   2.220   1.300
 3498SOL    HW211394   2.251   2.378   1.329
 3499SOL     OW11395   6.239   5.492   5.590
 3499SOL    HW111396   6.323   5.543   5.574
 3499SOL    HW211397   6.191   5.532   5.669
 3500SOL     OW11398   1.802   1.950   4.339
 3500SOL    HW111399   1.818   2.046   4.315
 3500SOL    HW211400   1.705   1.936   4.355
 3501SOL     OW11401   1.437   0.134   5.696
 3501SOL    HW111402   1.455   0.053   5.640
 3501SOL    HW211403   1.428   0.107   5.792
 3502SOL     OW11404   4.900   3.017   2.196
 3502SOL    HW111405   4.843   3.022   2.114
 3502SOL    HW211406   4.987   2.972   2.174
 3503SOL     OW11407   6.312   5.793   6.940
 3503SOL    HW111408   6.403   5.767   6.971
 3503SOL    HW211409   6.244   5.734   6.983
 3504SOL     OW11410   1.498   1.177   0.871
 3504SOL    HW111411   1.538   1.176   0.779
 3504SOL    HW211412   1.571   1.184   0.939
 3505SOL     OW11413   5.506   4.819   6.085
 3505SOL    HW111414   5.419   4.790   6.123
 3505SOL    HW211415   5.556   4.875   6.152
 3506SOL     OW11416   4.893   4.662   4.947
 3506SOL    HW111417   4.870   4.652   5.044
 3506SOL    HW211418   4.990   4.644   4.933
 3507SOL     OW11419   3.055   6.612   0.366
 3507SOL    HW111420   3.040   6.516   0.389
 3507SOL    HW211421   3.028   6.670   0.443
 3508SOL     OW11422   3.117   2.265   5.394
 3508SOL    HW111423   3.120   2.350   5.447
 3508SOL    HW211424   3.166   2.278   5.308
 3509SOL     OW11425   4.233   5.506   6.618
 3509SOL    HW111426   4.238   5.578   6.687
 3509SOL    HW211427   4.270   5.541   6.531
 3510SOL     OW11428   2.923   0.857   0.887
 3510SOL    HW111429   2.889   0.847   0.981
 3510SOL    HW211430   2.851   0.897   0.830
 3511SOL     OW11431   2.633   4.602   1.749
 3511SOL    HW111432   2.709   4.588   1.813
 3511SOL    HW211433   2.667   4.647   1.666
 3512SOL     OW11434   0.409   4.734   6.665
 3512SOL    HW111435   0.335   4.779   6.616
 3512SOL    HW211436   0.374   4.692   6.749
 3513SOL     OW11437   6.237   2.155   7.019
 3513SOL    HW111438   6.192   2.239   0.029
 3513SOL    HW211439   6.323   2.177   6.973
 3514SOL     OW11440   4.042   1.358   2.413
 3514SOL    HW111441   4.140   1.338   2.416
 3514SOL    HW211442   4.003   1.317   2.330
 3515SOL     OW11443   6.281   5.536   4.249
 3515SOL    HW111444   6.307   5.575   4.161
 3515SOL    HW211445   6.353   5.475   4.281
 3516SOL     OW11446   5.032   0.206   1.314
 3516SOL    HW111447   5.008   0.301   1.335
 3516SOL    HW211448   5.062   0.160   1.397
 3517SOL     OW11449   6.164   0.612   0.872
 3517SOL    HW111450   6.223   0.691   0.888
 3517SOL    HW211451   6.219   0.529   0.865
 3518SOL     OW11452   5.181   1.286   5.390
 3518SOL    HW111453   5.198   1.223   5.466
 3518SOL    HW211454   5.104   1.345   5.413
 3519SOL     OW11455   3.580   1.170   0.606
 3519SOL    HW111456   3.597   1.124   0.519
 3519SOL    HW211457   3.561   1.101   0.676
 3520SOL     OW11458   2.647   6.483   4.930
 3520SOL    HW111459   2.581   6.515   4.998
 3520SOL    HW211460   2.734   6.529   4.944
 3521SOL     OW11461   2.616   2.724   0.108
 3521SOL    HW111462   2.631   2.818   0.140
 3521SOL    HW211463   2.625   2.661   0.185
 3522SOL     OW11464   0.231   5.851   6.645
 3522SOL    HW111465   0.189   5.925   6.592
 3522SOL    HW211466   0.262   5.779   6.583
 3523SOL     OW11467   1.275   5.337   6.367
 3523SOL    HW111468   1.322   5.417   6.329
 3523SOL    HW211469   1.183   5.331   6.330
 3524SOL     OW11470   5.659   1.199   3.246
 3524SOL    HW111471   5.736   1.151   3.289
 3524SOL    HW211472   5.672   1.199   3.147
 3525SOL     OW11473   6.284   4.254   3.467
 3525SOL    HW111474   6.222   4.329   3.491
 3525SOL    HW211475   6.286   4.188   3.542
 3526SOL     OW11476   0.853   6.231   2.769
 3526SOL    HW111477   0.893   6.313   2.812
 3526SOL    HW211478   0.852   6.243   2.670
 3527SOL     OW11479   6.641   2.583   5.621
 3527SOL    HW111480   6.659   2.650   5.550
 3527SOL    HW211481   6.585   2.509   5.584
 3528SOL     OW11482   2.358   6.659   4.705
 3528SOL    HW111483   2.323   6.695   4.619
 3528SOL    HW211484   2.406   6.573   4.689
 3529SOL     OW11485   4.259   5.467   0.624
 3529SOL    HW111486   4.160   5.468   0.615
 3529SOL    HW211487   4.301   5.480   0.534
 3530SOL     OW11488   6.820   0.411   1.675
 3530SOL    HW111489   6.780   0.338   1.619
 3530SOL    HW211490   6.848   0.487   1.616
 3531SOL     OW11491   5.390   1.561   0.677
 3531SOL    HW111492   5.413   1.510   0.759
 3531SOL    HW211493   5.380   1.658   0.699
 3532SOL     OW11494   1.644   1.394   2.041
 3532SOL    HW111495   1.610   1.391   1.947
 3532SOL    HW211496   1.682   1.485   2.059
 3533SOL     OW11497   0.301   0.942   2.725
 3533SOL    HW111498   0.353   1.012   2.774
 3533SOL    HW211499   0.328   0.943   2.629
 3534SOL     OW11500   0.106   0.698   1.130
 3534SOL    HW111501   0.136   0.610   1.093
 3534SOL    HW211502   0.160   0.771   1.089
 3535SOL     OW11503   2.848   5.981   4.514
 3535SOL    HW111504   2.945   5.963   4.525
 3535SOL    HW211505   2.798   5.949   4.595
 3536SOL     OW11506   3.494   2.137   2.762
 3536SOL    HW111507   3.448   2.146   2.673
 3536SOL    HW211508   3.453   2.201   2.827
 3537SOL     OW11509   1.518   5.828   2.961
 3537SOL    HW111510   1.570   5.744   2.980
 3537SOL    HW211511   1.427   5.804   2.929
 3538SOL     OW11512   2.994   5.818   3.987
 3538SOL    HW111513   2.969   5.896   3.930
 3538SOL    HW211514   3.093   5.804   3.982
 3539SOL     OW11515   3.745   4.010   4.272
 3539SOL    HW111516   3.733   4.083   4.204
 3539SOL    HW211517   3.697   3.928   4.241
 3540SOL     OW11518   1.793   1.925   3.943
 3540SOL    HW111519   1.856   1.997   3.974
 3540SOL    HW211520   1.838   1.868   3.875
 3541SOL     OW11521   3.081   3.987   4.749
 3541SOL    HW111522   2.994   3.941   4.730
 3541SOL    HW211523   3.110   3.967   4.842
 3542SOL     OW11524   0.357   5.289   1.781
 3542SOL    HW111525   0.263   5.291   1.747
 3542SOL    HW211526   0.412   5.356   1.730
 3543SOL     OW11527   5.940   2.755   4.582
 3543SOL    HW111528   5.985   2.668   4.566
 3543SOL    HW211529   5.969   2.793   4.671
 3544SOL     OW11530   1.956   5.021   6.220
 3544SOL    HW111531   1.987   5.106   6.179
 3544SOL    HW211532   1.857   5.023   6.233
 3545SOL     OW11533   3.900   5.074   6.484
 3545SOL    HW111534   3.935   5.111   6.570
 3545SOL    HW211535   3.973   5.023   6.437
 3546SOL     OW11536   6.228   5.109   3.068
 3546SOL    HW111537   6.210   5.011   3.071
 3546SOL    HW211538   6.226   5.147   3.160
 3547SOL     OW11539   5.436   5.003   4.376
 3547SOL    HW111540   5.342   5.036   4.387
 3547SOL    HW211541   5.461   5.003   4.280
 3548SOL     OW11542   4.723   2.968   5.542
 3548SOL    HW111543   4.786   2.955   5.465
 3548SOL    HW211544   4.629   2.958   5.510
 3549SOL     OW11545   5.748   4.345   2.924
 3549SOL    HW111546   5.703   4.327   3.012
 3549SOL    HW211547   5.841   4.377   2.941
 3550SOL     OW11548   5.807   2.290   2.157
 3550SOL    HW111549   5.902   2.287   2.124
 3550SOL    HW211550   5.782   2.201   2.196
 3551SOL     OW11551   2.803   6.566   3.323
 3551SOL    HW111552   2.724   6.511   3.351
 3551SOL    HW211553   2.773   6.638   3.260
 3552SOL     OW11554   6.423   4.980   2.919
 3552SOL    HW111555   6.433   5.006   2.823
 3552SOL    HW211556   6.369   5.048   2.967
 3553SOL     OW11557   6.032   1.447   2.670
 3553SOL    HW111558   5.972   1.489   2.738
 3553SOL    HW211559   6.040   1.507   2.591
 3554SOL     OW11560   4.116   4.971   6.353
 3554SOL    HW111561   4.136   4.949   6.258
 3554SOL    HW211562   4.192   5.022   6.393
 3555SOL     OW11563   1.392   3.013   3.422
 3555SOL    HW111564   1.460   3.084   3.406
 3555SOL    HW211565   1.370   2.968   3.335
 3556SOL     OW11566   3.667   0.655   6.722
 3556SOL    HW111567   3.607   0.597   6.667
 3556SOL    HW211568   3.762   0.640   6.695
 3557SOL     OW11569   1.272   0.358   5.141
 3557SOL    HW111570   1.350   0.419   5.159
 3557SOL    HW211571   1.195   0.385   5.198
 3558SOL     OW11572   0.104   5.640   1.405
 3558SOL    HW111573   0.141   5.729   1.434
 3558SOL    HW211574   0.138   5.618   1.314
 3559SOL     OW11575   0.646   0.470   5.706
 3559SOL    HW111576   0.588   0.490   5.627
 3559SOL    HW211577   0.600   0.403   5.765
 3560SOL     OW11578   6.774   6.380   1.286
 3560SOL    HW111579   6.839   6.448   1.321
 3560SOL    HW211580   6.822   6.316   1.227
 3561SOL     OW11581   4.799   5.010   5.020
 3561SOL    HW111582   4.894   5.040   5.012
 3561SOL    HW211583   4.795   4.925   5.074
 3562SOL     OW11584   4.638   1.304   2.867
 3562SOL    HW111585   4.605   1.294   2.960
 3562SOL    HW211586   4.734   1.277   2.863
 3563SOL     OW11587   4.898   1.079   1.302
 3563SOL    HW111588   4.814   1.035   1.268
 3563SOL    HW211589   4.912   1.166   1.255
 3564SOL     OW11590   0.247   4.426   3.186
 3564SOL    HW111591   0.243   4.369   3.104
 3564SOL    HW211592   0.342   4.443   3.211
 3565SOL     OW11593   2.056   0.368   4.811
 3565SOL    HW111594   2.071   0.293   4.746
 3565SOL    HW211595   2.092   0.342   4.900
 3566SOL     OW11596   0.633   3.607   5.391
 3566SOL    HW111597   0.626   3.518   5.345
 3566SOL    HW211598   0.668   3.675   5.326
 3567SOL     OW11599   0.102   3.329   0.874
 3567SOL    HW111600   0.100   3.385   0.791
 3567SOL    HW211601   0.165   3.369   0.940
 3568SOL     OW11602   4.870   3.817   3.366
 3568SOL    HW111603   4.866   3.767   3.452
 3568SOL    HW211604   4.874   3.915   3.385
 3569SOL     OW11605   3.786   3.391   3.669
 3569SOL    HW111606   3.747   3.325   3.734
 3569SOL    HW211607   3.779   3.483   3.708
 3570SOL     OW11608   0.280   2.361   6.005
 3570SOL    HW111609   0.200   2.329   5.954
 3570SOL    HW211610   0.323   2.436   5.955
 3571SOL     OW11611   2.204   6.658   4.961
 3571SOL    HW111612   2.261   6.685   4.884
 3571SOL    HW211613   2.160   6.570   4.941
 3572SOL     OW11614   4.808   4.645   2.061
 3572SOL    HW111615   4.886   4.627   2.121
 3572SOL    HW211616   4.788   4.563   2.007
 3573SOL     OW11617   0.039   3.808   3.309
 3573SOL    HW111618   0.053   3.897   3.267
 3573SOL    HW211619   6.991   3.815   3.382
 3574SOL     OW11620   2.227   2.511   5.500
 3574SOL    HW111621   2.284   2.483   5.577
 3574SOL    HW211622   2.152   2.568   5.534
 3575SOL     OW11623   5.392   0.259   0.350
 3575SOL    HW111624   5.302   0.259   0.393
 3575SOL    HW211625   5.408   0.171   0.306
 3576SOL     OW11626   1.743   3.063   1.141
 3576SOL    HW111627   1.677   2.995   1.171
 3576SOL    HW211628   1.711   3.154   1.169
 3577SOL     OW11629   2.605   3.155   5.633
 3577SOL    HW111630   2.544   3.102   5.575
 3577SOL    HW211631   2.643   3.096   5.704
 3578SOL     OW11632   3.125   3.055   6.181
 3578SOL    HW111633   3.071   3.126   6.138
 3578SOL    HW211634   3.065   2.982   6.213
 3579SOL     OW11635   0.625   3.119   1.948
 3579SOL    HW111636   0.527   3.100   1.941
 3579SOL    HW211637   0.666   3.121   1.857
 3580SOL     OW11638   0.567   4.201   2.004
 3580SOL    HW111639   0.660   4.174   1.982
 3580SOL    HW211640   0.548   4.292   1.968
 3581SOL     OW11641   1.846   6.812   2.907
 3581SOL    HW111642   1.864   6.903   2.944
 3581SOL    HW211643   1.930   6.777   2.864
 3582SOL     OW11644   3.743   4.717   6.359
 3582SOL    HW111645   3.650   4.754   6.346
 3582SOL    HW211646   3.739   4.640   6.423
 3583SOL     OW11647   0.766   5.092   0.737
 3583SOL    HW111648   0.825   5.173   0.734
 3583SOL    HW211649   0.809   5.022   0.794
 3584SOL     OW11650   6.301   4.649   5.112
 3584SOL    HW111651   6.203   4.630   5.109
 3584SOL    HW211652   6.316   4.747   5.113
 3585SOL     OW11653   2.891   1.470   3.011
 3585SOL    HW111654   2.960   1.500   3.077
 3585SOL    HW211655   2.806   1.449   3.060
 3586SOL     OW11656   6.619   2.648   5.134
 3586SOL    HW111657   6.694   2.712   5.118
 3586SOL    HW211658   6.655   2.555   5.143
 3587SOL     OW11659   2.666   6.842   6.470
 3587SOL    HW111660   2.663   6.744   6.491
 3587SOL    HW211661   2.636   6.894   6.549
 3588SOL     OW11662   6.626   4.596   4.362
 3588SOL    HW111663   6.624   4.687   4.322
 3588SOL    HW211664   6.706   4.546   4.329
 3589SOL     OW11665   0.060   0.405   6.056
 3589SOL    HW111666   0.026   0.320   6.016
 3589SOL    HW211667   0.067   0.475   5.986
 3590SOL     OW11668   6.371   5.196   0.141
 3590SOL    HW111669   6.316   5.188   0.223
 3590SOL    HW211670   6.461   5.234   0.165
 3591SOL     OW11671   5.688   1.880   6.416
 3591SOL    HW111672   5.700   1.875   6.515
 3591SOL    HW211673   5.769   1.843   6.371
 3592SOL     OW11674   1.806   6.181   1.385
 3592SOL    HW111675   1.713   6.164   1.419
 3592SOL    HW211676   1.803   6.253   1.316
 3593SOL     OW11677   4.450   3.092   5.457
 3593SOL    HW111678   4.446   3.025   5.382
 3593SOL    HW211679   4.413   3.051   5.540
 3594SOL     OW11680   4.550   4.611   5.190
 3594SOL    HW111681   4.465   4.584   5.145
 3594SOL    HW211682   4.627   4.567   5.145
 3595SOL     OW11683   5.608   6.462   4.729
 3595SOL    HW111684   5.662   6.450   4.812
 3595SOL    HW211685   5.511   6.460   4.752
 3596SOL     OW11686   3.991   2.151   3.838
 3596SOL    HW111687   4.044   2.226   3.798
 3596SOL    HW211688   4.054   2.084   3.879
 3597SOL     OW11689   2.626   3.266   5.351
 3597SOL    HW111690   2.604   3.183   5.302
 3597SOL    HW211691   2.713   3.255   5.399
 3598SOL     OW11692   1.333   5.684   5.195
 3598SOL    HW111693   1.289   5.630   5.267
 3598SOL    HW211694   1.263   5.732   5.142
 3599SOL     OW11695   3.632   1.293   4.856
 3599SOL    HW111696   3.610   1.199   4.831
 3599SOL    HW211697   3.732   1.304   4.861
 3600SOL     OW11698   3.223   3.442   0.371
 3600SOL    HW111699   3.231   3.471   0.466
 3600SOL    HW211700   3.215   3.342   0.367
 3601SOL     OW11701   4.925   0.699   5.176
 3601SOL    HW111702   5.007   0.751   5.202
 3601SOL    HW211703   4.865   0.758   5.121
 3602SOL     OW11704   2.289   2.048   1.220
 3602SOL    HW111705   2.258   2.001   1.303
 3602SOL    HW211706   2.274   1.991   1.140
 3603SOL     OW11707   2.662   0.729   5.534
 3603SOL    HW111708   2.750   0.702   5.494
 3603SOL    HW211709   2.650   0.827   5.524
 3604SOL     OW11710   6.971   0.395   3.023
 3604SOL    HW111711   0.018   0.444   3.079
 3604SOL    HW211712   6.894   0.366   3.080
 3605SOL     OW11713   1.278   6.370   4.050
 3605SOL    HW111714   1.234   6.296   4.000
 3605SOL    HW211715   1.352   6.408   3.994
 3606SOL     OW11716   2.790   6.519   2.459
 3606SOL    HW111717   2.699   6.531   2.420
 3606SOL    HW211718   2.784   6.462   2.541
 3607SOL     OW11719   5.690   1.626   2.837
 3607SOL    HW111720   5.740   1.688   2.776
 3607SOL    HW211721   5.600   1.664   2.858
 3608SOL     OW11722   2.493   2.046   6.173
 3608SOL    HW111723   2.557   1.984   6.127
 3608SOL    HW211724   2.500   2.137   6.132
 3609SOL     OW11725   2.821   0.911   4.730
 3609SOL    HW111726   2.880   0.899   4.649
 3609SOL    HW211727   2.759   0.987   4.714
 3610SOL     OW11728   1.596   0.118   4.894
 3610SOL    HW111729   1.632   0.039   4.943
 3610SOL    HW211730   1.608   0.105   4.795
 3611SOL     OW11731   5.531   5.033   3.125
 3611SOL    HW111732   5.580   5.093   3.188
 3611SOL    HW211733   5.458   5.084   3.081
 3612SOL     OW11734   6.124   1.342   0.054
 3612SOL    HW111735   6.148   1.289   0.135
 3612SOL    HW211736   6.097   1.435   0.082
 3613SOL     OW11737   4.726   6.032   2.291
 3613SOL    HW111738   4.824   6.016   2.274
 3613SOL    HW211739   4.694   6.106   2.232
 3614SOL     OW11740   3.634   5.219   6.469
 3614SOL    HW111741   3.639   5.312   6.434
 3614SOL    HW211742   3.725   5.177   6.465
 3615SOL     OW11743   5.519   2.180   6.149
 3615SOL    HW111744   5.537   2.272   6.115
 3615SOL    HW211745   5.577   2.114   6.100
 3616SOL     OW11746   1.057   2.008   0.031
 3616SOL    HW111747   1.048   2.030   0.128
 3616SOL    HW211748   1.141   2.049   7.014
 3617SOL     OW11749   3.856   5.917   5.621
 3617SOL    HW111750   3.952   5.898   5.637
 3617SOL    HW211751   3.843   6.016   5.607
 3618SOL     OW11752   1.293   5.280   4.211
 3618SOL    HW111753   1.339   5.284   4.123
 3618SOL    HW211754   1.194   5.279   4.198
 3619SOL     OW11755   5.663   3.797   1.828
 3619SOL    HW111756   5.697   3.788   1.922
 3619SOL    HW211757   5.729   3.757   1.765
 3620SOL     OW11758   5.979   5.798   4.930
 3620SOL    HW111759   6.072   5.788   4.894
 3620SOL    HW211760   5.921   5.725   4.893
 3621SOL     OW11761   3.334   2.886   3.257
 3621SOL    HW111762   3.299   2.823   3.327
 3621SOL    HW211763   3.403   2.946   3.298
 3622SOL     OW11764   1.249   5.932   6.585
 3622SOL    HW111765   1.218   6.027   6.589
 3622SOL    HW211766   1.328   5.920   6.645
 3623SOL     OW11767   0.941   5.676   6.297
 3623SOL    HW111768   0.983   5.586   6.309
 3623SOL    HW211769   0.957   5.707   6.203
 3624SOL     OW11770   2.684   2.536   1.537
 3624SOL    HW111771   2.714   2.455   1.486
 3624SOL    HW211772   2.760   2.572   1.590
 3625SOL     OW11773   6.799   2.176   0.551
 3625SOL    HW111774   6.709   2.139   0.527
 3625SOL    HW211775   6.805   2.271   0.523
 3626SOL     OW11776   1.457   2.906   5.042
 3626SOL    HW111777   1.539   2.874   5.089
 3626SOL    HW211778   1.461   2.880   4.945
 3627SOL     OW11779   3.456   2.046   2.114
 3627SOL    HW111780   3.542   2.096   2.101
 3627SOL    HW211781   3.476   1.954   2.148
 3628SOL     OW11782   6.755   2.273   1.570
 3628SOL    HW111783   6.748   2.297   1.473
 3628SOL    HW211784   6.842   2.227   1.587
 3629SOL     OW11785   1.199   1.494   4.331
 3629SOL    HW111786   1.207   1.480   4.233
 3629SOL    HW211787   1.218   1.408   4.379
 3630SOL     OW11788   0.177   2.629   1.850
 3630SOL    HW111789   0.231   2.546   1.866
 3630SOL    HW211790   0.157   2.672   1.938
 3631SOL     OW11791   1.856   0.134   2.365
 3631SOL    HW111792   1.849   0.122   2.266
 3631SOL    HW211793   1.901   0.054   2.405
 3632SOL     OW11794   4.666   3.854   1.731
 3632SOL    HW111795   4.687   3.768   1.686
 3632SOL    HW211796   4.569   3.875   1.722
 3633SOL     OW11797   3.816   4.088   6.787
 3633SOL    HW111798   3.892   4.131   6.738
 3633SOL    HW211799   3.762   4.158   6.833
 3634SOL     OW11800   3.313   5.554   6.488
 3634SOL    HW111801   3.268   5.470   6.518
 3634SOL    HW211802   3.260   5.633   6.518
 3635SOL     OW11803   1.594   5.834   1.899
 3635SOL    HW111804   1.521   5.867   1.959
 3635SOL    HW211805   1.663   5.905   1.887
 3636SOL     OW11806   0.423   5.096   6.512
 3636SOL    HW111807   0.497   5.053   6.458
 3636SOL    HW211808   0.455   5.182   6.549
 3637SOL     OW11809   6.243   3.305   0.114
 3637SOL    HW111810   6.209   3.313   0.208
 3637SOL    HW211811   6.200   3.374   0.057
 3638SOL     OW11812   6.447   3.377   2.926
 3638SOL    HW111813   6.381   3.306   2.951
 3638SOL    HW211814   6.485   3.417   3.009
 3639SOL     OW11815   3.861   3.045   3.592
 3639SOL    HW111816   3.816   3.123   3.548
 3639SOL    HW211817   3.793   2.979   3.622
 3640SOL     OW11818   4.349   1.908   1.964
 3640SOL    HW111819   4.253   1.882   1.952
 3640SOL    HW211820   4.381   1.879   2.054
 3641SOL     OW11821   5.983   4.129   2.861
 3641SOL    HW111822   5.977   4.180   2.946
 3641SOL    HW211823   6.024   4.186   2.790
 3642SOL     OW11824   5.151   3.348   6.109
 3642SOL    HW111825   5.062   3.304   6.123
 3642SOL    HW211826   5.159   3.377   6.014
 3643SOL     OW11827   4.149   5.977   5.195
 3643SOL    HW111828   4.158   5.969   5.096
 3643SOL    HW211829   4.235   6.010   5.234
 3644SOL     OW11830   2.827   0.732   1.734
 3644SOL    HW111831   2.730   0.715   1.752
 3644SOL    HW211832   2.837   0.789   1.653
 3645SOL     OW11833   1.388   4.034   3.396
 3645SOL    HW111834   1.441   4.051   3.312
 3645SOL    HW211835   1.431   4.082   3.472
 3646SOL     OW11836   1.568   4.250   5.549
 3646SOL    HW111837   1.616   4.311   5.486
 3646SOL    HW211838   1.470   4.256   5.532
 3647SOL     OW11839   2.795   0.214   6.398
 3647SOL    HW111840   2.802   0.275   6.319
 3647SOL    HW211841   2.699   0.205   6.424
 3648SOL     OW11842   4.732   5.389   3.468
 3648SOL    HW111843   4.694   5.297   3.482
 3648SOL    HW211844   4.801   5.407   3.538
 3649SOL     OW11845   5.746   2.967   0.209
 3649SOL    HW111846   5.837   3.003   0.233
 3649SOL    HW211847   5.719   2.898   0.276
 3650SOL     OW11848   5.501   6.075   6.694
 3650SOL    HW111849   5.412   6.111   6.719
 3650SOL    HW211850   5.573   6.131   6.735
 3651SOL     OW11851   0.781   1.827   5.709
 3651SOL    HW111852   0.876   1.848   5.686
 3651SOL    HW211853   0.726   1.821   5.626
 3652SOL     OW11854   4.209   1.486   1.635
 3652SOL    HW111855   4.235   1.582   1.645
 3652SOL    HW211856   4.257   1.447   1.556
 3653SOL     OW11857   1.132   1.790   1.148
 3653SOL    HW111858   1.105   1.719   1.083
 3653SOL    HW211859   1.149   1.875   1.100
 3654SOL     OW11860   4.383   6.528   1.628
 3654SOL    HW111861   4.373   6.609   1.686
 3654SOL    HW211862   4.305   6.523   1.566
 3655SOL     OW11863   1.478   1.280   4.286
 3655SOL    HW111864   1.489   1.181   4.283
 3655SOL    HW211865   1.455   1.313   4.195
 3656SOL     OW11866   0.298   0.382   1.653
 3656SOL    HW111867   0.248   0.327   1.720
 3656SOL    HW211868   0.301   0.334   1.566
 3657SOL     OW11869   6.110   5.614   5.809
 3657SOL    HW111870   6.150   5.699   5.844
 3657SOL    HW211871   6.098   5.549   5.885
 3658SOL     OW11872   1.729   5.288   5.658
 3658SOL    HW111873   1.745   5.215   5.725
 3658SOL    HW211874   1.776   5.265   5.572
 3659SOL     OW11875   0.195   2.276   6.253
 3659SOL    HW111876   0.205   2.178   6.237
 3659SOL    HW211877   0.225   2.327   6.172
 3660SOL     OW11878   5.139   5.701   6.064
 3660SOL    HW111879   5.146   5.735   6.158
 3660SOL    HW211880   5.043   5.706   6.035
 3661SOL     OW11881   0.218   1.688   4.714
 3661SOL    HW111882   0.223   1.657   4.809
 3661SOL    HW211883   0.302   1.663   4.666
 3662SOL     OW11884   2.752   1.790   5.668
 3662SOL    HW111885   2.662   1.825   5.698
 3662SOL    HW211886   2.824   1.840   5.716
 3663SOL     OW11887   2.455   2.537   6.826
 3663SOL    HW111888   2.370   2.520   6.777
 3663SOL    HW211889   2.533   2.503   6.773
 3664SOL     OW11890   3.476   1.646   1.340
 3664SOL    HW111891   3.440   1.573   1.282
 3664SOL    HW211892   3.451   1.734   1.302
 3665SOL     OW11893   0.610   5.734   5.972
 3665SOL    HW111894   0.552   5.672   6.025
 3665SOL    HW211895   0.584   5.829   5.991
 3666SOL     OW11896   2.278   3.059   4.635
 3666SOL    HW111897   2.285   2.961   4.654
 3666SOL    HW211898   2.360   3.105   4.667
 3667SOL     OW11899   1.753   6.589   1.004
 3667SOL    HW111900   1.811   6.644   1.065
 3667SOL    HW211901   1.674   6.555   1.055
 3668SOL     OW11902   6.660   0.941   1.013
 3668SOL    HW111903   6.757   0.932   0.993
 3668SOL    HW211904   6.624   0.852   1.044
 3669SOL     OW11905   0.794   1.327   3.677
 3669SOL    HW111906   0.871   1.322   3.613
 3669SOL    HW211907   0.752   1.237   3.686
 3670SOL     OW11908   2.671   6.877   1.672
 3670SOL    HW111909   2.699   6.880   1.768
 3670SOL    HW211910   2.661   6.970   1.637
 3671SOL     OW11911   6.865   0.655   4.440
 3671SOL    HW111912   6.915   0.728   4.487
 3671SOL    HW211913   6.929   0.600   4.387
 3672SOL     OW11914   3.683   6.455   3.642
 3672SOL    HW111915   3.718   6.403   3.564
 3672SOL    HW211916   3.633   6.393   3.703
 3673SOL     OW11917   3.258   0.030   1.048
 3673SOL    HW111918   3.182   6.989   1.074
 3673SOL    HW211919   3.334   6.994   1.014
 3674SOL     OW11920   0.828   4.625   6.786
 3674SOL    HW111921   0.923   4.656   6.781
 3674SOL    HW211922   0.774   4.691   6.838
 3675SOL     OW11923   1.135   0.420   4.280
 3675SOL    HW111924   1.183   0.399   4.365
 3675SOL    HW211925   1.100   0.336   4.239
 3676SOL     OW11926   3.699   1.334   4.463
 3676SOL    HW111927   3.637   1.257   4.446
 3676SOL    HW211928   3.711   1.344   4.562
 3677SOL     OW11929   1.627   0.920   4.516
 3677SOL    HW111930   1.569   0.917   4.598
 3677SOL    HW211931   1.708   0.976   4.535
 3678SOL     OW11932   1.336   0.984   3.844
 3678SOL    HW111933   1.300   0.981   3.751
 3678SOL    HW211934   1.287   0.918   3.901
 3679SOL     OW11935   4.313   0.457   2.261
 3679SOL    HW111936   4.378   0.486   2.332
 3679SOL    HW211937   4.247   0.394   2.301
 3680SOL     OW11938   3.167   1.894   4.478
 3680SOL    HW111939   3.188   1.992   4.468
 3680SOL    HW211940   3.238   1.850   4.532
 3681SOL     OW11941   0.776   6.363   4.052
 3681SOL    HW111942   0.865   6.395   4.084
 3681SOL    HW211943   0.781   6.347   3.953
 3682SOL     OW11944   5.444   2.102   1.136
 3682SOL    HW111945   5.425   2.005   1.146
 3682SOL    HW211946   5.540   2.114   1.110
 3683SOL     OW11947   6.180   1.616   0.147
 3683SOL    HW111948   6.157   1.710   0.124
 3683SOL    HW211949   6.238   1.615   0.229
 3684SOL     OW11950   2.449   6.496   5.130
 3684SOL    HW111951   2.374   6.430   5.134
 3684SOL    HW211952   2.504   6.490   5.214
 3685SOL     OW11953   1.765   5.929   4.526
 3685SOL    HW111954   1.675   5.886   4.535
 3685SOL    HW211955   1.796   5.961   4.615
 3686SOL     OW11956   0.448   3.714   1.271
 3686SOL    HW111957   0.543   3.722   1.242
 3686SOL    HW211958   0.436   3.631   1.325
 3687SOL     OW11959   5.955   4.339   4.965
 3687SOL    HW111960   6.041   4.305   4.926
 3687SOL    HW211961   5.892   4.262   4.978
 3688SOL     OW11962   6.223   2.493   1.352
 3688SOL    HW111963   6.183   2.580   1.378
 3688SOL    HW211964   6.267   2.502   1.262
 3689SOL     OW11965   0.893   0.186   6.142
 3689SOL    HW111966   0.983   0.168   6.104
 3689SOL    HW211967   0.899   0.261   6.208
 3690SOL     OW11968   5.333   5.407   1.581
 3690SOL    HW111969   5.358   5.442   1.672
 3690SOL    HW211970   5.416   5.381   1.532
 3691SOL     OW11971   1.875   2.959   0.468
 3691SOL    HW111972   1.795   2.912   0.430
 3691SOL    HW211973   1.916   2.901   0.539
 3692SOL     OW11974   1.163   2.791   5.282
 3692SOL    HW111975   1.202   2.745   5.202
 3692SOL    HW211976   1.074   2.751   5.304
 3693SOL     OW11977   0.205   1.272   2.255
 3693SOL    HW111978   0.232   1.328   2.333
 3693SOL    HW211979   0.282   1.264   2.192
 3694SOL     OW11980   6.526   0.419   2.960
 3694SOL    HW111981   6.530   0.489   2.888
 3694SOL    HW211982   6.589   0.345   2.938
 3695SOL     OW11983   5.754   3.568   3.167
 3695SOL    HW111984   5.703   3.490   3.132
 3695SOL    HW211985   5.841   3.536   3.206
 3696SOL     OW11986   4.356   0.695   4.573
 3696SOL    HW111987   4.297   0.732   4.645
 3696SOL    HW211988   4.418   0.627   4.611
 3697SOL     OW11989   6.400   6.500   3.348
 3697SOL    HW111990   6.385   6.466   3.442
 3697SOL    HW211991   6.434   6.593   3.352
 3698SOL     OW11992   1.399   0.371   2.872
 3698SOL    HW111993   1.314   0.339   2.914
 3698SOL    HW211994   1.468   0.298   2.878
 3699SOL     OW11995   2.218   2.359   3.148
 3699SOL    HW111996   2.289   2.326   3.210
 3699SOL    HW211997   2.217   2.303   3.065
 3700SOL     OW11998   0.731   5.156   4.973
 3700SOL    HW111999   0.710   5.140   4.876
 3700SOL    HW212000   0.657   5.119   5.029
 3701SOL     OW12001   0.646   0.977   2.338
 3701SOL    HW112002   0.601   1.052   2.290
 3701SOL    HW212003   0.682   0.911   2.271
 3702SOL     OW12004   5.923   4.062   3.411
 3702SOL    HW112005   5.932   4.001   3.333
 3702SOL    HW212006   5.828   4.063   3.443
 3703SOL     OW12007   1.145   1.649   3.384
 3703SOL    HW112008   1.159   1.668   3.481
 3703SOL    HW212009   1.208   1.705   3.330
 3704SOL     OW12010   6.495   0.840   0.707
 3704SOL    HW112011   6.584   0.863   0.668
 3704SOL    HW212012   6.455   0.763   0.658
 3705SOL     OW12013   5.758   4.434   3.636
 3705SOL    HW112014   5.754   4.534   3.636
 3705SOL    HW212015   5.667   4.396   3.623
 3706SOL     OW12016   1.257   4.388   6.315
 3706SOL    HW112017   1.292   4.402   6.223
 3706SOL    HW212018   1.161   4.360   6.310
 3707SOL     OW12019   1.067   4.747   3.470
 3707SOL    HW112020   1.135   4.673   3.470
 3707SOL    HW212021   1.071   4.795   3.558
 3708SOL     OW12022   2.322   6.182   1.103
 3708SOL    HW112023   2.348   6.088   1.125
 3708SOL    HW212024   2.232   6.201   1.142
 3709SOL     OW12025   1.309   1.304   1.623
 3709SOL    HW112026   1.267   1.318   1.534
 3709SOL    HW212027   1.347   1.212   1.628
 3710SOL     OW12028   1.093   4.167   5.163
 3710SOL    HW112029   1.051   4.225   5.234
 3710SOL    HW212030   1.191   4.158   5.181
 3711SOL     OW12031   0.714   5.751   4.629
 3711SOL    HW112032   0.650   5.823   4.657
 3711SOL    HW212033   0.702   5.671   4.688
 3712SOL     OW12034   2.130   5.710   4.487
 3712SOL    HW112035   2.177   5.623   4.476
 3712SOL    HW212036   2.050   5.713   4.427
 3713SOL     OW12037   6.104   0.570   4.259
 3713SOL    HW112038   6.174   0.641   4.269
 3713SOL    HW212039   6.102   0.513   4.342
 3714SOL     OW12040   0.693   4.492   0.681
 3714SOL    HW112041   0.694   4.438   0.598
 3714SOL    HW212042   0.599   4.506   0.711
 3715SOL     OW12043   5.676   4.888   3.788
 3715SOL    HW112044   5.641   4.904   3.880
 3715SOL    HW212045   5.774   4.907   3.785
 3716SOL     OW12046   5.449   5.374   4.889
 3716SOL    HW112047   5.447   5.474   4.889
 3716SOL    HW212048   5.381   5.339   4.825
 3717SOL     OW12049   4.810   1.063   0.648
 3717SOL    HW112050   4.717   1.077   0.682
 3717SOL    HW212051   4.873   1.050   0.725
 3718SOL     OW12052   6.074   6.592   6.633
 3718SOL    HW112053   6.117   6.662   6.690
 3718SOL    HW212054   5.975   6.594   6.648
 3719SOL     OW12055   3.351   3.869   0.066
 3719SOL    HW112056   3.318   3.953   0.023
 3719SOL    HW212057   3.379   3.804   7.014
 3720SOL     OW12058   0.331   3.115   0.607
 3720SOL    HW112059   0.232   3.123   0.613
 3720SOL    HW212060   0.373   3.199   0.641
 3721SOL     OW12061   6.510   0.315   5.508
 3721SOL    HW112062   6.451   0.279   5.580
 3721SOL    HW212063   6.458   0.325   5.423
 3722SOL     OW12064   5.828   0.042   2.400
 3722SOL    HW112065   5.852   0.086   2.487
 3722SOL    HW212066   5.746   7.004   2.414
 3723SOL     OW12067   4.422   3.560   6.784
 3723SOL    HW112068   4.468   3.482   6.826
 3723SOL    HW212069   4.403   3.540   6.688
 3724SOL     OW12070   0.549   4.576   4.687
 3724SOL    HW112071   0.489   4.602   4.611
 3724SOL    HW212072   0.630   4.634   4.686
 3725SOL     OW12073   1.430   6.131   0.574
 3725SOL    HW112074   1.464   6.038   0.564
 3725SOL    HW212075   1.473   6.191   0.507
 3726SOL     OW12076   6.116   4.149   5.877
 3726SOL    HW112077   6.189   4.112   5.819
 3726SOL    HW212078   6.029   4.107   5.853
 3727SOL     OW12079   6.556   2.752   3.743
 3727SOL    HW112080   6.476   2.703   3.779
 3727SOL    HW212081   6.640   2.709   3.778
 3728SOL     OW12082   2.521   4.057   0.910
 3728SOL    HW112083   2.431   4.023   0.938
 3728SOL    HW212084   2.590   4.025   0.974
 3729SOL     OW12085   0.103   0.865   6.014
 3729SOL    HW112086   0.188   0.862   6.066
 3729SOL    HW212087   0.092   0.956   5.975
 3730SOL     OW12088   5.206   5.275   4.745
 3730SOL    HW112089   5.110   5.251   4.733
 3730SOL    HW212090   5.262   5.218   4.686
 3731SOL     OW12091   6.783   2.004   0.220
 3731SOL    HW112092   6.813   1.927   0.164
 3731SOL    HW212093   6.843   2.012   0.300
 3732SOL     OW12094   3.690   2.865   6.999
 3732SOL    HW112095   3.761   2.927   6.967
 3732SOL    HW212096   3.603   2.913   7.004
 3733SOL     OW12097   1.459   0.369   3.741
 3733SOL    HW112098   1.537   0.315   3.772
 3733SOL    HW212099   1.377   0.311   3.741
 3734SOL     OW12100   4.116   0.428   1.092
 3734SOL    HW112101   4.120   0.528   1.085
 3734SOL    HW212102   4.020   0.399   1.097
 3735SOL     OW12103   4.740   6.642   2.959
 3735SOL    HW112104   4.799   6.643   2.879
 3735SOL    HW212105   4.667   6.574   2.946
 3736SOL     OW12106   6.784   1.221   6.882
 3736SOL    HW112107   6.810   1.191   6.974
 3736SOL    HW212108   6.689   1.252   6.883
 3737SOL     OW12109   6.304   2.140   2.474
 3737SOL    HW112110   6.319   2.207   2.547
 3737SOL    HW212111   6.282   2.051   2.515
 3738SOL     OW12112   0.067   0.193   1.653
 3738SOL    HW112113   0.023   0.252   1.585
 3738SOL    HW212114   0.021   0.203   1.741
 3739SOL     OW12115   3.223   3.584   6.883
 3739SOL    HW112116   3.141   3.528   6.867
 3739SOL    HW212117   3.273   3.547   6.961
 3740SOL     OW12118   4.526   5.771   6.785
 3740SOL    HW112119   4.437   5.727   6.775
 3740SOL    HW212120   4.596   5.701   6.798
 3741SOL     OW12121   5.540   3.018   0.544
 3741SOL    HW112122   5.540   2.979   0.636
 3741SOL    HW212123   5.447   3.018   0.508
 3742SOL     OW12124   4.159   6.045   1.315
 3742SOL    HW112125   4.208   6.111   1.258
 3742SOL    HW212126   4.115   5.977   1.257
 3743SOL     OW12127   3.641   4.079   1.141
 3743SOL    HW112128   3.562   4.069   1.081
 3743SOL    HW212129   3.675   3.989   1.168
 3744SOL     OW12130   6.678   6.375   2.645
 3744SOL    HW112131   6.632   6.460   2.617
 3744SOL    HW212132   6.775   6.380   2.621
 3745SOL     OW12133   4.754   2.800   2.349
 3745SOL    HW112134   4.800   2.877   2.306
 3745SOL    HW212135   4.820   2.747   2.403
 3746SOL     OW12136   6.300   0.750   4.292
 3746SOL    HW112137   6.347   0.767   4.379
 3746SOL    HW212138   6.355   0.786   4.217
 3747SOL     OW12139   3.596   6.162   5.570
 3747SOL    HW112140   3.658   6.236   5.545
 3747SOL    HW212141   3.572   6.169   5.667
 3748SOL     OW12142   4.966   2.427   3.510
 3748SOL    HW112143   4.941   2.458   3.602
 3748SOL    HW212144   4.910   2.348   3.485
 3749SOL     OW12145   6.325   6.371   2.511
 3749SOL    HW112146   6.285   6.455   2.547
 3749SOL    HW212147   6.395   6.394   2.443
 3750SOL     OW12148   5.242   4.025   0.997
 3750SOL    HW112149   5.159   3.976   1.026
 3750SOL    HW212150   5.309   3.960   0.963
 3751SOL     OW12151   1.258   4.244   1.907
 3751SOL    HW112152   1.308   4.163   1.937
 3751SOL    HW212153   1.203   4.280   1.982
 3752SOL     OW12154   0.528   6.320   5.924
 3752SOL    HW112155   0.602   6.278   5.977
 3752SOL    HW212156   0.562   6.348   5.834
 3753SOL     OW12157   0.145   1.051   4.600
 3753SOL    HW112158   0.130   0.992   4.521
 3753SOL    HW212159   0.226   1.108   4.585
 3754SOL     OW12160   6.592   6.498   1.821
 3754SOL    HW112161   6.504   6.493   1.773
 3754SOL    HW212162   6.604   6.417   1.878
 3755SOL     OW12163   5.096   2.614   2.883
 3755SOL    HW112164   5.074   2.623   2.980
 3755SOL    HW212165   5.163   2.542   2.870
 3756SOL     OW12166   3.267   0.606   6.848
 3756SOL    HW112167   3.189   0.599   6.910
 3756SOL    HW212168   3.346   0.561   6.889
 3757SOL     OW12169   3.456   4.670   6.910
 3757SOL    HW112170   3.414   4.682   7.000
 3757SOL    HW212171   3.442   4.753   6.856
 3758SOL     OW12172   0.366   0.599   3.400
 3758SOL    HW112173   0.285   0.543   3.410
 3758SOL    HW212174   0.350   0.689   3.440
 3759SOL     OW12175   4.958   5.073   0.212
 3759SOL    HW112176   5.027   5.143   0.195
 3759SOL    HW212177   4.989   4.986   0.173
 3760SOL     OW12178   2.233   2.497   5.229
 3760SOL    HW112179   2.324   2.531   5.208
 3760SOL    HW212180   2.222   2.487   5.328
 3761SOL     OW12181   0.091   6.915   4.190
 3761SOL    HW112182   0.120   6.819   4.179
 3761SOL    HW212183   0.002   6.928   4.148
 3762SOL     OW12184   0.816   3.690   6.509
 3762SOL    HW112185   0.784   3.610   6.458
 3762SOL    HW212186   0.911   3.676   6.537
 3763SOL     OW12187   6.506   3.521   5.892
 3763SOL    HW112188   6.475   3.570   5.974
 3763SOL    HW212189   6.605   3.526   5.885
 3764SOL     OW12190   2.132   6.834   3.836
 3764SOL    HW112191   2.141   6.740   3.802
 3764SOL    HW212192   2.044   6.844   3.883
 3765SOL     OW12193   6.390   1.064   3.613
 3765SOL    HW112194   6.473   1.056   3.669
 3765SOL    HW212195   6.406   1.129   3.539
 3766SOL     OW12196   1.350   0.287   4.889
 3766SOL    HW112197   1.306   0.309   4.976
 3766SOL    HW212198   1.426   0.224   4.905
 3767SOL     OW12199   1.573   4.060   0.973
 3767SOL    HW112200   1.616   4.037   1.060
 3767SOL    HW212201   1.510   4.136   0.986
 3768SOL     OW12202   4.574   6.433   0.695
 3768SOL    HW112203   4.555   6.519   0.647
 3768SOL    HW212204   4.658   6.443   0.748
 3769SOL     OW12205   4.516   6.576   5.078
 3769SOL    HW112206   4.434   6.520   5.073
 3769SOL    HW212207   4.520   6.637   4.999
 3770SOL     OW12208   2.162   1.252   0.374
 3770SOL    HW112209   2.147   1.305   0.290
 3770SOL    HW212210   2.195   1.314   0.446
 3771SOL     OW12211   4.829   1.425   5.196
 3771SOL    HW112212   4.834   1.455   5.291
 3771SOL    HW212213   4.915   1.381   5.170
 3772SOL     OW12214   5.041   1.252   2.720
 3772SOL    HW112215   4.975   1.261   2.646
 3772SOL    HW212216   5.133   1.273   2.686
 3773SOL     OW12217   6.550   2.538   6.728
 3773SOL    HW112218   6.596   2.619   6.694
 3773SOL    HW212219   6.519   2.554   6.822
 3774SOL     OW12220   0.979   1.657   1.992
 3774SOL    HW112221   0.971   1.730   1.924
 3774SOL    HW212222   0.887   1.634   2.026
 3775SOL     OW12223   5.656   2.901   3.612
 3775SOL    HW112224   5.698   2.992   3.613
 3775SOL    HW212225   5.670   2.857   3.701
 3776SOL     OW12226   3.206   2.792   6.539
 3776SOL    HW112227   3.294   2.807   6.585
 3776SOL    HW212228   3.136   2.851   6.581
 3777SOL     OW12229   1.492   4.222   3.575
 3777SOL    HW112230   1.543   4.268   3.502
 3777SOL    HW212231   1.554   4.200   3.650
 3778SOL     OW12232   2.495   6.595   2.071
 3778SOL    HW112233   2.417   6.657   2.074
 3778SOL    HW212234   2.481   6.528   1.998
 3779SOL     OW12235   3.001   4.901   6.576
 3779SOL    HW112236   2.971   4.992   6.547
 3779SOL    HW212237   3.064   4.909   6.653
 3780SOL     OW12238   2.776   0.265   4.741
 3780SOL    HW112239   2.680   0.284   4.722
 3780SOL    HW212240   2.790   0.261   4.840
 3781SOL     OW12241   2.950   5.491   4.724
 3781SOL    HW112242   2.986   5.397   4.731
 3781SOL    HW212243   2.949   5.519   4.628
 3782SOL     OW12244   2.300   1.466   3.202
 3782SOL    HW112245   2.215   1.464   3.254
 3782SOL    HW212246   2.279   1.466   3.104
 3783SOL     OW12247   4.898   5.762   5.924
 3783SOL    HW112248   4.863   5.853   5.947
 3783SOL    HW212249   4.822   5.699   5.910
 3784SOL     OW12250   4.621   1.410   3.686
 3784SOL    HW112251   4.529   1.430   3.654
 3784SOL    HW212252   4.660   1.491   3.729
 3785SOL     OW12253   1.533   1.343   1.787
 3785SOL    HW112254   1.468   1.350   1.711
 3785SOL    HW212255   1.604   1.277   1.764
 3786SOL     OW12256   3.541   5.254   2.693
 3786SOL    HW112257   3.638   5.276   2.701
 3786SOL    HW212258   3.510   5.211   2.778
 3787SOL     OW12259   4.136   1.106   4.306
 3787SOL    HW112260   4.221   1.103   4.358
 3787SOL    HW212261   4.131   1.193   4.257
 3788SOL     OW12262   5.910   3.728   1.954
 3788SOL    HW112263   5.894   3.687   1.864
 3788SOL    HW212264   6.009   3.736   1.969
 3789SOL     OW12265   0.891   4.960   2.849
 3789SOL    HW112266   0.899   5.052   2.887
 3789SOL    HW212267   0.821   4.960   2.776
 3790SOL     OW12268   2.186   3.220   3.812
 3790SOL    HW112269   2.231   3.152   3.754
 3790SOL    HW212270   2.252   3.291   3.839
 3791SOL     OW12271   5.137   0.299   2.577
 3791SOL    HW112272   5.204   0.317   2.505
 3791SOL    HW212273   5.053   0.351   2.559
 3792SOL     OW12274   0.215   6.837   6.137
 3792SOL    HW112275   0.181   6.828   6.043
 3792SOL    HW212276   0.157   6.784   6.199
 3793SOL     OW12277   2.150   6.461   2.907
 3793SOL    HW112278   2.066   6.466   2.961
 3793SOL    HW212279   2.156   6.372   2.861
 3794SOL     OW12280   4.136   6.089   2.426
 3794SOL    HW112281   4.156   6.131   2.337
 3794SOL    HW212282   4.038   6.090   2.443
 3795SOL     OW12283   4.848   0.247   0.471
 3795SOL    HW112284   4.766   0.191   0.466
 3795SOL    HW212285   4.822   0.344   0.470
 3796SOL     OW12286   1.940   2.502   1.272
 3796SOL    HW112287   1.957   2.405   1.286
 3796SOL    HW212288   1.986   2.555   1.343
 3797SOL     OW12289   0.335   5.335   2.575
 3797SOL    HW112290   0.280   5.252   2.588
 3797SOL    HW212291   0.281   5.404   2.527
 3798SOL     OW12292   1.129   4.473   1.561
 3798SOL    HW112293   1.035   4.500   1.538
 3798SOL    HW212294   1.156   4.519   1.646
 3799SOL     OW12295   1.479   0.513   5.190
 3799SOL    HW112296   1.558   0.468   5.149
 3799SOL    HW212297   1.463   0.601   5.145
 3800SOL     OW12298   4.946   2.395   5.076
 3800SOL    HW112299   5.018   2.336   5.113
 3800SOL    HW212300   4.964   2.414   4.980
 3801SOL     OW12301   6.830   0.445   6.649
 3801SOL    HW112302   6.871   0.526   6.690
 3801SOL    HW212303   6.775   0.472   6.570
 3802SOL     OW12304   1.542   2.438   5.599
 3802SOL    HW112305   1.622   2.472   5.649
 3802SOL    HW212306   1.460   2.479   5.638
 3803SOL     OW12307   3.748   1.453   1.132
 3803SOL    HW112308   3.701   1.369   1.159
 3803SOL    HW212309   3.766   1.508   1.214
 3804SOL     OW12310   4.982   2.635   5.743
 3804SOL    HW112311   5.040   2.684   5.678
 3804SOL    HW212312   4.921   2.700   5.789
 3805SOL     OW12313   2.136   4.013   1.084
 3805SOL    HW112314   2.046   4.055   1.078
 3805SOL    HW212315   2.154   3.959   1.002
 3806SOL     OW12316   3.131   1.483   0.523
 3806SOL    HW112317   3.055   1.479   0.458
 3806SOL    HW212318   3.099   1.451   0.613
 3807SOL     OW12319   1.390   6.756   3.169
 3807SOL    HW112320   1.459   6.690   3.137
 3807SOL    HW212321   1.432   6.847   3.174
 3808SOL     OW12322   3.418   0.719   0.553
 3808SOL    HW112323   3.455   0.797   0.604
 3808SOL    HW212324   3.428   0.636   0.609
 3809SOL     OW12325   4.363   0.579   6.381
 3809SOL    HW112326   4.389   0.676   6.374
 3809SOL    HW212327   4.323   0.562   6.470
 3810SOL     OW12328   2.910   3.291   5.433
 3810SOL    HW112329   2.921   3.203   5.386
 3810SOL    HW212330   2.999   3.327   5.459
 3811SOL     OW12331   0.134   0.593   6.277
 3811SOL    HW112332   0.117   0.546   6.190
 3811SOL    HW212333   0.219   0.645   6.271
 3812SOL     OW12334   5.625   1.587   5.666
 3812SOL    HW112335   5.616   1.607   5.763
 3812SOL    HW212336   5.547   1.533   5.635
 3813SOL     OW12337   3.880   4.799   1.846
 3813SOL    HW112338   3.949   4.750   1.899
 3813SOL    HW212339   3.793   4.798   1.895
 3814SOL     OW12340   1.423   6.471   2.572
 3814SOL    HW112341   1.420   6.571   2.565
 3814SOL    HW212342   1.336   6.433   2.540
 3815SOL     OW12343   5.964   2.089   1.868
 3815SOL    HW112344   5.987   2.096   1.965
 3815SOL    HW212345   6.014   2.159   1.817
 3816SOL     OW12346   0.397   6.699   1.845
 3816SOL    HW112347   0.389   6.739   1.754
 3816SOL    HW212348   0.347   6.755   1.911
 3817SOL     OW12349   5.415   1.431   5.528
 3817SOL    HW112350   5.365   1.367   5.586
 3817SOL    HW212351   5.425   1.392   5.436
 3818SOL     OW12352   4.999   5.337   2.783
 3818SOL    HW112353   5.065   5.359   2.711
 3818SOL    HW212354   5.040   5.357   2.872
 3819SOL     OW12355   5.635   4.259   6.187
 3819SOL    HW112356   5.638   4.320   6.108
 3819SOL    HW212357   5.682   4.303   6.264
 3820SOL     OW12358   5.551   6.312   4.178
 3820SOL    HW112359   5.510   6.334   4.266
 3820SOL    HW212360   5.481   6.280   4.115
 3821SOL     OW12361   0.698   4.211   1.508
 3821SOL    HW112362   0.611   4.183   1.468
 3821SOL    HW212363   0.771   4.195   1.441
 3822SOL     OW12364   1.825   4.816   2.176
 3822SOL    HW112365   1.888   4.892   2.165
 3822SOL    HW212366   1.788   4.790   2.087
 3823SOL     OW12367   2.869   2.647   5.365
 3823SOL    HW112368   2.842   2.743   5.360
 3823SOL    HW212369   2.968   2.640   5.351
 3824SOL     OW12370   6.790   2.366   6.586
 3824SOL    HW112371   6.708   2.357   6.529
 3824SOL    HW212372   6.871   2.346   6.532
 3825SOL     OW12373   6.586   6.970   6.220
 3825SOL    HW112374   6.628   6.905   6.283
 3825SOL    HW212375   6.551   0.029   6.271
 3826SOL     OW12376   6.676   2.422   0.880
 3826SOL    HW112377   6.694   2.514   0.912
 3826SOL    HW212378   6.635   2.368   0.954
 3827SOL     OW12379   4.926   3.067   0.988
 3827SOL    HW112380   5.003   3.117   0.950
 3827SOL    HW212381   4.941   2.969   0.976
 3828SOL     OW12382   4.138   0.761   1.706
 3828SOL    HW112383   4.198   0.684   1.725
 3828SOL    HW212384   4.166   0.839   1.763
 3829SOL     OW12385   0.891   5.546   3.697
 3829SOL    HW112386   0.848   5.635   3.684
 3829SOL    HW212387   0.829   5.485   3.746
 3830SOL     OW12388   3.154   0.643   4.810
 3830SOL    HW112389   3.250   0.646   4.782
 3830SOL    HW212390   3.132   0.724   4.863
 3831SOL     OW12391   4.118   1.852   2.230
 3831SOL    HW112392   4.062   1.781   2.273
 3831SOL    HW212393   4.214   1.837   2.254
 3832SOL     OW12394   5.567   6.898   2.481
 3832SOL    HW112395   5.488   6.937   2.434
 3832SOL    HW212396   5.543   6.809   2.519
 3833SOL     OW12397   1.496   5.541   0.286
 3833SOL    HW112398   1.574   5.585   0.332
 3833SOL    HW212399   1.456   5.473   0.347
 3834SOL     OW12400   2.623   2.278   0.815
 3834SOL    HW112401   2.631   2.211   0.741
 3834SOL    HW212402   2.575   2.359   0.781
 3835SOL     OW12403   3.506   5.933   4.481
 3835SOL    HW112404   3.594   5.919   4.437
 3835SOL    HW212405   3.511   6.015   4.539
 3836SOL     OW12406   1.742   3.282   5.342
 3836SOL    HW112407   1.765   3.377   5.324
 3836SOL    HW212408   1.792   3.223   5.278
 3837SOL     OW12409   3.352   3.710   0.285
 3837SOL    HW112410   3.348   3.612   0.268
 3837SOL    HW212411   3.350   3.759   0.197
 3838SOL     OW12412   5.739   3.431   5.286
 3838SOL    HW112413   5.806   3.456   5.356
 3838SOL    HW212414   5.660   3.387   5.330
 3839SOL     OW12415   6.301   6.290   6.255
 3839SOL    HW112416   6.237   6.354   6.296
 3839SOL    HW212417   6.302   6.205   6.307
 3840SOL     OW12418   2.632   0.555   3.750
 3840SOL    HW112419   2.662   0.498   3.674
 3840SOL    HW212420   2.686   0.532   3.832
 3841SOL     OW12421   0.369   4.004   4.851
 3841SOL    HW112422   0.299   3.933   4.847
 3841SOL    HW212423   0.338   4.079   4.909
 3842SOL     OW12424   1.693   4.834   6.561
 3842SOL    HW112425   1.645   4.814   6.475
 3842SOL    HW212426   1.627   4.838   6.636
 3843SOL     OW12427   5.808   4.062   0.575
 3843SOL    HW112428   5.779   4.082   0.668
 3843SOL    HW212429   5.797   3.964   0.556
 3844SOL     OW12430   2.494   3.921   6.119
 3844SOL    HW112431   2.461   3.839   6.072
 3844SOL    HW212432   2.545   3.978   6.055
 3845SOL     OW12433   3.230   3.621   3.710
 3845SOL    HW112434   3.273   3.628   3.620
 3845SOL    HW212435   3.131   3.608   3.698
 3846SOL     OW12436   0.116   3.958   3.761
 3846SOL    HW112437   0.174   3.889   3.804
 3846SOL    HW212438   0.020   3.934   3.777
 3847SOL     OW12439   0.832   7.001   0.973
 3847SOL    HW112440   0.912   6.963   0.927
 3847SOL    HW212441   0.815   0.075   0.940
 3848SOL     OW12442   3.113   5.101   0.851
 3848SOL    HW112443   3.211   5.114   0.868
 3848SOL    HW212444   3.074   5.186   0.817
 3849SOL     OW12445   2.174   1.835   5.892
 3849SOL    HW112446   2.267   1.817   5.860
 3849SOL    HW212447   2.173   1.837   5.992
 3850SOL     OW12448   2.401   3.588   1.387
 3850SOL    HW112449   2.387   3.571   1.290
 3850SOL    HW212450   2.351   3.671   1.414
 3851SOL     OW12451   2.190   2.944   1.585
 3851SOL    HW112452   2.288   2.958   1.603
 3851SOL    HW212453   2.171   2.957   1.488
 3852SOL     OW12454   4.697   0.950   5.894
 3852SOL    HW112455   4.761   0.992   5.830
 3852SOL    HW212456   4.623   1.014   5.913
 3853SOL     OW12457   1.470   2.948   2.156
 3853SOL    HW112458   1.565   2.966   2.182
 3853SOL    HW212459   1.457   2.849   2.145
 3854SOL     OW12460   1.836   3.194   4.836
 3854SOL    HW112461   1.793   3.155   4.755
 3854SOL    HW212462   1.931   3.219   4.816
 3855SOL     OW12463   0.226   1.705   4.997
 3855SOL    HW112464   0.321   1.715   5.028
 3855SOL    HW212465   0.177   1.790   5.014
 3856SOL     OW12466   0.627   0.052   5.603
 3856SOL    HW112467   0.661   0.077   5.694
 3856SOL    HW212468   0.685   0.092   5.533
 3857SOL     OW12469   1.089   6.866   6.805
 3857SOL    HW112470   1.003   6.820   6.826
 3857SOL    HW212471   1.103   6.867   6.706
 3858SOL     OW12472   2.411   5.218   6.880
 3858SOL    HW112473   2.475   5.156   6.926
 3858SOL    HW212474   2.356   5.166   6.815
 3859SOL     OW12475   6.856   2.635   1.300
 3859SOL    HW112476   6.828   2.677   1.386
 3859SOL    HW212477   6.809   2.547   1.289
 3860SOL     OW12478   2.046   6.435   5.151
 3860SOL    HW112479   2.011   6.430   5.058
 3860SOL    HW212480   2.028   6.349   5.198
 3861SOL     OW12481   4.101   4.296   6.956
 3861SOL    HW112482   4.108   4.341   6.867
 3861SOL    HW212483   4.187   4.249   6.976
 3862SOL     OW12484   0.882   5.181   5.938
 3862SOL    HW112485   0.963   5.232   5.968
 3862SOL    HW212486   0.900   5.083   5.942
 3863SOL     OW12487   2.954   3.364   0.683
 3863SOL    HW112488   2.908   3.404   0.604
 3863SOL    HW212489   3.047   3.398   0.689
 3864SOL     OW12490   2.972   1.531   0.273
 3864SOL    HW112491   2.912   1.492   0.203
 3864SOL    HW212492   3.067   1.519   0.245
 3865SOL     OW12493   4.170   0.931   2.459
 3865SOL    HW112494   4.217   0.901   2.376
 3865SOL    HW212495   4.139   0.851   2.511
 3866SOL     OW12496   3.478   6.456   6.331
 3866SOL    HW112497   3.452   6.505   6.248
 3866SOL    HW212498   3.402   6.398   6.361
 3867SOL     OW12499   1.642   4.346   3.374
 3867SOL    HW112500   1.731   4.313   3.342
 3867SOL    HW212501   1.649   4.444   3.395
 3868SOL     OW12502   1.665   5.314   2.716
 3868SOL    HW112503   1.733   5.245   2.693
 3868SOL    HW212504   1.596   5.275   2.777
 3869SOL     OW12505   1.427   1.603   3.777
 3869SOL    HW112506   1.457   1.508   3.769
 3869SOL    HW212507   1.503   1.660   3.809
 3870SOL     OW12508   4.028   3.879   0.517
 3870SOL    HW112509   4.109   3.911   0.567
 3870SOL    HW212510   4.054   3.858   0.423
 3871SOL     OW12511   2.873   1.547   4.369
 3871SOL    HW112512   2.794   1.495   4.403
 3871SOL    HW212513   2.844   1.606   4.294
 3872SOL     OW12514   4.080   3.708   0.310
 3872SOL    HW112515   3.997   3.709   0.366
 3872SOL    HW212516   4.088   3.619   0.264
 3873SOL     OW12517   5.310   4.624   1.766
 3873SOL    HW112518   5.350   4.701   1.817
 3873SOL    HW212519   5.213   4.617   1.787
 3874SOL     OW12520   5.028   6.100   6.302
 3874SOL    HW112521   5.090   6.023   6.288
 3874SOL    HW212522   4.995   6.101   6.396
 3875SOL     OW12523   2.267   4.122   0.370
 3875SOL    HW112524   2.271   4.056   0.445
 3875SOL    HW212525   2.317   4.086   0.291
 3876SOL     OW12526   5.516   4.006   2.292
 3876SOL    HW112527   5.609   3.970   2.303
 3876SOL    HW212528   5.495   4.069   2.366
 3877SOL     OW12529   5.419   1.488   1.992
 3877SOL    HW112530   5.449   1.395   1.969
 3877SOL    HW212531   5.353   1.519   1.924
 3878SOL     OW12532   4.601   6.133   4.610
 3878SOL    HW112533   4.663   6.196   4.657
 3878SOL    HW212534   4.627   6.039   4.631
 3879SOL     OW12535   2.906   5.560   1.315
 3879SOL    HW112536   2.941   5.619   1.388
 3879SOL    HW212537   2.969   5.483   1.302
 3880SOL     OW12538   5.583   2.288   4.135
 3880SOL    HW112539   5.526   2.250   4.062
 3880SOL    HW212540   5.629   2.213   4.183
 3881SOL     OW12541   1.300   5.246   0.938
 3881SOL    HW112542   1.211   5.281   0.910
 3881SOL    HW212543   1.292   5.197   1.025
 3882SOL     OW12544   0.999   5.861   6.722
 3882SOL    HW112545   1.083   5.881   6.670
 3882SOL    HW212546   0.944   5.944   6.729
 3883SOL     OW12547   3.174   2.263   6.355
 3883SOL    HW112548   3.274   2.251   6.351
 3883SOL    HW212549   3.151   2.333   6.423
 3884SOL     OW12550   2.018   4.933   5.567
 3884SOL    HW112551   2.009   4.927   5.666
 3884SOL    HW212552   2.080   5.007   5.543
 3885SOL     OW12553   0.178   2.071   5.176
 3885SOL    HW112554   0.164   2.029   5.086
 3885SOL    HW212555   0.183   1.999   5.246
 3886SOL     OW12556   0.323   6.295   5.419
 3886SOL    HW112557   0.279   6.210   5.392
 3886SOL    HW212558   0.254   6.365   5.436
 3887SOL     OW12559   5.682   3.060   4.740
 3887SOL    HW112560   5.644   3.080   4.650
 3887SOL    HW212561   5.646   2.973   4.773
 3888SOL     OW12562   6.031   2.087   2.167
 3888SOL    HW112563   6.013   2.109   2.262
 3888SOL    HW212564   6.127   2.060   2.156
 3889SOL     OW12565   6.586   5.751   0.031
 3889SOL    HW112566   6.574   5.848   0.051
 3889SOL    HW212567   6.657   5.740   6.980
 3890SOL     OW12568   6.438   3.204   2.720
 3890SOL    HW112569   6.435   3.285   2.778
 3890SOL    HW212570   6.516   3.210   2.658
 3891SOL     OW12571   5.432   5.133   6.259
 3891SOL    HW112572   5.399   5.225   6.281
 3891SOL    HW212573   5.493   5.102   6.331
 3892SOL     OW12574   5.669   5.637   4.209
 3892SOL    HW112575   5.721   5.720   4.187
 3892SOL    HW212576   5.582   5.639   4.161
 3893SOL     OW12577   2.895   6.275   3.997
 3893SOL    HW112578   2.849   6.237   4.078
 3893SOL    HW212579   2.852   6.362   3.973
 3894SOL     OW12580   5.082   5.603   6.785
 3894SOL    HW112581   5.005   5.661   6.758
 3894SOL    HW212582   5.157   5.661   6.817
 3895SOL     OW12583   1.967   1.954   5.752
 3895SOL    HW112584   2.011   1.926   5.837
 3895SOL    HW212585   1.872   1.922   5.752
 3896SOL     OW12586   6.669   2.951   6.382
 3896SOL    HW112587   6.727   2.875   6.350
 3896SOL    HW212588   6.722   3.011   6.441
 3897SOL     OW12589   3.256   6.618   3.211
 3897SOL    HW112590   3.285   6.523   3.200
 3897SOL    HW212591   3.334   6.679   3.194
 3898SOL     OW12592   2.911   3.436   4.548
 3898SOL    HW112593   2.813   3.432   4.569
 3898SOL    HW212594   2.952   3.346   4.565
 3899SOL     OW12595   4.135   1.816   5.546
 3899SOL    HW112596   4.109   1.773   5.632
 3899SOL    HW212597   4.171   1.747   5.483
 3900SOL     OW12598   0.107   2.773   4.052
 3900SOL    HW112599   0.032   2.838   4.069
 3900SOL    HW212600   0.193   2.823   4.047
 3901SOL     OW12601   2.603   5.318   5.312
 3901SOL    HW112602   2.627   5.370   5.394
 3901SOL    HW212603   2.533   5.367   5.260
 3902SOL     OW12604   4.391   4.600   2.947
 3902SOL    HW112605   4.413   4.605   3.045
 3902SOL    HW212606   4.432   4.518   2.908
 3903SOL     OW12607   4.453   3.487   5.831
 3903SOL    HW112608   4.504   3.566   5.798
 3903SOL    HW212609   4.487   3.404   5.786
 3904SOL     OW12610   2.052   6.495   0.208
 3904SOL    HW112611   2.145   6.490   0.246
 3904SOL    HW212612   1.985   6.482   0.282
 3905SOL     OW12613   5.645   0.180   6.455
 3905SOL    HW112614   5.627   0.149   6.362
 3905SOL    HW212615   5.633   0.280   6.459
 3906SOL     OW12616   0.192   6.401   4.542
 3906SOL    HW112617   0.133   6.474   4.578
 3906SOL    HW212618   0.270   6.388   4.603
 3907SOL     OW12619   0.785   1.672   4.981
 3907SOL    HW112620   0.781   1.766   5.014
 3907SOL    HW212621   0.861   1.625   5.024
 3908SOL     OW12622   2.517   1.076   4.439
 3908SOL    HW112623   2.422   1.051   4.422
 3908SOL    HW212624   2.576   0.998   4.418
 3909SOL     OW12625   5.214   3.369   1.584
 3909SOL    HW112626   5.257   3.328   1.665
 3909SOL    HW212627   5.116   3.378   1.599
 3910SOL     OW12628   2.882   2.612   1.275
 3910SOL    HW112629   2.945   2.569   1.340
 3910SOL    HW212630   2.824   2.678   1.322
 3911SOL     OW12631   0.443   0.940   1.432
 3911SOL    HW112632   0.372   0.971   1.494
 3911SOL    HW212633   0.504   0.877   1.480
 3912SOL     OW12634   4.344   4.163   6.911
 3912SOL    HW112635   4.404   4.219   6.969
 3912SOL    HW212636   4.368   4.067   6.921
 3913SOL     OW12637   4.148   5.657   1.666
 3913SOL    HW112638   4.195   5.719   1.603
 3913SOL    HW212639   4.105   5.711   1.739
 3914SOL     OW12640   6.467   1.896   0.143
 3914SOL    HW112641   6.492   1.930   0.234
 3914SOL    HW212642   6.368   1.884   0.138
 3915SOL     OW12643   5.100   0.509   5.485
 3915SOL    HW112644   5.172   0.538   5.422
 3915SOL    HW212645   5.109   0.559   5.571
 3916SOL     OW12646   1.690   2.702   2.308
 3916SOL    HW112647   1.657   2.721   2.401
 3916SOL    HW212648   1.617   2.663   2.253
 3917SOL     OW12649   4.010   4.870   2.205
 3917SOL    HW112650   3.912   4.853   2.218
 3917SOL    HW212651   4.059   4.842   2.287
 3918SOL     OW12652   5.115   0.089   0.751
 3918SOL    HW112653   5.120   0.189   0.742
 3918SOL    HW212654   5.107   0.065   0.848
 3919SOL     OW12655   4.934   5.772   3.659
 3919SOL    HW112656   4.843   5.738   3.636
 3919SOL    HW212657   4.949   5.861   3.616
 3920SOL     OW12658   3.286   1.686   5.411
 3920SOL    HW112659   3.274   1.777   5.450
 3920SOL    HW212660   3.309   1.693   5.314
 3921SOL     OW12661   1.550   3.775   5.984
 3921SOL    HW112662   1.631   3.829   6.010
 3921SOL    HW212663   1.536   3.784   5.886
 3922SOL     OW12664   4.899   3.049   3.177
 3922SOL    HW112665   4.882   3.147   3.179
 3922SOL    HW212666   4.929   3.022   3.086
 3923SOL     OW12667   6.233   1.688   1.705
 3923SOL    HW112668   6.232   1.659   1.801
 3923SOL    HW212669   6.141   1.715   1.677
 3924SOL     OW12670   4.792   4.648   4.688
 3924SOL    HW112671   4.845   4.635   4.771
 3924SOL    HW212672   4.740   4.565   4.668
 3925SOL     OW12673   4.023   5.923   1.786
 3925SOL    HW112674   4.120   5.946   1.777
 3925SOL    HW212675   3.968   5.994   1.743
 3926SOL     OW12676   0.861   5.978   5.080
 3926SOL    HW112677   0.852   5.879   5.071
 3926SOL    HW212678   0.822   6.022   4.999
 3927SOL     OW12679   5.805   1.073   5.242
 3927SOL    HW112680   5.761   1.086   5.331
 3927SOL    HW212681   5.872   1.145   5.227
 3928SOL     OW12682   4.216   5.710   2.312
 3928SOL    HW112683   4.241   5.709   2.409
 3928SOL    HW212684   4.284   5.762   2.261
 3929SOL     OW12685   0.741   1.724   5.961
 3929SOL    HW112686   0.652   1.691   5.931
 3929SOL    HW212687   0.788   1.769   5.884
 3930SOL     OW12688   1.504   5.520   4.151
 3930SOL    HW112689   1.573   5.564   4.093
 3930SOL    HW212690   1.473   5.585   4.220
 3931SOL     OW12691   0.698   2.442   0.221
 3931SOL    HW112692   0.735   2.534   0.238
 3931SOL    HW212693   0.671   2.401   0.309
 3932SOL     OW12694   2.290   4.327   2.785
 3932SOL    HW112695   2.268   4.283   2.872
 3932SOL    HW212696   2.247   4.276   2.711
 3933SOL     OW12697   2.177   5.875   1.390
 3933SOL    HW112698   2.097   5.816   1.394
 3933SOL    HW212699   2.172   5.943   1.464
 3934SOL     OW12700   2.229   6.220   1.482
 3934SOL    HW112701   2.200   6.136   1.528
 3934SOL    HW212702   2.195   6.299   1.534
 3935SOL     OW12703   6.997   2.986   4.930
 3935SOL    HW112704   0.062   2.936   4.911
 3935SOL    HW212705   6.993   3.069   4.873
 3936SOL     OW12706   0.202   4.538   4.282
 3936SOL    HW112707   0.193   4.441   4.304
 3936SOL    HW212708   0.280   4.576   4.333
 3937SOL     OW12709   1.014   6.197   0.299
 3937SOL    HW112710   1.106   6.228   0.275
 3937SOL    HW212711   1.019   6.130   0.373
 3938SOL     OW12712   0.468   3.267   0.362
 3938SOL    HW112713   0.380   3.314   0.369
 3938SOL    HW212714   0.542   3.331   0.384
 3939SOL     OW12715   1.517   6.187   3.797
 3939SOL    HW112716   1.473   6.188   3.707
 3939SOL    HW212717   1.485   6.266   3.850
 3940SOL     OW12718   2.497   5.767   6.226
 3940SOL    HW112719   2.561   5.808   6.161
 3940SOL    HW212720   2.407   5.759   6.183
 3941SOL     OW12721   5.134   5.607   2.201
 3941SOL    HW112722   5.081   5.547   2.141
 3941SOL    HW212723   5.120   5.579   2.296
 3942SOL     OW12724   6.345   6.078   6.688
 3942SOL    HW112725   6.285   6.028   6.750
 3942SOL    HW212726   6.322   6.176   6.691
 3943SOL     OW12727   1.647   3.714   6.700
 3943SOL    HW112728   1.563   3.767   6.688
 3943SOL    HW212729   1.724   3.765   6.662
 3944SOL     OW12730   4.521   3.324   6.866
 3944SOL    HW112731   4.533   3.297   6.771
 3944SOL    HW212732   4.511   3.242   6.923
 3945SOL     OW12733   6.030   0.639   3.620
 3945SOL    HW112734   6.034   0.626   3.521
 3945SOL    HW212735   6.078   0.723   3.645
 3946SOL     OW12736   0.197   3.031   0.113
 3946SOL    HW112737   0.183   2.935   0.136
 3946SOL    HW212738   0.292   3.046   0.087
 3947SOL     OW12739   5.247   6.507   2.132
 3947SOL    HW112740   5.252   6.596   2.178
 3947SOL    HW212741   5.278   6.436   2.195
 3948SOL     OW12742   2.037   1.781   5.268
 3948SOL    HW112743   2.037   1.824   5.358
 3948SOL    HW212744   2.124   1.798   5.222
 3949SOL     OW12745   6.595   0.007   2.429
 3949SOL    HW112746   6.625   0.028   2.336
 3949SOL    HW212747   6.583   0.092   2.480
 3950SOL     OW12748   3.062   4.512   1.640
 3950SOL    HW112749   3.160   4.533   1.647
 3950SOL    HW212750   3.022   4.508   1.731
 3951SOL     OW12751   0.549   2.731   3.915
 3951SOL    HW112752   0.587   2.650   3.872
 3951SOL    HW212753   0.545   2.718   4.014
 3952SOL     OW12754   5.672   4.189   0.059
 3952SOL    HW112755   5.760   4.207   0.015
 3952SOL    HW212756   5.687   4.155   0.152
 3953SOL     OW12757   3.092   3.938   5.799
 3953SOL    HW112758   3.170   3.969   5.744
 3953SOL    HW212759   3.043   3.866   5.750
 3954SOL     OW12760   0.265   3.346   4.764
 3954SOL    HW112761   0.324   3.364   4.685
 3954SOL    HW212762   0.282   3.416   4.834
 3955SOL     OW12763   6.357   3.667   0.305
 3955SOL    HW112764   6.269   3.621   0.311
 3955SOL    HW212765   6.351   3.757   0.348
 3956SOL     OW12766   6.460   2.893   5.215
 3956SOL    HW112767   6.529   2.827   5.245
 3956SOL    HW212768   6.419   2.937   5.295
 3957SOL     OW12769   1.053   1.921   1.878
 3957SOL    HW112770   0.964   1.965   1.870
 3957SOL    HW212771   1.084   1.893   1.787
 3958SOL     OW12772   5.220   6.154   0.948
 3958SOL    HW112773   5.232   6.087   1.021
 3958SOL    HW212774   5.308   6.198   0.928
 3959SOL     OW12775   2.267   5.288   1.802
 3959SOL    HW112776   2.330   5.348   1.753
 3959SOL    HW212777   2.231   5.219   1.739
 3960SOL     OW12778   5.267   2.991   0.524
 3960SOL    HW112779   5.232   3.038   0.605
 3960SOL    HW212780   5.199   2.995   0.452
 3961SOL     OW12781   6.627   0.577   1.416
 3961SOL    HW112782   6.629   0.651   1.482
 3961SOL    HW212783   6.589   0.495   1.459
 3962SOL     OW12784   6.856   0.346   6.270
 3962SOL    HW112785   6.908   0.399   6.203
 3962SOL    HW212786   6.915   0.321   6.346
 3963SOL     OW12787   4.932   4.490   3.873
 3963SOL    HW112788   4.908   4.584   3.849
 3963SOL    HW212789   4.874   4.426   3.823
 3964SOL     OW12790   5.629   5.404   0.375
 3964SOL    HW112791   5.657   5.330   0.436
 3964SOL    HW212792   5.627   5.490   0.426
 3965SOL     OW12793   3.636   3.788   1.181
 3965SOL    HW112794   3.595   3.784   1.272
 3965SOL    HW212795   3.566   3.768   1.112
 3966SOL     OW12796   7.017   3.970   6.015
 3966SOL    HW112797   0.028   4.052   5.967
 3966SOL    HW212798   0.031   3.889   5.966
 3967SOL     OW12799   1.781   6.280   0.265
 3967SOL    HW112800   1.832   6.204   0.306
 3967SOL    HW212801   1.817   6.367   0.300
 3968SOL     OW12802   4.662   1.751   0.965
 3968SOL    HW112803   4.662   1.683   0.891
 3968SOL    HW212804   4.590   1.729   1.030
 3969SOL     OW12805   0.093   6.610   0.920
 3969SOL    HW112806   0.106   6.516   0.889
 3969SOL    HW212807   0.181   6.657   0.922
 3970SOL     OW12808   5.124   4.223   3.946
 3970SOL    HW112809   5.192   4.295   3.928
 3970SOL    HW212810   5.055   4.259   4.008
 3971SOL     OW12811   0.226   6.332   3.943
 3971SOL    HW112812   0.231   6.296   4.036
 3971SOL    HW212813   0.314   6.370   3.917
 3972SOL     OW12814   1.050   6.807   6.266
 3972SOL    HW112815   0.954   6.778   6.260
 3972SOL    HW212816   1.078   6.846   6.178
 3973SOL     OW12817   3.580   3.113   2.853
 3973SOL    HW112818   3.521   3.037   2.878
 3973SOL    HW212819   3.603   3.107   2.756
 3974SOL     OW12820   5.139   1.076   6.805
 3974SOL    HW112821   5.054   1.025   6.817
 3974SOL    HW212822   5.192   1.072   6.890
 3975SOL     OW12823   0.139   6.528   5.428
 3975SOL    HW112824   0.182   6.609   5.468
 3975SOL    HW212825   0.058   6.555   5.377
 3976SOL     OW12826   0.589   3.012   6.376
 3976SOL    HW112827   0.494   3.035   6.395
 3976SOL    HW212828   0.631   3.085   6.322
 3977SOL     OW12829   3.068   5.555   4.987
 3977SOL    HW112830   3.006   5.539   4.910
 3977SOL    HW212831   3.156   5.589   4.952
 3978SOL     OW12832   6.377   3.735   6.756
 3978SOL    HW112833   6.368   3.695   6.847
 3978SOL    HW212834   6.290   3.726   6.707
 3979SOL     OW12835   1.039   6.356   3.278
 3979SOL    HW112836   0.948   6.379   3.313
 3979SOL    HW212837   1.061   6.261   3.299
 3980SOL     OW12838   5.042   3.967   4.000
 3980SOL    HW112839   4.989   3.993   4.081
 3980SOL    HW212840   5.105   4.040   3.976
 3981SOL     OW12841   6.819   1.653   6.083
 3981SOL    HW112842   6.832   1.687   6.176
 3981SOL    HW212843   6.799   1.555   6.087
 3982SOL     OW12844   2.258   2.892   4.217
 3982SOL    HW112845   2.252   2.819   4.285
 3982SOL    HW212846   2.333   2.873   4.154
 3983SOL     OW12847   3.285   0.005   3.870
 3983SOL    HW112848   3.278   6.966   3.789
 3983SOL    HW212849   3.347   0.081   3.850
 3984SOL     OW12850   1.952   5.903   2.029
 3984SOL    HW112851   2.049   5.882   2.044
 3984SOL    HW212852   1.914   5.945   2.111
 3985SOL     OW12853   1.910   2.919   1.544
 3985SOL    HW112854   1.815   2.935   1.518
 3985SOL    HW212855   1.915   2.905   1.643
 3986SOL     OW12856   1.258   1.949   2.522
 3986SOL    HW112857   1.262   2.048   2.518
 3986SOL    HW212858   1.327   1.915   2.585
 3987SOL     OW12859   1.544   4.062   5.080
 3987SOL    HW112860   1.568   4.099   4.989
 3987SOL    HW212861   1.627   4.048   5.133
 3988SOL     OW12862   5.105   0.158   1.573
 3988SOL    HW112863   5.067   0.251   1.573
 3988SOL    HW212864   5.189   0.156   1.628
 3989SOL     OW12865   4.201   0.659   5.782
 3989SOL    HW112866   4.204   0.758   5.767
 3989SOL    HW212867   4.194   0.612   5.694
 3990SOL     OW12868   6.983   1.848   3.504
 3990SOL    HW112869   6.931   1.877   3.424
 3990SOL    HW212870   6.942   1.765   3.543
 3991SOL     OW12871   0.617   1.956   3.524
 3991SOL    HW112872   0.525   1.990   3.501
 3991SOL    HW212873   0.654   1.907   3.445
 3992SOL     OW12874   5.770   3.299   6.365
 3992SOL    HW112875   5.708   3.347   6.427
 3992SOL    HW212876   5.773   3.347   6.277
 3993SOL     OW12877   2.010   0.863   4.094
 3993SOL    HW112878   1.942   0.878   4.166
 3993SOL    HW212879   2.016   0.944   4.036
 3994SOL     OW12880   2.923   2.160   3.426
 3994SOL    HW112881   2.877   2.174   3.514
 3994SOL    HW212882   3.015   2.124   3.441
 3995SOL     OW12883   1.519   3.168   1.974
 3995SOL    HW112884   1.509   3.071   1.994
 3995SOL    HW212885   1.603   3.203   2.016
 3996SOL     OW12886   5.913   6.619   5.250
 3996SOL    HW112887   5.900   6.524   5.277
 3996SOL    HW212888   5.856   6.678   5.307
 3997SOL     OW12889   5.407   3.413   3.416
 3997SOL    HW112890   5.363   3.332   3.377
 3997SOL    HW212891   5.413   3.484   3.346
 3998SOL     OW12892   4.570   1.904   3.673
 3998SOL    HW112893   4.521   1.875   3.756
 3998SOL    HW212894   4.540   1.848   3.596
 3999SOL     OW12895   4.165   3.427   0.970
 3999SOL    HW112896   4.205   3.481   1.044
 3999SOL    HW212897   4.166   3.481   0.886
 4000SOL     OW12898   2.089   5.114   2.676
 4000SOL    HW112899   2.174   5.158   2.648
 4000SOL    HW212900   2.078   5.122   2.775
 4001SOL     OW12901   6.791   5.683   4.822
 4001SOL    HW112902   6.875   5.687   4.875
 4001SOL    HW212903   6.787   5.760   4.759
 4002SOL     OW12904   4.125   3.624   4.430
 4002SOL    HW112905   4.220   3.609   4.400
 4002SOL    HW212906   4.064   3.617   4.351
 4003SOL     OW12907   1.993   1.415   4.447
 4003SOL    HW112908   1.997   1.359   4.530
 4003SOL    HW212909   1.932   1.372   4.381
 4004SOL     OW12910   1.426   4.482   4.252
 4004SOL    HW112911   1.342   4.536   4.243
 4004SOL    HW212912   1.469   4.504   4.340
 4005SOL     OW12913   4.991   3.415   6.892
 4005SOL    HW112914   4.990   3.424   6.991
 4005SOL    HW212915   5.021   3.323   6.867
 4006SOL     OW12916   6.968   5.485   2.047
 4006SOL    HW112917   7.017   5.431   2.115
 4006SOL    HW212918   6.946   5.575   2.086
 4007SOL     OW12919   6.975   0.454   1.919
 4007SOL    HW112920   6.895   0.428   1.864
 4007SOL    HW212921   6.962   0.423   2.013
 4008SOL     OW12922   2.472   1.159   0.823
 4008SOL    HW112923   2.409   1.225   0.864
 4008SOL    HW212924   2.501   1.192   0.733
 4009SOL     OW12925   4.288   2.392   0.765
 4009SOL    HW112926   4.225   2.467   0.743
 4009SOL    HW212927   4.308   2.341   0.682
 4010SOL     OW12928   1.772   4.406   1.082
 4010SOL    HW112929   1.838   4.474   1.113
 4010SOL    HW212930   1.807   4.314   1.103
 4011SOL     OW12931   6.323   6.252   5.957
 4011SOL    HW112932   6.291   6.173   6.010
 4011SOL    HW212933   6.341   6.328   6.018
 4012SOL     OW12934   5.825   6.313   2.871
 4012SOL    HW112935   5.809   6.408   2.845
 4012SOL    HW212936   5.873   6.266   2.797
 4013SOL     OW12937   6.755   1.741   6.721
 4013SOL    HW112938   6.810   1.811   6.676
 4013SOL    HW212939   6.667   1.780   6.749
 4014SOL     OW12940   3.262   5.380   2.099
 4014SOL    HW112941   3.331   5.450   2.081
 4014SOL    HW212942   3.300   5.290   2.083
 4015SOL     OW12943   4.315   5.182   6.435
 4015SOL    HW112944   4.395   5.141   6.478
 4015SOL    HW212945   4.343   5.231   6.352
 4016SOL     OW12946   5.385   4.676   4.615
 4016SOL    HW112947   5.299   4.644   4.576
 4016SOL    HW212948   5.452   4.689   4.543
 4017SOL     OW12949   1.061   5.155   5.687
 4017SOL    HW112950   1.129   5.109   5.629
 4017SOL    HW212951   1.044   5.099   5.768
 4018SOL     OW12952   3.919   5.752   0.727
 4018SOL    HW112953   3.925   5.776   0.630
 4018SOL    HW212954   3.993   5.688   0.750
 4019SOL     OW12955   6.264   3.975   2.382
 4019SOL    HW112956   6.194   4.022   2.328
 4019SOL    HW212957   6.347   3.965   2.328
 4020SOL     OW12958   6.385   5.268   4.878
 4020SOL    HW112959   6.319   5.219   4.822
 4020SOL    HW212960   6.432   5.336   4.822
 4021SOL     OW12961   4.843   4.639   6.219
 4021SOL    HW112962   4.751   4.619   6.187
 4021SOL    HW212963   4.838   4.690   6.305
 4022SOL     OW12964   2.889   6.258   1.413
 4022SOL    HW112965   2.912   6.270   1.317
 4022SOL    HW212966   2.806   6.203   1.422
 4023SOL     OW12967   0.810   1.587   4.306
 4023SOL    HW112968   0.882   1.631   4.253
 4023SOL    HW212969   0.848   1.511   4.358
 4024SOL     OW12970   0.662   6.653   4.915
 4024SOL    HW112971   0.720   6.715   4.862
 4024SOL    HW212972   0.639   6.696   5.002
 4025SOL     OW12973   6.759   5.455   4.141
 4025SOL    HW112974   6.750   5.367   4.188
 4025SOL    HW212975   6.781   5.440   4.045
 4026SOL     OW12976   0.522   6.624   4.398
 4026SOL    HW112977   0.550   6.532   4.425
 4026SOL    HW212978   0.451   6.657   4.460
 4027SOL     OW12979   3.559   4.987   4.776
 4027SOL    HW112980   3.489   5.009   4.844
 4027SOL    HW212981   3.514   4.963   4.689
 4028SOL     OW12982   5.143   1.034   3.750
 4028SOL    HW112983   5.088   0.957   3.718
 4028SOL    HW212984   5.236   1.026   3.714
 4029SOL     OW12985   1.810   6.340   0.680
 4029SOL    HW112986   1.886   6.378   0.733
 4029SOL    HW212987   1.750   6.288   0.741
 4030SOL     OW12988   0.892   1.992   2.164
 4030SOL    HW112989   0.877   2.015   2.260
 4030SOL    HW212990   0.987   1.965   2.150
 4031SOL     OW12991   6.093   6.269   0.638
 4031SOL    HW112992   6.096   6.181   0.684
 4031SOL    HW212993   6.037   6.263   0.556
 4032SOL     OW12994   5.083   0.907   2.660
 4032SOL    HW112995   5.085   0.973   2.585
 4032SOL    HW212996   5.028   0.828   2.633
 4033SOL     OW12997   2.159   2.420   2.240
 4033SOL    HW112998   2.142   2.505   2.289
 4033SOL    HW212999   2.258   2.401   2.240
 4034SOL     OW13000   1.381   2.704   4.810
 4034SOL    HW113001   1.330   2.670   4.731
 4034SOL    HW213002   1.453   2.638   4.835
 4035SOL     OW13003   4.632   2.287   1.849
 4035SOL    HW113004   4.651   2.244   1.937
 4035SOL    HW213005   4.630   2.386   1.861
 4036SOL     OW13006   2.922   5.541   3.443
 4036SOL    HW113007   2.862   5.546   3.523
 4036SOL    HW213008   2.986   5.618   3.445
 4037SOL     OW13009   2.368   1.601   6.032
 4037SOL    HW113010   2.432   1.603   5.956
 4037SOL    HW213011   2.353   1.506   6.060
 4038SOL     OW13012   3.523   4.323   5.651
 4038SOL    HW113013   3.549   4.369   5.736
 4038SOL    HW213014   3.460   4.382   5.600
 4039SOL     OW13015   5.511   5.033   1.445
 4039SOL    HW113016   5.603   5.071   1.458
 4039SOL    HW213017   5.461   5.037   1.531
 4040SOL     OW13018   3.151   6.977   5.190
 4040SOL    HW113019   3.126   6.881   5.200
 4040SOL    HW213020   3.124   7.010   5.100
 4041SOL     OW13021   1.532   6.102   1.474
 4041SOL    HW113022   1.480   6.158   1.539
 4041SOL    HW213023   1.541   6.010   1.511
 4042SOL     OW13024   0.290   1.443   2.498
 4042SOL    HW113025   0.277   1.396   2.586
 4042SOL    HW213026   0.203   1.480   2.467
 4043SOL     OW13027   4.904   3.237   6.143
 4043SOL    HW113028   4.909   3.229   6.242
 4043SOL    HW213029   4.831   3.301   6.118
 4044SOL     OW13030   4.861   3.883   2.704
 4044SOL    HW113031   4.956   3.857   2.686
 4044SOL    HW213032   4.847   3.891   2.803
 4045SOL     OW13033   4.767   0.736   5.396
 4045SOL    HW113034   4.822   0.724   5.313
 4045SOL    HW213035   4.794   0.819   5.443
 4046SOL     OW13036   4.929   1.702   2.933
 4046SOL    HW113037   4.855   1.655   2.884
 4046SOL    HW213038   5.010   1.643   2.936
 4047SOL     OW13039   3.025   2.803   6.303
 4047SOL    HW113040   3.104   2.792   6.363
 4047SOL    HW213041   2.949   2.844   6.354
 4048SOL     OW13042   5.057   1.872   2.748
 4048SOL    HW113043   5.004   1.957   2.737
 4048SOL    HW213044   5.026   1.824   2.829
 4049SOL     OW13045   4.310   3.719   0.445
 4049SOL    HW113046   4.399   3.719   0.400
 4049SOL    HW213047   4.238   3.717   0.376
 4050SOL     OW13048   0.809   5.428   2.361
 4050SOL    HW113049   0.859   5.342   2.373
 4050SOL    HW213050   0.872   5.505   2.365
 4051SOL     OW13051   5.459   1.094   5.083
 4051SOL    HW113052   5.440   1.088   5.181
 4051SOL    HW213053   5.466   1.002   5.045
 4052SOL     OW13054   5.501   1.921   3.124
 4052SOL    HW113055   5.539   1.852   3.186
 4052SOL    HW213056   5.401   1.919   3.130
 4053SOL     OW13057   0.743   5.318   4.109
 4053SOL    HW113058   0.714   5.410   4.136
 4053SOL    HW213059   0.842   5.311   4.117
 4054SOL     OW13060   3.862   3.698   1.033
 4054SOL    HW113061   3.768   3.721   1.056
 4054SOL    HW213062   3.881   3.604   1.062
 4055SOL     OW13063   0.379   3.879   0.204
 4055SOL    HW113064   0.394   3.878   0.105
 4055SOL    HW213065   0.445   3.941   0.247
 4056SOL     OW13066   4.659   3.715   0.037
 4056SOL    HW113067   4.652   3.620   0.066
 4056SOL    HW213068   4.749   3.732   7.016
 4057SOL     OW13069   6.877   3.468   0.396
 4057SOL    HW113070   6.932   3.542   0.434
 4057SOL    HW213071   6.861   3.485   0.299
 4058SOL     OW13072   2.556   0.412   5.459
 4058SOL    HW113073   2.595   0.433   5.548
 4058SOL    HW213074   2.625   0.366   5.402
 4059SOL     OW13075   0.647   1.400   3.393
 4059SOL    HW113076   0.688   1.477   3.441
 4059SOL    HW213077   0.692   1.388   3.304
 4060SOL     OW13078   0.073   6.410   4.994
 4060SOL    HW113079   0.067   6.510   4.986
 4060SOL    HW213080   0.130   6.374   4.920
 4061SOL     OW13081   0.808   5.230   1.138
 4061SOL    HW113082   0.821   5.225   1.237
 4061SOL    HW213083   0.801   5.325   1.110
 4062SOL     OW13084   2.157   3.158   1.377
 4062SOL    HW113085   2.104   3.210   1.445
 4062SOL    HW213086   2.094   3.110   1.316
 4063SOL     OW13087   4.752   0.461   0.189
 4063SOL    HW113088   4.733   0.481   0.093
 4063SOL    HW213089   4.687   0.509   0.247
 4064SOL     OW13090   1.599   0.988   6.192
 4064SOL    HW113091   1.521   0.928   6.179
 4064SOL    HW213092   1.569   1.083   6.189
 4065SOL     OW13093   2.562   6.970   0.884
 4065SOL    HW113094   2.498   0.026   0.870
 4065SOL    HW213095   2.593   6.937   0.795
 4066SOL     OW13096   1.111   3.491   3.384
 4066SOL    HW113097   1.068   3.452   3.303
 4066SOL    HW213098   1.206   3.459   3.391
 4067SOL     OW13099   5.382   5.175   0.517
 4067SOL    HW113100   5.344   5.089   0.552
 4067SOL    HW213101   5.419   5.159   0.425
 4068SOL     OW13102   2.318   2.802   5.213
 4068SOL    HW113103   2.329   2.882   5.154
 4068SOL    HW213104   2.406   2.756   5.223
 4069SOL     OW13105   4.512   0.181   6.534
 4069SOL    HW113106   4.505   0.201   6.436
 4069SOL    HW213107   4.596   0.130   6.552
 4070SOL     OW13108   1.418   3.596   3.574
 4070SOL    HW113109   1.320   3.601   3.557
 4070SOL    HW213110   1.456   3.689   3.576
 4071SOL     OW13111   1.777   0.707   4.215
 4071SOL    HW113112   1.726   0.701   4.130
 4071SOL    HW213113   1.793   0.615   4.252
 4072SOL     OW13114   2.671   5.433   3.200
 4072SOL    HW113115   2.701   5.354   3.147
 4072SOL    HW213116   2.579   5.459   3.173
 4073SOL     OW13117   4.185   4.847   6.994
 4073SOL    HW113118   4.169   4.760   0.021
 4073SOL    HW213119   4.127   4.853   6.913
 4074SOL     OW13120   1.241   5.821   2.894
 4074SOL    HW113121   1.179   5.794   2.821
 4074SOL    HW213122   1.188   5.839   2.977
 4075SOL     OW13123   6.919   0.845   1.006
 4075SOL    HW113124   6.860   0.775   0.965
 4075SOL    HW213125   6.997   0.801   1.050
 4076SOL     OW13126   2.199   4.667   4.574
 4076SOL    HW113127   2.102   4.653   4.559
 4076SOL    HW213128   2.246   4.579   4.576
 4077SOL     OW13129   3.173   0.885   1.427
 4077SOL    HW113130   3.089   0.926   1.463
 4077SOL    HW213131   3.252   0.938   1.460
 4078SOL     OW13132   3.314   4.883   2.696
 4078SOL    HW113133   3.378   4.835   2.756
 4078SOL    HW213134   3.221   4.871   2.731
 4079SOL     OW13135   0.933   1.742   4.114
 4079SOL    HW113136   0.835   1.752   4.095
 4079SOL    HW213137   0.969   1.829   4.149
 4080SOL     OW13138   6.572   2.362   5.135
 4080SOL    HW113139   6.483   2.381   5.092
 4080SOL    HW213140   6.622   2.296   5.080
 4081SOL     OW13141   2.159   3.662   3.723
 4081SOL    HW113142   2.177   3.673   3.625
 4081SOL    HW213143   2.063   3.641   3.737
 4082SOL     OW13144   0.844   3.485   1.004
 4082SOL    HW113145   0.845   3.391   1.038
 4082SOL    HW213146   0.828   3.484   0.905
 4083SOL     OW13147   5.803   2.878   4.374
 4083SOL    HW113148   5.799   2.974   4.399
 4083SOL    HW213149   5.841   2.825   4.450
 4084SOL     OW13150   0.370   1.493   4.033
 4084SOL    HW113151   0.461   1.456   4.050
 4084SOL    HW213152   0.334   1.534   4.117
 4085SOL     OW13153   2.768   6.387   0.427
 4085SOL    HW113154   2.862   6.386   0.393
 4085SOL    HW213155   2.753   6.307   0.485
 4086SOL     OW13156   0.893   4.889   0.459
 4086SOL    HW113157   0.896   4.989   0.466
 4086SOL    HW213158   0.979   4.856   0.420
 4087SOL     OW13159   1.701   2.026   2.868
 4087SOL    HW113160   1.612   2.003   2.910
 4087SOL    HW213161   1.751   2.088   2.928
 4088SOL     OW13162   6.383   2.154   0.625
 4088SOL    HW113163   6.458   2.122   0.684
 4088SOL    HW213164   6.313   2.197   0.681
 4089SOL     OW13165   1.047   1.517   5.531
 4089SOL    HW113166   1.085   1.437   5.485
 4089SOL    HW213167   1.119   1.564   5.582
 4090SOL     OW13168   1.783   5.095   5.817
 4090SOL    HW113169   1.699   5.107   5.869
 4090SOL    HW213170   1.823   5.006   5.837
 4091SOL     OW13171   4.514   6.115   0.039
 4091SOL    HW113172   4.545   6.020   0.040
 4091SOL    HW213173   4.594   6.175   0.046
 4092SOL     OW13174   0.361   2.494   4.482
 4092SOL    HW113175   0.374   2.483   4.383
 4092SOL    HW213176   0.278   2.445   4.510
 4093SOL     OW13177   5.915   0.693   4.906
 4093SOL    HW113178   5.968   0.632   4.965
 4093SOL    HW213179   5.905   0.782   4.952
 4094SOL     OW13180   2.888   4.426   5.366
 4094SOL    HW113181   2.900   4.491   5.291
 4094SOL    HW213182   2.889   4.333   5.330
 4095SOL     OW13183   1.815   4.285   6.148
 4095SOL    HW113184   1.910   4.315   6.142
 4095SOL    HW213185   1.785   4.252   6.058
 4096SOL     OW13186   4.118   4.732   1.970
 4096SOL    HW113187   4.192   4.666   1.982
 4096SOL    HW213188   4.103   4.781   2.056
 4097SOL     OW13189   3.422   3.750   4.641
 4097SOL    HW113190   3.416   3.849   4.654
 4097SOL    HW213191   3.479   3.711   4.713
 4098SOL     OW13192   0.366   2.235   2.620
 4098SOL    HW113193   0.400   2.290   2.697
 4098SOL    HW213194   0.416   2.260   2.537
 4099SOL     OW13195   3.780   6.252   1.871
 4099SOL    HW113196   3.756   6.349   1.857
 4099SOL    HW213197   3.782   6.233   1.969
 4100SOL     OW13198   3.840   6.054   3.073
 4100SOL    HW113199   3.807   6.135   3.024
 4100SOL    HW213200   3.919   6.016   3.025
 4101SOL     OW13201   4.775   0.960   6.166
 4101SOL    HW113202   4.739   0.965   6.073
 4101SOL    HW213203   4.772   0.866   6.198
 4102SOL     OW13204   5.747   1.286   0.535
 4102SOL    HW113205   5.730   1.313   0.630
 4102SOL    HW213206   5.813   1.212   0.533
 4103SOL     OW13207   0.509   0.321   2.516
 4103SOL    HW113208   0.419   0.297   2.478
 4103SOL    HW213209   0.577   0.318   2.444
 4104SOL     OW13210   1.518   4.765   2.643
 4104SOL    HW113211   1.449   4.706   2.683
 4104SOL    HW213212   1.484   4.804   2.557
 4105SOL     OW13213   5.177   5.283   0.181
 4105SOL    HW113214   5.277   5.289   0.188
 4105SOL    HW213215   5.150   5.295   0.086
 4106SOL     OW13216   6.454   3.905   4.750
 4106SOL    HW113217   6.504   3.939   4.671
 4106SOL    HW213218   6.363   3.946   4.753
 4107SOL     OW13219   6.939   0.809   1.313
 4107SOL    HW113220   6.998   0.761   1.247
 4107SOL    HW213221   6.959   0.906   1.312
 4108SOL     OW13222   6.641   3.154   5.400
 4108SOL    HW113223   6.654   3.250   5.424
 4108SOL    HW213224   6.668   3.096   5.477
 4109SOL     OW13225   3.345   6.009   3.088
 4109SOL    HW113226   3.363   6.056   3.175
 4109SOL    HW213227   3.428   6.010   3.032
 4110SOL     OW13228   4.800   3.228   5.583
 4110SOL    HW113229   4.859   3.259   5.507
 4110SOL    HW213230   4.777   3.132   5.570
 4111SOL     OW13231   4.551   3.089   6.988
 4111SOL    HW113232   4.525   3.026   0.041
 4111SOL    HW213233   4.650   3.088   6.976
 4112SOL     OW13234   3.642   0.710   4.497
 4112SOL    HW113235   3.724   0.659   4.474
 4112SOL    HW213236   3.561   0.653   4.481
 4113SOL     OW13237   3.439   5.207   4.436
 4113SOL    HW113238   3.474   5.301   4.427
 4113SOL    HW213239   3.404   5.176   4.347
 4114SOL     OW13240   2.577   2.202   2.701
 4114SOL    HW113241   2.669   2.191   2.737
 4114SOL    HW213242   2.581   2.233   2.606
 4115SOL     OW13243   5.208   4.820   2.019
 4115SOL    HW113244   5.264   4.899   1.992
 4115SOL    HW213245   5.116   4.831   1.983
 4116SOL     OW13246   3.151   0.823   1.815
 4116SOL    HW113247   3.067   0.773   1.793
 4116SOL    HW213248   3.230   0.771   1.780
 4117SOL     OW13249   1.052   5.637   2.216
 4117SOL    HW113250   0.989   5.661   2.142
 4117SOL    HW213251   1.126   5.581   2.180
 4118SOL     OW13252   2.780   6.769   0.208
 4118SOL    HW113253   2.694   6.789   0.160
 4118SOL    HW213254   2.857   6.794   0.149
 4119SOL     OW13255   4.258   1.086   2.961
 4119SOL    HW113256   4.336   1.065   3.020
 4119SOL    HW213257   4.275   1.050   2.870
 4120SOL     OW13258   3.720   1.166   1.770
 4120SOL    HW113259   3.704   1.139   1.675
 4120SOL    HW213260   3.732   1.265   1.775
 4121SOL     OW13261   6.284   2.781   4.864
 4121SOL    HW113262   6.256   2.848   4.795
 4121SOL    HW213263   6.384   2.770   4.861
 4122SOL     OW13264   1.819   5.579   6.514
 4122SOL    HW113265   1.833   5.611   6.607
 4122SOL    HW213266   1.866   5.491   6.502
 4123SOL     OW13267   4.997   3.734   6.446
 4123SOL    HW113268   4.997   3.683   6.532
 4123SOL    HW213269   4.985   3.670   6.370
 4124SOL     OW13270   5.126   6.550   3.642
 4124SOL    HW113271   5.124   6.611   3.562
 4124SOL    HW213272   5.159   6.460   3.614
 4125SOL     OW13273   5.300   1.505   1.314
 4125SOL    HW113274   5.367   1.575   1.337
 4125SOL    HW213275   5.208   1.540   1.331
 4126SOL     OW13276   2.188   4.723   4.083
 4126SOL    HW113277   2.249   4.746   4.159
 4126SOL    HW213278   2.128   4.800   4.063
 4127SOL     OW13279   6.591   3.750   5.406
 4127SOL    HW113280   6.524   3.810   5.363
 4127SOL    HW213281   6.652   3.803   5.464
 4128SOL     OW13282   0.913   1.938   2.832
 4128SOL    HW113283   0.965   1.852   2.826
 4128SOL    HW213284   0.826   1.920   2.877
 4129SOL     OW13285   5.671   2.019   5.982
 4129SOL    HW113286   5.724   2.063   5.909
 4129SOL    HW213287   5.728   1.953   6.031
 4130SOL     OW13288   5.739   3.438   1.102
 4130SOL    HW113289   5.800   3.475   1.172
 4130SOL    HW213290   5.702   3.513   1.046
 4131SOL     OW13291   6.543   4.397   3.437
 4131SOL    HW113292   6.445   4.383   3.451
 4131SOL    HW213293   6.584   4.314   3.400
 4132SOL     OW13294   4.847   1.972   4.306
 4132SOL    HW113295   4.813   1.974   4.399
 4132SOL    HW213296   4.771   1.957   4.242
 4133SOL     OW13297   2.720   2.018   1.185
 4133SOL    HW113298   2.812   2.026   1.224
 4133SOL    HW213299   2.679   1.931   1.215
 4134SOL     OW13300   0.976   1.742   6.951
 4134SOL    HW113301   0.908   1.733   6.880
 4134SOL    HW213302   0.983   1.837   6.979
 4135SOL     OW13303   1.237   0.522   1.280
 4135SOL    HW113304   1.236   0.489   1.375
 4135SOL    HW213305   1.186   0.458   1.223
 4136SOL     OW13306   0.994   1.923   3.476
 4136SOL    HW113307   0.994   1.876   3.388
 4136SOL    HW213308   1.025   2.018   3.463
 4137SOL     OW13309   3.186   3.991   6.039
 4137SOL    HW113310   3.139   4.077   6.058
 4137SOL    HW213311   3.157   3.956   5.949
 4138SOL     OW13312   4.033   5.234   2.914
 4138SOL    HW113313   4.002   5.248   3.009
 4138SOL    HW213314   4.125   5.272   2.903
 4139SOL     OW13315   1.889   1.336   6.976
 4139SOL    HW113316   1.965   1.348   6.912
 4139SOL    HW213317   1.809   1.301   6.927
 4140SOL     OW13318   4.489   1.645   5.195
 4140SOL    HW113319   4.512   1.623   5.101
 4140SOL    HW213320   4.564   1.617   5.255
 4141SOL     OW13321   5.071   5.840   0.463
 4141SOL    HW113322   5.001   5.907   0.485
 4141SOL    HW213323   5.039   5.780   0.390
 4142SOL     OW13324   6.121   3.514   1.721
 4142SOL    HW113325   6.132   3.443   1.791
 4142SOL    HW213326   6.136   3.474   1.631
 4143SOL     OW13327   0.664   2.655   1.313
 4143SOL    HW113328   0.606   2.734   1.333
 4143SOL    HW213329   0.606   2.576   1.292
 4144SOL     OW13330   4.650   0.083   2.420
 4144SOL    HW113331   4.605   0.170   2.437
 4144SOL    HW213332   4.636   0.023   2.499
 4145SOL     OW13333   2.981   0.110   2.899
 4145SOL    HW113334   2.919   0.096   2.976
 4145SOL    HW213335   3.008   0.206   2.895
 4146SOL     OW13336   4.751   5.606   0.426
 4146SOL    HW113337   4.839   5.564   0.451
 4146SOL    HW213338   4.682   5.579   0.493
 4147SOL     OW13339   3.624   2.334   5.540
 4147SOL    HW113340   3.592   2.264   5.475
 4147SOL    HW213341   3.635   2.292   5.630
 4148SOL     OW13342   5.982   0.261   2.969
 4148SOL    HW113343   5.898   0.245   3.022
 4148SOL    HW213344   6.061   0.258   3.031
 4149SOL     OW13345   5.375   4.028   1.598
 4149SOL    HW113346   5.300   3.986   1.548
 4149SOL    HW213347   5.436   4.075   1.535
 4150SOL     OW13348   4.863   0.440   5.962
 4150SOL    HW113349   4.950   0.431   5.913
 4150SOL    HW213350   4.844   0.537   5.977
 4151SOL     OW13351   6.837   5.289   0.771
 4151SOL    HW113352   6.863   5.229   0.695
 4151SOL    HW213353   6.760   5.249   0.820
 4152SOL     OW13354   3.948   4.320   1.279
 4152SOL    HW113355   3.891   4.329   1.360
 4152SOL    HW213356   3.896   4.349   1.198
 4153SOL     OW13357   6.721   5.134   6.236
 4153SOL    HW113358   6.630   5.125   6.277
 4153SOL    HW213359   6.712   5.162   6.140
 4154SOL     OW13360   4.809   2.860   5.794
 4154SOL    HW113361   4.878   2.914   5.843
 4154SOL    HW213362   4.800   2.894   5.701
 4155SOL     OW13363   1.055   3.082   1.628
 4155SOL    HW113364   1.006   2.995   1.618
 4155SOL    HW213365   1.100   3.105   1.543
 4156SOL     OW13366   6.113   0.268   5.695
 4156SOL    HW113367   6.053   0.310   5.763
 4156SOL    HW213368   6.067   0.267   5.606
 4157SOL     OW13369   3.260   0.785   5.104
 4157SOL    HW113370   3.348   0.831   5.108
 4157SOL    HW213371   3.194   0.844   5.058
 4158SOL     OW13372   1.205   6.669   3.912
 4158SOL    HW113373   1.188   6.598   3.980
 4158SOL    HW213374   1.121   6.688   3.861
 4159SOL     OW13375   0.754   3.086   5.218
 4159SOL    HW113376   0.799   3.012   5.167
 4159SOL    HW213377   0.821   3.131   5.277
 4160SOL     OW13378   1.565   1.517   0.497
 4160SOL    HW113379   1.490   1.481   0.551
 4160SOL    HW213380   1.646   1.460   0.510
 4161SOL     OW13381   6.264   1.779   0.873
 4161SOL    HW113382   6.220   1.819   0.792
 4161SOL    HW213383   6.286   1.683   0.856
 4162SOL     OW13384   6.658   0.341   5.111
 4162SOL    HW113385   6.586   0.273   5.099
 4162SOL    HW213386   6.747   0.301   5.089
 4163SOL     OW13387   6.083   1.438   3.926
 4163SOL    HW113388   6.128   1.481   4.004
 4163SOL    HW213389   6.139   1.362   3.892
 4164SOL     OW13390   2.319   0.057   5.821
 4164SOL    HW113391   2.353   0.052   5.915
 4164SOL    HW213392   2.396   0.077   5.760
 4165SOL     OW13393   3.494   6.132   2.419
 4165SOL    HW113394   3.475   6.191   2.340
 4165SOL    HW213395   3.424   6.061   2.426
 4166SOL     OW13396   5.796   3.126   0.889
 4166SOL    HW113397   5.826   3.046   0.838
 4166SOL    HW213398   5.752   3.097   0.974
 4167SOL     OW13399   2.258   2.811   1.326
 4167SOL    HW113400   2.324   2.756   1.275
 4167SOL    HW213401   2.175   2.821   1.272
 4168SOL     OW13402   1.587   4.462   0.881
 4168SOL    HW113403   1.643   4.434   0.958
 4168SOL    HW213404   1.628   4.428   0.796
 4169SOL     OW13405   6.096   3.538   4.447
 4169SOL    HW113406   6.149   3.453   4.435
 4169SOL    HW213407   6.159   3.613   4.470
 4170SOL     OW13408   4.814   2.586   5.419
 4170SOL    HW113409   4.785   2.643   5.496
 4170SOL    HW213410   4.736   2.531   5.388
 4171SOL     OW13411   5.391   3.466   1.988
 4171SOL    HW113412   5.418   3.513   2.072
 4171SOL    HW213413   5.409   3.527   1.910
 4172SOL     OW13414   1.865   1.970   0.566
 4172SOL    HW113415   1.860   1.943   0.662
 4172SOL    HW213416   1.893   1.891   0.511
 4173SOL     OW13417   5.242   3.859   5.445
 4173SOL    HW113418   5.295   3.779   5.413
 4173SOL    HW213419   5.289   3.943   5.417
 4174SOL     OW13420   5.120   0.753   4.404
 4174SOL    HW113421   5.109   0.663   4.445
 4174SOL    HW213422   5.217   0.778   4.404
 4175SOL     OW13423   3.418   1.731   3.370
 4175SOL    HW113424   3.487   1.663   3.395
 4175SOL    HW213425   3.405   1.730   3.271
 4176SOL     OW13426   5.950   5.812   2.862
 4176SOL    HW113427   6.012   5.874   2.814
 4176SOL    HW213428   5.914   5.745   2.797
 4177SOL     OW13429   7.006   5.359   2.695
 4177SOL    HW113430   6.936   5.394   2.756
 4177SOL    HW213431   6.973   5.362   2.601
 4178SOL     OW13432   4.227   2.380   5.777
 4178SOL    HW113433   4.264   2.362   5.868
 4178SOL    HW213434   4.289   2.345   5.708
 4179SOL     OW13435   5.964   2.999   6.085
 4179SOL    HW113436   5.981   3.084   6.035
 4179SOL    HW213437   6.048   2.946   6.091
 4180SOL     OW13438   4.400   3.827   1.409
 4180SOL    HW113439   4.439   3.841   1.318
 4180SOL    HW213440   4.464   3.861   1.478
 4181SOL     OW13441   0.150   1.149   0.472
 4181SOL    HW113442   0.104   1.194   0.395
 4181SOL    HW213443   0.243   1.185   0.481
 4182SOL     OW13444   5.774   1.482   3.899
 4182SOL    HW113445   5.863   1.528   3.896
 4182SOL    HW213446   5.763   1.426   3.818
 4183SOL     OW13447   1.409   1.954   1.207
 4183SOL    HW113448   1.462   1.922   1.285
 4183SOL    HW213449   1.435   1.902   1.126
 4184SOL     OW13450   3.957   5.490   0.615
 4184SOL    HW113451   3.985   5.402   0.577
 4184SOL    HW213452   3.887   5.530   0.557
 4185SOL     OW13453   0.242   0.075   4.038
 4185SOL    HW113454   0.222   7.018   4.100
 4185SOL    HW213455   0.189   0.063   3.953
 4186SOL     OW13456   3.790   4.284   1.511
 4186SOL    HW113457   3.771   4.366   1.565
 4186SOL    HW213458   3.817   4.210   1.572
 4187SOL     OW13459   4.031   4.313   6.494
 4187SOL    HW113460   4.065   4.364   6.415
 4187SOL    HW213461   3.982   4.232   6.463
 4188SOL     OW13462   5.022   6.378   4.869
 4188SOL    HW113463   5.073   6.302   4.829
 4188SOL    HW213464   4.986   6.436   4.795
 4189SOL     OW13465   2.010   3.084   3.370
 4189SOL    HW113466   1.946   3.071   3.446
 4189SOL    HW213467   2.046   3.178   3.373
 4190SOL     OW13468   3.430   0.067   1.326
 4190SOL    HW113469   3.394   0.094   1.416
 4190SOL    HW213470   3.354   0.046   1.264
 4191SOL     OW13471   6.810   2.402   2.385
 4191SOL    HW113472   6.784   2.312   2.419
 4191SOL    HW213473   6.869   2.392   2.305
 4192SOL     OW13474   6.178   1.145   2.915
 4192SOL    HW113475   6.129   1.221   2.958
 4192SOL    HW213476   6.191   1.072   2.982
 4193SOL     OW13477   2.144   6.710   2.515
 4193SOL    HW113478   2.222   6.651   2.494
 4193SOL    HW213479   2.134   6.779   2.444
 4194SOL     OW13480   0.414   0.911   3.981
 4194SOL    HW113481   0.430   0.828   3.929
 4194SOL    HW213482   0.502   0.958   3.996
 4195SOL     OW13483   5.487   0.844   2.398
 4195SOL    HW113484   5.424   0.872   2.325
 4195SOL    HW213485   5.507   0.922   2.457
 4196SOL     OW13486   4.670   2.144   3.188
 4196SOL    HW113487   4.715   2.094   3.114
 4196SOL    HW213488   4.606   2.084   3.235
 4197SOL     OW13489   4.585   4.375   4.057
 4197SOL    HW113490   4.592   4.470   4.087
 4197SOL    HW213491   4.637   4.363   3.972
 4198SOL     OW13492   5.457   3.974   5.707
 4198SOL    HW113493   5.469   3.877   5.682
 4198SOL    HW213494   5.423   3.980   5.801
 4199SOL     OW13495   2.968   3.884   5.010
 4199SOL    HW113496   2.960   3.820   5.086
 4199SOL    HW213497   2.924   3.845   4.929
 4200SOL     OW13498   2.378   0.322   6.083
 4200SOL    HW113499   2.397   0.224   6.074
 4200SOL    HW213500   2.282   0.340   6.060
 4201SOL     OW13501   6.435   6.816   4.609
 4201SOL    HW113502   6.467   6.728   4.574
 4201SOL    HW213503   6.338   6.828   4.588
 4202SOL     OW13504   5.562   4.227   5.033
 4202SOL    HW113505   5.493   4.159   5.008
 4202SOL    HW213506   5.572   4.293   4.959
 4203SOL     OW13507   5.053   5.160   3.680
 4203SOL    HW113508   5.003   5.094   3.625
 4203SOL    HW213509   5.044   5.251   3.640
 4204SOL     OW13510   2.834   4.379   0.914
 4204SOL    HW113511   2.805   4.404   0.821
 4204SOL    HW213512   2.906   4.310   0.910
 4205SOL     OW13513   2.885   5.088   3.385
 4205SOL    HW113514   2.925   5.178   3.368
 4205SOL    HW213515   2.958   5.022   3.399
 4206SOL     OW13516   5.696   6.987   4.696
 4206SOL    HW113517   5.792   7.011   4.681
 4206SOL    HW213518   5.639   0.050   4.685
 4207SOL     OW13519   0.994   0.742   1.150
 4207SOL    HW113520   1.019   0.806   1.078
 4207SOL    HW213521   1.063   0.744   1.222
 4208SOL     OW13522   0.829   3.210   1.094
 4208SOL    HW113523   0.790   3.132   1.142
 4208SOL    HW213524   0.920   3.186   1.060
 4209SOL     OW13525   2.946   0.319   4.553
 4209SOL    HW113526   2.885   0.294   4.628
 4209SOL    HW213527   2.972   0.416   4.562
 4210SOL     OW13528   5.176   2.184   0.575
 4210SOL    HW113529   5.112   2.245   0.621
 4210SOL    HW213530   5.185   2.212   0.479
 4211SOL     OW13531   4.897   3.733   3.648
 4211SOL    HW113532   4.868   3.638   3.638
 4211SOL    HW213533   4.867   3.768   3.736
 4212SOL     OW13534   6.128   6.828   2.957
 4212SOL    HW113535   6.203   6.835   2.892
 4212SOL    HW213536   6.056   6.893   2.932
 4213SOL     OW13537   0.967   0.625   1.951
 4213SOL    HW113538   1.008   0.701   1.901
 4213SOL    HW213539   0.874   0.611   1.920
 4214SOL     OW13540   2.109   4.293   4.445
 4214SOL    HW113541   2.092   4.195   4.437
 4214SOL    HW213542   2.040   4.334   4.505
 4215SOL     OW13543   0.609   5.350   5.487
 4215SOL    HW113544   0.668   5.431   5.484
 4215SOL    HW213545   0.629   5.297   5.569
 4216SOL     OW13546   2.590   3.540   5.367
 4216SOL    HW113547   2.578   3.441   5.361
 4216SOL    HW213548   2.672   3.560   5.421
 4217SOL     OW13549   0.104   0.592   3.143
 4217SOL    HW113550   0.138   0.648   3.067
 4217SOL    HW213551   0.111   0.643   3.228
 4218SOL     OW13552   2.973   0.376   2.827
 4218SOL    HW113553   2.945   0.345   2.735
 4218SOL    HW213554   3.055   0.433   2.819
 4219SOL     OW13555   4.660   6.710   3.314
 4219SOL    HW113556   4.688   6.707   3.410
 4219SOL    HW213557   4.740   6.730   3.257
 4220SOL     OW13558   0.728   3.788   3.592
 4220SOL    HW113559   0.827   3.784   3.580
 4220SOL    HW213560   0.703   3.751   3.681
 4221SOL     OW13561   5.172   6.051   5.841
 4221SOL    HW113562   5.249   6.089   5.893
 4221SOL    HW213563   5.107   6.123   5.819
 4222SOL     OW13564   4.098   2.355   0.380
 4222SOL    HW113565   4.167   2.301   0.428
 4222SOL    HW213566   4.008   2.313   0.394
 4223SOL     OW13567   3.089   4.011   2.532
 4223SOL    HW113568   3.002   3.962   2.535
 4223SOL    HW213569   3.119   4.031   2.625
 4224SOL     OW13570   3.984   2.016   5.405
 4224SOL    HW113571   4.007   2.107   5.440
 4224SOL    HW213572   4.041   1.948   5.451
 4225SOL     OW13573   5.464   0.759   5.018
 4225SOL    HW113574   5.440   0.666   5.048
 4225SOL    HW213575   5.386   0.799   4.969
 4226SOL     OW13576   1.612   0.954   3.250
 4226SOL    HW113577   1.642   0.876   3.195
 4226SOL    HW213578   1.532   0.996   3.207
 4227SOL     OW13579   6.425   4.031   0.222
 4227SOL    HW113580   6.434   4.001   0.127
 4227SOL    HW213581   6.423   4.131   0.225
 4228SOL     OW13582   6.134   5.730   3.057
 4228SOL    HW113583   6.135   5.795   3.133
 4228SOL    HW213584   6.063   5.756   2.992
 4229SOL     OW13585   4.871   4.787   5.717
 4229SOL    HW113586   4.811   4.780   5.797
 4229SOL    HW213587   4.966   4.789   5.746
 4230SOL     OW13588   3.212   0.418   4.449
 4230SOL    HW113589   3.271   0.343   4.479
 4230SOL    HW213590   3.122   0.383   4.424
 4231SOL     OW13591   4.149   6.111   4.835
 4231SOL    HW113592   4.077   6.041   4.836
 4231SOL    HW213593   4.187   6.121   4.927
 4232SOL     OW13594   2.123   3.884   2.146
 4232SOL    HW113595   2.124   3.787   2.120
 4232SOL    HW213596   2.153   3.939   2.067
 4233SOL     OW13597   5.663   6.688   1.183
 4233SOL    HW113598   5.759   6.664   1.197
 4233SOL    HW213599   5.607   6.606   1.193
 4234SOL     OW13600   3.159   4.140   5.447
 4234SOL    HW113601   3.226   4.206   5.411
 4234SOL    HW213602   3.072   4.153   5.400
 4235SOL     OW13603   0.234   3.785   5.193
 4235SOL    HW113604   0.314   3.748   5.146
 4235SOL    HW213605   0.251   3.879   5.221
 4236SOL     OW13606   0.920   3.924   5.115
 4236SOL    HW113607   0.939   3.941   5.018
 4236SOL    HW213608   1.003   3.938   5.168
 4237SOL     OW13609   5.418   4.305   4.573
 4237SOL    HW113610   5.397   4.374   4.504
 4237SOL    HW213611   5.336   4.250   4.590
 4238SOL     OW13612   4.181   4.892   3.980
 4238SOL    HW113613   4.277   4.901   4.007
 4238SOL    HW213614   4.131   4.846   4.054
 4239SOL     OW13615   5.221   5.251   6.073
 4239SOL    HW113616   5.148   5.315   6.049
 4239SOL    HW213617   5.268   5.283   6.155
 4240SOL     OW13618   2.571   5.010   6.121
 4240SOL    HW113619   2.624   4.932   6.152
 4240SOL    HW213620   2.589   5.089   6.180
 4241SOL     OW13621   4.019   1.198   0.393
 4241SOL    HW113622   4.102   1.252   0.410
 4241SOL    HW213623   4.009   1.183   0.295
 4242SOL     OW13624   1.615   0.209   2.561
 4242SOL    HW113625   1.545   0.277   2.537
 4242SOL    HW213626   1.682   0.202   2.487
 4243SOL     OW13627   1.631   3.114   2.917
 4243SOL    HW113628   1.575   3.135   2.997
 4243SOL    HW213629   1.608   3.024   2.882
 4244SOL     OW13630   2.932   6.512   0.840
 4244SOL    HW113631   2.835   6.524   0.816
 4244SOL    HW213632   2.968   6.431   0.793
 4245SOL     OW13633   6.384   2.884   1.513
 4245SOL    HW113634   6.413   2.911   1.421
 4245SOL    HW213635   6.433   2.939   1.581
 4246SOL     OW13636   4.486   2.094   3.946
 4246SOL    HW113637   4.426   2.016   3.927
 4246SOL    HW213638   4.442   2.153   4.014
 4247SOL     OW13639   2.294   4.310   6.752
 4247SOL    HW113640   2.313   4.367   6.832
 4247SOL    HW213641   2.249   4.366   6.682
 4248SOL     OW13642   1.940   0.267   2.779
 4248SOL    HW113643   1.954   0.187   2.720
 4248SOL    HW213644   2.011   0.270   2.849
 4249SOL     OW13645   6.260   0.743   6.034
 4249SOL    HW113646   6.299   0.749   5.942
 4249SOL    HW213647   6.167   0.705   6.029
 4250SOL     OW13648   6.393   5.623   4.531
 4250SOL    HW113649   6.408   5.524   4.543
 4250SOL    HW213650   6.296   5.644   4.546
 4251SOL     OW13651   5.368   2.747   5.583
 4251SOL    HW113652   5.427   2.670   5.606
 4251SOL    HW213653   5.389   2.824   5.644
 4252SOL     OW13654   6.907   6.842   0.121
 4252SOL    HW113655   6.993   6.884   0.150
 4252SOL    HW213656   6.925   6.780   0.044
 4253SOL     OW13657   4.848   5.432   3.146
 4253SOL    HW113658   4.902   5.391   3.220
 4253SOL    HW213659   4.789   5.362   3.105
 4254SOL     OW13660   2.108   2.206   5.818
 4254SOL    HW113661   2.144   2.174   5.906
 4254SOL    HW213662   2.068   2.129   5.768
 4255SOL     OW13663   1.299   2.880   3.200
 4255SOL    HW113664   1.322   2.941   3.125
 4255SOL    HW213665   1.200   2.882   3.215
 4256SOL     OW13666   0.193   6.189   1.177
 4256SOL    HW113667   0.160   6.098   1.201
 4256SOL    HW213668   0.229   6.234   1.259
 4257SOL     OW13669   6.877   0.980   3.542
 4257SOL    HW113670   6.869   1.076   3.569
 4257SOL    HW213671   6.923   0.928   3.614
 4258SOL     OW13672   3.241   5.475   1.069
 4258SOL    HW113673   3.202   5.565   1.050
 4258SOL    HW213674   3.171   5.418   1.112
 4259SOL     OW13675   1.008   0.451   0.868
 4259SOL    HW113676   1.038   0.369   0.819
 4259SOL    HW213677   1.087   0.509   0.888
 4260SOL     OW13678   5.754   0.679   4.632
 4260SOL    HW113679   5.812   0.689   4.713
 4260SOL    HW213680   5.760   0.763   4.577
 4261SOL     OW13681   2.825   6.264   4.281
 4261SOL    HW113682   2.778   6.350   4.263
 4261SOL    HW213683   2.758   6.197   4.314
 4262SOL     OW13684   2.553   4.774   5.658
 4262SOL    HW113685   2.552   4.751   5.560
 4262SOL    HW213686   2.460   4.799   5.687
 4263SOL     OW13687   2.329   1.813   3.350
 4263SOL    HW113688   2.400   1.882   3.365
 4263SOL    HW213689   2.244   1.841   3.395
 4264SOL     OW13690   4.727   2.307   5.773
 4264SOL    HW113691   4.753   2.215   5.742
 4264SOL    HW213692   4.783   2.375   5.726
 4265SOL     OW13693   2.156   6.725   5.732
 4265SOL    HW113694   2.167   6.803   5.670
 4265SOL    HW213695   2.093   6.749   5.805
 4266SOL     OW13696   1.421   5.163   1.499
 4266SOL    HW113697   1.455   5.170   1.405
 4266SOL    HW213698   1.372   5.247   1.523
 4267SOL     OW13699   0.863   4.627   4.367
 4267SOL    HW113700   0.925   4.705   4.357
 4267SOL    HW213701   0.888   4.576   4.449
 4268SOL     OW13702   1.017   4.245   6.328
 4268SOL    HW113703   1.031   4.265   6.425
 4268SOL    HW213704   1.038   4.149   6.310
 4269SOL     OW13705   2.756   1.722   4.639
 4269SOL    HW113706   2.690   1.656   4.604
 4269SOL    HW213707   2.848   1.683   4.635
 4270SOL     OW13708   3.804   3.079   0.201
 4270SOL    HW113709   3.707   3.104   0.193
 4270SOL    HW213710   3.846   3.131   0.275
 4271SOL     OW13711   6.923   0.371   0.884
 4271SOL    HW113712   6.851   0.324   0.936
 4271SOL    HW213713   6.889   0.460   0.854
 4272SOL     OW13714   6.684   1.034   5.821
 4272SOL    HW113715   6.701   0.973   5.898
 4272SOL    HW213716   6.600   1.086   5.836
 4273SOL     OW13717   2.622   6.122   4.069
 4273SOL    HW113718   2.591   6.028   4.082
 4273SOL    HW213719   2.637   6.139   3.972
 4274SOL     OW13720   0.760   1.275   2.129
 4274SOL    HW113721   0.761   1.316   2.038
 4274SOL    HW213722   0.839   1.307   2.181
 4275SOL     OW13723   0.162   2.369   3.529
 4275SOL    HW113724   0.080   2.427   3.533
 4275SOL    HW213725   0.135   2.273   3.521
 4276SOL     OW13726   2.215   6.089   3.006
 4276SOL    HW113727   2.260   6.065   3.092
 4276SOL    HW213728   2.141   6.024   2.988
 4277SOL     OW13729   6.971   5.487   3.010
 4277SOL    HW113730   6.927   5.542   2.939
 4277SOL    HW213731   0.030   5.439   2.972
 4278SOL     OW13732   1.058   6.450   1.544
 4278SOL    HW113733   0.964   6.483   1.533
 4278SOL    HW213734   1.121   6.528   1.540
 4279SOL     OW13735   0.756   2.297   3.370
 4279SOL    HW113736   0.723   2.391   3.362
 4279SOL    HW213737   0.733   2.261   3.460
 4280SOL     OW13738   2.087   6.353   5.943
 4280SOL    HW113739   2.126   6.440   5.973
 4280SOL    HW213740   1.990   6.350   5.966
 4281SOL     OW13741   6.094   5.942   3.287
 4281SOL    HW113742   6.001   5.946   3.251
 4281SOL    HW213743   6.151   6.009   3.240
 4282SOL     OW13744   5.114   4.929   2.284
 4282SOL    HW113745   5.068   4.880   2.210
 4282SOL    HW213746   5.150   5.015   2.249
 4283SOL     OW13747   5.570   1.137   4.591
 4283SOL    HW113748   5.608   1.175   4.676
 4283SOL    HW213749   5.473   1.160   4.585
 4284SOL     OW13750   4.665   6.032   6.699
 4284SOL    HW113751   4.606   5.958   6.730
 4284SOL    HW213752   4.622   6.120   6.720
 4285SOL     OW13753   3.578   1.359   6.680
 4285SOL    HW113754   3.493   1.398   6.645
 4285SOL    HW213755   3.583   1.263   6.654
 4286SOL     OW13756   5.266   0.317   6.664
 4286SOL    HW113757   5.219   0.330   6.751
 4286SOL    HW213758   5.272   0.404   6.616
 4287SOL     OW13759   3.588   1.096   0.940
 4287SOL    HW113760   3.517   1.029   0.917
 4287SOL    HW213761   3.678   1.052   0.936
 4288SOL     OW13762   6.650   6.304   1.991
 4288SOL    HW113763   6.572   6.242   1.981
 4288SOL    HW213764   6.703   6.277   2.072
 4289SOL     OW13765   0.476   4.475   4.944
 4289SOL    HW113766   0.482   4.506   4.849
 4289SOL    HW213767   0.419   4.539   4.995
 4290SOL     OW13768   0.220   1.624   2.836
 4290SOL    HW113769   0.182   1.678   2.911
 4290SOL    HW213770   0.310   1.590   2.861
 4291SOL     OW13771   3.761   4.513   6.555
 4291SOL    HW113772   3.694   4.442   6.577
 4291SOL    HW213773   3.852   4.472   6.551
 4292SOL     OW13774   6.638   1.090   1.623
 4292SOL    HW113775   6.653   1.011   1.564
 4292SOL    HW213776   6.699   1.084   1.703
 4293SOL     OW13777   3.821   2.329   0.413
 4293SOL    HW113778   3.793   2.263   0.483
 4293SOL    HW213779   3.845   2.416   0.457
 4294SOL     OW13780   2.858   2.015   6.480
 4294SOL    HW113781   2.762   2.039   6.465
 4294SOL    HW213782   2.902   1.998   6.392
 4295SOL     OW13783   4.778   6.177   3.168
 4295SOL    HW113784   4.699   6.235   3.187
 4295SOL    HW213785   4.749   6.081   3.171
 4296SOL     OW13786   2.561   6.479   2.313
 4296SOL    HW113787   2.521   6.387   2.325
 4296SOL    HW213788   2.540   6.511   2.220
 4297SOL     OW13789   4.807   5.296   0.222
 4297SOL    HW113790   4.865   5.356   0.277
 4297SOL    HW213791   4.846   5.204   0.221
 4298SOL     OW13792   1.509   0.472   0.616
 4298SOL    HW113793   1.582   0.469   0.548
 4298SOL    HW213794   1.534   0.536   0.689
 4299SOL     OW13795   0.756   3.112   6.868
 4299SOL    HW113796   0.787   3.030   6.819
 4299SOL    HW213797   0.764   3.097   6.967
 4300SOL     OW13798   3.327   0.994   1.651
 4300SOL    HW113799   3.378   0.927   1.705
 4300SOL    HW213800   3.256   1.036   1.708
 4301SOL     OW13801   2.257   5.743   6.100
 4301SOL    HW113802   2.196   5.823   6.101
 4301SOL    HW213803   2.236   5.687   6.020
 4302SOL     OW13804   3.514   4.869   5.929
 4302SOL    HW113805   3.504   4.873   5.830
 4302SOL    HW213806   3.455   4.937   5.972
 4303SOL     OW13807   4.537   5.198   3.544
 4303SOL    HW113808   4.471   5.146   3.490
 4303SOL    HW213809   4.523   5.177   3.641
 4304SOL     OW13810   3.437   4.269   1.735
 4304SOL    HW113811   3.506   4.227   1.793
 4304SOL    HW213812   3.447   4.234   1.641
 4305SOL     OW13813   0.905   6.116   6.102
 4305SOL    HW113814   0.911   6.065   6.188
 4305SOL    HW213815   0.854   6.201   6.118
 4306SOL     OW13816   6.054   3.735   5.401
 4306SOL    HW113817   6.118   3.800   5.442
 4306SOL    HW213818   6.105   3.664   5.353
 4307SOL     OW13819   0.321   1.175   6.188
 4307SOL    HW113820   0.376   1.255   6.212
 4307SOL    HW213821   0.271   1.194   6.104
 4308SOL     OW13822   4.372   6.109   6.371
 4308SOL    HW113823   4.468   6.127   6.393
 4308SOL    HW213824   4.318   6.108   6.455
 4309SOL     OW13825   1.508   1.334   7.004
 4309SOL    HW113826   1.448   1.404   6.966
 4309SOL    HW213827   1.453   1.256   0.014
 4310SOL     OW13828   6.528   2.055   2.800
 4310SOL    HW113829   6.452   2.120   2.796
 4310SOL    HW213830   6.529   1.999   2.717
 4311SOL     OW13831   0.926   0.461   1.650
 4311SOL    HW113832   0.996   0.408   1.699
 4311SOL    HW213833   0.858   0.493   1.715
 4312SOL     OW13834   6.891   3.936   2.417
 4312SOL    HW113835   6.805   3.974   2.453
 4312SOL    HW213836   6.915   3.981   2.332
 4313SOL     OW13837   0.662   3.211   6.226
 4313SOL    HW113838   0.595   3.273   6.185
 4313SOL    HW213839   0.704   3.156   6.154
 4314SOL     OW13840   0.941   1.283   6.158
 4314SOL    HW113841   0.851   1.245   6.139
 4314SOL    HW213842   1.011   1.216   6.132
 4315SOL     OW13843   2.809   1.511   5.625
 4315SOL    HW113844   2.786   1.608   5.639
 4315SOL    HW213845   2.904   1.503   5.597
 4316SOL     OW13846   4.358   5.776   1.930
 4316SOL    HW113847   4.347   5.871   1.903
 4316SOL    HW213848   4.268   5.737   1.953
 4317SOL     OW13849   5.129   0.890   5.246
 4317SOL    HW113850   5.105   0.921   5.338
 4317SOL    HW213851   5.122   0.966   5.182
 4318SOL     OW13852   1.482   6.339   4.425
 4318SOL    HW113853   1.551   6.392   4.476
 4318SOL    HW213854   1.422   6.401   4.375
 4319SOL     OW13855   0.857   4.111   2.412
 4319SOL    HW113856   0.838   4.060   2.496
 4319SOL    HW213857   0.774   4.118   2.357
 4320SOL     OW13858   3.042   6.965   0.813
 4320SOL    HW113859   3.129   7.014   0.818
 4320SOL    HW213860   2.971   0.000   0.857
 4321SOL     OW13861   6.786   6.523   3.390
 4321SOL    HW113862   6.835   6.542   3.305
 4321SOL    HW213863   6.851   6.521   3.466
 4322SOL     OW13864   2.025   1.965   4.579
 4322SOL    HW113865   2.012   1.903   4.502
 4322SOL    HW213866   2.122   1.978   4.596
 4323SOL     OW13867   4.396   5.010   7.008
 4323SOL    HW113868   4.399   5.059   0.075
 4323SOL    HW213869   4.306   4.968   6.996
 4324SOL     OW13870   0.685   4.741   5.928
 4324SOL    HW113871   0.622   4.811   5.962
 4324SOL    HW213872   0.640   4.687   5.858
 4325SOL     OW13873   2.146   6.456   1.595
 4325SOL    HW113874   2.226   6.512   1.574
 4325SOL    HW213875   2.077   6.513   1.642
 4326SOL     OW13876   5.156   2.021   2.272
 4326SOL    HW113877   5.100   1.942   2.296
 4326SOL    HW213878   5.244   1.990   2.237
 4327SOL     OW13879   2.296   5.465   3.501
 4327SOL    HW113880   2.390   5.435   3.489
 4327SOL    HW213881   2.285   5.558   3.466
 4328SOL     OW13882   6.230   0.525   3.314
 4328SOL    HW113883   6.270   0.606   3.355
 4328SOL    HW213884   6.130   0.533   3.316
 4329SOL     OW13885   6.713   3.170   6.586
 4329SOL    HW113886   6.783   3.235   6.615
 4329SOL    HW213887   6.660   3.209   6.511
 4330SOL     OW13888   2.484   5.597   4.652
 4330SOL    HW113889   2.419   5.653   4.704
 4330SOL    HW213890   2.475   5.618   4.555
 4331SOL     OW13891   5.988   2.140   2.422
 4331SOL    HW113892   5.996   2.095   2.510
 4331SOL    HW213893   6.043   2.224   2.422
 4332SOL     OW13894   0.604   5.460   1.287
 4332SOL    HW113895   0.566   5.538   1.336
 4332SOL    HW213896   0.674   5.491   1.223
 4333SOL     OW13897   4.138   2.433   6.410
 4333SOL    HW113898   4.087   2.348   6.425
 4333SOL    HW213899   4.217   2.415   6.351
 4334SOL     OW13900   0.350   2.913   3.947
 4334SOL    HW113901   0.295   2.916   3.864
 4334SOL    HW213902   0.423   2.845   3.937
 4335SOL     OW13903   2.470   4.021   1.624
 4335SOL    HW113904   2.569   4.031   1.628
 4335SOL    HW213905   2.442   3.947   1.685
 4336SOL     OW13906   2.491   5.615   5.457
 4336SOL    HW113907   2.409   5.588   5.406
 4336SOL    HW213908   2.514   5.543   5.523
 4337SOL     OW13909   0.234   4.556   3.539
 4337SOL    HW113910   0.300   4.628   3.518
 4337SOL    HW213911   0.281   4.477   3.578
 4338SOL     OW13912   2.843   2.526   5.838
 4338SOL    HW113913   2.866   2.623   5.836
 4338SOL    HW213914   2.744   2.515   5.846
 4339SOL     OW13915   4.094   5.080   5.216
 4339SOL    HW113916   4.097   4.988   5.176
 4339SOL    HW213917   4.183   5.102   5.256
 4340SOL     OW13918   6.516   4.060   1.411
 4340SOL    HW113919   6.445   4.109   1.361
 4340SOL    HW213920   6.588   4.031   1.347
 4341SOL     OW13921   5.279   6.020   1.264
 4341SOL    HW113922   5.215   5.952   1.301
 4341SOL    HW213923   5.280   6.100   1.323
 4342SOL     OW13924   5.464   3.189   2.638
 4342SOL    HW113925   5.375   3.231   2.619
 4342SOL    HW213926   5.468   3.162   2.734
 4343SOL     OW13927   3.535   0.493   6.536
 4343SOL    HW113928   3.439   0.480   6.511
 4343SOL    HW213929   3.593   0.468   6.460
 4344SOL     OW13930   0.166   3.690   3.103
 4344SOL    HW113931   0.106   3.667   3.027
 4344SOL    HW213932   0.114   3.739   3.173
 4345SOL     OW13933   3.511   3.572   2.379
 4345SOL    HW113934   3.424   3.528   2.357
 4345SOL    HW213935   3.533   3.639   2.308
 4346SOL     OW13936   0.582   3.242   2.760
 4346SOL    HW113937   0.526   3.310   2.809
 4346SOL    HW213938   0.678   3.256   2.782
 4347SOL     OW13939   6.280   5.546   0.851
 4347SOL    HW113940   6.366   5.534   0.899
 4347SOL    HW213941   6.203   5.525   0.912
 4348SOL     OW13942   6.010   5.140   5.701
 4348SOL    HW113943   5.931   5.079   5.699
 4348SOL    HW213944   6.091   5.091   5.669
 4349SOL     OW13945   0.370   3.442   3.944
 4349SOL    HW113946   0.464   3.430   3.910
 4349SOL    HW213947   0.366   3.419   4.041
 4350SOL     OW13948   3.983   1.168   3.993
 4350SOL    HW113949   3.956   1.120   4.076
 4350SOL    HW213950   4.070   1.215   4.008
 4351SOL     OW13951   0.616   5.652   0.678
 4351SOL    HW113952   0.661   5.736   0.647
 4351SOL    HW213953   0.642   5.576   0.618
 4352SOL     OW13954   3.655   5.041   2.018
 4352SOL    HW113955   3.642   4.945   1.995
 4352SOL    HW213956   3.699   5.088   1.942
 4353SOL     OW13957   2.869   3.059   1.056
 4353SOL    HW113958   2.891   3.056   0.959
 4353SOL    HW213959   2.886   3.151   1.092
 4354SOL     OW13960   5.807   6.148   2.610
 4354SOL    HW113961   5.858   6.078   2.662
 4354SOL    HW213962   5.863   6.178   2.533
 4355SOL     OW13963   1.830   4.865   2.475
 4355SOL    HW113964   1.781   4.843   2.391
 4355SOL    HW213965   1.773   4.923   2.533
 4356SOL     OW13966   6.015   2.927   5.229
 4356SOL    HW113967   5.968   3.015   5.219
 4356SOL    HW213968   6.105   2.932   5.185
 4357SOL     OW13969   6.036   7.008   1.819
 4357SOL    HW113970   6.032   0.052   1.896
 4357SOL    HW213971   6.082   6.924   1.846
 4358SOL     OW13972   2.872   0.665   0.320
 4358SOL    HW113973   2.803   0.708   0.262
 4358SOL    HW213974   2.845   0.571   0.339
 4359SOL     OW13975   2.554   2.212   1.052
 4359SOL    HW113976   2.615   2.139   1.083
 4359SOL    HW213977   2.576   2.236   0.958
 4360SOL     OW13978   1.785   5.438   4.072
 4360SOL    HW113979   1.844   5.360   4.051
 4360SOL    HW213980   1.720   5.451   3.997
 4361SOL     OW13981   0.383   2.133   0.323
 4361SOL    HW113982   0.322   2.192   0.270
 4361SOL    HW213983   0.345   2.041   0.327
 4362SOL     OW13984   1.092   5.093   3.380
 4362SOL    HW113985   1.123   5.050   3.465
 4362SOL    HW213986   1.102   5.028   3.304
 4363SOL     OW13987   3.785   0.955   1.948
 4363SOL    HW113988   3.821   0.895   1.876
 4363SOL    HW213989   3.772   1.047   1.911
 4364SOL     OW13990   3.880   3.885   2.902
 4364SOL    HW113991   3.851   3.848   2.990
 4364SOL    HW213992   3.836   3.973   2.886
 4365SOL     OW13993   1.978   1.220   1.387
 4365SOL    HW113994   2.060   1.267   1.418
 4365SOL    HW213995   1.901   1.285   1.387
 4366SOL     OW13996   5.354   6.927   4.768
 4366SOL    HW113997   5.322   6.920   4.862
 4366SOL    HW213998   5.420   7.001   4.761
 4367SOL     OW13999   2.777   6.346   2.671
 4367SOL    HW114000   2.765   6.247   2.679
 4367SOL    HW214001   2.741   6.391   2.752
 4368SOL     OW14002   4.843   3.787   3.915
 4368SOL    HW114003   4.849   3.704   3.971
 4368SOL    HW214004   4.916   3.850   3.942
 4369SOL     OW14005   5.078   4.112   3.699
 4369SOL    HW114006   5.131   4.032   3.671
 4369SOL    HW214007   5.103   4.137   3.793
 4370SOL     OW14008   4.029   4.553   0.984
 4370SOL    HW114009   3.935   4.554   1.017
 4370SOL    HW214010   4.061   4.647   0.971
 4371SOL     OW14011   2.759   0.882   2.421
 4371SOL    HW114012   2.737   0.840   2.509
 4371SOL    HW214013   2.827   0.954   2.435
 4372SOL     OW14014   1.948   3.951   3.806
 4372SOL    HW114015   1.851   3.930   3.821
 4372SOL    HW214016   1.963   4.050   3.817
 4373SOL     OW14017   4.232   0.781   6.746
 4373SOL    HW114018   4.303   0.737   6.802
 4373SOL    HW214019   4.143   0.764   6.786
 4374SOL     OW14020   3.039   6.690   0.101
 4374SOL    HW114021   3.106   6.756   0.135
 4374SOL    HW214022   3.003   6.638   0.179
 4375SOL     OW14023   4.766   1.546   5.568
 4375SOL    HW114024   4.742   1.538   5.665
 4375SOL    HW214025   4.722   1.627   5.529
 4376SOL     OW14026   2.039   6.027   6.719
 4376SOL    HW114027   1.948   5.998   6.749
 4376SOL    HW214028   2.041   6.029   6.619
 4377SOL     OW14029   5.103   6.405   6.990
 4377SOL    HW114030   5.094   6.358   6.902
 4377SOL    HW214031   5.196   6.395   0.005
 4378SOL     OW14032   2.660   5.052   2.668
 4378SOL    HW114033   2.637   4.989   2.594
 4378SOL    HW214034   2.760   5.064   2.672
 4379SOL     OW14035   0.798   6.913   2.013
 4379SOL    HW114036   0.756   6.977   1.948
 4379SOL    HW214037   0.782   6.819   1.982
 4380SOL     OW14038   1.791   5.517   4.365
 4380SOL    HW114039   1.770   5.502   4.268
 4380SOL    HW214040   1.713   5.488   4.420
 4381SOL     OW14041   4.949   5.599   5.478
 4381SOL    HW114042   4.899   5.515   5.455
 4381SOL    HW214043   5.038   5.575   5.515
 4382SOL     OW14044   5.197   3.188   2.988
 4382SOL    HW114045   5.160   3.095   2.985
 4382SOL    HW214046   5.124   3.253   2.968
 4383SOL     OW14047   0.669   2.092   0.326
 4383SOL    HW114048   0.583   2.133   0.355
 4383SOL    HW214049   0.655   2.045   0.238
 4384SOL     OW14050   3.921   6.655   0.690
 4384SOL    HW114051   3.826   6.633   0.715
 4384SOL    HW214052   3.938   6.751   0.707
 4385SOL     OW14053   6.502   2.048   2.296
 4385SOL    HW114054   6.417   2.097   2.316
 4385SOL    HW214055   6.530   2.068   2.202
 4386SOL     OW14056   1.099   4.043   6.917
 4386SOL    HW114057   1.056   3.996   6.840
 4386SOL    HW214058   1.130   3.976   6.984
 4387SOL     OW14059   6.392   2.638   1.761
 4387SOL    HW114060   6.295   2.664   1.761
 4387SOL    HW214061   6.401   2.540   1.741
 4388SOL     OW14062   2.985   1.869   5.840
 4388SOL    HW114063   2.939   1.806   5.902
 4388SOL    HW214064   3.031   1.941   5.893
 4389SOL     OW14065   6.122   2.411   2.420
 4389SOL    HW114066   6.180   2.414   2.339
 4389SOL    HW214067   6.065   2.493   2.424
 4390SOL     OW14068   4.333   2.412   1.839
 4390SOL    HW114069   4.284   2.481   1.787
 4390SOL    HW214070   4.337   2.327   1.787
 4391SOL     OW14071   0.574   6.432   0.680
 4391SOL    HW114072   0.668   6.400   0.692
 4391SOL    HW214073   0.531   6.444   0.770
 4392SOL     OW14074   5.459   3.953   4.417
 4392SOL    HW114075   5.379   3.971   4.474
 4392SOL    HW214076   5.542   3.961   4.471
 4393SOL     OW14077   5.450   5.804   3.967
 4393SOL    HW114078   5.461   5.705   3.972
 4393SOL    HW214079   5.539   5.848   3.957
 4394SOL     OW14080   4.254   0.716   2.618
 4394SOL    HW114081   4.173   0.661   2.639
 4394SOL    HW214082   4.333   0.656   2.607
 4395SOL     OW14083   5.235   1.879   1.473
 4395SOL    HW114084   5.140   1.862   1.496
 4395SOL    HW214085   5.263   1.968   1.510
 4396SOL     OW14086   1.703   1.180   4.047
 4396SOL    HW114087   1.631   1.151   4.109
 4396SOL    HW214088   1.674   1.167   3.953
 4397SOL     OW14089   5.766   6.991   6.625
 4397SOL    HW114090   5.749   0.051   6.566
 4397SOL    HW214091   5.823   7.018   6.702
 4398SOL     OW14092   6.998   5.308   3.969
 4398SOL    HW114093   6.979   5.237   4.038
 4398SOL    HW214094   6.916   5.322   3.913
 4399SOL     OW14095   2.883   1.470   1.830
 4399SOL    HW114096   2.854   1.545   1.890
 4399SOL    HW214097   2.828   1.472   1.746
 4400SOL     OW14098   3.469   6.047   3.392
 4400SOL    HW114099   3.567   6.060   3.404
 4400SOL    HW214100   3.440   5.967   3.444
 4401SOL     OW14101   6.387   6.234   4.851
 4401SOL    HW114102   6.356   6.325   4.879
 4401SOL    HW214103   6.319   6.192   4.791
 4402SOL     OW14104   6.399   0.062   3.135
 4402SOL    HW114105   6.491   0.024   3.146
 4402SOL    HW214106   6.354   0.066   3.225
 4403SOL     OW14107   0.302   0.153   3.218
 4403SOL    HW114108   0.336   0.117   3.132
 4403SOL    HW214109   0.338   0.098   3.294
 4404SOL     OW14110   1.678   4.601   3.472
 4404SOL    HW114111   1.713   4.588   3.564
 4404SOL    HW214112   1.589   4.647   3.476
 4405SOL     OW14113   3.027   3.900   6.234
 4405SOL    HW114114   3.078   3.849   6.303
 4405SOL    HW214115   3.087   3.917   6.155
 4406SOL     OW14116   5.376   3.708   2.256
 4406SOL    HW114117   5.373   3.798   2.214
 4406SOL    HW214118   5.446   3.706   2.327
 4407SOL     OW14119   0.012   0.460   0.418
 4407SOL    HW114120   0.066   0.465   0.501
 4407SOL    HW214121   0.065   0.496   0.341
 4408SOL     OW14122   4.307   6.243   0.192
 4408SOL    HW114123   4.348   6.332   0.213
 4408SOL    HW214124   4.375   6.185   0.148
 4409SOL     OW14125   1.855   1.559   2.999
 4409SOL    HW114126   1.848   1.646   2.949
 4409SOL    HW214127   1.811   1.487   2.946
 4410SOL     OW14128   2.132   6.011   1.631
 4410SOL    HW114129   2.049   6.064   1.651
 4410SOL    HW214130   2.129   5.924   1.681
 4411SOL     OW14131   3.622   3.051   2.567
 4411SOL    HW114132   3.543   2.991   2.575
 4411SOL    HW214133   3.595   3.137   2.524
 4412SOL     OW14134   3.665   1.786   6.208
 4412SOL    HW114135   3.595   1.719   6.234
 4412SOL    HW214136   3.621   1.869   6.174
 4413SOL     OW14137   4.670   5.273   4.151
 4413SOL    HW114138   4.614   5.213   4.094
 4413SOL    HW214139   4.744   5.312   4.096
 4414SOL     OW14140   3.528   5.530   1.585
 4414SOL    HW114141   3.553   5.434   1.570
 4414SOL    HW214142   3.593   5.589   1.536
 4415SOL     OW14143   4.136   1.372   1.174
 4415SOL    HW114144   4.225   1.386   1.215
 4415SOL    HW214145   4.138   1.290   1.116
 4416SOL     OW14146   2.928   2.097   4.332
 4416SOL    HW114147   2.835   2.130   4.345
 4416SOL    HW214148   2.971   2.083   4.421
 4417SOL     OW14149   6.796   0.637   0.420
 4417SOL    HW114150   6.715   0.614   0.367
 4417SOL    HW214151   6.866   0.566   0.405
 4418SOL     OW14152   4.842   1.128   4.043
 4418SOL    HW114153   4.798   1.086   4.123
 4418SOL    HW214154   4.936   1.096   4.037
 4419SOL     OW14155   6.600   5.529   0.432
 4419SOL    HW114156   6.673   5.515   0.499
 4419SOL    HW214157   6.512   5.523   0.478
 4420SOL     OW14158   4.576   1.075   6.783
 4420SOL    HW114159   4.636   1.155   6.789
 4420SOL    HW214160   4.487   1.097   6.822
 4421SOL     OW14161   1.320   1.887   3.529
 4421SOL    HW114162   1.283   1.816   3.588
 4421SOL    HW214163   1.335   1.971   3.582
 4422SOL     OW14164   2.104   4.254   5.709
 4422SOL    HW114165   2.128   4.230   5.615
 4422SOL    HW214166   2.014   4.297   5.711
 4423SOL     OW14167   6.562   1.744   6.052
 4423SOL    HW114168   6.532   1.839   6.051
 4423SOL    HW214169   6.662   1.740   6.055
 4424SOL     OW14170   0.524   6.795   4.179
 4424SOL    HW114171   0.509   6.723   4.247
 4424SOL    HW214172   0.455   6.789   4.108
 4425SOL     OW14173   5.068   4.157   0.214
 4425SOL    HW114174   5.154   4.190   0.252
 4425SOL    HW214175   5.044   4.211   0.134
 4426SOL     OW14176   0.577   0.269   5.869
 4426SOL    HW114177   0.652   0.203   5.879
 4426SOL    HW214178   0.580   0.335   5.945
 4427SOL     OW14179   0.885   5.950   3.766
 4427SOL    HW114180   0.857   6.028   3.710
 4427SOL    HW214181   0.878   5.975   3.863
 4428SOL     OW14182   1.897   6.152   3.348
 4428SOL    HW114183   1.992   6.171   3.373
 4428SOL    HW214184   1.873   6.205   3.267
 4429SOL     OW14185   3.646   0.093   3.193
 4429SOL    HW114186   3.696   0.073   3.277
 4429SOL    HW214187   3.590   0.015   3.167
 4430SOL     OW14188   1.462   0.373   1.716
 4430SOL    HW114189   1.471   0.276   1.737
 4430SOL    HW214190   1.413   0.384   1.630
 4431SOL     OW14191   1.885   1.923   3.595
 4431SOL    HW114192   1.936   1.868   3.662
 4431SOL    HW214193   1.871   2.015   3.632
 4432SOL     OW14194   2.945   3.329   3.547
 4432SOL    HW114195   2.992   3.253   3.591
 4432SOL    HW214196   2.895   3.295   3.467
 4433SOL     OW14197   6.216   0.288   3.127
 4433SOL    HW114198   6.280   0.211   3.115
 4433SOL    HW214199   6.237   0.336   3.212
 4434SOL     OW14200   4.884   2.156   4.800
 4434SOL    HW114201   4.885   2.220   4.724
 4434SOL    HW214202   4.800   2.168   4.853
 4435SOL     OW14203   4.118   3.275   2.244
 4435SOL    HW114204   4.165   3.268   2.156
 4435SOL    HW214205   4.148   3.357   2.292
 4436SOL     OW14206   5.223   0.332   0.687
 4436SOL    HW114207   5.191   0.417   0.729
 4436SOL    HW214208   5.301   0.297   0.738
 4437SOL     OW14209   3.615   0.098   5.023
 4437SOL    HW114210   3.518   0.083   5.006
 4437SOL    HW214211   3.626   0.153   5.106
 4438SOL     OW14212   3.669   3.843   6.713
 4438SOL    HW114213   3.735   3.918   6.707
 4438SOL    HW214214   3.604   3.849   6.638
 4439SOL     OW14215   2.164   4.714   2.250
 4439SOL    HW114216   2.247   4.662   2.272
 4439SOL    HW214217   2.162   4.799   2.303
 4440SOL     OW14218   6.852   1.048   0.081
 4440SOL    HW114219   6.824   1.044   0.177
 4440SOL    HW214220   6.787   0.995   0.026
 4441SOL     OW14221   6.020   1.796   3.459
 4441SOL    HW114222   6.080   1.717   3.471
 4441SOL    HW214223   6.016   1.848   3.544
 4442SOL     OW14224   2.190   6.620   1.880
 4442SOL    HW114225   2.252   6.557   1.833
 4442SOL    HW214226   2.241   6.669   1.951
 4443SOL     OW14227   2.820   1.686   5.941
 4443SOL    HW114228   2.826   1.639   6.029
 4443SOL    HW214229   2.872   1.636   5.873
 4444SOL     OW14230   5.134   0.560   2.904
 4444SOL    HW114231   5.145   0.502   2.984
 4444SOL    HW214232   5.065   0.521   2.843
 4445SOL     OW14233   1.280   1.233   6.647
 4445SOL    HW114234   1.321   1.312   6.692
 4445SOL    HW214235   1.196   1.208   6.696
 4446SOL     OW14236   5.356   5.152   3.870
 4446SOL    HW114237   5.291   5.202   3.812
 4446SOL    HW214238   5.368   5.059   3.834
 4447SOL     OW14239   4.975   3.213   4.928
 4447SOL    HW114240   4.926   3.126   4.916
 4447SOL    HW214241   4.911   3.283   4.960
 4448SOL     OW14242   2.011   2.966   6.573
 4448SOL    HW114243   2.084   3.035   6.569
 4448SOL    HW214244   2.046   2.879   6.540
 4449SOL     OW14245   0.319   1.524   5.663
 4449SOL    HW114246   0.247   1.592   5.663
 4449SOL    HW214247   0.394   1.554   5.723
 4450SOL     OW14248   3.666   4.113   3.255
 4450SOL    HW114249   3.614   4.030   3.234
 4450SOL    HW214250   3.763   4.098   3.236
 4451SOL     OW14251   6.941   4.438   1.648
 4451SOL    HW114252   0.020   4.446   1.632
 4451SOL    HW214253   6.918   4.483   1.735
 4452SOL     OW14254   6.506   3.968   6.396
 4452SOL    HW114255   6.453   4.014   6.324
 4452SOL    HW214256   6.598   4.006   6.400
 4453SOL     OW14257   5.063   1.736   1.716
 4453SOL    HW114258   4.969   1.707   1.734
 4453SOL    HW214259   5.078   1.827   1.756
 4454SOL     OW14260   5.252   2.761   1.395
 4454SOL    HW114261   5.235   2.844   1.449
 4454SOL    HW214262   5.336   2.717   1.426
 4455SOL     OW14263   4.532   1.757   2.157
 4455SOL    HW114264   4.629   1.760   2.184
 4455SOL    HW214265   4.476   1.793   2.231
 4456SOL     OW14266   0.663   5.633   2.495
 4456SOL    HW114267   0.745   5.656   2.547
 4456SOL    HW214268   0.681   5.553   2.438
 4457SOL     OW14269   4.992   1.730   6.405
 4457SOL    HW114270   4.934   1.808   6.380
 4457SOL    HW214271   5.044   1.753   6.488
 4458SOL     OW14272   3.913   1.700   0.308
 4458SOL    HW114273   4.004   1.660   0.311
 4458SOL    HW214274   3.874   1.704   0.400
 4459SOL     OW14275   5.136   6.154   5.482
 4459SOL    HW114276   5.151   6.252   5.475
 4459SOL    HW214277   5.224   6.106   5.479
 4460SOL     OW14278   1.095   1.711   6.427
 4460SOL    HW114279   1.118   1.628   6.477
 4460SOL    HW214280   1.170   1.777   6.437
 4461SOL     OW14281   2.033   6.778   2.246
 4461SOL    HW114282   1.980   6.842   2.189
 4461SOL    HW214283   1.999   6.685   2.230
 4462SOL     OW14284   6.989   5.458   0.967
 4462SOL    HW114285   6.974   5.379   1.026
 4462SOL    HW214286   7.014   5.427   0.876
 4463SOL     OW14287   1.621   3.650   5.705
 4463SOL    HW114288   1.578   3.578   5.651
 4463SOL    HW214289   1.709   3.674   5.665
 4464SOL     OW14290   5.898   3.420   6.777
 4464SOL    HW114291   5.819   3.472   6.811
 4464SOL    HW214292   5.879   3.322   6.786
 4465SOL     OW14293   0.852   6.305   1.781
 4465SOL    HW114294   0.945   6.342   1.790
 4465SOL    HW214295   0.857   6.211   1.749
 4466SOL     OW14296   0.532   2.850   3.258
 4466SOL    HW114297   0.549   2.813   3.166
 4466SOL    HW214298   0.584   2.933   3.271
 4467SOL     OW14299   1.546   6.990   3.138
 4467SOL    HW114300   1.631   6.995   3.086
 4467SOL    HW214301   1.492   0.054   3.123
 4468SOL     OW14302   1.605   2.280   0.645
 4468SOL    HW114303   1.517   2.238   0.622
 4468SOL    HW214304   1.602   2.377   0.621
 4469SOL     OW14305   4.647   0.091   0.499
 4469SOL    HW114306   4.606   0.039   0.424
 4469SOL    HW214307   4.594   0.077   0.582
 4470SOL     OW14308   4.561   5.450   1.524
 4470SOL    HW114309   4.517   5.524   1.474
 4470SOL    HW214310   4.517   5.439   1.613
 4471SOL     OW14311   6.505   2.932   0.678
 4471SOL    HW114312   6.430   2.995   0.700
 4471SOL    HW214313   6.562   2.918   0.759
 4472SOL     OW14314   2.231   4.632   1.710
 4472SOL    HW114315   2.252   4.615   1.614
 4472SOL    HW214316   2.305   4.594   1.767
 4473SOL     OW14317   0.704   0.711   6.377
 4473SOL    HW114318   0.771   0.782   6.356
 4473SOL    HW214319   0.750   0.633   6.419
 4474SOL     OW14320   6.369   0.317   4.093
 4474SOL    HW114321   6.363   0.319   4.193
 4474SOL    HW214322   6.279   0.337   4.054
 4475SOL     OW14323   1.683   3.550   0.615
 4475SOL    HW114324   1.645   3.529   0.705
 4475SOL    HW214325   1.666   3.473   0.553
 4476SOL     OW14326   5.228   6.955   1.809
 4476SOL    HW114327   5.295   6.906   1.865
 4476SOL    HW214328   5.140   6.909   1.816
 4477SOL     OW14329   1.235   1.070   0.268
 4477SOL    HW114330   1.296   1.086   0.190
 4477SOL    HW214331   1.282   1.096   0.353
 4478SOL     OW14332   1.809   5.021   1.953
 4478SOL    HW114333   1.749   5.055   2.026
 4478SOL    HW214334   1.829   5.095   1.889
 4479SOL     OW14335   0.779   0.472   6.040
 4479SOL    HW114336   0.795   0.441   6.133
 4479SOL    HW214337   0.854   0.531   6.010
 4480SOL     OW14338   0.545   4.773   3.679
 4480SOL    HW114339   0.574   4.756   3.773
 4480SOL    HW214340   0.583   4.861   3.648
 4481SOL     OW14341   1.238   0.241   3.850
 4481SOL    HW114342   1.227   0.328   3.897
 4481SOL    HW214343   1.160   0.182   3.870
 4482SOL     OW14344   0.626   4.477   3.624
 4482SOL    HW114345   0.577   4.561   3.649
 4482SOL    HW214346   0.652   4.427   3.706
 4483SOL     OW14347   4.877   3.172   1.574
 4483SOL    HW114348   4.884   3.077   1.605
 4483SOL    HW214349   4.854   3.174   1.477
 4484SOL     OW14350   3.844   3.444   6.430
 4484SOL    HW114351   3.916   3.377   6.414
 4484SOL    HW214352   3.810   3.435   6.524
 4485SOL     OW14353   4.653   0.487   6.923
 4485SOL    HW114354   4.737   0.469   6.872
 4485SOL    HW214355   4.582   0.520   6.860
 4486SOL     OW14356   6.240   2.219   3.970
 4486SOL    HW114357   6.159   2.240   3.916
 4486SOL    HW214358   6.232   2.127   4.009
 4487SOL     OW14359   2.788   3.536   5.553
 4487SOL    HW114360   2.828   3.447   5.531
 4487SOL    HW214361   2.742   3.531   5.642
 4488SOL     OW14362   0.112   1.730   6.428
 4488SOL    HW114363   0.180   1.726   6.355
 4488SOL    HW214364   0.135   1.663   6.499
 4489SOL     OW14365   6.317   0.663   3.082
 4489SOL    HW114366   6.417   0.672   3.080
 4489SOL    HW214367   6.292   0.583   3.136
 4490SOL     OW14368   6.721   2.323   3.821
 4490SOL    HW114369   6.693   2.263   3.746
 4490SOL    HW214370   6.651   2.323   3.892
 4491SOL     OW14371   1.504   3.483   3.183
 4491SOL    HW114372   1.569   3.536   3.238
 4491SOL    HW214373   1.508   3.513   3.088
 4492SOL     OW14374   4.428   4.086   6.374
 4492SOL    HW114375   4.435   4.179   6.338
 4492SOL    HW214376   4.340   4.046   6.346
 4493SOL     OW14377   5.593   5.030   3.550
 4493SOL    HW114378   5.600   4.953   3.487
 4493SOL    HW214379   5.612   4.999   3.643
 4494SOL     OW14380   6.181   2.462   3.523
 4494SOL    HW114381   6.143   2.444   3.432
 4494SOL    HW214382   6.281   2.456   3.518
 4495SOL     OW14383   3.959   6.413   2.128
 4495SOL    HW114384   3.967   6.488   2.063
 4495SOL    HW214385   3.869   6.371   2.120
 4496SOL     OW14386   5.607   4.479   6.012
 4496SOL    HW114387   5.660   4.552   5.968
 4496SOL    HW214388   5.522   4.465   5.962
 4497SOL     OW14389   5.753   5.514   1.153
 4497SOL    HW114390   5.717   5.422   1.164
 4497SOL    HW214391   5.729   5.570   1.233
 4498SOL     OW14392   0.653   3.523   6.904
 4498SOL    HW114393   0.697   3.472   6.830
 4498SOL    HW214394   0.723   3.566   6.961
 4499SOL     OW14395   5.603   3.086   6.586
 4499SOL    HW114396   5.692   3.041   6.576
 4499SOL    HW214397   5.617   3.185   6.596
 4500SOL     OW14398   3.179   3.754   4.002
 4500SOL    HW114399   3.248   3.759   3.929
 4500SOL    HW214400   3.197   3.825   4.070
 4501SOL     OW14401   1.883   4.906   4.404
 4501SOL    HW114402   1.785   4.900   4.425
 4501SOL    HW214403   1.921   4.988   4.447
 4502SOL     OW14404   6.210   3.001   0.174
 4502SOL    HW114405   6.171   2.972   0.086
 4502SOL    HW214406   6.236   3.098   0.168
 4503SOL     OW14407   1.715   2.767   2.930
 4503SOL    HW114408   1.761   2.693   2.882
 4503SOL    HW214409   1.642   2.804   2.873
 4504SOL     OW14410   4.440   2.532   4.663
 4504SOL    HW114411   4.416   2.502   4.755
 4504SOL    HW214412   4.374   2.497   4.597
 4505SOL     OW14413   1.362   5.083   6.357
 4505SOL    HW114414   1.462   5.078   6.358
 4505SOL    HW214415   1.333   5.178   6.355
 4506SOL     OW14416   4.393   0.092   5.089
 4506SOL    HW114417   4.389   0.177   5.142
 4506SOL    HW214418   4.301   0.066   5.060
 4507SOL     OW14419   6.397   3.976   1.651
 4507SOL    HW114420   6.417   4.013   1.561
 4507SOL    HW214421   6.409   3.876   1.650
 4508SOL     OW14422   1.424   3.770   0.303
 4508SOL    HW114423   1.428   3.755   0.401
 4508SOL    HW214424   1.512   3.747   0.261
 4509SOL     OW14425   1.104   1.720   3.889
 4509SOL    HW114426   1.190   1.726   3.939
 4509SOL    HW214427   1.027   1.730   3.952
 4510SOL     OW14428   3.813   6.474   5.151
 4510SOL    HW114429   3.740   6.502   5.213
 4510SOL    HW214430   3.901   6.480   5.197
 4511SOL     OW14431   6.378   2.946   6.202
 4511SOL    HW114432   6.450   2.991   6.149
 4511SOL    HW214433   6.400   2.951   6.300
 4512SOL     OW14434   2.767   5.086   0.430
 4512SOL    HW114435   2.678   5.049   0.406
 4512SOL    HW214436   2.759   5.143   0.512
 4513SOL     OW14437   5.774   1.147   2.002
 4513SOL    HW114438   5.818   1.141   2.091
 4513SOL    HW214439   5.773   1.056   1.959
 4514SOL     OW14440   3.465   0.960   5.076
 4514SOL    HW114441   3.426   1.051   5.089
 4514SOL    HW214442   3.541   0.946   5.140
 4515SOL     OW14443   6.297   5.125   1.286
 4515SOL    HW114444   6.384   5.077   1.303
 4515SOL    HW214445   6.222   5.071   1.323
 4516SOL     OW14446   0.999   0.083   4.836
 4516SOL    HW114447   1.048   0.021   4.774
 4516SOL    HW214448   0.906   0.098   4.801
 4517SOL     OW14449   3.576   6.819   6.190
 4517SOL    HW114450   3.582   6.876   6.271
 4517SOL    HW214451   3.586   6.876   6.108
 4518SOL     OW14452   1.512   1.002   4.261
 4518SOL    HW114453   1.558   0.969   4.343
 4518SOL    HW214454   1.435   0.943   4.238
 4519SOL     OW14455   6.330   2.488   4.702
 4519SOL    HW114456   6.388   2.466   4.623
 4519SOL    HW214457   6.301   2.583   4.695
 4520SOL     OW14458   0.332   4.194   2.313
 4520SOL    HW114459   0.267   4.124   2.284
 4520SOL    HW214460   0.295   4.245   2.390
 4521SOL     OW14461   5.340   1.826   6.075
 4521SOL    HW114462   5.382   1.821   5.985
 4521SOL    HW214463   5.379   1.755   6.135
 4522SOL     OW14464   5.759   0.521   3.145
 4522SOL    HW114465   5.787   0.540   3.051
 4522SOL    HW214466   5.662   0.545   3.156
 4523SOL     OW14467   4.283   3.109   6.963
 4523SOL    HW114468   4.256   3.205   6.958
 4523SOL    HW214469   4.382   3.102   6.966
 4524SOL     OW14470   6.385   0.400   4.960
 4524SOL    HW114471   6.402   0.318   5.014
 4524SOL    HW214472   6.469   0.428   4.914
 4525SOL     OW14473   6.725   1.711   5.622
 4525SOL    HW114474   6.764   1.777   5.559
 4525SOL    HW214475   6.636   1.681   5.589
 4526SOL     OW14476   3.905   1.406   0.566
 4526SOL    HW114477   3.978   1.384   0.630
 4526SOL    HW214478   3.911   1.345   0.487
 4527SOL     OW14479   4.022   0.882   4.356
 4527SOL    HW114480   4.067   0.970   4.346
 4527SOL    HW214481   4.027   0.833   4.269
 4528SOL     OW14482   5.303   0.007   5.876
 4528SOL    HW114483   5.229   6.964   5.851
 4528SOL    HW214484   5.278   0.101   5.851
 4529SOL     OW14485   4.180   0.370   3.703
 4529SOL    HW114486   4.223   0.347   3.616
 4529SOL    HW214487   4.248   0.407   3.766
 4530SOL     OW14488   0.684   2.780   4.612
 4530SOL    HW114489   0.711   2.685   4.596
 4530SOL    HW214490   0.590   2.782   4.646
 4531SOL     OW14491   0.342   3.968   3.502
 4531SOL    HW114492   0.348   3.900   3.429
 4531SOL    HW214493   0.247   3.993   3.517
 4532SOL     OW14494   6.367   1.544   0.802
 4532SOL    HW114495   6.352   1.501   0.713
 4532SOL    HW214496   6.431   1.489   0.855
 4533SOL     OW14497   3.335   5.565   2.312
 4533SOL    HW114498   3.276   5.518   2.246
 4533SOL    HW214499   3.423   5.585   2.270
 4534SOL     OW14500   0.281   4.308   5.618
 4534SOL    HW114501   0.273   4.247   5.697
 4534SOL    HW214502   0.253   4.260   5.536
 4535SOL     OW14503   4.773   2.012   2.973
 4535SOL    HW114504   4.747   2.020   2.877
 4535SOL    HW214505   4.774   1.915   2.999
 4536SOL     OW14506   6.866   0.784   3.736
 4536SOL    HW114507   6.815   0.711   3.690
 4536SOL    HW214508   6.853   0.777   3.835
 4537SOL     OW14509   3.918   2.895   6.151
 4537SOL    HW114510   4.012   2.925   6.170
 4537SOL    HW214511   3.896   2.816   6.208
 4538SOL     OW14512   3.615   1.363   2.019
 4538SOL    HW114513   3.632   1.455   1.983
 4538SOL    HW214514   3.563   1.310   1.952
 4539SOL     OW14515   1.750   1.828   2.402
 4539SOL    HW114516   1.730   1.882   2.321
 4539SOL    HW214517   1.790   1.887   2.472
 4540SOL     OW14518   3.434   2.843   4.865
 4540SOL    HW114519   3.479   2.888   4.788
 4540SOL    HW214520   3.503   2.815   4.932
 4541SOL     OW14521   6.324   1.346   1.422
 4541SOL    HW114522   6.421   1.357   1.443
 4541SOL    HW214523   6.314   1.295   1.337
 4542SOL     OW14524   4.876   0.160   3.428
 4542SOL    HW114525   4.878   0.121   3.520
 4542SOL    HW214526   4.969   0.177   3.396
 4543SOL     OW14527   5.293   2.153   1.537
 4543SOL    HW114528   5.386   2.187   1.524
 4543SOL    HW214529   5.260   2.180   1.627
 4544SOL     OW14530   4.021   4.707   6.316
 4544SOL    HW114531   3.929   4.730   6.348
 4544SOL    HW214532   4.068   4.791   6.288
 4545SOL     OW14533   4.446   3.305   6.320
 4545SOL    HW114534   4.454   3.207   6.338
 4545SOL    HW214535   4.417   3.320   6.226
 4546SOL     OW14536   0.251   6.966   6.805
 4546SOL    HW114537   0.277   6.944   6.899
 4546SOL    HW214538   0.180   0.017   6.806
 4547SOL     OW14539   3.997   1.668   1.308
 4547SOL    HW114540   4.025   1.583   1.352
 4547SOL    HW214541   3.898   1.677   1.312
 4548SOL     OW14542   1.611   3.529   3.773
 4548SOL    HW114543   1.557   3.546   3.691
 4548SOL    HW214544   1.581   3.444   3.815
 4549SOL     OW14545   4.771   1.557   2.749
 4549SOL    HW114546   4.741   1.464   2.731
 4549SOL    HW214547   4.713   1.621   2.698
 4550SOL     OW14548   1.620   6.412   4.625
 4550SOL    HW114549   1.676   6.495   4.620
 4550SOL    HW214550   1.623   6.375   4.717
 4551SOL     OW14551   0.354   2.650   6.180
 4551SOL    HW114552   0.348   2.662   6.081
 4551SOL    HW214553   0.297   2.719   6.225
 4552SOL     OW14554   6.875   2.932   3.844
 4552SOL    HW114555   6.880   2.944   3.943
 4552SOL    HW214556   6.856   2.836   3.823
 4553SOL     OW14557   4.771   4.636   0.526
 4553SOL    HW114558   4.706   4.711   0.540
 4553SOL    HW214559   4.722   4.551   0.512
 4554SOL     OW14560   5.520   0.249   3.462
 4554SOL    HW114561   5.611   0.218   3.437
 4554SOL    HW214562   5.460   0.171   3.476
 4555SOL     OW14563   4.798   2.007   6.999
 4555SOL    HW114564   4.821   1.919   6.957
 4555SOL    HW214565   4.729   1.992   0.051
 4556SOL     OW14566   5.057   1.063   5.065
 4556SOL    HW114567   5.085   1.156   5.087
 4556SOL    HW214568   5.120   1.024   4.998
 4557SOL     OW14569   5.048   0.253   5.583
 4557SOL    HW114570   5.030   0.350   5.568
 4557SOL    HW214571   5.114   0.242   5.658
 4558SOL     OW14572   6.196   3.831   6.017
 4558SOL    HW114573   6.215   3.929   6.013
 4558SOL    HW214574   6.142   3.811   6.099
 4559SOL     OW14575   0.172   6.313   1.757
 4559SOL    HW114576   0.265   6.350   1.751
 4559SOL    HW214577   0.158   6.273   1.848
 4560SOL     OW14578   5.264   2.797   3.239
 4560SOL    HW114579   5.234   2.755   3.326
 4560SOL    HW214580   5.354   2.837   3.251
 4561SOL     OW14581   3.234   0.661   6.541
 4561SOL    HW114582   3.219   0.579   6.485
 4561SOL    HW214583   3.241   0.635   6.638
 4562SOL     OW14584   3.008   5.023   5.589
 4562SOL    HW114585   3.009   5.022   5.489
 4562SOL    HW214586   2.961   4.941   5.622
 4563SOL     OW14587   5.386   2.691   6.492
 4563SOL    HW114588   5.340   2.753   6.429
 4563SOL    HW214589   5.452   2.635   6.443
 4564SOL     OW14590   1.517   5.705   6.883
 4564SOL    HW114591   1.540   5.801   6.866
 4564SOL    HW214592   1.421   5.689   6.860
 4565SOL     OW14593   3.262   0.636   3.643
 4565SOL    HW114594   3.334   0.705   3.635
 4565SOL    HW214595   3.216   0.625   3.555
 4566SOL     OW14596   0.665   1.847   0.579
 4566SOL    HW114597   0.756   1.884   0.558
 4566SOL    HW214598   0.638   1.875   0.671
 4567SOL     OW14599   0.059   1.092   0.949
 4567SOL    HW114600   0.091   1.087   1.044
 4567SOL    HW214601   0.014   1.007   0.924
 4568SOL     OW14602   3.193   4.963   4.375
 4568SOL    HW114603   3.146   5.042   4.415
 4568SOL    HW214604   3.189   4.886   4.438
 4569SOL     OW14605   0.263   2.411   3.264
 4569SOL    HW114606   0.230   2.386   3.355
 4569SOL    HW214607   0.231   2.343   3.198
 4570SOL     OW14608   6.327   4.962   4.061
 4570SOL    HW114609   6.236   4.963   4.101
 4570SOL    HW214610   6.358   5.056   4.044
 4571SOL     OW14611   3.635   3.121   3.955
 4571SOL    HW114612   3.571   3.136   3.880
 4571SOL    HW214613   3.728   3.139   3.922
 4572SOL     OW14614   2.224   5.830   2.055
 4572SOL    HW114615   2.226   5.741   2.010
 4572SOL    HW214616   2.264   5.821   2.147
 4573SOL     OW14617   5.413   6.824   0.630
 4573SOL    HW114618   5.337   6.857   0.574
 4573SOL    HW214619   5.497   6.873   0.605
 4574SOL     OW14620   0.399   4.549   1.643
 4574SOL    HW114621   0.490   4.512   1.628
 4574SOL    HW214622   0.406   4.643   1.676
 4575SOL     OW14623   6.494   6.385   2.277
 4575SOL    HW114624   6.570   6.448   2.258
 4575SOL    HW214625   6.420   6.402   2.211
 4576SOL     OW14626   3.008   5.820   4.280
 4576SOL    HW114627   2.968   5.813   4.188
 4576SOL    HW214628   3.038   5.914   4.296
 4577SOL     OW14629   0.994   2.222   3.858
 4577SOL    HW114630   0.998   2.191   3.953
 4577SOL    HW214631   1.000   2.143   3.797
 4578SOL     OW14632   6.987   4.801   4.075
 4578SOL    HW114633   7.012   4.731   4.008
 4578SOL    HW214634   6.938   4.875   4.030
 4579SOL     OW14635   5.325   2.377   4.425
 4579SOL    HW114636   5.339   2.301   4.488
 4579SOL    HW214637   5.295   2.342   4.336
 4580SOL     OW14638   6.919   5.427   0.059
 4580SOL    HW114639   6.885   5.346   0.011
 4580SOL    HW214640   6.842   5.475   0.101
 4581SOL     OW14641   3.247   6.218   3.564
 4581SOL    HW114642   3.186   6.233   3.486
 4581SOL    HW214643   3.268   6.120   3.571
 4582SOL     OW14644   4.731   6.740   3.576
 4582SOL    HW114645   4.764   6.835   3.574
 4582SOL    HW214646   4.678   6.725   3.659
 4583SOL     OW14647   4.375   1.670   5.629
 4583SOL    HW114648   4.365   1.751   5.687
 4583SOL    HW214649   4.407   1.699   5.538
 4584SOL     OW14650   1.062   4.804   5.292
 4584SOL    HW114651   0.973   4.825   5.334
 4584SOL    HW214652   1.110   4.889   5.273
 4585SOL     OW14653   3.398   6.833   2.756
 4585SOL    HW114654   3.337   6.783   2.816
 4585SOL    HW214655   3.397   6.792   2.664
 4586SOL     OW14656   2.779   6.650   2.007
 4586SOL    HW114657   2.695   6.626   2.055
 4586SOL    HW214658   2.808   6.573   1.950
 4587SOL     OW14659   2.416   4.799   1.161
 4587SOL    HW114660   2.317   4.806   1.149
 4587SOL    HW214661   2.438   4.772   1.254
 4588SOL     OW14662   3.914   3.841   5.408
 4588SOL    HW114663   3.885   3.923   5.459
 4588SOL    HW214664   3.991   3.865   5.349
 4589SOL     OW14665   1.045   1.964   3.746
 4589SOL    HW114666   1.054   1.933   3.651
 4589SOL    HW214667   1.047   1.884   3.807
 4590SOL     OW14668   4.673   5.642   2.920
 4590SOL    HW114669   4.660   5.648   3.019
 4590SOL    HW214670   4.700   5.549   2.896
 4591SOL     OW14671   6.325   6.235   5.457
 4591SOL    HW114672   6.277   6.321   5.438
 4591SOL    HW214673   6.337   6.226   5.556
 4592SOL     OW14674   3.210   2.083   5.881
 4592SOL    HW114675   3.137   2.148   5.904
 4592SOL    HW214676   3.299   2.123   5.905
 4593SOL     OW14677   3.922   6.763   1.001
 4593SOL    HW114678   3.994   6.784   0.935
 4593SOL    HW214679   3.963   6.743   1.090
 4594SOL     OW14680   3.191   1.984   2.743
 4594SOL    HW114681   3.290   1.999   2.751
 4594SOL    HW214682   3.173   1.925   2.664
 4595SOL     OW14683   4.280   2.812   6.008
 4595SOL    HW114684   4.209   2.783   5.944
 4595SOL    HW214685   4.289   2.743   6.080
 4596SOL     OW14686   6.318   6.801   2.223
 4596SOL    HW114687   6.310   6.844   2.133
 4596SOL    HW214688   6.259   6.849   2.289
 4597SOL     OW14689   0.182   4.752   6.279
 4597SOL    HW114690   0.189   4.785   6.373
 4597SOL    HW214691   0.129   4.816   6.224
 4598SOL     OW14692   3.302   4.639   0.283
 4598SOL    HW114693   3.226   4.700   0.263
 4598SOL    HW214694   3.308   4.623   0.381
 4599SOL     OW14695   2.077   5.172   0.104
 4599SOL    HW114696   2.024   5.128   0.032
 4599SOL    HW214697   2.015   5.217   0.168
 4600SOL     OW14698   3.804   5.076   1.782
 4600SOL    HW114699   3.717   5.087   1.734
 4600SOL    HW214700   3.849   4.992   1.752
 4601SOL     OW14701   1.478   5.700   4.384
 4601SOL    HW114702   1.467   5.729   4.479
 4601SOL    HW214703   1.392   5.663   4.350
 4602SOL     OW14704   1.767   1.426   0.795
 4602SOL    HW114705   1.837   1.375   0.844
 4602SOL    HW214706   1.781   1.416   0.696
 4603SOL     OW14707   3.156   1.134   1.843
 4603SOL    HW114708   3.144   1.036   1.829
 4603SOL    HW214709   3.168   1.153   1.941
 4604SOL     OW14710   1.803   0.984   2.586
 4604SOL    HW114711   1.895   0.995   2.625
 4604SOL    HW214712   1.738   1.037   2.639
 4605SOL     OW14713   4.882   6.896   5.602
 4605SOL    HW114714   4.941   6.922   5.678
 4605SOL    HW214715   4.801   6.849   5.637
 4606SOL     OW14716   7.003   6.126   5.539
 4606SOL    HW114717   0.063   6.113   5.480
 4606SOL    HW214718   6.989   6.223   5.556
 4607SOL     OW14719   2.598   2.314   1.338
 4607SOL    HW114720   2.603   2.266   1.251
 4607SOL    HW214721   2.625   2.252   1.412
 4608SOL     OW14722   1.753   3.511   5.191
 4608SOL    HW114723   1.833   3.451   5.181
 4608SOL    HW214724   1.698   3.507   5.107
 4609SOL     OW14725   3.126   6.684   6.804
 4609SOL    HW114726   3.037   6.639   6.797
 4609SOL    HW214727   3.126   6.766   6.746
 4610SOL     OW14728   0.313   3.252   6.799
 4610SOL    HW114729   0.226   3.261   6.846
 4610SOL    HW214730   0.387   3.244   6.866
 4611SOL     OW14731   0.689   3.353   6.682
 4611SOL    HW114732   0.686   3.266   6.731
 4611SOL    HW214733   0.755   3.346   6.607
 4612SOL     OW14734   2.508   0.476   6.286
 4612SOL    HW114735   2.462   0.419   6.217
 4612SOL    HW214736   2.576   0.533   6.241
 4613SOL     OW14737   3.000   5.576   1.997
 4613SOL    HW114738   3.037   5.488   1.967
 4613SOL    HW214739   2.910   5.562   2.039
 4614SOL     OW14740   2.312   5.014   0.180
 4614SOL    HW114741   2.239   5.082   0.172
 4614SOL    HW214742   2.272   4.923   0.190
 4615SOL     OW14743   6.846   2.980   0.372
 4615SOL    HW114744   6.787   2.967   0.293
 4615SOL    HW214745   6.851   3.077   0.395
 4616SOL     OW14746   6.156   0.679   0.198
 4616SOL    HW114747   6.076   0.621   0.210
 4616SOL    HW214748   6.210   0.645   0.120
 4617SOL     OW14749   0.026   3.421   1.960
 4617SOL    HW114750   0.039   3.482   2.038
 4617SOL    HW214751   6.963   3.365   1.974
 4618SOL     OW14752   1.263   2.186   6.146
 4618SOL    HW114753   1.269   2.257   6.217
 4618SOL    HW214754   1.278   2.228   6.057
 4619SOL     OW14755   3.168   0.267   3.848
 4619SOL    HW114756   3.268   0.275   3.839
 4619SOL    HW214757   3.142   0.170   3.842
 4620SOL     OW14758   2.640   4.761   6.205
 4620SOL    HW114759   2.550   4.720   6.186
 4620SOL    HW214760   2.711   4.706   6.161
 4621SOL     OW14761   0.387   6.689   6.885
 4621SOL    HW114762   0.409   6.766   6.825
 4621SOL    HW214763   0.365   6.724   6.977
 4622SOL     OW14764   2.350   3.046   1.213
 4622SOL    HW114765   2.287   3.114   1.251
 4622SOL    HW214766   2.341   2.960   1.263
 4623SOL     OW14767   6.305   4.505   2.707
 4623SOL    HW114768   6.270   4.559   2.630
 4623SOL    HW214769   6.328   4.565   2.783
 4624SOL     OW14770   4.995   6.649   5.290
 4624SOL    HW114771   5.067   6.626   5.225
 4624SOL    HW214772   4.906   6.645   5.244
 4625SOL     OW14773   1.403   3.568   6.078
 4625SOL    HW114774   1.464   3.643   6.051
 4625SOL    HW214775   1.313   3.582   6.037
 4626SOL     OW14776   5.590   5.690   2.028
 4626SOL    HW114777   5.618   5.661   2.120
 4626SOL    HW214778   5.492   5.678   2.017
 4627SOL     OW14779   1.998   0.625   5.676
 4627SOL    HW114780   2.064   0.645   5.749
 4627SOL    HW214781   2.032   0.663   5.590
 4628SOL     OW14782   0.075   3.619   1.237
 4628SOL    HW114783   0.098   3.621   1.334
 4628SOL    HW214784   0.152   3.653   1.184
 4629SOL     OW14785   4.021   5.031   4.801
 4629SOL    HW114786   3.947   4.973   4.836
 4629SOL    HW214787   4.036   5.107   4.864
 4630SOL     OW14788   2.287   6.930   2.381
 4630SOL    HW114789   2.373   6.883   2.364
 4630SOL    HW214790   2.264   6.922   2.479
 4631SOL     OW14791   2.140   1.173   2.729
 4631SOL    HW114792   2.192   1.174   2.814
 4631SOL    HW214793   2.143   1.082   2.689
 4632SOL     OW14794   5.822   5.457   4.326
 4632SOL    HW114795   5.765   5.432   4.404
 4632SOL    HW214796   5.765   5.492   4.252
 4633SOL     OW14797   5.660   2.636   5.649
 4633SOL    HW114798   5.681   2.702   5.721
 4633SOL    HW214799   5.664   2.682   5.560
 4634SOL     OW14800   3.613   4.653   1.116
 4634SOL    HW114801   3.707   4.619   1.108
 4634SOL    HW214802   3.602   4.699   1.204
 4635SOL     OW14803   4.997   3.874   1.057
 4635SOL    HW114804   5.021   3.793   1.111
 4635SOL    HW214805   4.961   3.845   0.968
 4636SOL     OW14806   1.375   5.164   0.674
 4636SOL    HW114807   1.439   5.087   0.677
 4636SOL    HW214808   1.342   5.184   0.766
 4637SOL     OW14809   2.001   0.809   4.643
 4637SOL    HW114810   1.957   0.733   4.691
 4637SOL    HW214811   2.051   0.774   4.564
 4638SOL     OW14812   4.609   3.745   6.370
 4638SOL    HW114813   4.603   3.759   6.271
 4638SOL    HW214814   4.616   3.834   6.416
 4639SOL     OW14815   6.793   2.841   5.039
 4639SOL    HW114816   6.743   2.920   5.073
 4639SOL    HW214817   6.870   2.871   4.983
 4640SOL     OW14818   6.240   4.307   2.973
 4640SOL    HW114819   6.242   4.264   3.063
 4640SOL    HW214820   6.301   4.258   2.910
 4641SOL     OW14821   2.762   4.470   5.603
 4641SOL    HW114822   2.811   4.446   5.519
 4641SOL    HW214823   2.757   4.569   5.611
 4642SOL     OW14824   5.830   5.834   4.167
 4642SOL    HW114825   5.927   5.810   4.168
 4642SOL    HW214826   5.820   5.933   4.153
 4643SOL     OW14827   4.075   2.558   0.989
 4643SOL    HW114828   3.981   2.547   1.021
 4643SOL    HW214829   4.075   2.607   0.902
 4644SOL     OW14830   2.499   5.086   4.742
 4644SOL    HW114831   2.540   5.050   4.826
 4644SOL    HW214832   2.407   5.048   4.732
 4645SOL     OW14833   2.198   6.323   4.775
 4645SOL    HW114834   2.195   6.234   4.822
 4645SOL    HW214835   2.294   6.346   4.755
 4646SOL     OW14836   3.960   0.458   1.484
 4646SOL    HW114837   4.029   0.404   1.435
 4646SOL    HW214838   3.885   0.480   1.421
 4647SOL     OW14839   0.089   0.802   4.477
 4647SOL    HW114840   0.128   0.860   4.404
 4647SOL    HW214841   0.152   0.728   4.498
 4648SOL     OW14842   1.398   4.866   2.418
 4648SOL    HW114843   1.353   4.796   2.362
 4648SOL    HW214844   1.447   4.930   2.358
 4649SOL     OW14845   5.895   6.463   6.218
 4649SOL    HW114846   5.877   6.368   6.196
 4649SOL    HW214847   5.850   6.487   6.304
 4650SOL     OW14848   6.859   5.081   1.839
 4650SOL    HW114849   6.841   4.984   1.821
 4650SOL    HW214850   6.852   5.099   1.937
 4651SOL     OW14851   6.816   1.743   1.959
 4651SOL    HW114852   6.741   1.678   1.960
 4651SOL    HW214853   6.901   1.697   1.983
 4652SOL     OW14854   0.366   6.065   5.581
 4652SOL    HW114855   0.302   6.037   5.654
 4652SOL    HW214856   0.355   6.163   5.564
 4653SOL     OW14857   0.779   5.772   0.007
 4653SOL    HW114858   0.720   5.712   0.061
 4653SOL    HW214859   0.842   5.717   6.971
 4654SOL     OW14860   0.824   1.711   6.484
 4654SOL    HW114861   0.798   1.686   6.578
 4654SOL    HW214862   0.923   1.698   6.473
 4655SOL     OW14863   0.344   5.520   3.295
 4655SOL    HW114864   0.367   5.430   3.256
 4655SOL    HW214865   0.272   5.562   3.241
 4656SOL     OW14866   2.123   0.254   3.246
 4656SOL    HW114867   2.140   0.321   3.318
 4656SOL    HW214868   2.174   0.170   3.265
 4657SOL     OW14869   5.880   0.113   6.843
 4657SOL    HW114870   5.882   0.091   6.941
 4657SOL    HW214871   5.974   0.115   6.808
 4658SOL     OW14872   5.249   0.632   3.496
 4658SOL    HW114873   5.280   0.574   3.571
 4658SOL    HW214874   5.170   0.686   3.526
 4659SOL     OW14875   2.430   2.633   4.620
 4659SOL    HW114876   2.528   2.627   4.606
 4659SOL    HW214877   2.409   2.614   4.716
 4660SOL     OW14878   6.758   1.312   5.966
 4660SOL    HW114879   6.671   1.292   5.921
 4660SOL    HW214880   6.833   1.274   5.912
 4661SOL     OW14881   4.015   3.853   3.494
 4661SOL    HW114882   4.028   3.810   3.405
 4661SOL    HW214883   3.919   3.879   3.506
 4662SOL     OW14884   5.622   0.478   4.254
 4662SOL    HW114885   5.612   0.570   4.216
 4662SOL    HW214886   5.685   0.425   4.197
 4663SOL     OW14887   0.728   1.594   2.060
 4663SOL    HW114888   0.745   1.570   2.155
 4663SOL    HW214889   0.685   1.684   2.056
 4664SOL     OW14890   3.187   3.571   0.608
 4664SOL    HW114891   3.280   3.607   0.618
 4664SOL    HW214892   3.121   3.641   0.634
 4665SOL     OW14893   5.486   0.811   6.703
 4665SOL    HW114894   5.436   0.731   6.737
 4665SOL    HW214895   5.521   0.863   6.781
 4666SOL     OW14896   3.031   0.970   0.206
 4666SOL    HW114897   2.971   1.040   0.166
 4666SOL    HW214898   2.988   0.933   0.288
 4667SOL     OW14899   0.455   5.921   5.345
 4667SOL    HW114900   0.372   5.882   5.303
 4667SOL    HW214901   0.429   5.984   5.418
 4668SOL     OW14902   5.497   1.359   5.261
 4668SOL    HW114903   5.426   1.426   5.239
 4668SOL    HW214904   5.537   1.324   5.177
 4669SOL     OW14905   2.316   0.564   1.288
 4669SOL    HW114906   2.400   0.524   1.252
 4669SOL    HW214907   2.305   0.656   1.250
 4670SOL     OW14908   1.765   1.160   4.508
 4670SOL    HW114909   1.814   1.144   4.594
 4670SOL    HW214910   1.731   1.254   4.507
 4671SOL     OW14911   5.622   2.870   0.766
 4671SOL    HW114912   5.596   2.780   0.729
 4671SOL    HW214913   5.709   2.899   0.726
 4672SOL     OW14914   3.098   3.257   5.083
 4672SOL    HW114915   3.164   3.319   5.125
 4672SOL    HW214916   3.131   3.232   4.991
 4673SOL     OW14917   3.970   0.300   2.583
 4673SOL    HW114918   3.952   0.215   2.632
 4673SOL    HW214919   3.955   0.378   2.644
 4674SOL     OW14920   4.139   6.586   5.881
 4674SOL    HW114921   4.192   6.642   5.817
 4674SOL    HW214922   4.050   6.628   5.896
 4675SOL     OW14923   1.113   3.979   5.962
 4675SOL    HW114924   1.017   3.951   5.970
 4675SOL    HW214925   1.171   3.909   6.003
 4676SOL     OW14926   0.156   5.500   3.641
 4676SOL    HW114927   0.238   5.473   3.590
 4676SOL    HW214928   0.079   5.444   3.612
 4677SOL     OW14929   1.251   3.443   0.578
 4677SOL    HW114930   1.264   3.505   0.656
 4677SOL    HW214931   1.243   3.496   0.494
 4678SOL     OW14932   1.708   4.176   2.076
 4678SOL    HW114933   1.779   4.125   2.124
 4678SOL    HW214934   1.664   4.239   2.139
 4679SOL     OW14935   4.257   0.466   1.663
 4679SOL    HW114936   4.180   0.452   1.602
 4679SOL    HW214937   4.327   0.396   1.646
 4680SOL     OW14938   1.669   0.691   0.065
 4680SOL    HW114939   1.611   0.712   0.144
 4680SOL    HW214940   1.756   0.655   0.097
 4681SOL     OW14941   5.121   5.234   2.317
 4681SOL    HW114942   5.049   5.271   2.375
 4681SOL    HW214943   5.209   5.244   2.363
 4682SOL     OW14944   3.010   3.857   6.531
 4682SOL    HW114945   3.041   3.919   6.604
 4682SOL    HW214946   2.985   3.769   6.571
 4683SOL     OW14947   6.071   4.117   3.823
 4683SOL    HW114948   6.138   4.191   3.831
 4683SOL    HW214949   5.983   4.148   3.858
 4684SOL     OW14950   5.773   6.301   0.133
 4684SOL    HW114951   5.872   6.290   0.130
 4684SOL    HW214952   5.736   6.296   0.040
 4685SOL     OW14953   3.529   4.094   4.476
 4685SOL    HW114954   3.458   4.087   4.546
 4685SOL    HW214955   3.619   4.089   4.520
 4686SOL     OW14956   2.718   6.144   0.213
 4686SOL    HW114957   2.731   6.113   0.307
 4686SOL    HW214958   2.685   6.068   0.157
 4687SOL     OW14959   2.449   0.162   2.700
 4687SOL    HW114960   2.493   0.150   2.788
 4687SOL    HW214961   2.519   0.162   2.628
 4688SOL     OW14962   5.854   3.182   5.924
 4688SOL    HW114963   5.797   3.161   6.003
 4688SOL    HW214964   5.869   3.281   5.920
 4689SOL     OW14965   6.593   0.659   2.446
 4689SOL    HW114966   6.612   0.751   2.480
 4689SOL    HW214967   6.503   0.657   2.404
 4690SOL     OW14968   2.564   1.901   0.560
 4690SOL    HW114969   2.550   1.880   0.463
 4690SOL    HW214970   2.651   1.949   0.572
 4691SOL     OW14971   6.776   4.244   2.282
 4691SOL    HW114972   6.870   4.248   2.248
 4691SOL    HW214973   6.727   4.327   2.255
 4692SOL     OW14974   4.915   3.069   2.585
 4692SOL    HW114975   4.986   3.000   2.599
 4692SOL    HW214976   4.926   3.112   2.496
 4693SOL     OW14977   1.229   0.563   3.229
 4693SOL    HW114978   1.323   0.544   3.260
 4693SOL    HW214979   1.177   0.479   3.227
 4694SOL     OW14980   1.732   0.417   6.501
 4694SOL    HW114981   1.784   0.437   6.584
 4694SOL    HW214982   1.636   0.404   6.524
 4695SOL     OW14983   2.059   5.388   1.925
 4695SOL    HW114984   2.128   5.365   1.856
 4695SOL    HW214985   1.994   5.313   1.933
 4696SOL     OW14986   1.859   5.629   5.965
 4696SOL    HW114987   1.864   5.587   6.056
 4696SOL    HW214988   1.792   5.581   5.909
 4697SOL     OW14989   4.124   5.385   1.727
 4697SOL    HW114990   4.043   5.363   1.781
 4697SOL    HW214991   4.134   5.485   1.721
 4698SOL     OW14992   4.947   0.941   4.760
 4698SOL    HW114993   5.042   0.943   4.729
 4698SOL    HW214994   4.887   0.948   4.680
 4699SOL     OW14995   1.642   0.058   2.065
 4699SOL    HW114996   1.615   0.137   2.119
 4699SOL    HW214997   1.576   7.004   2.077
 4700SOL     OW14998   6.439   2.539   2.109
 4700SOL    HW114999   6.496   2.495   2.041
 4700SOL    HW215000   6.486   2.538   2.198
 4701SOL     OW15001   3.229   2.523   1.730
 4701SOL    HW115002   3.257   2.437   1.773
 4701SOL    HW215003   3.137   2.547   1.760
 4702SOL     OW15004   5.607   5.076   6.456
 4702SOL    HW115005   5.680   5.022   6.413
 4702SOL    HW215006   5.647   5.157   6.499
 4703SOL     OW15007   0.740   5.625   3.383
 4703SOL    HW115008   0.710   5.552   3.445
 4703SOL    HW215009   0.834   5.608   3.355
 4704SOL     OW15010   1.263   4.922   4.520
 4704SOL    HW115011   1.349   4.908   4.569
 4704SOL    HW215012   1.237   5.018   4.526
 4705SOL     OW15013   3.633   1.791   1.742
 4705SOL    HW115014   3.544   1.752   1.766
 4705SOL    HW215015   3.641   1.883   1.783
 4706SOL     OW15016   2.398   0.175   0.801
 4706SOL    HW115017   2.383   0.201   0.706
 4706SOL    HW215018   2.313   0.189   0.853
 4707SOL     OW15019   1.881   5.661   1.892
 4707SOL    HW115020   1.862   5.755   1.918
 4707SOL    HW215021   1.830   5.599   1.951
 4708SOL     OW15022   1.932   2.812   4.989
 4708SOL    HW115023   1.983   2.894   5.015
 4708SOL    HW215024   1.986   2.758   4.925
 4709SOL     OW15025   4.681   4.124   5.640
 4709SOL    HW115026   4.759   4.140   5.580
 4709SOL    HW215027   4.634   4.040   5.613
 4710SOL     OW15028   5.876   5.824   5.183
 4710SOL    HW115029   5.907   5.801   5.090
 4710SOL    HW215030   5.944   5.793   5.249
 4711SOL     OW15031   5.353   3.722   2.628
 4711SOL    HW115032   5.372   3.786   2.702
 4711SOL    HW215033   5.429   3.722   2.564
 4712SOL     OW15034   4.694   4.394   5.765
 4712SOL    HW115035   4.791   4.369   5.767
 4712SOL    HW215036   4.638   4.313   5.752
 4713SOL     OW15037   6.030   4.185   0.957
 4713SOL    HW115038   6.006   4.279   0.978
 4713SOL    HW215039   6.129   4.173   0.963
 4714SOL     OW15040   4.268   1.610   6.743
 4714SOL    HW115041   4.342   1.551   6.711
 4714SOL    HW215042   4.181   1.573   6.712
 4715SOL     OW15043   6.569   1.552   1.990
 4715SOL    HW115044   6.567   1.577   1.893
 4715SOL    HW215045   6.562   1.453   1.999
 4716SOL     OW15046   4.022   4.866   5.774
 4716SOL    HW115047   4.102   4.826   5.817
 4716SOL    HW215048   4.045   4.955   5.735
 4717SOL     OW15049   2.689   5.027   4.936
 4717SOL    HW115050   2.778   4.991   4.905
 4717SOL    HW215051   2.693   5.127   4.939
 4718SOL     OW15052   4.569   4.694   0.131
 4718SOL    HW115053   4.519   4.687   0.045
 4718SOL    HW215054   4.661   4.728   0.113
 4719SOL     OW15055   0.291   4.264   3.655
 4719SOL    HW115056   0.369   4.202   3.655
 4719SOL    HW215057   0.231   4.242   3.732
 4720SOL     OW15058   1.947   3.163   6.874
 4720SOL    HW115059   2.031   3.188   6.921
 4720SOL    HW215060   1.963   3.080   6.820
 4721SOL     OW15061   0.244   2.879   2.738
 4721SOL    HW115062   0.298   2.950   2.694
 4721SOL    HW215063   0.242   2.894   2.837
 4722SOL     OW15064   1.235   5.818   0.000
 4722SOL    HW115065   1.231   5.769   6.933
 4722SOL    HW215066   1.148   5.866   0.016
 4723SOL     OW15067   3.710   4.287   6.950
 4723SOL    HW115068   3.652   4.293   6.869
 4723SOL    HW215069   3.785   4.353   6.943
 4724SOL     OW15070   0.981   0.161   5.134
 4724SOL    HW115071   0.956   0.082   5.191
 4724SOL    HW215072   1.024   0.129   5.050
 4725SOL     OW15073   4.825   6.283   1.502
 4725SOL    HW115074   4.827   6.183   1.505
 4725SOL    HW215075   4.756   6.318   1.565
 4726SOL     OW15076   1.785   3.318   5.629
 4726SOL    HW115077   1.877   3.312   5.668
 4726SOL    HW215078   1.791   3.306   5.530
 4727SOL     OW15079   6.879   4.619   1.434
 4727SOL    HW115080   6.909   4.547   1.497
 4727SOL    HW215081   6.781   4.608   1.415
 4728SOL     OW15082   6.146   1.610   4.458
 4728SOL    HW115083   6.088   1.531   4.437
 4728SOL    HW215084   6.134   1.635   4.554
 4729SOL     OW15085   6.487   1.856   2.020
 4729SOL    HW115086   6.472   1.779   2.081
 4729SOL    HW215087   6.582   1.887   2.029
 4730SOL     OW15088   3.194   6.733   4.193
 4730SOL    HW115089   3.261   6.741   4.267
 4730SOL    HW215090   3.209   6.648   4.143
 4731SOL     OW15091   3.026   6.367   0.468
 4731SOL    HW115092   3.121   6.337   0.459
 4731SOL    HW215093   2.980   6.309   0.535
 4732SOL     OW15094   0.617   5.407   4.617
 4732SOL    HW115095   0.585   5.433   4.708
 4732SOL    HW215096   0.561   5.453   4.548
 4733SOL     OW15097   2.156   4.040   2.599
 4733SOL    HW115098   2.117   4.117   2.549
 4733SOL    HW215099   2.175   3.965   2.536
 4734SOL     OW15100   5.103   3.542   6.687
 4734SOL    HW115101   5.076   3.498   6.773
 4734SOL    HW215102   5.123   3.473   6.618
 4735SOL     OW15103   0.556   0.870   5.051
 4735SOL    HW115104   0.607   0.905   5.129
 4735SOL    HW215105   0.478   0.815   5.084
 4736SOL     OW15106   6.449   1.963   3.077
 4736SOL    HW115107   6.366   1.948   3.131
 4736SOL    HW215108   6.425   2.009   2.992
 4737SOL     OW15109   2.360   4.762   6.723
 4737SOL    HW115110   2.356   4.808   6.635
 4737SOL    HW215111   2.274   4.778   6.773
 4738SOL     OW15112   0.852   6.122   3.561
 4738SOL    HW115113   0.767   6.072   3.543
 4738SOL    HW215114   0.846   6.213   3.522
 4739SOL     OW15115   5.997   3.137   2.595
 4739SOL    HW115116   6.046   3.168   2.514
 4739SOL    HW215117   5.898   3.147   2.580
 4740SOL     OW15118   1.359   0.763   1.077
 4740SOL    HW115119   1.385   0.689   1.139
 4740SOL    HW215120   1.374   0.851   1.122
 4741SOL     OW15121   5.070   4.592   1.583
 4741SOL    HW115122   5.045   4.601   1.679
 4741SOL    HW215123   5.162   4.630   1.568
 4742SOL     OW15124   2.496   5.685   2.176
 4742SOL    HW115125   2.478   5.587   2.169
 4742SOL    HW215126   2.436   5.725   2.246
 4743SOL     OW15127   2.794   3.185   0.094
 4743SOL    HW115128   2.864   3.116   0.076
 4743SOL    HW215129   2.836   3.270   0.125
 4744SOL     OW15130   1.919   2.156   4.982
 4744SOL    HW115131   1.924   2.102   5.066
 4744SOL    HW215132   1.929   2.253   5.005
 4745SOL     OW15133   3.380   5.340   4.907
 4745SOL    HW115134   3.456   5.352   4.971
 4745SOL    HW215135   3.409   5.368   4.815
 4746SOL     OW15136   5.883   1.233   1.248
 4746SOL    HW115137   5.811   1.164   1.260
 4746SOL    HW215138   5.920   1.259   1.337
 4747SOL     OW15139   6.531   2.645   1.435
 4747SOL    HW115140   6.551   2.598   1.521
 4747SOL    HW215141   6.451   2.703   1.447
 4748SOL     OW15142   1.813   0.544   1.242
 4748SOL    HW115143   1.879   0.616   1.264
 4748SOL    HW215144   1.832   0.506   1.152
 4749SOL     OW15145   2.458   0.519   5.884
 4749SOL    HW115146   2.418   0.459   5.953
 4749SOL    HW215147   2.391   0.536   5.812
 4750SOL     OW15148   0.585   1.908   4.497
 4750SOL    HW115149   0.529   1.983   4.463
 4750SOL    HW215150   0.682   1.932   4.491
 4751SOL     OW15151   0.845   3.421   5.723
 4751SOL    HW115152   0.875   3.339   5.771
 4751SOL    HW215153   0.854   3.500   5.783
 4752SOL     OW15154   2.259   6.064   1.910
 4752SOL    HW115155   2.245   5.989   1.974
 4752SOL    HW215156   2.257   6.029   1.816
 4753SOL     OW15157   6.932   6.878   5.483
 4753SOL    HW115158   6.839   6.909   5.502
 4753SOL    HW215159   6.929   6.809   5.410
 4754SOL     OW15160   0.309   0.389   6.404
 4754SOL    HW115161   0.235   0.455   6.390
 4754SOL    HW215162   0.270   0.300   6.429
 4755SOL     OW15163   2.233   0.906   0.822
 4755SOL    HW115164   2.287   0.961   0.757
 4755SOL    HW215165   2.274   0.816   0.831
 4756SOL     OW15166   4.581   3.123   1.350
 4756SOL    HW115167   4.574   3.036   1.398
 4756SOL    HW215168   4.669   3.128   1.303
 4757SOL     OW15169   2.088   1.376   1.622
 4757SOL    HW115170   2.114   1.468   1.593
 4757SOL    HW215171   2.161   1.337   1.678
 4758SOL     OW15172   5.115   4.221   5.209
 4758SOL    HW115173   5.081   4.151   5.147
 4758SOL    HW215174   5.065   4.216   5.296
 4759SOL     OW15175   5.885   4.637   6.240
 4759SOL    HW115176   5.879   4.649   6.141
 4759SOL    HW215177   5.964   4.580   6.262
 4760SOL     OW15178   2.045   2.651   0.671
 4760SOL    HW115179   2.003   2.641   0.761
 4760SOL    HW215180   2.005   2.584   0.608
 4761SOL     OW15181   1.160   5.757   5.774
 4761SOL    HW115182   1.144   5.768   5.676
 4761SOL    HW215183   1.199   5.667   5.792
 4762SOL     OW15184   3.747   6.857   2.429
 4762SOL    HW115185   3.679   6.901   2.488
 4762SOL    HW215186   3.728   6.759   2.425
 4763SOL     OW15187   6.056   5.420   4.695
 4763SOL    HW115188   5.984   5.479   4.729
 4763SOL    HW215189   6.084   5.450   4.604
 4764SOL     OW15190   4.095   3.800   4.861
 4764SOL    HW115191   4.058   3.769   4.773
 4764SOL    HW215192   4.144   3.725   4.905
 4765SOL     OW15193   6.980   4.577   5.389
 4765SOL    HW115194   0.045   4.522   5.394
 4765SOL    HW215195   7.004   4.674   5.390
 4766SOL     OW15196   3.494   0.331   3.524
 4766SOL    HW115197   3.543   0.318   3.438
 4766SOL    HW215198   3.400   0.299   3.514
 4767SOL     OW15199   4.114   6.547   6.554
 4767SOL    HW115200   4.213   6.544   6.570
 4767SOL    HW215201   4.093   6.507   6.465
 4768SOL     OW15202   0.457   1.010   4.779
 4768SOL    HW115203   0.444   0.986   4.876
 4768SOL    HW215204   0.551   1.040   4.765
 4769SOL     OW15205   3.539   0.717   1.531
 4769SOL    HW115206   3.575   0.799   1.573
 4769SOL    HW215207   3.475   0.672   1.593
 4770SOL     OW15208   2.813   0.518   3.952
 4770SOL    HW115209   2.909   0.508   3.925
 4770SOL    HW215210   2.795   0.462   4.032
 4771SOL     OW15211   3.784   4.287   5.265
 4771SOL    HW115212   3.774   4.234   5.181
 4771SOL    HW215213   3.742   4.238   5.341
 4772SOL     OW15214   2.448   2.528   0.826
 4772SOL    HW115215   2.380   2.592   0.790
 4772SOL    HW215216   2.409   2.480   0.905
 4773SOL     OW15217   6.770   5.418   3.855
 4773SOL    HW115218   6.725   5.507   3.847
 4773SOL    HW215219   6.749   5.362   3.775
 4774SOL     OW15220   0.798   4.303   0.854
 4774SOL    HW115221   0.828   4.213   0.821
 4774SOL    HW215222   0.771   4.359   0.776
 4775SOL     OW15223   2.508   1.415   2.455
 4775SOL    HW115224   2.550   1.474   2.525
 4775SOL    HW215225   2.494   1.468   2.371
 4776SOL     OW15226   4.102   4.835   1.680
 4776SOL    HW115227   4.029   4.771   1.654
 4776SOL    HW215228   4.097   4.852   1.779
 4777SOL     OW15229   2.804   4.342   1.657
 4777SOL    HW115230   2.872   4.389   1.714
 4777SOL    HW215231   2.714   4.381   1.674
 4778SOL     OW15232   5.228   3.488   2.320
 4778SOL    HW115233   5.272   3.574   2.296
 4778SOL    HW215234   5.180   3.451   2.240
 4779SOL     OW15235   4.964   0.833   3.280
 4779SOL    HW115236   4.969   0.933   3.276
 4779SOL    HW215237   4.955   0.797   3.187
 4780SOL     OW15238   1.848   0.296   5.306
 4780SOL    HW115239   1.896   0.382   5.322
 4780SOL    HW215240   1.783   0.280   5.380
 4781SOL     OW15241   2.087   5.727   2.682
 4781SOL    HW115242   2.060   5.631   2.687
 4781SOL    HW215243   2.182   5.733   2.650
 4782SOL     OW15244   5.402   5.904   0.281
 4782SOL    HW115245   5.414   5.946   0.371
 4782SOL    HW215246   5.491   5.897   0.236
 4783SOL     OW15247   6.450   4.096   2.163
 4783SOL    HW115248   6.406   4.111   2.075
 4783SOL    HW215249   6.545   4.068   2.149
 4784SOL     OW15250   6.416   4.425   5.580
 4784SOL    HW115251   6.516   4.436   5.574
 4784SOL    HW215252   6.373   4.473   5.503
 4785SOL     OW15253   6.591   6.566   1.151
 4785SOL    HW115254   6.506   6.516   1.138
 4785SOL    HW215255   6.668   6.501   1.154
 4786SOL     OW15256   1.568   2.970   2.596
 4786SOL    HW115257   1.580   3.042   2.527
 4786SOL    HW215258   1.637   2.899   2.582
 4787SOL     OW15259   4.179   2.279   2.546
 4787SOL    HW115260   4.104   2.343   2.528
 4787SOL    HW215261   4.186   2.263   2.644
 4788SOL     OW15262   1.435   6.139   5.508
 4788SOL    HW115263   1.406   6.232   5.487
 4788SOL    HW215264   1.373   6.098   5.574
 4789SOL     OW15265   6.538   7.018   0.760
 4789SOL    HW115266   6.534   6.941   0.823
 4789SOL    HW215267   6.543   6.985   0.666
 4790SOL     OW15268   5.230   1.028   0.029
 4790SOL    HW115269   5.272   1.119   0.022
 4790SOL    HW215270   5.218   1.005   0.126
 4791SOL     OW15271   4.724   0.642   2.985
 4791SOL    HW115272   4.786   0.585   2.931
 4791SOL    HW215273   4.765   0.660   3.075
 4792SOL     OW15274   2.995   2.229   1.694
 4792SOL    HW115275   3.091   2.203   1.702
 4792SOL    HW215276   2.978   2.312   1.746
 4793SOL     OW15277   0.445   0.183   6.193
 4793SOL    HW115278   0.435   0.266   6.248
 4793SOL    HW215279   0.357   0.161   6.150
 4794SOL     OW15280   3.855   0.771   1.743
 4794SOL    HW115281   3.948   0.791   1.712
 4794SOL    HW215282   3.843   0.672   1.752
 4795SOL     OW15283   6.029   2.501   4.539
 4795SOL    HW115284   6.064   2.465   4.453
 4795SOL    HW215285   6.073   2.453   4.616
 4796SOL     OW15286   6.299   3.810   0.567
 4796SOL    HW115287   6.337   3.902   0.562
 4796SOL    HW215288   6.366   3.748   0.609
 4797SOL     OW15289   0.385   4.751   5.086
 4797SOL    HW115290   0.299   4.721   5.127
 4797SOL    HW215291   0.453   4.764   5.158
 4798SOL     OW15292   7.013   4.265   5.603
 4798SOL    HW115293   0.051   4.246   5.523
 4798SOL    HW215294   0.049   4.310   5.673
 4799SOL     OW15295   3.936   1.298   4.802
 4799SOL    HW115296   3.970   1.340   4.886
 4799SOL    HW215297   4.012   1.282   4.739
 4800SOL     OW15298   1.970   2.081   4.057
 4800SOL    HW115299   1.934   2.104   4.148
 4800SOL    HW215300   1.961   2.160   3.997
 4801SOL     OW15301   1.583   2.515   0.446
 4801SOL    HW115302   1.623   2.452   0.379
 4801SOL    HW215303   1.516   2.574   0.400
 4802SOL     OW15304   1.971   0.494   2.275
 4802SOL    HW115305   1.873   0.501   2.292
 4802SOL    HW215306   2.015   0.452   2.354
 4803SOL     OW15307   0.885   6.832   1.604
 4803SOL    HW115308   0.892   6.734   1.622
 4803SOL    HW215309   0.823   6.848   1.527
 4804SOL     OW15310   3.806   5.675   0.249
 4804SOL    HW115311   3.725   5.728   0.224
 4804SOL    HW215312   3.778   5.594   0.301
 4805SOL     OW15313   0.741   1.475   0.661
 4805SOL    HW115314   0.741   1.563   0.707
 4805SOL    HW215315   0.747   1.488   0.562
 4806SOL     OW15316   0.995   2.880   3.243
 4806SOL    HW115317   0.956   2.805   3.296
 4806SOL    HW215318   0.982   2.966   3.291
 4807SOL     OW15319   0.753   6.648   2.269
 4807SOL    HW115320   0.811   6.712   2.219
 4807SOL    HW215321   0.717   6.579   2.206
 4808SOL     OW15322   5.464   3.161   1.473
 4808SOL    HW115323   5.500   3.094   1.408
 4808SOL    HW215324   5.387   3.210   1.432
 4809SOL     OW15325   4.646   6.160   6.368
 4809SOL    HW115326   4.703   6.194   6.444
 4809SOL    HW215327   4.690   6.185   6.281
 4810SOL     OW15328   1.076   0.255   1.325
 4810SOL    HW115329   1.111   0.180   1.270
 4810SOL    HW215330   1.043   0.328   1.265
 4811SOL     OW15331   5.500   6.101   2.936
 4811SOL    HW115332   5.512   6.041   2.857
 4811SOL    HW215333   5.587   6.111   2.984
 4812SOL     OW15334   6.590   4.883   4.458
 4812SOL    HW115335   6.559   4.935   4.378
 4812SOL    HW215336   6.650   4.940   4.514
 4813SOL     OW15337   5.599   2.656   2.653
 4813SOL    HW115338   5.523   2.598   2.682
 4813SOL    HW215339   5.612   2.730   2.720
 4814SOL     OW15340   6.845   3.585   1.562
 4814SOL    HW115341   6.784   3.516   1.601
 4814SOL    HW215342   6.827   3.673   1.604
 4815SOL     OW15343   4.139   6.334   2.755
 4815SOL    HW115344   4.146   6.348   2.853
 4815SOL    HW215345   4.208   6.268   2.726
 4816SOL     OW15346   5.404   5.454   3.202
 4816SOL    HW115347   5.325   5.393   3.208
 4816SOL    HW215348   5.445   5.465   3.293
 4817SOL     OW15349   6.792   2.077   6.398
 4817SOL    HW115350   6.694   2.074   6.378
 4817SOL    HW215351   6.808   2.034   6.487
 4818SOL     OW15352   6.918   6.166   3.614
 4818SOL    HW115353   6.953   6.181   3.707
 4818SOL    HW215354   6.928   6.069   3.590
 4819SOL     OW15355   1.887   2.999   0.924
 4819SOL    HW115356   1.827   2.919   0.922
 4819SOL    HW215357   1.857   3.061   0.997
 4820SOL     OW15358   0.521   3.088   2.401
 4820SOL    HW115359   0.602   3.105   2.457
 4820SOL    HW215360   0.507   3.164   2.338
 4821SOL     OW15361   6.777   5.724   3.802
 4821SOL    HW115362   6.750   5.792   3.869
 4821SOL    HW215363   6.866   5.749   3.763
 4822SOL     OW15364   1.950   4.349   4.241
 4822SOL    HW115365   1.958   4.422   4.174
 4822SOL    HW215366   2.038   4.337   4.288
 4823SOL     OW15367   1.858   2.936   1.821
 4823SOL    HW115368   1.866   2.853   1.876
 4823SOL    HW215369   1.940   2.992   1.835
 4824SOL     OW15370   6.045   1.854   6.582
 4824SOL    HW115371   6.131   1.849   6.531
 4824SOL    HW215372   6.040   1.942   6.630
 4825SOL     OW15373   0.875   6.830   3.986
 4825SOL    HW115374   0.892   6.819   4.083
 4825SOL    HW215375   0.802   6.768   3.957
 4826SOL     OW15376   3.952   0.678   1.060
 4826SOL    HW115377   3.927   0.644   0.969
 4826SOL    HW215378   3.868   0.705   1.109
 4827SOL     OW15379   6.963   1.826   0.780
 4827SOL    HW115380   6.885   1.813   0.719
 4827SOL    HW215381   0.018   1.872   0.731
 4828SOL     OW15382   5.628   1.183   4.871
 4828SOL    HW115383   5.648   1.274   4.906
 4828SOL    HW215384   5.555   1.141   4.926
 4829SOL     OW15385   4.353   6.432   4.897
 4829SOL    HW115386   4.294   6.358   4.930
 4829SOL    HW215387   4.302   6.517   4.893
 4830SOL     OW15388   1.766   6.256   3.561
 4830SOL    HW115389   1.673   6.220   3.568
 4830SOL    HW215390   1.808   6.223   3.476
 4831SOL     OW15391   3.145   4.594   5.311
 4831SOL    HW115392   3.100   4.576   5.224
 4831SOL    HW215393   3.076   4.604   5.383
 4832SOL     OW15394   3.843   3.493   4.283
 4832SOL    HW115395   3.785   3.498   4.364
 4832SOL    HW215396   3.787   3.472   4.203
 4833SOL     OW15397   6.114   3.450   5.075
 4833SOL    HW115398   6.105   3.424   4.979
 4833SOL    HW215399   6.035   3.415   5.126
 4834SOL     OW15400   1.126   4.906   1.269
 4834SOL    HW115401   1.073   4.952   1.198
 4834SOL    HW215402   1.183   4.835   1.228
 4835SOL     OW15403   0.129   2.920   5.458
 4835SOL    HW115404   0.127   3.009   5.505
 4835SOL    HW215405   0.069   2.923   5.378
 4836SOL     OW15406   4.560   1.906   5.934
 4836SOL    HW115407   4.475   1.888   5.886
 4836SOL    HW215408   4.589   1.824   5.983
 4837SOL     OW15409   0.309   3.736   4.032
 4837SOL    HW115410   0.336   3.775   3.944
 4837SOL    HW215411   0.323   3.637   4.031
 4838SOL     OW15412   1.934   3.696   6.062
 4838SOL    HW115413   1.905   3.680   6.156
 4838SOL    HW215414   1.885   3.634   6.001
 4839SOL     OW15415   2.515   1.271   0.565
 4839SOL    HW115416   2.465   1.356   0.581
 4839SOL    HW215417   2.545   1.267   0.470
 4840SOL     OW15418   5.849   3.142   5.280
 4840SOL    HW115419   5.776   3.199   5.241
 4840SOL    HW215420   5.932   3.197   5.290
 4841SOL     OW15421   2.771   6.239   3.338
 4841SOL    HW115422   2.847   6.280   3.288
 4841SOL    HW215423   2.768   6.277   3.431
 4842SOL     OW15424   3.916   5.763   3.018
 4842SOL    HW115425   3.988   5.792   2.955
 4842SOL    HW215426   3.943   5.786   3.112
 4843SOL     OW15427   6.926   1.624   6.977
 4843SOL    HW115428   6.842   1.676   6.997
 4843SOL    HW215429   6.981   1.673   6.910
 4844SOL     OW15430   1.244   5.777   6.112
 4844SOL    HW115431   1.295   5.853   6.070
 4844SOL    HW215432   1.154   5.769   6.069
 4845SOL     OW15433   5.016   3.758   5.071
 4845SOL    HW115434   5.004   3.811   5.155
 4845SOL    HW215435   4.939   3.695   5.060
 4846SOL     OW15436   5.951   3.203   4.312
 4846SOL    HW115437   5.885   3.250   4.255
 4846SOL    HW215438   6.043   3.219   4.277
 4847SOL     OW15439   2.521   6.587   6.225
 4847SOL    HW115440   2.459   6.638   6.166
 4847SOL    HW215441   2.489   6.591   6.319
 4848SOL     OW15442   4.664   1.331   4.142
 4848SOL    HW115443   4.715   1.246   4.130
 4848SOL    HW215444   4.721   1.398   4.189
 4849SOL     OW15445   2.481   6.395   0.997
 4849SOL    HW115446   2.421   6.318   1.015
 4849SOL    HW215447   2.496   6.446   1.083
 4850SOL     OW15448   3.618   0.070   1.056
 4850SOL    HW115449   3.557   0.093   0.980
 4850SOL    HW215450   3.596   6.998   1.090
 4851SOL     OW15451   3.750   4.716   6.772
 4851SOL    HW115452   3.739   4.627   6.726
 4851SOL    HW215453   3.742   4.789   6.704
 4852SOL     OW15454   5.464   5.028   5.906
 4852SOL    HW115455   5.365   5.031   5.923
 4852SOL    HW215456   5.508   4.973   5.977
 4853SOL     OW15457   4.612   6.899   2.607
 4853SOL    HW115458   4.706   6.881   2.578
 4853SOL    HW215459   4.555   6.820   2.585
 4854SOL     OW15460   4.067   6.524   2.343
 4854SOL    HW115461   4.015   6.471   2.276
 4854SOL    HW215462   4.069   6.620   2.315
 4855SOL     OW15463   5.124   5.184   5.713
 4855SOL    HW115464   5.082   5.203   5.802
 4855SOL    HW215465   5.215   5.224   5.710
 4856SOL     OW15466   0.470   3.846   2.403
 4856SOL    HW115467   0.381   3.800   2.403
 4856SOL    HW215468   0.528   3.806   2.333
 4857SOL     OW15469   2.593   2.392   5.025
 4857SOL    HW115470   2.675   2.385   4.970
 4857SOL    HW215471   2.609   2.350   5.114
 4858SOL     OW15472   1.774   6.628   4.611
 4858SOL    HW115473   1.869   6.657   4.606
 4858SOL    HW215474   1.717   6.706   4.639
 4859SOL     OW15475   6.885   5.625   2.780
 4859SOL    HW115476   6.815   5.696   2.772
 4859SOL    HW215477   6.915   5.597   2.689
 4860SOL     OW15478   4.154   5.269   2.336
 4860SOL    HW115479   4.112   5.247   2.248
 4860SOL    HW215480   4.193   5.361   2.333
 4861SOL     OW15481   0.085   4.289   5.866
 4861SOL    HW115482   0.141   4.207   5.873
 4861SOL    HW215483   0.141   4.370   5.884
 4862SOL     OW15484   2.260   6.501   4.322
 4862SOL    HW115485   2.340   6.442   4.317
 4862SOL    HW215486   2.184   6.452   4.365
 4863SOL     OW15487   5.540   2.019   2.435
 4863SOL    HW115488   5.554   2.116   2.453
 4863SOL    HW215489   5.620   1.968   2.466
 4864SOL     OW15490   2.127   1.596   1.183
 4864SOL    HW115491   2.034   1.595   1.222
 4864SOL    HW215492   2.188   1.543   1.242
 4865SOL     OW15493   3.944   5.904   4.865
 4865SOL    HW115494   3.954   5.857   4.778
 4865SOL    HW215495   3.899   5.844   4.931
 4866SOL     OW15496   0.481   5.074   1.834
 4866SOL    HW115497   0.432   5.159   1.815
 4866SOL    HW215498   0.425   5.016   1.893
 4867SOL     OW15499   4.920   4.629   4.153
 4867SOL    HW115500   4.971   4.543   4.157
 4867SOL    HW215501   4.978   4.703   4.186
 4868SOL     OW15502   2.015   5.648   1.397
 4868SOL    HW115503   1.924   5.626   1.361
 4868SOL    HW215504   2.030   5.598   1.482
 4869SOL     OW15505   6.250   2.063   1.097
 4869SOL    HW115506   6.185   2.015   1.155
 4869SOL    HW215507   6.302   1.997   1.043
 4870SOL     OW15508   6.830   0.442   1.276
 4870SOL    HW115509   6.808   0.360   1.223
 4870SOL    HW215510   6.752   0.468   1.332
 4871SOL     OW15511   1.963   4.056   4.437
 4871SOL    HW115512   1.917   4.026   4.520
 4871SOL    HW215513   2.032   3.988   4.411
 4872SOL     OW15514   0.980   0.605   4.044
 4872SOL    HW115515   0.911   0.577   3.976
 4872SOL    HW215516   1.012   0.524   4.093
 4873SOL     OW15517   1.049   6.627   5.165
 4873SOL    HW115518   1.128   6.625   5.104
 4873SOL    HW215519   1.035   6.720   5.198
 4874SOL     OW15520   5.805   3.129   3.576
 4874SOL    HW115521   5.755   3.216   3.584
 4874SOL    HW215522   5.896   3.139   3.615
 4875SOL     OW15523   6.839   2.740   6.325
 4875SOL    HW115524   6.928   2.707   6.354
 4875SOL    HW215525   6.817   2.706   6.234
 4876SOL     OW15526   0.136   1.772   0.078
 4876SOL    HW115527   0.064   1.710   0.110
 4876SOL    HW215528   0.117   1.801   7.004
 4877SOL     OW15529   6.135   1.028   2.054
 4877SOL    HW115530   6.073   1.008   2.131
 4877SOL    HW215531   6.119   0.963   1.980
 4878SOL     OW15532   0.426   2.796   1.827
 4878SOL    HW115533   0.413   2.889   1.863
 4878SOL    HW215534   0.340   2.746   1.832
 4879SOL     OW15535   5.010   5.902   3.241
 4879SOL    HW115536   4.911   5.893   3.254
 4879SOL    HW215537   5.031   5.902   3.143
 4880SOL     OW15538   5.841   1.818   5.704
 4880SOL    HW115539   5.833   1.907   5.660
 4880SOL    HW215540   5.770   1.757   5.670
 4881SOL     OW15541   2.620   5.523   6.625
 4881SOL    HW115542   2.594   5.614   6.592
 4881SOL    HW215543   2.667   5.474   6.552
 4882SOL     OW15544   4.789   6.839   6.965
 4882SOL    HW115545   4.823   6.755   7.007
 4882SOL    HW215546   4.757   6.902   0.017
 4883SOL     OW15547   6.105   5.669   0.031
 4883SOL    HW115548   6.018   5.691   7.007
 4883SOL    HW215549   6.120   5.570   0.028
 4884SOL     OW15550   4.050   6.415   1.250
 4884SOL    HW115551   3.986   6.341   1.272
 4884SOL    HW215552   4.000   6.502   1.245
 4885SOL     OW15553   2.212   0.007   2.925
 4885SOL    HW115554   2.178   6.967   2.998
 4885SOL    HW215555   2.159   0.092   2.925
 4886SOL     OW15556   5.991   0.615   5.968
 4886SOL    HW115557   6.010   0.697   5.914
 4886SOL    HW215558   5.950   0.641   6.055
 4887SOL     OW15559   0.208   2.081   5.852
 4887SOL    HW115560   0.186   2.171   5.813
 4887SOL    HW215561   0.183   2.079   5.949
 4888SOL     OW15562   3.388   6.145   1.953
 4888SOL    HW115563   3.435   6.062   1.984
 4888SOL    HW215564   3.423   6.170   1.862
 4889SOL     OW15565   1.516   3.011   6.210
 4889SOL    HW115566   1.509   3.087   6.275
 4889SOL    HW215567   1.570   3.039   6.131
 4890SOL     OW15568   0.585   0.379   4.315
 4890SOL    HW115569   0.599   0.282   4.294
 4890SOL    HW215570   0.645   0.404   4.391
 4891SOL     OW15571   1.448   3.859   0.801
 4891SOL    HW115572   1.512   3.923   0.844
 4891SOL    HW215573   1.356   3.898   0.802
 4892SOL     OW15574   1.642   5.388   2.372
 4892SOL    HW115575   1.698   5.461   2.413
 4892SOL    HW215576   1.566   5.429   2.322
 4893SOL     OW15577   1.083   3.669   6.553
 4893SOL    HW115578   1.145   3.592   6.565
 4893SOL    HW215579   1.135   3.754   6.553
 4894SOL     OW15580   1.907   0.745   3.334
 4894SOL    HW115581   1.922   0.649   3.310
 4894SOL    HW215582   1.985   0.799   3.303
 4895SOL     OW15583   6.199   4.460   0.097
 4895SOL    HW115584   6.140   4.390   0.137
 4895SOL    HW215585   6.146   4.544   0.083
 4896SOL     OW15586   4.106   6.010   3.604
 4896SOL    HW115587   4.020   6.034   3.648
 4896SOL    HW215588   4.113   5.910   3.596
 4897SOL     OW15589   2.444   6.289   6.655
 4897SOL    HW115590   2.543   6.300   6.665
 4897SOL    HW215591   2.398   6.318   6.739
 4898SOL     OW15592   6.288   1.885   4.914
 4898SOL    HW115593   6.303   1.803   4.859
 4898SOL    HW215594   6.377   1.927   4.934
 4899SOL     OW15595   5.139   4.555   4.916
 4899SOL    HW115596   5.172   4.482   4.977
 4899SOL    HW215597   5.216   4.614   4.890
 4900SOL     OW15598   0.411   6.665   5.584
 4900SOL    HW115599   0.352   6.723   5.528
 4900SOL    HW215600   0.489   6.720   5.616
 4901SOL     OW15601   0.025   6.773   3.313
 4901SOL    HW115602   0.075   6.839   3.258
 4901SOL    HW215603   6.996   6.709   3.253
 4902SOL     OW15604   3.389   4.876   1.830
 4902SOL    HW115605   3.329   4.863   1.751
 4902SOL    HW215606   3.455   4.801   1.834
 4903SOL     OW15607   5.397   5.590   6.139
 4903SOL    HW115608   5.435   5.537   6.064
 4903SOL    HW215609   5.313   5.635   6.109
 4904SOL     OW15610   2.782   6.374   3.582
 4904SOL    HW115611   2.810   6.462   3.543
 4904SOL    HW215612   2.858   6.337   3.636
 4905SOL     OW15613   6.090   3.682   3.392
 4905SOL    HW115614   6.177   3.730   3.387
 4905SOL    HW215615   6.060   3.677   3.487
 4906SOL     OW15616   5.266   1.095   1.011
 4906SOL    HW115617   5.312   1.142   0.935
 4906SOL    HW215618   5.287   1.143   1.097
 4907SOL     OW15619   2.386   1.891   2.171
 4907SOL    HW115620   2.303   1.895   2.226
 4907SOL    HW215621   2.463   1.926   2.225
 4908SOL     OW15622   3.822   5.032   0.327
 4908SOL    HW115623   3.778   5.011   0.240
 4908SOL    HW215624   3.764   5.094   0.380
 4909SOL     OW15625   6.008   0.378   5.396
 4909SOL    HW115626   5.944   0.455   5.393
 4909SOL    HW215627   5.984   0.312   5.325
 4910SOL     OW15628   5.943   6.699   6.066
 4910SOL    HW115629   5.956   6.609   6.107
 4910SOL    HW215630   5.893   6.689   5.980
 4911SOL     OW15631   1.022   3.423   6.026
 4911SOL    HW115632   0.961   3.481   6.080
 4911SOL    HW215633   1.068   3.479   5.957
 4912SOL     OW15634   2.610   2.447   1.982
 4912SOL    HW115635   2.639   2.488   1.896
 4912SOL    HW215636   2.691   2.427   2.038
 4913SOL     OW15637   2.905   3.420   1.884
 4913SOL    HW115638   2.927   3.436   1.788
 4913SOL    HW215639   2.808   3.435   1.900
 4914SOL     OW15640   1.914   6.533   2.497
 4914SOL    HW115641   1.924   6.532   2.397
 4914SOL    HW215642   1.965   6.611   2.534
 4915SOL     OW15643   2.623   6.068   3.202
 4915SOL    HW115644   2.587   6.120   3.124
 4915SOL    HW215645   2.682   6.127   3.257
 4916SOL     OW15646   1.907   2.253   2.553
 4916SOL    HW115647   1.950   2.312   2.484
 4916SOL    HW215648   1.811   2.239   2.530
 4917SOL     OW15649   2.343   4.849   6.026
 4917SOL    HW115650   2.370   4.756   6.052
 4917SOL    HW215651   2.417   4.913   6.051
 4918SOL     OW15652   2.186   0.570   3.763
 4918SOL    HW115653   2.268   0.572   3.821
 4918SOL    HW215654   2.109   0.611   3.813
 4919SOL     OW15655   2.423   3.118   1.665
 4919SOL    HW115656   2.361   3.111   1.743
 4919SOL    HW215657   2.416   3.210   1.626
 4920SOL     OW15658   4.393   0.883   0.012
 4920SOL    HW115659   4.326   0.884   0.087
 4920SOL    HW215660   4.477   0.839   0.043
 4921SOL     OW15661   1.124   4.558   1.855
 4921SOL    HW115662   1.063   4.637   1.855
 4921SOL    HW215663   1.098   4.496   1.929
 4922SOL     OW15664   0.716   2.883   5.737
 4922SOL    HW115665   0.672   2.869   5.826
 4922SOL    HW215666   0.805   2.838   5.737
 4923SOL     OW15667   3.020   2.337   0.033
 4923SOL    HW115668   3.004   2.269   6.980
 4923SOL    HW215669   2.956   2.413   0.022
 4924SOL     OW15670   0.101   3.519   4.055
 4924SOL    HW115671   0.144   3.471   4.132
 4924SOL    HW215672   0.065   3.606   4.087
 4925SOL     OW15673   4.928   6.092   6.560
 4925SOL    HW115674   4.854   6.053   6.615
 4925SOL    HW215675   5.015   6.050   6.587
 4926SOL     OW15676   4.485   2.924   0.597
 4926SOL    HW115677   4.406   2.915   0.537
 4926SOL    HW215678   4.563   2.876   0.557
 4927SOL     OW15679   3.483   4.121   2.439
 4927SOL    HW115680   3.524   4.031   2.454
 4927SOL    HW215681   3.515   4.184   2.510
 4928SOL     OW15682   0.863   6.418   0.723
 4928SOL    HW115683   0.877   6.320   0.713
 4928SOL    HW215684   0.895   6.465   0.641
 4929SOL     OW15685   0.598   4.892   4.519
 4929SOL    HW115686   0.612   4.871   4.422
 4929SOL    HW215687   0.643   4.823   4.575
 4930SOL     OW15688   0.502   2.900   0.670
 4930SOL    HW115689   0.466   2.985   0.634
 4930SOL    HW215690   0.549   2.917   0.757
 4931SOL     OW15691   6.849   6.643   0.810
 4931SOL    HW115692   6.793   6.561   0.826
 4931SOL    HW215693   6.942   6.626   0.841
 4932SOL     OW15694   3.779   1.972   1.140
 4932SOL    HW115695   3.807   2.050   1.084
 4932SOL    HW215696   3.816   1.981   1.232
 4933SOL     OW15697   2.792   0.223   5.004
 4933SOL    HW115698   2.726   0.150   5.024
 4933SOL    HW215699   2.809   0.276   5.087
 4934SOL     OW15700   1.527   5.758   5.660
 4934SOL    HW115701   1.526   5.777   5.562
 4934SOL    HW215702   1.527   5.845   5.711
 4935SOL     OW15703   1.971   1.230   0.631
 4935SOL    HW115704   1.986   1.133   0.616
 4935SOL    HW215705   2.057   1.280   0.620
 4936SOL     OW15706   4.590   6.341   1.647
 4936SOL    HW115707   4.607   6.343   1.746
 4936SOL    HW215708   4.516   6.404   1.625
 4937SOL     OW15709   0.830   2.894   5.059
 4937SOL    HW115710   0.808   2.899   4.962
 4937SOL    HW215711   0.812   2.801   5.093
 4938SOL     OW15712   3.368   5.126   2.019
 4938SOL    HW115713   3.461   5.092   2.035
 4938SOL    HW215714   3.332   5.084   1.935
 4939SOL     OW15715   0.958   1.459   1.364
 4939SOL    HW115716   0.915   1.391   1.423
 4939SOL    HW215717   0.888   1.500   1.304
 4940SOL     OW15718   0.640   2.058   5.862
 4940SOL    HW115719   0.652   2.140   5.807
 4940SOL    HW215720   0.693   1.983   5.823
 4941SOL     OW15721   4.313   2.659   5.300
 4941SOL    HW115722   4.218   2.642   5.274
 4941SOL    HW215723   4.371   2.585   5.265
 4942SOL     OW15724   0.463   1.884   3.112
 4942SOL    HW115725   0.395   1.922   3.049
 4942SOL    HW215726   0.433   1.898   3.206
 4943SOL     OW15727   5.467   2.864   6.899
 4943SOL    HW115728   5.556   2.894   6.931
 4943SOL    HW215729   5.462   2.871   6.799
 4944SOL     OW15730   1.129   5.091   6.940
 4944SOL    HW115731   1.031   5.107   6.926
 4944SOL    HW215732   1.178   5.110   6.854
 4945SOL     OW15733   2.288   0.397   5.447
 4945SOL    HW115734   2.221   0.472   5.443
 4945SOL    HW215735   2.380   0.435   5.457
 4946SOL     OW15736   2.709   5.185   6.761
 4946SOL    HW115737   2.673   5.166   6.853
 4946SOL    HW215738   2.783   5.251   6.768
 4947SOL     OW15739   0.976   0.465   1.136
 4947SOL    HW115740   0.971   0.483   1.038
 4947SOL    HW215741   0.962   0.551   1.186
 4948SOL     OW15742   1.969   2.209   2.185
 4948SOL    HW115743   1.990   2.183   2.091
 4948SOL    HW215744   2.041   2.269   2.220
 4949SOL     OW15745   7.007   4.022   6.292
 4949SOL    HW115746   6.946   3.950   6.325
 4949SOL    HW215747   0.007   4.007   6.195
 4950SOL     OW15748   3.780   4.822   5.982
 4950SOL    HW115749   3.844   4.769   5.927
 4950SOL    HW215750   3.686   4.799   5.955
 4951SOL     OW15751   5.341   5.866   3.338
 4951SOL    HW115752   5.319   5.962   3.319
 4951SOL    HW215753   5.278   5.832   3.408
 4952SOL     OW15754   0.338   0.386   6.922
 4952SOL    HW115755   0.340   0.429   6.832
 4952SOL    HW215756   0.426   0.398   6.967
 4953SOL     OW15757   1.539   2.535   4.972
 4953SOL    HW115758   1.557   2.475   5.050
 4953SOL    HW215759   1.613   2.602   4.964
 4954SOL     OW15760   3.057   3.672   4.487
 4954SOL    HW115761   3.009   3.594   4.528
 4954SOL    HW215762   3.107   3.642   4.406
 4955SOL     OW15763   3.984   5.853   5.960
 4955SOL    HW115764   3.991   5.759   5.927
 4955SOL    HW215765   3.897   5.893   5.929
 4956SOL     OW15766   2.859   0.023   4.645
 4956SOL    HW115767   2.850   0.120   4.668
 4956SOL    HW215768   2.834   0.009   4.550
 4957SOL     OW15769   5.710   4.488   0.182
 4957SOL    HW115770   5.698   4.470   0.084
 4957SOL    HW215771   5.697   4.403   0.233
 4958SOL     OW15772   3.701   5.703   0.891
 4958SOL    HW115773   3.726   5.645   0.969
 4958SOL    HW215774   3.781   5.716   0.833
 4959SOL     OW15775   6.991   2.439   2.769
 4959SOL    HW115776   0.032   2.364   2.740
 4959SOL    HW215777   6.896   2.407   2.772
 4960SOL     OW15778   5.194   4.630   3.610
 4960SOL    HW115779   5.154   4.666   3.694
 4960SOL    HW215780   5.128   4.568   3.566
 4961SOL     OW15781   3.258   2.127   1.716
 4961SOL    HW115782   3.240   2.103   1.811
 4961SOL    HW215783   3.322   2.062   1.676
 4962SOL     OW15784   1.226   3.161   0.391
 4962SOL    HW115785   1.324   3.152   0.373
 4962SOL    HW215786   1.200   3.099   0.465
 4963SOL     OW15787   0.570   3.643   5.825
 4963SOL    HW115788   0.616   3.718   5.777
 4963SOL    HW215789   0.503   3.601   5.763
 4964SOL     OW15790   2.472   6.425   4.730
 4964SOL    HW115791   2.494   6.331   4.704
 4964SOL    HW215792   2.533   6.455   4.803
 4965SOL     OW15793   1.488   6.504   3.029
 4965SOL    HW115794   1.446   6.583   2.984
 4965SOL    HW215795   1.515   6.437   2.960
 4966SOL     OW15796   3.060   6.122   4.290
 4966SOL    HW115797   2.970   6.166   4.283
 4966SOL    HW215798   3.085   6.114   4.387
 4967SOL     OW15799   4.393   4.775   4.888
 4967SOL    HW115800   4.355   4.698   4.939
 4967SOL    HW215801   4.487   4.792   4.918
 4968SOL     OW15802   0.214   2.650   3.127
 4968SOL    HW115803   0.302   2.689   3.100
 4968SOL    HW215804   0.228   2.558   3.165
 4969SOL     OW15805   6.932   5.609   4.250
 4969SOL    HW115806   6.913   5.661   4.333
 4969SOL    HW215807   6.847   5.569   4.215
 4970SOL     OW15808   1.741   1.826   1.303
 4970SOL    HW115809   1.727   1.852   1.207
 4970SOL    HW215810   1.663   1.857   1.357
 4971SOL     OW15811   0.078   6.070   2.760
 4971SOL    HW115812   0.174   6.095   2.759
 4971SOL    HW215813   0.044   6.062   2.666
 4972SOL     OW15814   0.373   4.391   0.997
 4972SOL    HW115815   0.281   4.395   1.036
 4972SOL    HW215816   0.438   4.363   1.067
 4973SOL     OW15817   6.292   1.412   0.564
 4973SOL    HW115818   6.353   1.346   0.520
 4973SOL    HW215819   6.197   1.383   0.551
 4974SOL     OW15820   3.188   6.493   4.622
 4974SOL    HW115821   3.230   6.576   4.656
 4974SOL    HW215822   3.101   6.515   4.577
 4975SOL     OW15823   5.127   4.909   1.029
 4975SOL    HW115824   5.090   4.971   0.961
 4975SOL    HW215825   5.051   4.866   1.079
 4976SOL     OW15826   1.270   0.062   3.511
 4976SOL    HW115827   1.364   0.093   3.517
 4976SOL    HW215828   1.268   6.985   3.483
 4977SOL     OW15829   1.362   3.999   5.805
 4977SOL    HW115830   1.370   3.907   5.766
 4977SOL    HW215831   1.266   4.024   5.813
 4978SOL     OW15832   6.134   4.158   4.711
 4978SOL    HW115833   6.196   4.206   4.648
 4978SOL    HW215834   6.041   4.160   4.674
 4979SOL     OW15835   2.701   7.010   6.177
 4979SOL    HW115836   2.788   0.009   6.132
 4979SOL    HW215837   2.718   6.978   6.271
 4980SOL     OW15838   5.383   3.000   4.166
 4980SOL    HW115839   5.366   3.088   4.210
 4980SOL    HW215840   5.415   2.934   4.234
 4981SOL     OW15841   3.071   4.870   2.821
 4981SOL    HW115842   2.981   4.826   2.815
 4981SOL    HW215843   3.104   4.865   2.915
 4982SOL     OW15844   3.935   2.598   5.584
 4982SOL    HW115845   4.020   2.647   5.571
 4982SOL    HW215846   3.921   2.534   5.508
 4983SOL     OW15847   5.756   4.705   2.964
 4983SOL    HW115848   5.818   4.671   2.893
 4983SOL    HW215849   5.746   4.804   2.955
 4984SOL     OW15850   4.900   3.557   4.035
 4984SOL    HW115851   4.860   3.467   4.056
 4984SOL    HW215852   4.979   3.572   4.095
 4985SOL     OW15853   5.323   0.624   2.475
 4985SOL    HW115854   5.373   0.707   2.450
 4985SOL    HW215855   5.286   0.634   2.567
 4986SOL     OW15856   0.994   5.010   1.072
 4986SOL    HW115857   0.941   5.095   1.080
 4986SOL    HW215858   1.015   4.993   0.976
 4987SOL     OW15859   1.012   1.425   2.243
 4987SOL    HW115860   1.010   1.360   2.318
 4987SOL    HW215861   0.954   1.503   2.264
 4988SOL     OW15862   6.366   5.666   4.027
 4988SOL    HW115863   6.349   5.744   3.967
 4988SOL    HW215864   6.462   5.667   4.057
 4989SOL     OW15865   5.420   0.293   3.923
 4989SOL    HW115866   5.414   0.202   3.882
 4989SOL    HW215867   5.351   0.302   3.995
 4990SOL     OW15868   4.442   2.318   5.591
 4990SOL    HW115869   4.477   2.374   5.516
 4990SOL    HW215870   4.510   2.316   5.665
 4991SOL     OW15871   1.509   5.079   5.884
 4991SOL    HW115872   1.513   4.998   5.826
 4991SOL    HW215873   1.432   5.137   5.856
 4992SOL     OW15874   1.286   3.348   4.103
 4992SOL    HW115875   1.355   3.344   4.175
 4992SOL    HW215876   1.222   3.423   4.121
 4993SOL     OW15877   2.409   5.999   3.940
 4993SOL    HW115878   2.333   6.043   3.987
 4993SOL    HW215879   2.475   6.068   3.911
 4994SOL     OW15880   3.646   5.056   5.337
 4994SOL    HW115881   3.623   5.081   5.431
 4994SOL    HW215882   3.585   4.982   5.307
 4995SOL     OW15883   0.070   0.634   5.881
 4995SOL    HW115884   0.086   0.720   5.929
 4995SOL    HW215885   7.015   0.645   5.816
 4996SOL     OW15886   0.583   1.432   3.822
 4996SOL    HW115887   0.534   1.352   3.788
 4996SOL    HW215888   0.653   1.459   3.756
 4997SOL     OW15889   3.880   1.728   1.005
 4997SOL    HW115890   3.811   1.656   1.014
 4997SOL    HW215891   3.854   1.807   1.061
 4998SOL     OW15892   0.831   3.740   3.191
 4998SOL    HW115893   0.775   3.777   3.117
 4998SOL    HW215894   0.771   3.712   3.266
 4999SOL     OW15895   0.664   2.512   3.766
 4999SOL    HW115896   0.603   2.450   3.717
 4999SOL    HW215897   0.725   2.556   3.700
 5000SOL     OW15898   2.864   5.912   2.647
 5000SOL    HW115899   2.841   5.825   2.603
 5000SOL    HW215900   2.939   5.898   2.713
 5001SOL     OW15901   0.588   6.207   3.012
 5001SOL    HW115902   0.607   6.233   3.106
 5001SOL    HW215903   0.491   6.183   3.003
 5002SOL     OW15904   1.709   4.594   4.135
 5002SOL    HW115905   1.788   4.550   4.093
 5002SOL    HW215906   1.667   4.532   4.201
 5003SOL     OW15907   3.934   0.339   3.314
 5003SOL    HW115908   3.977   0.380   3.234
 5003SOL    HW215909   3.946   0.399   3.393
 5004SOL     OW15910   3.827   5.505   6.996
 5004SOL    HW115911   3.860   5.589   6.954
 5004SOL    HW215912   3.813   5.520   0.075
 5005SOL     OW15913   2.645   2.740   6.770
 5005SOL    HW115914   2.611   2.833   6.751
 5005SOL    HW215915   2.568   2.682   6.797
 5006SOL     OW15916   5.212   1.600   2.207
 5006SOL    HW115917   5.188   1.640   2.119
 5006SOL    HW215918   5.269   1.519   2.193
 5007SOL     OW15919   5.567   6.196   1.918
 5007SOL    HW115920   5.563   6.277   1.977
 5007SOL    HW215921   5.590   6.116   1.973
 5008SOL     OW15922   5.501   0.606   3.061
 5008SOL    HW115923   5.484   0.656   2.976
 5008SOL    HW215924   5.500   0.670   3.137
 5009SOL     OW15925   6.450   2.360   0.475
 5009SOL    HW115926   6.527   2.409   0.516
 5009SOL    HW215927   6.437   2.274   0.525
 5010SOL     OW15928   3.495   3.626   0.656
 5010SOL    HW115929   3.543   3.586   0.733
 5010SOL    HW215930   3.544   3.607   0.572
 5011SOL     OW15931   1.621   3.348   6.399
 5011SOL    HW115932   1.667   3.384   6.480
 5011SOL    HW215933   1.655   3.256   6.379
 5012SOL     OW15934   6.391   1.547   6.151
 5012SOL    HW115935   6.482   1.589   6.152
 5012SOL    HW215936   6.359   1.540   6.057
 5013SOL     OW15937   5.873   0.166   6.093
 5013SOL    HW115938   5.890   0.091   6.157
 5013SOL    HW215939   5.878   0.131   6.000
 5014SOL     OW15940   5.840   3.278   2.042
 5014SOL    HW115941   5.786   3.305   1.962
 5014SOL    HW215942   5.839   3.178   2.051
 5015SOL     OW15943   6.008   6.482   3.986
 5015SOL    HW115944   5.984   6.526   3.900
 5015SOL    HW215945   5.936   6.498   4.053
 5016SOL     OW15946   1.856   3.672   5.607
 5016SOL    HW115947   1.927   3.605   5.587
 5016SOL    HW215948   1.894   3.744   5.666
 5017SOL     OW15949   0.451   3.331   1.813
 5017SOL    HW115950   0.355   3.303   1.818
 5017SOL    HW215951   0.506   3.255   1.778
 5018SOL     OW15952   1.058   0.117   6.878
 5018SOL    HW115953   1.076   0.025   6.842
 5018SOL    HW215954   0.964   0.143   6.856
 5019SOL     OW15955   0.998   5.112   4.658
 5019SOL    HW115956   1.019   5.034   4.716
 5019SOL    HW215957   0.899   5.127   4.656
 5020SOL     OW15958   2.505   0.345   4.841
 5020SOL    HW115959   2.476   0.422   4.897
 5020SOL    HW215960   2.506   0.262   4.897
 5021SOL     OW15961   1.953   0.953   0.638
 5021SOL    HW115962   1.948   0.877   0.703
 5021SOL    HW215963   1.981   0.918   0.549
 5022SOL     OW15964   6.794   2.906   1.271
 5022SOL    HW115965   6.824   2.824   1.223
 5022SOL    HW215966   6.788   2.887   1.369
 5023SOL     OW15967   0.220   4.333   2.544
 5023SOL    HW115968   0.229   4.421   2.591
 5023SOL    HW215969   0.125   4.302   2.550
 5024SOL     OW15970   4.472   4.122   0.962
 5024SOL    HW115971   4.376   4.143   0.982
 5024SOL    HW215972   4.529   4.151   1.039
 5025SOL     OW15973   4.576   1.630   4.726
 5025SOL    HW115974   4.512   1.622   4.803
 5025SOL    HW215975   4.557   1.714   4.675
 5026SOL     OW15976   4.733   6.692   4.522
 5026SOL    HW115977   4.755   6.789   4.513
 5026SOL    HW215978   4.812   6.644   4.562
 5027SOL     OW15979   4.660   5.868   1.025
 5027SOL    HW115980   4.735   5.930   1.048
 5027SOL    HW215981   4.595   5.916   0.965
 5028SOL     OW15982   6.479   1.676   2.339
 5028SOL    HW115983   6.464   1.672   2.438
 5028SOL    HW215984   6.577   1.673   2.320
 5029SOL     OW15985   5.822   1.948   2.361
 5029SOL    HW115986   5.864   2.029   2.402
 5029SOL    HW215987   5.794   1.968   2.268
 5030SOL     OW15988   0.157   4.346   6.699
 5030SOL    HW115989   0.081   4.320   6.640
 5030SOL    HW215990   0.241   4.302   6.667
 5031SOL     OW15991   6.483   6.771   6.506
 5031SOL    HW115992   6.570   6.764   6.456
 5031SOL    HW215993   6.411   6.800   6.443
 5032SOL     OW15994   3.183   3.272   5.793
 5032SOL    HW115995   3.158   3.369   5.799
 5032SOL    HW215996   3.278   3.264   5.763
 5033SOL     OW15997   2.111   0.455   6.348
 5033SOL    HW115998   2.131   0.427   6.255
 5033SOL    HW215999   2.105   0.555   6.352
 5034SOL     OW16000   4.873   6.770   4.820
 5034SOL    HW116001   4.937   6.844   4.839
 5034SOL    HW216002   4.908   6.713   4.746
 5035SOL     OW16003   1.997   3.298   4.004
 5035SOL    HW116004   2.063   3.273   3.934
 5035SOL    HW216005   2.034   3.275   4.094
 5036SOL     OW16006   0.388   2.366   4.886
 5036SOL    HW116007   0.379   2.458   4.847
 5036SOL    HW216008   0.425   2.304   4.816
 5037SOL     OW16009   4.182   4.109   0.984
 5037SOL    HW116010   4.112   4.039   0.999
 5037SOL    HW216011   4.184   4.171   1.063
 5038SOL     OW16012   3.879   4.027   3.762
 5038SOL    HW116013   3.891   3.981   3.850
 5038SOL    HW216014   3.964   4.019   3.710
 5039SOL     OW16015   0.897   3.607   6.157
 5039SOL    HW116016   0.980   3.658   6.182
 5039SOL    HW216017   0.824   3.671   6.136
 5040SOL     OW16018   0.107   1.095   5.551
 5040SOL    HW116019   0.029   1.134   5.599
 5040SOL    HW216020   0.192   1.136   5.585
 5041SOL     OW16021   0.047   2.762   1.651
 5041SOL    HW116022   0.109   2.774   1.574
 5041SOL    HW216023   0.097   2.720   1.728
 5042SOL     OW16024   0.706   2.514   6.341
 5042SOL    HW116025   0.801   2.531   6.365
 5042SOL    HW216026   0.649   2.590   6.373
 5043SOL     OW16027   3.750   6.803   2.063
 5043SOL    HW116028   3.770   6.877   2.126
 5043SOL    HW216029   3.836   6.759   2.034
 5044SOL     OW16030   6.741   4.771   0.453
 5044SOL    HW116031   6.708   4.838   0.519
 5044SOL    HW216032   6.691   4.685   0.464
 5045SOL     OW16033   6.270   3.043   6.739
 5045SOL    HW116034   6.316   2.964   6.698
 5045SOL    HW216035   6.225   3.096   6.667
 5046SOL     OW16036   3.504   3.364   2.676
 5046SOL    HW116037   3.581   3.406   2.725
 5046SOL    HW216038   3.532   3.342   2.583
 5047SOL     OW16039   1.508   3.725   3.920
 5047SOL    HW116040   1.536   3.641   3.875
 5047SOL    HW216041   1.433   3.767   3.869
 5048SOL     OW16042   2.074   0.993   6.257
 5048SOL    HW116043   2.160   1.044   6.247
 5048SOL    HW216044   2.004   1.033   6.198
 5049SOL     OW16045   4.945   1.739   6.900
 5049SOL    HW116046   5.038   1.765   6.926
 5049SOL    HW216047   4.946   1.649   6.855
 5050SOL     OW16048   1.436   6.764   0.817
 5050SOL    HW116049   1.515   6.724   0.770
 5050SOL    HW216050   1.420   6.857   0.782
 5051SOL     OW16051   4.484   5.076   1.005
 5051SOL    HW116052   4.515   5.164   1.041
 5051SOL    HW216053   4.558   5.009   1.013
 5052SOL     OW16054   2.668   1.482   5.239
 5052SOL    HW116055   2.604   1.500   5.314
 5052SOL    HW216056   2.637   1.530   5.157
 5053SOL     OW16057   0.209   0.579   1.984
 5053SOL    HW116058   0.216   0.657   2.046
 5053SOL    HW216059   0.114   0.569   1.954
 5054SOL     OW16060   3.772   5.244   4.318
 5054SOL    HW116061   3.759   5.334   4.360
 5054SOL    HW216062   3.864   5.211   4.339
 5055SOL     OW16063   0.228   3.762   6.358
 5055SOL    HW116064   0.200   3.775   6.453
 5055SOL    HW216065   0.147   3.742   6.302
 5056SOL     OW16066   5.224   4.371   4.189
 5056SOL    HW116067   5.233   4.271   4.190
 5056SOL    HW216068   5.260   4.407   4.102
 5057SOL     OW16069   1.159   6.001   2.131
 5057SOL    HW116070   1.173   5.936   2.206
 5057SOL    HW216071   1.061   6.018   2.120
 5058SOL     OW16072   2.758   5.560   5.410
 5058SOL    HW116073   2.685   5.624   5.436
 5058SOL    HW216074   2.785   5.505   5.490
 5059SOL     OW16075   6.890   0.363   2.178
 5059SOL    HW116076   6.854   0.416   2.254
 5059SOL    HW216077   6.836   0.279   2.167
 5060SOL     OW16078   6.299   2.100   5.734
 5060SOL    HW116079   6.231   2.108   5.807
 5060SOL    HW216080   6.366   2.174   5.742
 5061SOL     OW16081   5.325   4.620   0.221
 5061SOL    HW116082   5.322   4.705   0.272
 5061SOL    HW216083   5.360   4.547   0.280
 5062SOL     OW16084   0.438   0.351   0.935
 5062SOL    HW116085   0.463   0.369   0.840
 5062SOL    HW216086   0.512   0.380   0.996
 5063SOL     OW16087   1.863   5.933   1.249
 5063SOL    HW116088   1.861   5.970   1.157
 5063SOL    HW216089   1.854   6.007   1.316
 5064SOL     OW16090   5.028   3.456   0.142
 5064SOL    HW116091   5.112   3.405   0.159
 5064SOL    HW216092   5.037   3.549   0.177
 5065SOL     OW16093   2.428   6.252   5.510
 5065SOL    HW116094   2.389   6.161   5.504
 5065SOL    HW216095   2.512   6.249   5.564
 5066SOL     OW16096   4.704   4.901   1.102
 5066SOL    HW116097   4.775   4.943   1.159
 5066SOL    HW216098   4.637   4.857   1.161
 5067SOL     OW16099   5.414   1.236   6.704
 5067SOL    HW116100   5.505   1.276   6.720
 5067SOL    HW216101   5.389   1.248   6.608
 5068SOL     OW16102   3.082   5.296   1.916
 5068SOL    HW116103   3.134   5.243   1.849
 5068SOL    HW216104   3.140   5.317   1.994
 5069SOL     OW16105   0.494   5.050   3.007
 5069SOL    HW116106   0.477   4.982   2.936
 5069SOL    HW216107   0.547   5.126   2.968
 5070SOL     OW16108   4.889   3.276   4.156
 5070SOL    HW116109   4.889   3.221   4.072
 5070SOL    HW216110   4.865   3.217   4.233
 5071SOL     OW16111   3.819   0.910   6.917
 5071SOL    HW116112   3.727   0.874   6.934
 5071SOL    HW216113   3.814   1.008   6.900
 5072SOL     OW16114   1.322   4.140   1.100
 5072SOL    HW116115   1.284   4.076   1.167
 5072SOL    HW216116   1.318   4.233   1.137
 5073SOL     OW16117   4.200   1.524   4.001
 5073SOL    HW116118   4.148   1.538   3.917
 5073SOL    HW216119   4.295   1.501   3.978
 5074SOL     OW16120   3.247   4.369   5.862
 5074SOL    HW116121   3.234   4.347   5.765
 5074SOL    HW216122   3.320   4.311   5.899
 5075SOL     OW16123   6.755   5.903   4.024
 5075SOL    HW116124   6.685   5.972   4.043
 5075SOL    HW216125   6.845   5.946   4.018
 5076SOL     OW16126   3.423   0.901   0.914
 5076SOL    HW116127   3.358   0.834   0.948
 5076SOL    HW216128   3.473   0.862   0.836
 5077SOL     OW16129   0.745   2.342   2.056
 5077SOL    HW116130   0.833   2.294   2.047
 5077SOL    HW216131   0.753   2.411   2.128
 5078SOL     OW16132   1.007   1.256   4.128
 5078SOL    HW116133   0.942   1.237   4.202
 5078SOL    HW216134   0.960   1.309   4.056
 5079SOL     OW16135   4.373   5.040   4.977
 5079SOL    HW116136   4.346   4.946   4.955
 5079SOL    HW216137   4.416   5.042   5.067
 5080SOL     OW16138   6.095   6.870   5.820
 5080SOL    HW116139   6.170   6.924   5.859
 5080SOL    HW216140   6.083   6.786   5.873
 5081SOL     OW16141   3.332   3.514   3.057
 5081SOL    HW116142   3.287   3.600   3.030
 5081SOL    HW216143   3.263   3.442   3.065
 5082SOL     OW16144   6.293   6.799   5.398
 5082SOL    HW116145   6.236   6.778   5.477
 5082SOL    HW216146   6.244   6.777   5.314
 5083SOL     OW16147   1.657   5.538   1.751
 5083SOL    HW116148   1.745   5.535   1.704
 5083SOL    HW216149   1.641   5.630   1.786
 5084SOL     OW16150   2.205   6.206   2.766
 5084SOL    HW116151   2.218   6.161   2.855
 5084SOL    HW216152   2.113   6.187   2.733
 5085SOL     OW16153   6.344   3.314   5.989
 5085SOL    HW116154   6.381   3.401   6.021
 5085SOL    HW216155   6.287   3.330   5.908
 5086SOL     OW16156   6.966   5.351   3.532
 5086SOL    HW116157   6.880   5.326   3.576
 5086SOL    HW216158   6.949   5.379   3.437
 5087SOL     OW16159   0.173   5.816   5.301
 5087SOL    HW116160   0.088   5.781   5.341
 5087SOL    HW216161   0.193   5.768   5.216
 5088SOL     OW16162   5.588   7.012   6.908
 5088SOL    HW116163   5.563   0.052   6.832
 5088SOL    HW216164   5.661   6.950   6.880
 5089SOL     OW16165   5.118   2.590   3.951
 5089SOL    HW116166   5.113   2.529   4.029
 5089SOL    HW216167   5.159   2.677   3.979
 5090SOL     OW16168   1.567   4.566   0.527
 5090SOL    HW116169   1.482   4.610   0.556
 5090SOL    HW216170   1.558   4.467   0.537
 5091SOL     OW16171   1.583   6.084   3.008
 5091SOL    HW116172   1.561   6.158   2.945
 5091SOL    HW216173   1.549   5.997   2.971
 5092SOL     OW16174   3.783   2.982   1.731
 5092SOL    HW116175   3.710   3.041   1.695
 5092SOL    HW216176   3.862   3.038   1.755
 5093SOL     OW16177   0.791   2.143   0.800
 5093SOL    HW116178   0.779   2.102   0.710
 5093SOL    HW216179   0.876   2.196   0.801
 5094SOL     OW16180   6.496   0.140   6.375
 5094SOL    HW116181   6.402   0.160   6.405
 5094SOL    HW216182   6.559   0.154   6.451
 5095SOL     OW16183   3.012   0.017   4.958
 5095SOL    HW116184   3.087   0.021   4.891
 5095SOL    HW216185   2.959   0.102   4.954
 5096SOL     OW16186   4.307   5.206   2.561
 5096SOL    HW116187   4.400   5.222   2.529
 5096SOL    HW216188   4.242   5.229   2.488
 5097SOL     OW16189   0.883   0.886   6.760
 5097SOL    HW116190   0.939   0.894   6.842
 5097SOL    HW216191   0.869   0.790   6.739
 5098SOL     OW16192   6.654   2.849   2.751
 5098SOL    HW116193   6.637   2.766   2.804
 5098SOL    HW216194   6.661   2.827   2.654
 5099SOL     OW16195   1.128   6.916   4.684
 5099SOL    HW116196   1.051   6.884   4.627
 5099SOL    HW216197   1.207   6.857   4.668
 5100SOL     OW16198   5.132   5.929   6.652
 5100SOL    HW116199   5.197   5.866   6.610
 5100SOL    HW216200   5.055   5.877   6.690
 5101SOL     OW16201   3.976   6.043   0.446
 5101SOL    HW116202   4.003   6.128   0.401
 5101SOL    HW216203   3.910   6.063   0.518
 5102SOL     OW16204   3.955   5.782   4.605
 5102SOL    HW116205   3.929   5.686   4.617
 5102SOL    HW216206   3.874   5.835   4.580
 5103SOL     OW16207   1.287   0.792   4.595
 5103SOL    HW116208   1.315   0.742   4.513
 5103SOL    HW216209   1.221   0.863   4.570
 5104SOL     OW16210   1.344   6.652   1.224
 5104SOL    HW116211   1.348   6.732   1.165
 5104SOL    HW216212   1.281   6.584   1.184
 5105SOL     OW16213   2.442   3.215   6.470
 5105SOL    HW116214   2.355   3.170   6.491
 5105SOL    HW216215   2.429   3.277   6.393
 5106SOL     OW16216   3.083   0.315   2.336
 5106SOL    HW116217   3.127   0.382   2.276
 5106SOL    HW216218   3.092   0.343   2.431
 5107SOL     OW16219   1.156   6.872   6.016
 5107SOL    HW116220   1.246   6.831   6.035
 5107SOL    HW216221   1.168   6.967   5.989
 5108SOL     OW16222   2.940   3.558   3.701
 5108SOL    HW116223   2.924   3.474   3.648
 5108SOL    HW216224   2.935   3.537   3.798
 5109SOL     OW16225   0.069   1.475   1.204
 5109SOL    HW116226   0.069   1.397   1.266
 5109SOL    HW216227   0.102   1.446   1.114
 5110SOL     OW16228   1.868   6.216   5.407
 5110SOL    HW116229   1.919   6.188   5.326
 5110SOL    HW216230   1.931   6.233   5.482
 5111SOL     OW16231   1.689   1.261   6.801
 5111SOL    HW116232   1.654   1.214   6.720
 5111SOL    HW216233   1.612   1.291   6.858
 5112SOL     OW16234   0.324   6.958   3.392
 5112SOL    HW116235   0.324   6.920   3.484
 5112SOL    HW216236   0.354   6.888   3.327
 5113SOL     OW16237   0.815   6.867   6.630
 5113SOL    HW116238   0.817   6.798   6.703
 5113SOL    HW216239   0.905   6.872   6.587
 5114SOL     OW16240   3.906   5.749   6.936
 5114SOL    HW116241   3.890   5.843   6.968
 5114SOL    HW216242   4.004   5.729   6.942
 5115SOL     OW16243   2.007   3.982   5.125
 5115SOL    HW116244   1.962   3.893   5.120
 5115SOL    HW216245   2.106   3.969   5.118
 5116SOL     OW16246   6.840   3.168   1.303
 5116SOL    HW116247   6.789   3.179   1.388
 5116SOL    HW216248   6.833   3.073   1.272
 5117SOL     OW16249   2.642   4.615   3.751
 5117SOL    HW116250   2.560   4.662   3.719
 5117SOL    HW216251   2.621   4.520   3.770
 5118SOL     OW16252   4.520   6.652   1.399
 5118SOL    HW116253   4.485   6.572   1.448
 5118SOL    HW216254   4.531   6.629   1.302
 5119SOL     OW16255   6.431   6.853   2.545
 5119SOL    HW116256   6.344   6.875   2.500
 5119SOL    HW216257   6.506   6.899   2.497
 5120SOL     OW16258   3.988   1.425   2.675
 5120SOL    HW116259   3.992   1.351   2.742
 5120SOL    HW216260   3.987   1.386   2.583
 5121SOL     OW16261   1.355   3.320   4.640
 5121SOL    HW116262   1.392   3.237   4.599
 5121SOL    HW216263   1.354   3.310   4.740
 5122SOL     OW16264   2.502   5.815   3.180
 5122SOL    HW116265   2.513   5.770   3.269
 5122SOL    HW216266   2.566   5.892   3.175
 5123SOL     OW16267   6.058   4.144   1.883
 5123SOL    HW116268   6.082   4.066   1.826
 5123SOL    HW216269   5.981   4.193   1.842
 5124SOL     OW16270   2.964   5.901   0.458
 5124SOL    HW116271   2.960   5.907   0.558
 5124SOL    HW216272   2.927   5.813   0.429
 5125SOL     OW16273   6.682   2.076   5.833
 5125SOL    HW116274   6.777   2.099   5.850
 5125SOL    HW216275   6.675   1.979   5.807
 5126SOL     OW16276   4.699   2.688   6.532
 5126SOL    HW116277   4.688   2.646   6.442
 5126SOL    HW216278   4.609   2.716   6.567
 5127SOL     OW16279   5.640   3.365   6.620
 5127SOL    HW116280   5.561   3.424   6.631
 5127SOL    HW216281   5.677   3.341   6.710
 5128SOL     OW16282   0.329   0.105   0.078
 5128SOL    HW116283   0.231   0.099   0.062
 5128SOL    HW216284   0.348   0.175   0.146
 5129SOL     OW16285   4.499   2.302   2.609
 5129SOL    HW116286   4.452   2.310   2.697
 5129SOL    HW216287   4.547   2.388   2.589
 5130SOL     OW16288   0.636   0.033   4.894
 5130SOL    HW116289   0.617   0.114   4.949
 5130SOL    HW216290   0.669   6.979   4.953
 5131SOL     OW16291   3.709   5.096   3.916
 5131SOL    HW116292   3.694   5.043   3.999
 5131SOL    HW216293   3.773   5.046   3.856
 5132SOL     OW16294   3.479   1.574   6.839
 5132SOL    HW116295   3.400   1.573   6.777
 5132SOL    HW216296   3.561   1.547   6.788
 5133SOL     OW16297   4.969   4.533   6.889
 5133SOL    HW116298   5.059   4.576   6.880
 5133SOL    HW216299   4.921   4.540   6.802
 5134SOL     OW16300   5.661   5.671   0.457
 5134SOL    HW116301   5.623   5.706   0.543
 5134SOL    HW216302   5.648   5.739   0.385
 5135SOL     OW16303   6.907   2.665   2.479
 5135SOL    HW116304   6.891   2.580   2.428
 5135SOL    HW216305   7.003   2.671   2.504
 5136SOL     OW16306   0.819   1.389   5.720
 5136SOL    HW116307   0.748   1.423   5.658
 5136SOL    HW216308   0.901   1.445   5.709
 5137SOL     OW16309   5.544   0.506   3.558
 5137SOL    HW116310   5.470   0.508   3.626
 5137SOL    HW216311   5.540   0.419   3.508
 5138SOL     OW16312   2.922   3.299   2.389
 5138SOL    HW116313   2.954   3.207   2.367
 5138SOL    HW216314   2.937   3.359   2.310
 5139SOL     OW16315   2.930   0.459   5.853
 5139SOL    HW116316   2.875   0.537   5.882
 5139SOL    HW216317   2.913   0.440   5.756
 5140SOL     OW16318   3.357   3.397   6.332
 5140SOL    HW116319   3.412   3.416   6.413
 5140SOL    HW216320   3.352   3.298   6.317
 5141SOL     OW16321   0.248   2.897   1.228
 5141SOL    HW116322   0.198   2.870   1.146
 5141SOL    HW216323   0.196   2.967   1.277
 5142SOL     OW16324   0.628   6.907   2.461
 5142SOL    HW116325   0.594   6.967   2.389
 5142SOL    HW216326   0.583   6.819   2.456
 5143SOL     OW16327   0.374   6.374   3.182
 5143SOL    HW116328   0.367   6.285   3.139
 5143SOL    HW216329   0.285   6.421   3.177
 5144SOL     OW16330   2.443   2.998   5.491
 5144SOL    HW116331   2.345   2.986   5.475
 5144SOL    HW216332   2.490   3.009   5.403
 5145SOL     OW16333   2.548   5.552   6.037
 5145SOL    HW116334   2.545   5.634   5.981
 5145SOL    HW216335   2.599   5.570   6.121
 5146SOL     OW16336   5.701   6.213   6.819
 5146SOL    HW116337   5.706   6.313   6.815
 5146SOL    HW216338   5.793   6.175   6.826
 5147SOL     OW16339   5.088   1.941   3.501
 5147SOL    HW116340   5.145   2.022   3.485
 5147SOL    HW216341   5.082   1.924   3.600
 5148SOL     OW16342   0.440   0.794   6.764
 5148SOL    HW116343   0.520   0.853   6.772
 5148SOL    HW216344   0.379   0.810   6.842
 5149SOL     OW16345   3.786   5.617   4.122
 5149SOL    HW116346   3.707   5.564   4.151
 5149SOL    HW216347   3.758   5.684   4.053
 5150SOL     OW16348   6.212   6.975   3.636
 5150SOL    HW116349   6.114   6.972   3.656
 5150SOL    HW216350   6.263   6.965   3.722
 5151SOL     OW16351   5.672   5.978   2.076
 5151SOL    HW116352   5.627   5.895   2.043
 5151SOL    HW216353   5.616   6.019   2.148
 5152SOL     OW16354   2.201   1.826   0.196
 5152SOL    HW116355   2.155   1.861   0.115
 5152SOL    HW216356   2.147   1.752   0.236
 5153SOL     OW16357   1.117   2.002   0.480
 5153SOL    HW116358   1.150   2.066   0.411
 5153SOL    HW216359   1.195   1.954   0.521
 5154SOL     OW16360   0.599   2.937   0.949
 5154SOL    HW116361   0.625   2.975   1.037
 5154SOL    HW216362   0.572   2.841   0.961
 5155SOL     OW16363   1.684   1.548   0.063
 5155SOL    HW116364   1.593   1.538   0.105
 5155SOL    HW216365   1.699   1.472   7.019
 5156SOL     OW16366   6.131   5.793   5.314
 5156SOL    HW116367   6.227   5.802   5.290
 5156SOL    HW216368   6.113   5.699   5.343
 5157SOL     OW16369   3.323   0.673   1.327
 5157SOL    HW116370   3.409   0.686   1.377
 5157SOL    HW216371   3.251   0.729   1.369
 5158SOL     OW16372   1.295   2.330   2.134
 5158SOL    HW116373   1.293   2.429   2.120
 5158SOL    HW216374   1.362   2.289   2.073
 5159SOL     OW16375   5.947   3.434   5.884
 5159SOL    HW116376   5.879   3.473   5.821
 5159SOL    HW216377   6.037   3.436   5.840
 5160SOL     OW16378   6.571   6.672   3.578
 5160SOL    HW116379   6.637   6.732   3.624
 5160SOL    HW216380   6.610   6.581   3.568
 5161SOL     OW16381   1.061   2.277   6.764
 5161SOL    HW116382   1.090   2.295   6.859
 5161SOL    HW216383   1.072   2.180   6.744
 5162SOL     OW16384   0.136   6.943   4.986
 5162SOL    HW116385   0.142   6.955   4.887
 5162SOL    HW216386   0.089   0.003   5.026
 5163SOL     OW16387   3.246   0.322   1.949
 5163SOL    HW116388   3.221   0.234   1.990
 5163SOL    HW216389   3.165   0.381   1.946
 5164SOL     OW16390   2.702   3.981   0.672
 5164SOL    HW116391   2.623   3.945   0.622
 5164SOL    HW216392   2.684   3.977   0.770
 5165SOL     OW16393   1.437   4.325   5.840
 5165SOL    HW116394   1.379   4.281   5.771
 5165SOL    HW216395   1.526   4.279   5.843
 5166SOL     OW16396   0.473   4.599   0.347
 5166SOL    HW116397   0.386   4.592   0.396
 5166SOL    HW216398   0.456   4.628   0.253
 5167SOL     OW16399   5.541   3.060   5.154
 5167SOL    HW116400   5.503   3.036   5.244
 5167SOL    HW216401   5.475   3.036   5.083
 5168SOL     OW16402   4.276   2.040   3.111
 5168SOL    HW116403   4.217   2.100   3.164
 5168SOL    HW216404   4.236   1.948   3.108
 5169SOL     OW16405   5.040   5.524   4.568
 5169SOL    HW116406   5.058   5.490   4.661
 5169SOL    HW216407   4.988   5.455   4.518
 5170SOL     OW16408   2.289   4.140   6.515
 5170SOL    HW116409   2.356   4.166   6.446
 5170SOL    HW216410   2.311   4.185   6.602
 5171SOL     OW16411   1.844   6.786   5.712
 5171SOL    HW116412   1.769   6.831   5.759
 5171SOL    HW216413   1.829   6.789   5.613
 5172SOL     OW16414   6.013   5.568   5.441
 5172SOL    HW116415   6.100   5.546   5.484
 5172SOL    HW216416   5.957   5.623   5.504
 5173SOL     OW16417   4.641   5.748   5.245
 5173SOL    HW116418   4.695   5.787   5.320
 5173SOL    HW216419   4.668   5.653   5.231
 5174SOL     OW16420   2.053   6.918   3.154
 5174SOL    HW116421   2.107   6.954   3.230
 5174SOL    HW216422   2.023   6.825   3.176
 5175SOL     OW16423   2.926   3.116   6.413
 5175SOL    HW116424   2.860   3.162   6.354
 5175SOL    HW216425   3.000   3.180   6.436
 5176SOL     OW16426   6.438   5.584   6.557
 5176SOL    HW116427   6.397   5.510   6.610
 5176SOL    HW216428   6.538   5.574   6.557
 5177SOL     OW16429   6.417   6.794   0.617
 5177SOL    HW116430   6.366   6.725   0.668
 5177SOL    HW216431   6.495   6.751   0.571
 5178SOL     OW16432   0.667   4.494   1.569
 5178SOL    HW116433   0.662   4.395   1.578
 5178SOL    HW216434   0.754   4.519   1.526
 5179SOL     OW16435   5.085   5.965   3.499
 5179SOL    HW116436   5.155   6.036   3.496
 5179SOL    HW216437   5.068   5.932   3.406
 5180SOL     OW16438   1.462   4.366   2.474
 5180SOL    HW116439   1.557   4.347   2.499
 5180SOL    HW216440   1.458   4.400   2.380
 5181SOL     OW16441   6.518   0.950   5.462
 5181SOL    HW116442   6.478   0.920   5.375
 5181SOL    HW216443   6.452   1.009   5.510
 5182SOL     OW16444   2.433   6.411   2.750
 5182SOL    HW116445   2.458   6.422   2.847
 5182SOL    HW216446   2.376   6.329   2.740
 5183SOL     OW16447   4.250   2.306   3.755
 5183SOL    HW116448   4.253   2.255   3.669
 5183SOL    HW216449   4.312   2.384   3.749
 5184SOL     OW16450   1.585   1.531   3.485
 5184SOL    HW116451   1.570   1.536   3.584
 5184SOL    HW216452   1.654   1.598   3.458
 5185SOL     OW16453   0.148   0.679   2.670
 5185SOL    HW116454   0.163   0.630   2.584
 5185SOL    HW216455   0.170   0.776   2.658
 5186SOL     OW16456   6.574   3.376   6.831
 5186SOL    HW116457   6.644   3.397   6.899
 5186SOL    HW216458   6.506   3.314   6.871
 5187SOL     OW16459   1.242   4.759   4.903
 5187SOL    HW116460   1.309   4.775   4.976
 5187SOL    HW216461   1.167   4.704   4.939
 5188SOL     OW16462   6.121   0.440   2.424
 5188SOL    HW116463   6.039   0.464   2.372
 5188SOL    HW216464   6.101   0.444   2.522
 5189SOL     OW16465   4.273   6.812   6.665
 5189SOL    HW116466   4.177   6.785   6.662
 5189SOL    HW216467   4.314   6.782   6.751
 5190SOL     OW16468   2.070   4.489   0.182
 5190SOL    HW116469   2.148   4.456   0.236
 5190SOL    HW216470   2.027   4.566   0.228
 5191SOL     OW16471   2.603   4.685   2.164
 5191SOL    HW116472   2.616   4.779   2.193
 5191SOL    HW216473   2.667   4.664   2.090
 5192SOL     OW16474   0.998   4.717   2.465
 5192SOL    HW116475   1.017   4.814   2.479
 5192SOL    HW216476   0.994   4.697   2.367
 5193SOL     OW16477   5.360   0.926   5.750
 5193SOL    HW116478   5.363   0.853   5.818
 5193SOL    HW216479   5.395   1.011   5.790
 5194SOL     OW16480   4.756   1.249   5.493
 5194SOL    HW116481   4.693   1.232   5.417
 5194SOL    HW216482   4.751   1.345   5.521
 5195SOL     OW16483   0.487   0.552   5.445
 5195SOL    HW116484   0.444   0.474   5.400
 5195SOL    HW216485   0.417   0.621   5.466
 5196SOL     OW16486   5.601   6.406   3.564
 5196SOL    HW116487   5.679   6.463   3.589
 5196SOL    HW216488   5.576   6.348   3.642
 5197SOL     OW16489   0.763   2.954   4.804
 5197SOL    HW116490   0.849   2.999   4.781
 5197SOL    HW216491   0.726   2.909   4.723
 5198SOL     OW16492   5.835   5.220   3.110
 5198SOL    HW116493   5.899   5.237   3.035
 5198SOL    HW216494   5.779   5.301   3.125
 5199SOL     OW16495   0.291   4.853   1.180
 5199SOL    HW116496   0.375   4.879   1.133
 5199SOL    HW216497   0.219   4.833   1.113
 5200SOL     OW16498   6.602   3.979   5.111
 5200SOL    HW116499   6.584   4.062   5.058
 5200SOL    HW216500   6.537   3.908   5.084
 5201SOL     OW16501   0.045   5.925   4.633
 5201SOL    HW116502   0.029   6.023   4.619
 5201SOL    HW216503   0.139   5.903   4.607
 5202SOL     OW16504   1.136   5.073   1.509
 5202SOL    HW116505   1.227   5.113   1.520
 5202SOL    HW216506   1.125   5.037   1.417
 5203SOL     OW16507   6.996   3.039   6.950
 5203SOL    HW116508   0.001   2.967   6.884
 5203SOL    HW216509   0.005   3.010   0.023
 5204SOL     OW16510   4.814   4.585   6.683
 5204SOL    HW116511   4.809   4.683   6.665
 5204SOL    HW216512   4.762   4.535   6.614
 5205SOL     OW16513   1.197   7.014   0.236
 5205SOL    HW116514   1.288   6.982   0.211
 5205SOL    HW216515   1.192   0.008   0.335
 5206SOL     OW16516   0.493   3.740   5.106
 5206SOL    HW116517   0.460   3.702   5.020
 5206SOL    HW216518   0.589   3.714   5.118
 5207SOL     OW16519   1.813   4.551   3.785
 5207SOL    HW116520   1.753   4.495   3.842
 5207SOL    HW216521   1.868   4.491   3.727
 5208SOL     OW16522   4.753   0.730   0.057
 5208SOL    HW116523   4.852   0.721   0.046
 5208SOL    HW216524   4.707   0.687   6.999
 5209SOL     OW16525   6.164   5.807   3.557
 5209SOL    HW116526   6.084   5.775   3.609
 5209SOL    HW216527   6.134   5.837   3.466
 5210SOL     OW16528   4.797   3.942   2.981
 5210SOL    HW116529   4.729   3.891   3.033
 5210SOL    HW216530   4.771   4.039   2.978
 5211SOL     OW16531   3.792   3.942   2.183
 5211SOL    HW116532   3.754   4.034   2.183
 5211SOL    HW216533   3.861   3.934   2.254
 5212SOL     OW16534   1.214   0.812   0.373
 5212SOL    HW116535   1.246   0.895   0.418
 5212SOL    HW216536   1.208   0.738   0.440
 5213SOL     OW16537   4.427   2.688   6.558
 5213SOL    HW116538   4.413   2.589   6.560
 5213SOL    HW216539   4.389   2.729   6.641
 5214SOL     OW16540   5.624   1.388   6.967
 5214SOL    HW116541   5.716   1.374   7.004
 5214SOL    HW216542   5.573   1.452   0.005
 5215SOL     OW16543   5.714   5.415   2.636
 5215SOL    HW116544   5.799   5.389   2.589
 5215SOL    HW216545   5.730   5.497   2.690
 5216SOL     OW16546   4.404   5.623   1.392
 5216SOL    HW116547   4.456   5.642   1.309
 5216SOL    HW216548   4.364   5.708   1.426
 5217SOL     OW16549   2.856   5.061   3.832
 5217SOL    HW116550   2.758   5.061   3.812
 5217SOL    HW216551   2.880   4.975   3.878
 5218SOL     OW16552   2.228   0.057   4.258
 5218SOL    HW116553   2.151   0.111   4.225
 5218SOL    HW216554   2.276   0.016   4.181
 5219SOL     OW16555   2.884   5.975   0.801
 5219SOL    HW116556   2.901   5.960   0.898
 5219SOL    HW216557   2.810   5.916   0.770
 5220SOL     OW16558   1.200   0.088   2.028
 5220SOL    HW116559   1.281   0.147   2.040
 5220SOL    HW216560   1.213   0.031   1.948
 5221SOL     OW16561   4.654   1.726   5.406
 5221SOL    HW116562   4.741   1.748   5.364
 5221SOL    HW216563   4.582   1.786   5.369
 5222SOL     OW16564   0.709   0.031   2.681
 5222SOL    HW116565   0.689   6.998   2.764
 5222SOL    HW216566   0.669   7.004   2.603
 5223SOL     OW16567   4.918   6.960   0.663
 5223SOL    HW116568   4.842   7.010   0.622
 5223SOL    HW216569   4.983   0.005   0.703
 5224SOL     OW16570   5.266   1.116   3.135
 5224SOL    HW116571   5.319   1.162   3.206
 5224SOL    HW216572   5.176   1.091   3.171
 5225SOL     OW16573   6.139   6.502   5.496
 5225SOL    HW116574   6.111   6.584   5.546
 5225SOL    HW216575   6.090   6.496   5.410
 5226SOL     OW16576   2.138   6.556   3.800
 5226SOL    HW116577   2.159   6.568   3.897
 5226SOL    HW216578   2.067   6.486   3.790
 5227SOL     OW16579   5.092   3.192   3.398
 5227SOL    HW116580   5.025   3.256   3.359
 5227SOL    HW216581   5.173   3.189   3.339
 5228SOL     OW16582   5.267   0.340   1.097
 5228SOL    HW116583   5.176   0.381   1.085
 5228SOL    HW216584   5.270   0.251   1.050
 5229SOL     OW16585   0.724   4.379   3.855
 5229SOL    HW116586   0.714   4.453   3.922
 5229SOL    HW216587   0.821   4.357   3.845
 5230SOL     OW16588   1.136   6.336   6.258
 5230SOL    HW116589   1.090   6.363   6.173
 5230SOL    HW216590   1.068   6.317   6.328
 5231SOL     OW16591   3.527   3.037   3.411
 5231SOL    HW116592   3.588   2.998   3.342
 5231SOL    HW216593   3.540   3.136   3.415
 5232SOL     OW16594   4.959   3.277   5.347
 5232SOL    HW116595   5.054   3.252   5.365
 5232SOL    HW216596   4.956   3.349   5.277
 5233SOL     OW16597   0.471   0.721   3.148
 5233SOL    HW116598   0.411   0.704   3.227
 5233SOL    HW216599   0.547   0.656   3.151
 5234SOL     OW16600   4.284   5.863   1.488
 5234SOL    HW116601   4.284   5.928   1.564
 5234SOL    HW216602   4.251   5.909   1.405
 5235SOL     OW16603   1.047   3.570   1.155
 5235SOL    HW116604   0.975   3.567   1.086
 5235SOL    HW216605   1.026   3.641   1.222
 5236SOL     OW16606   5.173   3.142   0.896
 5236SOL    HW116607   5.208   3.049   0.895
 5236SOL    HW216608   5.249   3.206   0.912
 5237SOL     OW16609   2.213   2.028   4.162
 5237SOL    HW116610   2.126   2.058   4.123
 5237SOL    HW216611   2.242   1.944   4.116
 5238SOL     OW16612   1.831   4.122   1.165
 5238SOL    HW116613   1.824   4.178   1.247
 5238SOL    HW216614   1.821   4.025   1.189
 5239SOL     OW16615   3.307   3.482   5.175
 5239SOL    HW116616   3.304   3.493   5.076
 5239SOL    HW216617   3.333   3.569   5.218
 5240SOL     OW16618   2.556   1.985   5.173
 5240SOL    HW116619   2.489   1.979   5.247
 5240SOL    HW216620   2.509   2.009   5.088
 5241SOL     OW16621   2.902   5.805   5.832
 5241SOL    HW116622   2.977   5.834   5.773
 5241SOL    HW216623   2.883   5.708   5.818
 5242SOL     OW16624   4.227   0.977   5.823
 5242SOL    HW116625   4.249   0.908   5.892
 5242SOL    HW216626   4.213   1.066   5.868
 5243SOL     OW16627   0.571   3.961   0.385
 5243SOL    HW116628   0.668   3.987   0.385
 5243SOL    HW216629   0.534   3.967   0.477
 5244SOL     OW16630   6.196   3.595   6.590
 5244SOL    HW116631   6.150   3.509   6.613
 5244SOL    HW216632   6.127   3.666   6.574
 5245SOL     OW16633   4.567   4.228   6.672
 5245SOL    HW116634   4.481   4.176   6.673
 5245SOL    HW216635   4.622   4.203   6.752
 5246SOL     OW16636   0.858   3.378   2.808
 5246SOL    HW116637   0.853   3.401   2.711
 5246SOL    HW216638   0.882   3.459   2.861
 5247SOL     OW16639   0.371   5.421   0.881
 5247SOL    HW116640   0.367   5.323   0.898
 5247SOL    HW216641   0.290   5.449   0.831
 5248SOL     OW16642   4.501   0.238   0.003
 5248SOL    HW116643   4.498   0.181   6.940
 5248SOL    HW216644   4.557   0.319   7.003
 5249SOL     OW16645   1.251   5.489   5.670
 5249SOL    HW116646   1.212   5.530   5.587
 5249SOL    HW216647   1.343   5.455   5.650
 5250SOL     OW16648   0.602   1.345   5.925
 5250SOL    HW116649   0.684   1.338   5.867
 5250SOL    HW216650   0.621   1.404   6.003
 5251SOL     OW16651   0.511   2.908   1.392
 5251SOL    HW116652   0.423   2.909   1.344
 5251SOL    HW216653   0.508   2.972   1.468
 5252SOL     OW16654   4.185   6.562   0.665
 5252SOL    HW116655   4.090   6.591   0.680
 5252SOL    HW216656   4.230   6.548   0.753
 5253SOL     OW16657   6.057   2.858   3.664
 5253SOL    HW116658   6.056   2.759   3.655
 5253SOL    HW216659   5.963   2.892   3.676
 5254SOL     OW16660   4.491   0.905   4.178
 5254SOL    HW116661   4.445   0.840   4.238
 5254SOL    HW216662   4.579   0.930   4.218
 5255SOL     OW16663   3.445   6.692   4.331
 5255SOL    HW116664   3.400   6.603   4.343
 5255SOL    HW216665   3.540   6.686   4.363
 5256SOL     OW16666   5.608   6.615   2.154
 5256SOL    HW116667   5.511   6.611   2.130
 5256SOL    HW216668   5.642   6.523   2.175
 5257SOL     OW16669   3.207   1.107   2.534
 5257SOL    HW116670   3.144   1.100   2.457
 5257SOL    HW216671   3.296   1.138   2.501
 5258SOL     OW16672   6.107   2.336   1.889
 5258SOL    HW116673   6.204   2.317   1.870
 5258SOL    HW216674   6.100   2.415   1.949
 5259SOL     OW16675   5.378   4.247   1.976
 5259SOL    HW116676   5.458   4.222   2.031
 5259SOL    HW216677   5.295   4.235   2.030
 5260SOL     OW16678   5.153   3.071   2.059
 5260SOL    HW116679   5.248   3.039   2.064
 5260SOL    HW216680   5.149   3.168   2.082
 5261SOL     OW16681   2.471   2.357   4.651
 5261SOL    HW116682   2.427   2.424   4.711
 5261SOL    HW216683   2.400   2.299   4.610
 5262SOL     OW16684   2.390   0.515   2.184
 5262SOL    HW116685   2.419   0.557   2.097
 5262SOL    HW216686   2.300   0.473   2.172
 5263SOL     OW16687   0.825   6.466   1.003
 5263SOL    HW116688   0.852   6.458   0.907
 5263SOL    HW216689   0.823   6.375   1.045
 5264SOL     OW16690   0.649   2.265   0.977
 5264SOL    HW116691   0.717   2.203   0.939
 5264SOL    HW216692   0.694   2.335   1.033
 5265SOL     OW16693   5.847   4.930   2.716
 5265SOL    HW116694   5.793   4.956   2.796
 5265SOL    HW216695   5.940   4.905   2.745
 5266SOL     OW16696   1.211   6.718   1.492
 5266SOL    HW116697   1.216   6.816   1.470
 5266SOL    HW216698   1.257   6.666   1.420
 5267SOL     OW16699   5.080   4.046   5.013
 5267SOL    HW116700   4.988   4.080   4.990
 5267SOL    HW216701   5.074   3.948   5.033
 5268SOL     OW16702   5.723   5.033   5.628
 5268SOL    HW116703   5.634   4.990   5.635
 5268SOL    HW216704   5.735   5.098   5.704
 5269SOL     OW16705   1.039   4.584   4.970
 5269SOL    HW116706   1.088   4.571   5.057
 5269SOL    HW216707   0.948   4.543   4.977
 5270SOL     OW16708   6.959   3.166   2.873
 5270SOL    HW116709   6.907   3.123   2.947
 5270SOL    HW216710   6.912   3.150   2.786
 5271SOL     OW16711   5.017   4.483   5.196
 5271SOL    HW116712   4.987   4.483   5.292
 5271SOL    HW216713   5.075   4.404   5.179
 5272SOL     OW16714   1.876   1.276   4.222
 5272SOL    HW116715   1.874   1.202   4.290
 5272SOL    HW216716   1.820   1.249   4.143
 5273SOL     OW16717   0.907   0.450   4.926
 5273SOL    HW116718   0.956   0.429   4.842
 5273SOL    HW216719   0.874   0.365   4.968
 5274SOL     OW16720   6.716   5.442   4.714
 5274SOL    HW116721   6.761   5.362   4.753
 5274SOL    HW216722   6.747   5.524   4.761
 5275SOL     OW16723   2.083   6.637   6.528
 5275SOL    HW116724   2.153   6.577   6.566
 5275SOL    HW216725   1.995   6.590   6.527
 5276SOL     OW16726   0.160   0.212   1.245
 5276SOL    HW116727   0.127   0.267   1.322
 5276SOL    HW216728   0.177   0.271   1.166
 5277SOL     OW16729   1.359   1.614   2.666
 5277SOL    HW116730   1.304   1.611   2.583
 5277SOL    HW216731   1.317   1.556   2.736
 5278SOL     OW16732   0.622   3.990   6.580
 5278SOL    HW116733   0.579   3.901   6.598
 5278SOL    HW216734   0.553   4.062   6.583
 5279SOL     OW16735   2.271   6.661   6.319
 5279SOL    HW116736   2.297   6.758   6.312
 5279SOL    HW216737   2.208   6.650   6.396
 5280SOL     OW16738   4.796   6.611   5.079
 5280SOL    HW116739   4.791   6.667   4.996
 5280SOL    HW216740   4.705   6.577   5.102
 5281SOL     OW16741   2.759   6.973   5.068
 5281SOL    HW116742   2.715   6.937   4.985
 5281SOL    HW216743   2.856   6.989   5.050
 5282SOL     OW16744   0.860   6.595   1.762
 5282SOL    HW116745   0.866   6.496   1.773
 5282SOL    HW216746   0.786   6.630   1.820
 5283SOL     OW16747   1.167   0.826   4.011
 5283SOL    HW116748   1.097   0.755   4.002
 5283SOL    HW216749   1.225   0.805   4.089
 5284SOL     OW16750   4.580   2.780   1.741
 5284SOL    HW116751   4.585   2.851   1.811
 5284SOL    HW216752   4.585   2.690   1.785
 5285SOL     OW16753   1.517   1.996   4.362
 5285SOL    HW116754   1.507   2.022   4.458
 5285SOL    HW216755   1.459   1.917   4.342
 5286SOL     OW16756   5.814   3.207   1.340
 5286SOL    HW116757   5.748   3.226   1.412
 5286SOL    HW216758   5.875   3.132   1.369
 5287SOL     OW16759   2.072   5.010   1.291
 5287SOL    HW116760   2.151   5.030   1.349
 5287SOL    HW216761   2.087   4.924   1.242
 5288SOL     OW16762   4.205   0.815   1.140
 5288SOL    HW116763   4.181   0.820   1.237
 5288SOL    HW216764   4.135   0.761   1.092
 5289SOL     OW16765   2.335   4.957   5.765
 5289SOL    HW116766   2.314   4.875   5.818
 5289SOL    HW216767   2.322   5.038   5.823
 5290SOL     OW16768   1.800   3.198   4.273
 5290SOL    HW116769   1.795   3.243   4.184
 5290SOL    HW216770   1.836   3.262   4.341
 5291SOL     OW16771   2.748   4.734   4.410
 5291SOL    HW116772   2.809   4.750   4.488
 5291SOL    HW216773   2.674   4.673   4.437
 5292SOL     OW16774   0.229   3.583   5.428
 5292SOL    HW116775   0.264   3.643   5.500
 5292SOL    HW216776   0.242   3.626   5.339
 5293SOL     OW16777   2.385   0.280   4.362
 5293SOL    HW116778   2.382   0.292   4.461
 5293SOL    HW216779   2.334   0.198   4.337
 5294SOL     OW16780   4.002   0.137   5.241
 5294SOL    HW116781   3.931   0.208   5.237
 5294SOL    HW216782   4.040   0.123   5.150
 5295SOL     OW16783   2.919   1.366   2.448
 5295SOL    HW116784   2.995   1.430   2.445
 5295SOL    HW216785   2.880   1.366   2.540
 5296SOL     OW16786   4.757   4.849   1.653
 5296SOL    HW116787   4.829   4.828   1.719
 5296SOL    HW216788   4.775   4.939   1.613
 5297SOL     OW16789   2.988   5.260   6.764
 5297SOL    HW116790   2.978   5.211   6.677
 5297SOL    HW216791   2.981   5.196   6.840
 5298SOL     OW16792   1.893   0.286   0.499
 5298SOL    HW116793   1.898   0.254   0.594
 5298SOL    HW216794   1.848   0.375   0.497
 5299SOL     OW16795   2.491   1.273   1.484
 5299SOL    HW116796   2.585   1.303   1.473
 5299SOL    HW216797   2.459   1.297   1.576
 5300SOL     OW16798   2.877   4.627   6.691
 5300SOL    HW116799   2.808   4.559   6.716
 5300SOL    HW216800   2.833   4.700   6.638
 5301SOL     OW16801   5.381   6.982   5.601
 5301SOL    HW116802   5.333   6.994   5.688
 5301SOL    HW216803   5.318   6.996   5.526
 5302SOL     OW16804   5.590   6.080   3.543
 5302SOL    HW116805   5.565   6.138   3.620
 5302SOL    HW216806   5.683   6.101   3.513
 5303SOL     OW16807   1.054   5.422   6.092
 5303SOL    HW116808   1.104   5.379   6.016
 5303SOL    HW216809   0.996   5.495   6.056
 5304SOL     OW16810   0.067   0.829   2.345
 5304SOL    HW116811   0.044   0.894   2.418
 5304SOL    HW216812   0.051   0.736   2.377
 5305SOL     OW16813   0.655   5.019   3.631
 5305SOL    HW116814   0.737   5.046   3.682
 5305SOL    HW216815   0.577   5.073   3.663
 5306SOL     OW16816   6.818   3.285   5.916
 5306SOL    HW116817   6.793   3.357   5.852
 5306SOL    HW216818   6.904   3.243   5.886
 5307SOL     OW16819   6.599   1.361   1.484
 5307SOL    HW116820   6.644   1.368   1.394
 5307SOL    HW216821   6.643   1.288   1.537
 5308SOL     OW16822   1.545   4.123   3.169
 5308SOL    HW116823   1.556   4.211   3.215
 5308SOL    HW216824   1.628   4.101   3.118
 5309SOL     OW16825   6.183   5.601   2.552
 5309SOL    HW116826   6.227   5.643   2.473
 5309SOL    HW216827   6.175   5.668   2.626
 5310SOL     OW16828   5.128   2.861   2.588
 5310SOL    HW116829   5.081   2.807   2.518
 5310SOL    HW216830   5.213   2.816   2.614
 5311SOL     OW16831   5.877   0.111   0.665
 5311SOL    HW116832   5.836   0.133   0.753
 5311SOL    HW216833   5.964   0.063   0.679
 5312SOL     OW16834   0.028   6.487   0.580
 5312SOL    HW116835   0.070   6.577   0.591
 5312SOL    HW216836   0.025   6.442   0.669
 5313SOL     OW16837   1.176   6.044   5.647
 5313SOL    HW116838   1.082   6.046   5.680
 5313SOL    HW216839   1.188   5.965   5.587
 5314SOL     OW16840   6.096   0.791   1.880
 5314SOL    HW116841   6.075   0.740   1.964
 5314SOL    HW216842   6.163   0.740   1.826
 5315SOL     OW16843   4.550   1.506   4.437
 5315SOL    HW116844   4.485   1.544   4.372
 5315SOL    HW216845   4.575   1.576   4.504
 5316SOL     OW16846   0.562   2.177   4.404
 5316SOL    HW116847   0.505   2.198   4.325
 5316SOL    HW216848   0.652   2.220   4.392
 5317SOL     OW16849   5.833   2.533   6.462
 5317SOL    HW116850   5.765   2.467   6.429
 5317SOL    HW216851   5.791   2.592   6.532
 5318SOL     OW16852   6.877   3.983   6.619
 5318SOL    HW116853   6.833   3.994   6.530
 5318SOL    HW216854   6.946   3.911   6.614
 5319SOL     OW16855   4.025   6.614   1.963
 5319SOL    HW116856   4.025   6.646   1.868
 5319SOL    HW216857   4.109   6.644   2.008
 5320SOL     OW16858   3.301   6.014   0.928
 5320SOL    HW116859   3.355   5.946   0.977
 5320SOL    HW216860   3.268   6.083   0.992
 5321SOL     OW16861   1.670   4.361   4.652
 5321SOL    HW116862   1.617   4.320   4.727
 5321SOL    HW216863   1.766   4.365   4.677
 5322SOL     OW16864   5.422   6.758   1.908
 5322SOL    HW116865   5.399   6.665   1.881
 5322SOL    HW216866   5.513   6.782   1.875
 5323SOL     OW16867   3.798   1.145   6.055
 5323SOL    HW116868   3.771   1.076   6.121
 5323SOL    HW216869   3.800   1.104   5.963
 5324SOL     OW16870   2.092   1.345   0.892
 5324SOL    HW116871   2.054   1.253   0.882
 5324SOL    HW216872   2.191   1.338   0.910
 5325SOL     OW16873   2.158   2.069   4.907
 5325SOL    HW116874   2.078   2.125   4.885
 5325SOL    HW216875   2.156   2.045   5.004
 5326SOL     OW16876   6.373   5.856   2.320
 5326SOL    HW116877   6.375   5.955   2.328
 5326SOL    HW216878   6.464   5.819   2.342
 5327SOL     OW16879   6.118   2.308   5.145
 5327SOL    HW116880   6.110   2.356   5.232
 5327SOL    HW216881   6.210   2.323   5.107
 5328SOL     OW16882   4.582   5.121   6.670
 5328SOL    HW116883   4.604   5.074   6.756
 5328SOL    HW216884   4.498   5.174   6.682
 5329SOL     OW16885   1.088   6.624   6.604
 5329SOL    HW116886   1.118   6.717   6.584
 5329SOL    HW216887   1.001   6.605   6.559
 5330SOL     OW16888   2.552   4.279   0.647
 5330SOL    HW116889   2.583   4.232   0.564
 5330SOL    HW216890   2.553   4.215   0.724
 5331SOL     OW16891   6.111   0.632   6.710
 5331SOL    HW116892   6.045   0.707   6.707
 5331SOL    HW216893   6.201   0.667   6.735
 5332SOL     OW16894   1.138   4.939   2.201
 5332SOL    HW116895   1.189   4.855   2.185
 5332SOL    HW216896   1.131   4.957   2.299
 5333SOL     OW16897   0.578   6.009   4.132
 5333SOL    HW116898   0.517   6.068   4.080
 5333SOL    HW216899   0.544   5.915   4.129
 5334SOL     OW16900   2.974   0.129   4.366
 5334SOL    HW116901   3.041   0.158   4.298
 5334SOL    HW216902   2.947   0.207   4.423
 5335SOL     OW16903   6.717   5.570   0.182
 5335SOL    HW116904   6.667   5.644   0.138
 5335SOL    HW216905   6.659   5.527   0.252
 5336SOL     OW16906   1.147   3.859   1.627
 5336SOL    HW116907   1.193   3.820   1.707
 5336SOL    HW216908   1.139   3.958   1.639
 5337SOL     OW16909   5.318   4.328   1.347
 5337SOL    HW116910   5.355   4.420   1.340
 5337SOL    HW216911   5.219   4.332   1.358
 5338SOL     OW16912   6.283   2.186   6.523
 5338SOL    HW116913   6.241   2.177   6.433
 5338SOL    HW216914   6.213   2.214   6.589
 5339SOL     OW16915   6.607   1.270   3.306
 5339SOL    HW116916   6.562   1.189   3.268
 5339SOL    HW216917   6.678   1.301   3.243
 5340SOL     OW16918   5.279   2.101   6.190
 5340SOL    HW116919   5.364   2.146   6.164
 5340SOL    HW216920   5.274   2.011   6.146
 5341SOL     OW16921   4.024   0.531   0.362
 5341SOL    HW116922   4.066   0.621   0.374
 5341SOL    HW216923   3.953   0.517   0.431
 5342SOL     OW16924   3.222   0.919   5.579
 5342SOL    HW116925   3.225   0.871   5.492
 5342SOL    HW216926   3.173   0.863   5.646
 5343SOL     OW16927   3.604   3.771   2.221
 5343SOL    HW116928   3.677   3.839   2.212
 5343SOL    HW216929   3.521   3.815   2.254
 5344SOL     OW16930   2.537   2.034   2.949
 5344SOL    HW116931   2.455   1.995   2.991
 5344SOL    HW216932   2.513   2.073   2.860
 5345SOL     OW16933   4.936   6.495   1.854
 5345SOL    HW116934   4.987   6.578   1.879
 5345SOL    HW216935   4.840   6.518   1.839
 5346SOL     OW16936   2.519   6.471   3.122
 5346SOL    HW116937   2.524   6.507   3.216
 5346SOL    HW216938   2.489   6.376   3.124
 5347SOL     OW16939   6.851   1.962   1.811
 5347SOL    HW116940   6.844   1.884   1.873
 5347SOL    HW216941   6.809   1.940   1.723
 5348SOL     OW16942   0.406   1.212   0.536
 5348SOL    HW116943   0.431   1.280   0.605
 5348SOL    HW216944   0.480   1.205   0.469
 5349SOL     OW16945   6.122   0.657   1.559
 5349SOL    HW116946   6.188   0.631   1.628
 5349SOL    HW216947   6.159   0.732   1.503
 5350SOL     OW16948   2.580   1.446   6.297
 5350SOL    HW116949   2.588   1.521   6.362
 5350SOL    HW216950   2.484   1.419   6.287
 5351SOL     OW16951   4.743   0.223   2.172
 5351SOL    HW116952   4.711   0.156   2.105
 5351SOL    HW216953   4.669   0.247   2.234
 5352SOL     OW16954   3.341   5.873   3.564
 5352SOL    HW116955   3.299   5.910   3.647
 5352SOL    HW216956   3.396   5.792   3.587
 5353SOL     OW16957   5.868   6.358   5.348
 5353SOL    HW116958   5.819   6.336   5.432
 5353SOL    HW216959   5.847   6.290   5.277
 5354SOL     OW16960   0.698   3.842   0.951
 5354SOL    HW116961   0.627   3.911   0.937
 5354SOL    HW216962   0.681   3.794   1.037
 5355SOL     OW16963   4.282   1.938   5.045
 5355SOL    HW116964   4.194   1.898   5.071
 5355SOL    HW216965   4.329   1.970   5.128
 5356SOL     OW16966   6.089   3.622   1.135
 5356SOL    HW116967   6.151   3.617   1.057
 5356SOL    HW216968   6.090   3.534   1.184
 5357SOL     OW16969   3.613   6.751   0.455
 5357SOL    HW116970   3.652   6.668   0.415
 5357SOL    HW216971   3.521   6.731   0.491
 5358SOL     OW16972   4.665   3.121   0.927
 5358SOL    HW116973   4.591   3.060   0.956
 5358SOL    HW216974   4.753   3.082   0.955
 5359SOL     OW16975   1.907   0.503   6.714
 5359SOL    HW116976   1.977   0.443   6.675
 5359SOL    HW216977   1.951   0.575   6.767
 5360SOL     OW16978   3.332   0.279   6.778
 5360SOL    HW116979   3.432   0.284   6.773
 5360SOL    HW216980   3.294   0.371   6.765
 5361SOL     OW16981   1.773   0.524   5.535
 5361SOL    HW116982   1.810   0.575   5.458
 5361SOL    HW216983   1.809   0.560   5.621
 5362SOL     OW16984   4.561   5.691   3.202
 5362SOL    HW116985   4.552   5.591   3.208
 5362SOL    HW216986   4.506   5.734   3.273
 5363SOL     OW16987   0.794   5.520   6.015
 5363SOL    HW116988   0.740   5.516   6.099
 5363SOL    HW216989   0.788   5.612   5.976
 5364SOL     OW16990   0.583   6.124   0.695
 5364SOL    HW116991   0.610   6.194   0.629
 5364SOL    HW216992   0.571   6.164   0.785
 5365SOL     OW16993   4.262   2.052   6.286
 5365SOL    HW116994   4.294   2.114   6.357
 5365SOL    HW216995   4.326   2.053   6.209
 5366SOL     OW16996   4.110   3.471   0.171
 5366SOL    HW116997   4.104   3.400   0.240
 5366SOL    HW216998   4.165   3.439   0.094
 5367SOL     OW16999   0.068   4.822   1.012
 5367SOL    HW117000   0.026   4.881   1.081
 5367SOL    HW217001   0.028   4.841   0.922
 5368SOL     OW17002   6.410   1.320   3.507
 5368SOL    HW117003   6.312   1.320   3.484
 5368SOL    HW217004   6.464   1.316   3.423
 5369SOL     OW17005   1.906   3.963   2.718
 5369SOL    HW117006   1.857   3.885   2.677
 5369SOL    HW217007   1.969   4.002   2.651
 5370SOL     OW17008   4.084   2.984   1.497
 5370SOL    HW117009   4.094   3.000   1.595
 5370SOL    HW217010   4.162   3.025   1.449
 5371SOL     OW17011   0.992   3.846   5.437
 5371SOL    HW117012   0.900   3.883   5.423
 5371SOL    HW217013   0.989   3.746   5.429
 5372SOL     OW17014   2.736   5.184   3.064
 5372SOL    HW117015   2.709   5.092   3.094
 5372SOL    HW217016   2.831   5.182   3.033
 5373SOL     OW17017   3.016   4.796   3.294
 5373SOL    HW117018   2.979   4.751   3.375
 5373SOL    HW217019   2.953   4.784   3.218
 5374SOL     OW17020   3.016   2.250   0.934
 5374SOL    HW117021   2.947   2.259   1.006
 5374SOL    HW217022   3.026   2.154   0.909
 5375SOL     OW17023   1.825   4.848   3.823
 5375SOL    HW117024   1.843   4.750   3.815
 5375SOL    HW217025   1.764   4.864   3.901
 5376SOL     OW17026   2.173   3.858   0.870
 5376SOL    HW117027   2.097   3.820   0.818
 5376SOL    HW217028   2.244   3.788   0.881
 5377SOL     OW17029   0.569   1.826   1.208
 5377SOL    HW117030   0.542   1.875   1.125
 5377SOL    HW217031   0.588   1.892   1.281
 5378SOL     OW17032   5.142   0.234   0.427
 5378SOL    HW117033   5.045   0.241   0.402
 5378SOL    HW217034   5.151   0.244   0.526
 5379SOL     OW17035   6.939   6.451   1.826
 5379SOL    HW117036   6.919   6.426   1.921
 5379SOL    HW217037   6.994   6.379   1.784
 5380SOL     OW17038   3.162   0.176   4.174
 5380SOL    HW117039   3.196   0.259   4.131
 5380SOL    HW217040   3.140   0.108   4.104
 5381SOL     OW17041   5.786   4.108   1.549
 5381SOL    HW117042   5.877   4.070   1.528
 5381SOL    HW217043   5.727   4.099   1.470
 5382SOL     OW17044   1.753   0.169   1.471
 5382SOL    HW117045   1.772   0.071   1.478
 5382SOL    HW217046   1.783   0.214   1.555
 5383SOL     OW17047   2.306   2.181   5.198
 5383SOL    HW117048   2.313   2.148   5.292
 5383SOL    HW217049   2.260   2.270   5.197
 5384SOL     OW17050   5.848   6.582   4.371
 5384SOL    HW117051   5.778   6.591   4.442
 5384SOL    HW217052   5.938   6.569   4.414
 5385SOL     OW17053   3.599   4.141   2.152
 5385SOL    HW117054   3.534   4.086   2.098
 5385SOL    HW217055   3.591   4.116   2.248
 5386SOL     OW17056   5.126   6.337   5.203
 5386SOL    HW117057   5.097   6.414   5.145
 5386SOL    HW217058   5.169   6.371   5.286
 5387SOL     OW17059   2.762   5.603   1.748
 5387SOL    HW117060   2.711   5.659   1.814
 5387SOL    HW217061   2.846   5.650   1.722
 5388SOL     OW17062   5.633   0.374   2.819
 5388SOL    HW117063   5.592   0.323   2.895
 5388SOL    HW217064   5.614   0.328   2.733
 5389SOL     OW17065   4.924   2.088   1.560
 5389SOL    HW117066   4.946   2.175   1.515
 5389SOL    HW217067   4.827   2.085   1.581
 5390SOL     OW17068   5.987   5.085   6.060
 5390SOL    HW117069   5.909   5.089   5.997
 5390SOL    HW217070   6.019   4.991   6.066
 5391SOL     OW17071   2.291   3.177   6.846
 5391SOL    HW117072   2.321   3.261   6.891
 5391SOL    HW217073   2.277   3.106   6.915
 5392SOL     OW17074   6.179   2.945   2.432
 5392SOL    HW117075   6.188   3.031   2.381
 5392SOL    HW217076   6.263   2.892   2.424
 5393SOL     OW17077   6.389   0.199   6.729
 5393SOL    HW117078   6.443   0.115   6.716
 5393SOL    HW217079   6.428   0.272   6.673
 5394SOL     OW17080   0.835   3.928   5.991
 5394SOL    HW117081   0.807   4.007   5.937
 5394SOL    HW217082   0.754   3.883   6.029
 5395SOL     OW17083   4.347   1.753   0.198
 5395SOL    HW117084   4.398   1.744   0.284
 5395SOL    HW217085   4.409   1.783   0.126
 5396SOL     OW17086   5.209   3.263   2.570
 5396SOL    HW117087   5.136   3.267   2.639
 5396SOL    HW217088   5.169   3.240   2.481
 5397SOL     OW17089   0.084   3.124   1.368
 5397SOL    HW117090   0.149   3.198   1.384
 5397SOL    HW217091   7.019   3.162   1.329
 5398SOL     OW17092   3.604   2.764   1.797
 5398SOL    HW117093   3.654   2.850   1.784
 5398SOL    HW217094   3.506   2.783   1.795
 5399SOL     OW17095   1.292   5.609   0.874
 5399SOL    HW117096   1.368   5.545   0.864
 5399SOL    HW217097   1.284   5.664   0.791
 5400SOL     OW17098   2.793   4.681   0.395
 5400SOL    HW117099   2.745   4.757   0.351
 5400SOL    HW217100   2.752   4.594   0.366
 5401SOL     OW17101   6.067   3.025   1.350
 5401SOL    HW117102   6.128   3.063   1.281
 5401SOL    HW217103   6.045   2.930   1.327
 5402SOL     OW17104   1.479   6.179   2.482
 5402SOL    HW117105   1.515   6.258   2.432
 5402SOL    HW217106   1.444   6.209   2.571
 5403SOL     OW17107   0.191   2.837   6.252
 5403SOL    HW117108   0.138   2.806   6.331
 5403SOL    HW217109   0.215   2.934   6.265
 5404SOL     OW17110   1.708   3.373   2.843
 5404SOL    HW117111   1.746   3.419   2.924
 5404SOL    HW217112   1.704   3.274   2.860
 5405SOL     OW17113   6.887   4.735   6.193
 5405SOL    HW117114   6.931   4.680   6.264
 5405SOL    HW217115   6.792   4.750   6.217
 5406SOL     OW17116   2.182   0.223   5.006
 5406SOL    HW117117   2.238   0.288   5.058
 5406SOL    HW217118   2.241   0.153   4.967
 5407SOL     OW17119   3.702   3.528   6.649
 5407SOL    HW117120   3.741   3.614   6.683
 5407SOL    HW217121   3.604   3.540   6.634
 5408SOL     OW17122   2.808   1.127   6.857
 5408SOL    HW117123   2.764   1.195   6.798
 5408SOL    HW217124   2.887   1.089   6.811
 5409SOL     OW17125   3.660   1.052   2.357
 5409SOL    HW117126   3.637   1.000   2.440
 5409SOL    HW217127   3.741   1.013   2.314
 5410SOL     OW17128   2.476   2.217   2.073
 5410SOL    HW117129   2.501   2.305   2.032
 5410SOL    HW217130   2.556   2.179   2.120
 5411SOL     OW17131   0.755   5.464   4.892
 5411SOL    HW117132   0.710   5.386   4.935
 5411SOL    HW217133   0.810   5.513   4.959
 5412SOL     OW17134   5.915   2.857   1.156
 5412SOL    HW117135   5.897   2.762   1.132
 5412SOL    HW217136   5.832   2.911   1.141
 5413SOL     OW17137   2.113   0.236   1.764
 5413SOL    HW117138   2.188   0.204   1.821
 5413SOL    HW217139   2.130   0.209   1.669
 5414SOL     OW17140   3.965   0.722   5.384
 5414SOL    HW117141   3.876   0.731   5.340
 5414SOL    HW217142   3.996   0.811   5.416
 5415SOL     OW17143   5.997   5.147   2.178
 5415SOL    HW117144   6.077   5.116   2.230
 5415SOL    HW217145   5.963   5.233   2.216
 5416SOL     OW17146   4.213   5.722   4.665
 5416SOL    HW117147   4.118   5.754   4.662
 5416SOL    HW217148   4.215   5.622   4.661
 5417SOL     OW17149   3.183   0.052   4.698
 5417SOL    HW117150   3.196   6.978   4.664
 5417SOL    HW217151   3.099   0.089   4.659
 5418SOL     OW17152   3.773   0.421   2.921
 5418SOL    HW117153   3.808   0.435   3.014
 5418SOL    HW217154   3.736   0.328   2.914
 5419SOL     OW17155   3.277   4.083   6.910
 5419SOL    HW117156   3.285   4.176   6.876
 5419SOL    HW217157   3.223   4.028   6.846
 5420SOL     OW17158   1.233   1.212   3.058
 5420SOL    HW117159   1.274   1.283   3.001
 5420SOL    HW217160   1.170   1.157   3.003
 5421SOL     OW17161   1.615   3.538   1.850
 5421SOL    HW117162   1.550   3.548   1.775
 5421SOL    HW217163   1.675   3.618   1.853
 5422SOL     OW17164   2.124   3.393   1.199
 5422SOL    HW117165   2.177   3.315   1.231
 5422SOL    HW217166   2.186   3.462   1.161
 5423SOL     OW17167   5.987   3.806   6.569
 5423SOL    HW117168   6.007   3.855   6.485
 5423SOL    HW217169   5.906   3.750   6.556
 5424SOL     OW17170   5.320   4.375   5.061
 5424SOL    HW117171   5.416   4.348   5.061
 5424SOL    HW217172   5.268   4.311   5.116
 5425SOL     OW17173   5.145   0.475   4.439
 5425SOL    HW117174   5.159   0.488   4.341
 5425SOL    HW217175   5.188   0.389   4.468
 5426SOL     OW17176   6.283   0.351   5.303
 5426SOL    HW117177   6.293   0.252   5.313
 5426SOL    HW217178   6.186   0.375   5.311
 5427SOL     OW17179   4.025   6.010   7.018
 5427SOL    HW117180   3.960   6.003   0.075
 5427SOL    HW217181   4.118   6.008   0.034
 5428SOL     OW17182   1.088   0.440   6.886
 5428SOL    HW117183   1.108   0.366   6.950
 5428SOL    HW217184   1.145   0.430   6.805
 5429SOL     OW17185   1.440   2.496   6.776
 5429SOL    HW117186   1.392   2.569   6.725
 5429SOL    HW217187   1.451   2.524   6.871
 5430SOL     OW17188   2.569   2.755   5.617
 5430SOL    HW117189   2.621   2.677   5.583
 5430SOL    HW217190   2.555   2.821   5.542
 5431SOL     OW17191   3.653   6.187   4.579
 5431SOL    HW117192   3.687   6.177   4.672
 5431SOL    HW217193   3.668   6.281   4.547
 5432SOL     OW17194   5.450   6.474   1.202
 5432SOL    HW117195   5.450   6.470   1.102
 5432SOL    HW217196   5.356   6.480   1.236
 5433SOL     OW17197   0.278   1.566   4.295
 5433SOL    HW117198   0.237   1.494   4.350
 5433SOL    HW217199   0.366   1.593   4.334
 5434SOL     OW17200   2.627   6.866   5.777
 5434SOL    HW117201   2.628   6.770   5.748
 5434SOL    HW217202   2.639   6.871   5.877
 5435SOL     OW17203   4.627   0.960   1.953
 5435SOL    HW117204   4.589   0.904   1.879
 5435SOL    HW217205   4.720   0.929   1.973
 5436SOL     OW17206   5.530   4.212   2.493
 5436SOL    HW117207   5.540   4.261   2.406
 5436SOL    HW217208   5.608   4.234   2.552
 5437SOL     OW17209   3.006   3.403   6.812
 5437SOL    HW117210   3.035   3.309   6.795
 5437SOL    HW217211   2.917   3.403   6.856
 5438SOL     OW17212   6.699   2.427   1.248
 5438SOL    HW117213   6.604   2.458   1.248
 5438SOL    HW217214   6.712   2.358   1.176
 5439SOL     OW17215   1.600   2.180   1.308
 5439SOL    HW117216   1.601   2.094   1.258
 5439SOL    HW217217   1.626   2.164   1.403
 5440SOL     OW17218   1.308   2.143   1.037
 5440SOL    HW117219   1.348   2.066   1.088
 5440SOL    HW217220   1.334   2.137   0.941
 5441SOL     OW17221   3.622   1.959   3.750
 5441SOL    HW117222   3.618   1.933   3.653
 5441SOL    HW217223   3.585   1.884   3.805
 5442SOL     OW17224   3.864   0.868   2.483
 5442SOL    HW117225   3.943   0.923   2.453
 5442SOL    HW217226   3.864   0.781   2.434
 5443SOL     OW17227   3.397   6.894   5.246
 5443SOL    HW117228   3.403   6.848   5.158
 5443SOL    HW217229   3.306   6.935   5.256
 5444SOL     OW17230   6.832   6.960   3.342
 5444SOL    HW117231   6.781   6.999   3.418
 5444SOL    HW217232   6.926   6.941   3.371
 5445SOL     OW17233   5.575   3.712   2.461
 5445SOL    HW117234   5.634   3.794   2.460
 5445SOL    HW217235   5.625   3.637   2.504
 5446SOL     OW17236   6.490   5.251   5.593
 5446SOL    HW117237   6.417   5.228   5.529
 5446SOL    HW217238   6.539   5.332   5.560
 5447SOL     OW17239   3.321   1.919   0.720
 5447SOL    HW117240   3.314   1.819   0.714
 5447SOL    HW217241   3.414   1.945   0.745
 5448SOL     OW17242   5.523   2.432   5.681
 5448SOL    HW117243   5.568   2.344   5.673
 5448SOL    HW217244   5.590   2.506   5.671
 5449SOL     OW17245   0.724   3.467   6.405
 5449SOL    HW117246   0.784   3.388   6.392
 5449SOL    HW217247   0.683   3.493   6.317
 5450SOL     OW17248   1.675   6.684   0.683
 5450SOL    HW117249   1.723   6.714   0.765
 5450SOL    HW217250   1.736   6.627   0.628
 5451SOL     OW17251   1.418   0.382   2.477
 5451SOL    HW117252   1.446   0.463   2.426
 5451SOL    HW217253   1.366   0.321   2.416
 5452SOL     OW17254   2.719   3.780   5.867
 5452SOL    HW117255   2.740   3.769   5.964
 5452SOL    HW217256   2.651   3.853   5.856
 5453SOL     OW17257   6.107   5.037   6.691
 5453SOL    HW117258   6.056   4.973   6.634
 5453SOL    HW217259   6.199   5.002   6.706
 5454SOL     OW17260   0.169   4.582   6.846
 5454SOL    HW117261   0.094   4.539   6.897
 5454SOL    HW217262   0.200   4.520   6.775
 5455SOL     OW17263   6.237   3.421   1.476
 5455SOL    HW117264   6.166   3.413   1.407
 5455SOL    HW217265   6.252   3.332   1.519
 5456SOL     OW17266   3.298   6.945   0.573
 5456SOL    HW117267   3.384   6.907   0.607
 5456SOL    HW217268   3.275   6.904   0.485
 5457SOL     OW17269   6.442   3.581   0.652
 5457SOL    HW117270   6.404   3.491   0.631
 5457SOL    HW217271   6.542   3.577   0.650
 5458SOL     OW17272   2.604   4.039   6.788
 5458SOL    HW117273   2.667   3.982   6.839
 5458SOL    HW217274   2.608   4.016   6.691
 5459SOL     OW17275   2.011   4.920   5.852
 5459SOL    HW117276   2.004   4.829   5.893
 5459SOL    HW217277   2.032   4.987   5.923
 5460SOL     OW17278   2.893   0.383   1.145
 5460SOL    HW117279   2.953   0.443   1.198
 5460SOL    HW217280   2.846   0.320   1.207
 5461SOL     OW17281   4.527   6.895   5.251
 5461SOL    HW117282   4.622   6.867   5.244
 5461SOL    HW217283   4.512   6.977   5.196
 5462SOL     OW17284   0.677   0.239   1.518
 5462SOL    HW117285   0.722   0.262   1.432
 5462SOL    HW217286   0.637   0.321   1.558
 5463SOL     OW17287   0.196   2.877   0.730
 5463SOL    HW117288   0.123   2.929   0.685
 5463SOL    HW217289   0.285   2.917   0.707
 5464SOL     OW17290   2.031   0.155   4.076
 5464SOL    HW117291   2.038   0.247   4.115
 5464SOL    HW217292   2.063   0.157   3.981
 5465SOL     OW17293   2.723   6.754   5.436
 5465SOL    HW117294   2.789   6.685   5.406
 5465SOL    HW217295   2.637   6.709   5.460
 5466SOL     OW17296   4.623   4.424   4.585
 5466SOL    HW117297   4.571   4.509   4.578
 5466SOL    HW217298   4.656   4.397   4.495
 5467SOL     OW17299   6.094   1.789   2.046
 5467SOL    HW117300   6.156   1.726   1.999
 5467SOL    HW217301   6.127   1.883   2.035
 5468SOL     OW17302   4.326   1.392   5.599
 5468SOL    HW117303   4.253   1.350   5.654
 5468SOL    HW217304   4.301   1.486   5.579
 5469SOL     OW17305   4.117   4.446   6.256
 5469SOL    HW117306   4.162   4.458   6.168
 5469SOL    HW217307   4.081   4.533   6.288
 5470SOL     OW17308   1.268   5.114   3.641
 5470SOL    HW117309   1.287   5.020   3.670
 5470SOL    HW217310   1.350   5.169   3.651
 5471SOL     OW17311   5.988   5.606   2.238
 5471SOL    HW117312   5.932   5.528   2.267
 5471SOL    HW217313   6.083   5.591   2.265
 5472SOL     OW17314   3.969   4.851   5.479
 5472SOL    HW117315   4.016   4.782   5.535
 5472SOL    HW217316   3.995   4.942   5.510
 5473SOL     OW17317   1.325   3.266   3.678
 5473SOL    HW117318   1.407   3.244   3.730
 5473SOL    HW217319   1.349   3.283   3.583
 5474SOL     OW17320   2.017   5.539   3.825
 5474SOL    HW117321   2.001   5.632   3.792
 5474SOL    HW217322   1.929   5.493   3.839
 5475SOL     OW17323   3.105   2.494   1.402
 5475SOL    HW117324   3.104   2.543   1.489
 5475SOL    HW217325   3.196   2.457   1.385
 5476SOL     OW17326   1.094   3.200   5.623
 5476SOL    HW117327   1.049   3.199   5.713
 5476SOL    HW217328   1.190   3.174   5.633
 5477SOL     OW17329   2.125   3.085   2.822
 5477SOL    HW117330   2.025   3.091   2.821
 5477SOL    HW217331   2.157   3.054   2.733
 5478SOL     OW17332   6.712   6.056   6.124
 5478SOL    HW117333   6.715   5.957   6.141
 5478SOL    HW217334   6.802   6.086   6.091
 5479SOL     OW17335   4.828   0.644   4.805
 5479SOL    HW117336   4.808   0.551   4.833
 5479SOL    HW217337   4.784   0.708   4.867
 5480SOL     OW17338   0.329   3.616   4.563
 5480SOL    HW117339   0.274   3.609   4.479
 5480SOL    HW217340   0.425   3.630   4.539
 5481SOL     OW17341   4.828   6.597   4.159
 5481SOL    HW117342   4.914   6.552   4.139
 5481SOL    HW217343   4.753   6.530   4.155
 5482SOL     OW17344   1.552   4.381   1.519
 5482SOL    HW117345   1.627   4.442   1.493
 5482SOL    HW217346   1.512   4.413   1.605
 5483SOL     OW17347   0.295   2.796   5.645
 5483SOL    HW117348   0.316   2.885   5.684
 5483SOL    HW217349   0.232   2.807   5.568
 5484SOL     OW17350   4.594   0.507   5.107
 5484SOL    HW117351   4.689   0.477   5.111
 5484SOL    HW217352   4.534   0.434   5.141
 5485SOL     OW17353   3.382   0.190   4.548
 5485SOL    HW117354   3.339   0.112   4.594
 5485SOL    HW217355   3.430   0.157   4.467
 5486SOL     OW17356   2.625   6.016   5.127
 5486SOL    HW117357   2.663   5.927   5.101
 5486SOL    HW217358   2.554   6.003   5.196
 5487SOL     OW17359   2.952   5.250   5.746
 5487SOL    HW117360   3.034   5.287   5.789
 5487SOL    HW217361   2.977   5.181   5.678
 5488SOL     OW17362   5.613   2.416   0.832
 5488SOL    HW117363   5.706   2.408   0.796
 5488SOL    HW217364   5.549   2.377   0.766
 5489SOL     OW17365   6.670   3.866   3.055
 5489SOL    HW117366   6.696   3.771   3.070
 5489SOL    HW217367   6.585   3.885   3.103
 5490SOL     OW17368   1.555   6.339   2.792
 5490SOL    HW117369   1.646   6.377   2.811
 5490SOL    HW217370   1.514   6.388   2.715
 5491SOL     OW17371   6.626   4.294   0.829
 5491SOL    HW117372   6.657   4.270   0.921
 5491SOL    HW217373   6.685   4.367   0.793
 5492SOL     OW17374   6.901   2.044   5.995
 5492SOL    HW117375   6.976   2.048   5.929
 5492SOL    HW217376   6.938   2.021   6.085
 5493SOL     OW17377   3.962   3.955   1.016
 5493SOL    HW117378   3.932   3.860   1.030
 5493SOL    HW217379   3.894   4.017   1.056
 5494SOL     OW17380   6.228   3.939   5.502
 5494SOL    HW117381   6.244   3.885   5.584
 5494SOL    HW217382   6.306   3.930   5.440
 5495SOL     OW17383   5.887   6.728   0.366
 5495SOL    HW117384   5.877   6.654   0.300
 5495SOL    HW217385   5.949   6.798   0.328
 5496SOL     OW17386   4.223   0.227   4.251
 5496SOL    HW117387   4.212   0.144   4.197
 5496SOL    HW217388   4.172   0.302   4.209
 5497SOL     OW17389   1.114   0.581   5.679
 5497SOL    HW117390   1.062   0.587   5.594
 5497SOL    HW217391   1.068   0.517   5.741
 5498SOL     OW17392   0.807   5.512   1.109
 5498SOL    HW117393   0.768   5.480   1.023
 5498SOL    HW217394   0.846   5.604   1.095
 5499SOL     OW17395   2.083   0.437   4.434
 5499SOL    HW117396   2.092   0.536   4.429
 5499SOL    HW217397   2.167   0.397   4.473
 5500SOL     OW17398   2.646   0.351   0.545
 5500SOL    HW117399   2.704   0.289   0.598
 5500SOL    HW217400   2.553   0.315   0.540
 5501SOL     OW17401   3.459   3.743   6.865
 5501SOL    HW117402   3.415   3.661   6.829
 5501SOL    HW217403   3.549   3.755   6.823
 5502SOL     OW17404   4.588   2.940   0.213
 5502SOL    HW117405   4.514   2.884   0.252
 5502SOL    HW217406   4.658   2.956   0.284
 5503SOL     OW17407   6.312   3.634   0.919
 5503SOL    HW117408   6.342   3.557   0.976
 5503SOL    HW217409   6.378   3.649   0.845
 5504SOL     OW17410   3.955   1.744   6.817
 5504SOL    HW117411   4.016   1.795   6.877
 5504SOL    HW217412   3.880   1.705   6.871
 5505SOL     OW17413   3.069   4.871   3.639
 5505SOL    HW117414   2.998   4.801   3.633
 5505SOL    HW217415   3.128   4.852   3.717
 5506SOL     OW17416   0.032   3.246   5.744
 5506SOL    HW117417   0.116   3.216   5.698
 5506SOL    HW217418   0.030   3.346   5.747
 5507SOL     OW17419   3.049   6.930   6.655
 5507SOL    HW117420   3.029   6.886   6.568
 5507SOL    HW217421   3.143   6.965   6.654
 5508SOL     OW17422   6.726   1.046   6.218
 5508SOL    HW117423   6.794   1.046   6.145
 5508SOL    HW217424   6.638   1.016   6.181
 5509SOL     OW17425   6.351   5.240   0.662
 5509SOL    HW117426   6.364   5.257   0.564
 5509SOL    HW217427   6.321   5.145   0.675
 5510SOL     OW17428   4.657   4.952   6.905
 5510SOL    HW117429   4.564   4.975   6.934
 5510SOL    HW217430   4.693   4.880   6.964
 5511SOL     OW17431   0.139   2.314   5.529
 5511SOL    HW117432   0.097   2.233   5.489
 5511SOL    HW217433   0.151   2.384   5.459
 5512SOL     OW17434   2.415   0.613   2.452
 5512SOL    HW117435   2.406   0.568   2.363
 5512SOL    HW217436   2.427   0.711   2.439
 5513SOL     OW17437   3.734   3.859   0.081
 5513SOL    HW117438   3.668   3.933   0.095
 5513SOL    HW217439   3.817   3.896   0.039
 5514SOL     OW17440   3.239   1.119   0.303
 5514SOL    HW117441   3.203   1.167   0.382
 5514SOL    HW217442   3.164   1.082   0.248
 5515SOL     OW17443   2.641   5.694   2.533
 5515SOL    HW117444   2.674   5.702   2.627
 5515SOL    HW217445   2.713   5.656   2.476
 5516SOL     OW17446   1.657   2.339   5.164
 5516SOL    HW117447   1.642   2.240   5.164
 5516SOL    HW217448   1.654   2.373   5.258
 5517SOL     OW17449   1.299   2.388   3.366
 5517SOL    HW117450   1.381   2.379   3.423
 5517SOL    HW217451   1.274   2.484   3.358
 5518SOL     OW17452   4.824   4.886   6.693
 5518SOL    HW117453   4.745   4.892   6.754
 5518SOL    HW217454   4.900   4.939   6.731
 5519SOL     OW17455   5.008   2.802   4.498
 5519SOL    HW117456   5.067   2.881   4.517
 5519SOL    HW217457   5.063   2.727   4.462
 5520SOL     OW17458   4.931   0.510   1.366
 5520SOL    HW117459   5.024   0.544   1.381
 5520SOL    HW217460   4.891   0.558   1.287
 5521SOL     OW17461   4.520   6.390   2.316
 5521SOL    HW117462   4.550   6.342   2.398
 5521SOL    HW217463   4.573   6.358   2.237
 5522SOL     OW17464   5.936   5.951   1.028
 5522SOL    HW117465   5.924   6.011   1.107
 5522SOL    HW217466   5.956   5.858   1.060
 5523SOL     OW17467   5.520   1.568   1.046
 5523SOL    HW117468   5.605   1.620   1.044
 5523SOL    HW217469   5.514   1.517   1.131
 5524SOL     OW17470   2.599   1.533   3.624
 5524SOL    HW117471   2.591   1.618   3.677
 5524SOL    HW217472   2.538   1.537   3.545
 5525SOL     OW17473   6.436   1.276   1.719
 5525SOL    HW117474   6.459   1.196   1.663
 5525SOL    HW217475   6.343   1.304   1.700
 5526SOL     OW17476   5.577   5.295   3.935
 5526SOL    HW117477   5.646   5.240   3.982
 5526SOL    HW217478   5.500   5.237   3.907
 5527SOL     OW17479   5.951   0.451   3.842
 5527SOL    HW117480   5.963   0.475   3.745
 5527SOL    HW217481   5.865   0.402   3.853
 5528SOL     OW17482   0.882   1.539   0.120
 5528SOL    HW117483   0.957   1.604   0.107
 5528SOL    HW217484   0.797   1.578   0.084
 5529SOL     OW17485   3.597   0.740   2.260
 5529SOL    HW117486   3.689   0.716   2.228
 5529SOL    HW217487   3.579   0.693   2.346
 5530SOL     OW17488   6.896   2.251   1.143
 5530SOL    HW117489   6.869   2.194   1.065
 5530SOL    HW217490   6.934   2.337   1.109
 5531SOL     OW17491   2.354   4.280   1.524
 5531SOL    HW117492   2.410   4.198   1.511
 5531SOL    HW217493   2.339   4.295   1.622
 5532SOL     OW17494   1.006   2.582   6.737
 5532SOL    HW117495   0.991   2.483   6.746
 5532SOL    HW217496   0.919   2.626   6.715
 5533SOL     OW17497   3.214   1.861   2.361
 5533SOL    HW117498   3.207   1.790   2.290
 5533SOL    HW217499   3.288   1.837   2.424
 5534SOL     OW17500   1.615   0.336   4.554
 5534SOL    HW117501   1.673   0.383   4.488
 5534SOL    HW217502   1.611   0.389   4.638
 5535SOL     OW17503   6.851   1.606   2.942
 5535SOL    HW117504   6.785   1.666   2.896
 5535SOL    HW217505   6.857   1.632   3.039
 5536SOL     OW17506   4.263   6.010   4.517
 5536SOL    HW117507   4.211   6.095   4.529
 5536SOL    HW217508   4.309   5.986   4.602
 5537SOL     OW17509   2.854   1.936   3.749
 5537SOL    HW117510   2.943   1.976   3.727
 5537SOL    HW217511   2.845   1.926   3.848
 5538SOL     OW17512   4.823   5.044   4.275
 5538SOL    HW117513   4.763   4.975   4.317
 5538SOL    HW217514   4.772   5.129   4.262
 5539SOL     OW17515   2.523   4.774   0.278
 5539SOL    HW117516   2.485   4.859   0.316
 5539SOL    HW217517   2.492   4.696   0.333
 5540SOL     OW17518   4.870   5.483   2.122
 5540SOL    HW117519   4.812   5.521   2.194
 5540SOL    HW217520   4.814   5.429   2.059
 5541SOL     OW17521   5.008   1.699   5.819
 5541SOL    HW117522   4.935   1.636   5.794
 5541SOL    HW217523   5.097   1.657   5.800
 5542SOL     OW17524   5.482   4.676   6.847
 5542SOL    HW117525   5.479   4.611   6.772
 5542SOL    HW217526   5.512   4.765   6.813
 5543SOL     OW17527   0.186   1.935   5.559
 5543SOL    HW117528   0.257   1.943   5.490
 5543SOL    HW217529   0.203   2.000   5.633
 5544SOL     OW17530   5.932   0.451   6.870
 5544SOL    HW117531   5.902   0.357   6.855
 5544SOL    HW217532   5.971   0.488   6.786
 5545SOL     OW17533   2.889   2.606   1.675
 5545SOL    HW117534   2.909   2.546   1.751
 5545SOL    HW217535   2.907   2.701   1.701
 5546SOL     OW17536   3.536   4.778   5.634
 5546SOL    HW117537   3.544   4.758   5.536
 5546SOL    HW217538   3.620   4.752   5.681
 5547SOL     OW17539   3.249   5.622   3.937
 5547SOL    HW117540   3.255   5.609   4.035
 5547SOL    HW217541   3.153   5.629   3.909
 5548SOL     OW17542   0.701   2.512   4.585
 5548SOL    HW117543   0.742   2.461   4.509
 5548SOL    HW217544   0.612   2.473   4.607
 5549SOL     OW17545   3.693   4.945   6.939
 5549SOL    HW117546   3.727   4.864   6.890
 5549SOL    HW217547   3.678   4.922   0.016
 5550SOL     OW17548   2.976   6.623   2.284
 5550SOL    HW117549   2.904   6.590   2.345
 5550SOL    HW217550   3.065   6.602   2.324
 5551SOL     OW17551   0.480   1.128   2.826
 5551SOL    HW117552   0.519   1.074   2.900
 5551SOL    HW217553   0.552   1.154   2.761
 5552SOL     OW17554   1.026   2.273   2.000
 5552SOL    HW117555   1.085   2.250   1.924
 5552SOL    HW217556   1.030   2.201   2.069
 5553SOL     OW17557   4.564   6.632   6.740
 5553SOL    HW117558   4.508   6.638   6.822
 5553SOL    HW217559   4.594   6.723   6.712
 5554SOL     OW17560   3.384   1.110   4.252
 5554SOL    HW117561   3.312   1.041   4.241
 5554SOL    HW217562   3.401   1.154   4.164
 5555SOL     OW17563   0.647   5.690   1.774
 5555SOL    HW117564   0.609   5.601   1.750
 5555SOL    HW217565   0.674   5.738   1.691
 5556SOL     OW17566   0.954   0.955   4.797
 5556SOL    HW117567   1.019   0.930   4.725
 5556SOL    HW217568   0.995   0.937   4.887
 5557SOL     OW17569   2.467   0.128   3.010
 5557SOL    HW117570   2.447   0.211   3.063
 5557SOL    HW217571   2.381   0.085   2.983
 5558SOL     OW17572   5.104   2.749   5.537
 5558SOL    HW117573   5.202   2.752   5.555
 5558SOL    HW217574   5.081   2.664   5.489
 5559SOL     OW17575   2.239   0.567   1.565
 5559SOL    HW117576   2.284   0.598   1.481
 5559SOL    HW217577   2.215   0.471   1.556
 5560SOL     OW17578   6.867   1.032   4.225
 5560SOL    HW117579   6.786   0.994   4.269
 5560SOL    HW217580   6.914   1.093   4.290
 5561SOL     OW17581   1.707   3.815   2.326
 5561SOL    HW117582   1.744   3.750   2.393
 5561SOL    HW217583   1.647   3.880   2.371
 5562SOL     OW17584   2.879   2.248   6.634
 5562SOL    HW117585   2.964   2.300   6.637
 5562SOL    HW217586   2.893   2.164   6.580
 5563SOL     OW17587   4.322   4.196   1.431
 5563SOL    HW117588   4.331   4.203   1.331
 5563SOL    HW217589   4.225   4.202   1.456
 5564SOL     OW17590   5.744   2.318   1.755
 5564SOL    HW117591   5.814   2.389   1.756
 5564SOL    HW217592   5.777   2.238   1.805
 5565SOL     OW17593   3.157   2.705   5.347
 5565SOL    HW117594   3.221   2.773   5.382
 5565SOL    HW217595   3.208   2.633   5.300
 5566SOL     OW17596   2.175   4.775   0.848
 5566SOL    HW117597   2.187   4.678   0.869
 5566SOL    HW217598   2.077   4.795   0.842
 5567SOL     OW17599   1.749   5.353   3.366
 5567SOL    HW117600   1.667   5.407   3.385
 5567SOL    HW217601   1.826   5.415   3.348
 5568SOL     OW17602   3.645   2.523   0.606
 5568SOL    HW117603   3.581   2.573   0.548
 5568SOL    HW217604   3.641   2.425   0.584
 5569SOL     OW17605   5.112   2.038   6.429
 5569SOL    HW117606   5.125   2.107   6.500
 5569SOL    HW217607   5.194   2.031   6.373
 5570SOL     OW17608   0.676   3.346   5.274
 5570SOL    HW117609   0.761   3.325   5.323
 5570SOL    HW217610   0.637   3.261   5.238
 5571SOL     OW17611   6.457   4.665   6.867
 5571SOL    HW117612   6.449   4.581   6.813
 5571SOL    HW217613   6.548   4.670   6.909
 5572SOL     OW17614   6.343   3.235   4.791
 5572SOL    HW117615   6.375   3.309   4.732
 5572SOL    HW217616   6.416   3.169   4.805
 5573SOL     OW17617   0.083   4.292   6.989
 5573SOL    HW117618   0.152   4.309   0.040
 5573SOL    HW217619   0.125   4.299   6.898
 5574SOL     OW17620   1.048   6.446   4.184
 5574SOL    HW117621   1.145   6.443   4.162
 5574SOL    HW217622   1.028   6.383   4.259
 5575SOL     OW17623   0.795   1.153   1.503
 5575SOL    HW117624   0.857   1.212   1.555
 5575SOL    HW217625   0.731   1.109   1.565
 5576SOL     OW17626   5.481   5.983   6.275
 5576SOL    HW117627   5.518   5.948   6.361
 5576SOL    HW217628   5.504   6.079   6.266
 5577SOL     OW17629   2.534   4.578   4.523
 5577SOL    HW117630   2.463   4.508   4.527
 5577SOL    HW217631   2.585   4.579   4.609
 5578SOL     OW17632   3.398   1.875   6.538
 5578SOL    HW117633   3.354   1.963   6.551
 5578SOL    HW217634   3.485   1.873   6.587
 5579SOL     OW17635   4.852   5.111   1.871
 5579SOL    HW117636   4.890   5.188   1.819
 5579SOL    HW217637   4.770   5.140   1.918
 5580SOL     OW17638   5.629   1.510   1.413
 5580SOL    HW117639   5.584   1.420   1.419
 5580SOL    HW217640   5.560   1.580   1.393
 5581SOL     OW17641   2.880   2.378   0.506
 5581SOL    HW117642   2.804   2.317   0.527
 5581SOL    HW217643   2.960   2.352   0.560
 5582SOL     OW17644   3.279   2.887   3.548
 5582SOL    HW117645   3.344   2.935   3.489
 5582SOL    HW217646   3.319   2.873   3.638
 5583SOL     OW17647   4.388   0.609   6.888
 5583SOL    HW117648   4.351   0.523   6.923
 5583SOL    HW217649   4.385   0.678   6.961
 5584SOL     OW17650   4.958   3.413   2.959
 5584SOL    HW117651   4.936   3.508   2.933
 5584SOL    HW217652   4.960   3.406   3.058
 5585SOL     OW17653   0.474   7.006   4.639
 5585SOL    HW117654   0.524   6.997   4.726
 5585SOL    HW217655   0.526   0.046   4.577
 5586SOL     OW17656   3.020   1.294   6.417
 5586SOL    HW117657   2.922   1.275   6.417
 5586SOL    HW217658   3.054   1.289   6.511
 5587SOL     OW17659   3.625   6.469   4.103
 5587SOL    HW117660   3.586   6.386   4.144
 5587SOL    HW217661   3.559   6.544   4.111
 5588SOL     OW17662   4.823   7.003   5.967
 5588SOL    HW117663   4.846   0.058   5.904
 5588SOL    HW217664   4.726   7.007   5.990
 5589SOL     OW17665   3.071   3.632   0.243
 5589SOL    HW117666   3.122   3.571   0.304
 5589SOL    HW217667   3.127   3.712   0.221
 5590SOL     OW17668   6.677   0.631   3.629
 5590SOL    HW117669   6.720   0.587   3.551
 5590SOL    HW217670   6.616   0.566   3.675
 5591SOL     OW17671   5.624   0.163   0.107
 5591SOL    HW117672   5.633   0.121   0.017
 5591SOL    HW217673   5.556   0.112   0.160
 5592SOL     OW17674   1.065   2.261   2.565
 5592SOL    HW117675   1.078   2.354   2.599
 5592SOL    HW217676   1.121   2.247   2.483
 5593SOL     OW17677   2.323   4.390   4.584
 5593SOL    HW117678   2.292   4.376   4.678
 5593SOL    HW217679   2.272   4.330   4.522
 5594SOL     OW17680   3.096   1.640   6.315
 5594SOL    HW117681   3.160   1.717   6.317
 5594SOL    HW217682   3.147   1.555   6.302
 5595SOL     OW17683   0.557   2.288   6.004
 5595SOL    HW117684   0.595   2.272   5.913
 5595SOL    HW217685   0.457   2.296   5.997
 5596SOL     OW17686   4.611   2.730   4.426
 5596SOL    HW117687   4.518   2.738   4.461
 5596SOL    HW217688   4.675   2.776   4.489
 5597SOL     OW17689   6.956   1.888   6.593
 5597SOL    HW117690   7.002   1.810   6.552
 5597SOL    HW217691   7.002   1.913   6.678
 5598SOL     OW17692   6.527   1.929   3.690
 5598SOL    HW117693   6.610   1.943   3.636
 5598SOL    HW217694   6.537   1.974   3.779
 5599SOL     OW17695   5.461   2.531   3.298
 5599SOL    HW117696   5.376   2.542   3.350
 5599SOL    HW217697   5.449   2.461   3.228
 5600SOL     OW17698   1.959   2.778   2.020
 5600SOL    HW117699   1.950   2.680   2.035
 5600SOL    HW217700   2.033   2.813   2.077
 5601SOL     OW17701   5.469   3.379   5.798
 5601SOL    HW117702   5.499   3.324   5.875
 5601SOL    HW217703   5.404   3.448   5.829
 5602SOL     OW17704   6.442   2.580   2.620
 5602SOL    HW117705   6.362   2.520   2.622
 5602SOL    HW217706   6.477   2.592   2.713
 5603SOL     OW17707   4.000   2.189   6.376
 5603SOL    HW117708   3.944   2.114   6.411
 5603SOL    HW217709   4.077   2.152   6.324
 5604SOL     OW17710   1.219   6.296   3.654
 5604SOL    HW117711   1.130   6.334   3.628
 5604SOL    HW217712   1.205   6.222   3.720
 5605SOL     OW17713   4.364   0.449   3.888
 5605SOL    HW117714   4.433   0.482   3.824
 5605SOL    HW217715   4.328   0.526   3.941
 5606SOL     OW17716   4.595   3.184   0.669
 5606SOL    HW117717   4.615   3.190   0.767
 5606SOL    HW217718   4.561   3.093   0.647
 5607SOL     OW17719   6.969   2.553   3.474
 5607SOL    HW117720   6.884   2.510   3.504
 5607SOL    HW217721   6.951   2.648   3.448
 5608SOL     OW17722   5.201   0.304   4.100
 5608SOL    HW117723   5.124   0.357   4.065
 5608SOL    HW217724   5.254   0.360   4.164
 5609SOL     OW17725   6.415   1.048   0.086
 5609SOL    HW117726   6.438   0.983   0.158
 5609SOL    HW217727   6.370   1.128   0.126
 5610SOL     OW17728   5.836   5.715   6.162
 5610SOL    HW117729   5.845   5.615   6.157
 5610SOL    HW217730   5.754   5.743   6.112
 5611SOL     OW17731   6.106   4.071   2.166
 5611SOL    HW117732   6.137   4.142   2.102
 5611SOL    HW217733   6.082   3.988   2.115
 5612SOL     OW17734   4.118   2.068   0.807
 5612SOL    HW117735   4.066   2.112   0.881
 5612SOL    HW217736   4.212   2.101   0.808
 5613SOL     OW17737   6.423   5.345   6.149
 5613SOL    HW117738   6.513   5.329   6.107
 5613SOL    HW217739   6.371   5.259   6.149
 5614SOL     OW17740   4.957   1.910   5.059
 5614SOL    HW117741   4.912   1.986   5.107
 5614SOL    HW217742   4.895   1.873   4.990
 5615SOL     OW17743   0.712   3.068   3.587
 5615SOL    HW117744   0.692   3.032   3.678
 5615SOL    HW217745   0.631   3.060   3.529
 5616SOL     OW17746   1.798   3.540   2.380
 5616SOL    HW117747   1.815   3.535   2.281
 5616SOL    HW217748   1.765   3.451   2.412
 5617SOL     OW17749   1.215   4.867   6.289
 5617SOL    HW117750   1.261   4.953   6.311
 5617SOL    HW217751   1.267   4.791   6.327
 5618SOL     OW17752   4.523   0.106   2.776
 5618SOL    HW117753   4.550   0.016   2.742
 5618SOL    HW217754   4.600   0.147   2.825
 5619SOL     OW17755   3.122   3.374   3.212
 5619SOL    HW117756   3.036   3.410   3.250
 5619SOL    HW217757   3.117   3.275   3.208
 5620SOL     OW17758   5.009   4.303   4.820
 5620SOL    HW117759   5.020   4.397   4.853
 5620SOL    HW217760   4.940   4.256   4.876
 5621SOL     OW17761   0.844   2.403   6.587
 5621SOL    HW117762   0.751   2.439   6.584
 5621SOL    HW217763   0.892   2.428   6.502
 5622SOL     OW17764   4.944   5.526   4.223
 5622SOL    HW117765   5.003   5.591   4.176
 5622SOL    HW217766   4.875   5.575   4.276
 5623SOL     OW17767   4.573   4.750   3.888
 5623SOL    HW117768   4.582   4.707   3.977
 5623SOL    HW217769   4.482   4.731   3.851
 5624SOL     OW17770   4.909   4.096   3.350
 5624SOL    HW117771   4.932   4.185   3.389
 5624SOL    HW217772   4.872   4.108   3.258
 5625SOL     OW17773   2.656   6.768   6.052
 5625SOL    HW117774   2.656   6.827   6.133
 5625SOL    HW217775   2.609   6.682   6.073
 5626SOL     OW17776   1.194   4.589   6.490
 5626SOL    HW117777   1.102   4.625   6.477
 5626SOL    HW217778   1.212   4.517   6.424
 5627SOL     OW17779   1.367   5.286   0.334
 5627SOL    HW117780   1.298   5.340   0.382
 5627SOL    HW217781   1.324   5.232   0.262
 5628SOL     OW17782   1.609   3.366   0.092
 5628SOL    HW117783   1.542   3.430   0.055
 5628SOL    HW217784   1.693   3.415   0.113
 5629SOL     OW17785   6.872   3.389   3.484
 5629SOL    HW117786   6.785   3.349   3.457
 5629SOL    HW217787   6.866   3.423   3.577
 5630SOL     OW17788   0.945   3.561   0.471
 5630SOL    HW117789   1.012   3.605   0.532
 5630SOL    HW217790   0.857   3.607   0.479
 5631SOL     OW17791   3.698   1.033   1.317
 5631SOL    HW117792   3.749   0.964   1.369
 5631SOL    HW217793   3.614   0.992   1.282
 5632SOL     OW17794   4.068   6.487   6.274
 5632SOL    HW117795   4.044   6.582   6.294
 5632SOL    HW217796   4.025   6.458   6.189
 5633SOL     OW17797   1.210   5.464   5.383
 5633SOL    HW117798   1.129   5.423   5.425
 5633SOL    HW217799   1.280   5.394   5.370
 5634SOL     OW17800   2.629   0.849   1.292
 5634SOL    HW117801   2.582   0.813   1.211
 5634SOL    HW217802   2.563   0.893   1.353
 5635SOL     OW17803   3.352   0.659   1.743
 5635SOL    HW117804   3.436   0.658   1.798
 5635SOL    HW217805   3.324   0.564   1.723
 5636SOL     OW17806   5.558   0.452   5.417
 5636SOL    HW117807   5.554   0.423   5.322
 5636SOL    HW217808   5.580   0.550   5.421
 5637SOL     OW17809   5.242   0.283   4.830
 5637SOL    HW117810   5.186   0.263   4.750
 5637SOL    HW217811   5.183   0.302   4.908
 5638SOL     OW17812   5.833   5.490   0.745
 5638SOL    HW117813   5.892   5.410   0.735
 5638SOL    HW217814   5.744   5.461   0.780
 5639SOL     OW17815   3.042   0.614   1.575
 5639SOL    HW117816   2.964   0.553   1.566
 5639SOL    HW217817   3.014   0.708   1.555
 5640SOL     OW17818   3.020   6.986   3.399
 5640SOL    HW117819   3.107   7.017   3.436
 5640SOL    HW217820   3.024   6.888   3.381
 5641SOL     OW17821   6.943   4.068   3.554
 5641SOL    HW117822   6.936   4.096   3.459
 5641SOL    HW217823   0.017   4.083   3.587
 5642SOL     OW17824   2.136   3.486   6.237
 5642SOL    HW117825   2.112   3.534   6.322
 5642SOL    HW217826   2.137   3.552   6.162
 5643SOL     OW17827   6.110   2.392   4.323
 5643SOL    HW117828   6.133   2.473   4.269
 5643SOL    HW217829   6.166   2.315   4.293
 5644SOL     OW17830   3.999   0.434   5.459
 5644SOL    HW117831   3.916   0.388   5.491
 5644SOL    HW217832   3.975   0.523   5.420
 5645SOL     OW17833   6.090   6.654   3.752
 5645SOL    HW117834   6.136   6.647   3.663
 5645SOL    HW217835   6.137   6.721   3.809
 5646SOL     OW17836   6.530   6.394   4.127
 5646SOL    HW117837   6.551   6.422   4.221
 5646SOL    HW217838   6.438   6.423   4.103
 5647SOL     OW17839   6.830   4.081   6.865
 5647SOL    HW117840   6.848   4.072   6.767
 5647SOL    HW217841   6.894   4.024   6.917
 5648SOL     OW17842   2.952   1.250   4.596
 5648SOL    HW117843   3.039   1.227   4.553
 5648SOL    HW217844   2.968   1.313   4.672
 5649SOL     OW17845   1.006   0.039   5.799
 5649SOL    HW117846   1.065   6.982   5.775
 5649SOL    HW217847   0.990   0.095   5.718
 5650SOL     OW17848   6.941   4.601   5.956
 5650SOL    HW117849   6.938   4.640   6.048
 5650SOL    HW217850   7.018   4.640   5.905
 5651SOL     OW17851   5.824   1.674   2.349
 5651SOL    HW117852   5.915   1.632   2.347
 5651SOL    HW217853   5.833   1.772   2.370
 5652SOL     OW17854   6.042   4.464   0.394
 5652SOL    HW117855   5.979   4.460   0.473
 5652SOL    HW217856   5.996   4.427   0.313
 5653SOL     OW17857   2.033   6.030   6.439
 5653SOL    HW117858   2.004   5.935   6.424
 5653SOL    HW217859   2.047   6.074   6.350
 5654SOL     OW17860   1.756   5.928   6.805
 5654SOL    HW117861   1.680   5.987   6.832
 5654SOL    HW217862   1.774   5.940   6.707
 5655SOL     OW17863   6.702   5.261   2.967
 5655SOL    HW117864   6.683   5.163   2.966
 5655SOL    HW217865   6.801   5.276   2.968
 5656SOL     OW17866   3.603   5.615   6.413
 5656SOL    HW117867   3.508   5.592   6.435
 5656SOL    HW217868   3.606   5.701   6.363
 5657SOL     OW17869   4.557   5.656   1.792
 5657SOL    HW117870   4.506   5.715   1.855
 5657SOL    HW217871   4.500   5.581   1.762
 5658SOL     OW17872   5.376   6.424   5.662
 5658SOL    HW117873   5.345   6.504   5.712
 5658SOL    HW217874   5.402   6.352   5.726
 5659SOL     OW17875   3.038   3.787   2.792
 5659SOL    HW117876   2.977   3.755   2.864
 5659SOL    HW217877   3.017   3.739   2.707
 5660SOL     OW17878   6.336   5.978   1.582
 5660SOL    HW117879   6.286   5.917   1.521
 5660SOL    HW217880   6.342   6.069   1.541
 5661SOL     OW17881   6.104   5.756   4.212
 5661SOL    HW117882   6.164   5.834   4.199
 5661SOL    HW217883   6.158   5.672   4.216
 5662SOL     OW17884   2.406   4.799   4.849
 5662SOL    HW117885   2.486   4.753   4.812
 5662SOL    HW217886   2.416   4.810   4.948
 5663SOL     OW17887   2.882   4.189   1.218
 5663SOL    HW117888   2.825   4.126   1.166
 5663SOL    HW217889   2.824   4.248   1.274
 5664SOL     OW17890   0.007   6.022   2.495
 5664SOL    HW117891   6.953   6.019   2.427
 5664SOL    HW217892   0.094   6.039   2.449
 5665SOL     OW17893   1.495   1.229   6.274
 5665SOL    HW117894   1.565   1.284   6.320
 5665SOL    HW217895   1.413   1.285   6.259
 5666SOL     OW17896   5.925   5.647   0.414
 5666SOL    HW117897   5.937   5.736   0.368
 5666SOL    HW217898   5.827   5.625   0.417
 5667SOL     OW17899   6.471   5.366   3.083
 5667SOL    HW117900   6.415   5.391   3.004
 5667SOL    HW217901   6.566   5.355   3.054
 5668SOL     OW17902   5.995   3.461   6.151
 5668SOL    HW117903   5.968   3.445   6.056
 5668SOL    HW217904   6.064   3.393   6.177
 5669SOL     OW17905   6.879   3.398   4.900
 5669SOL    HW117906   6.846   3.316   4.854
 5669SOL    HW217907   6.918   3.461   4.832
 5670SOL     OW17908   1.436   3.677   2.267
 5670SOL    HW117909   1.533   3.661   2.288
 5670SOL    HW217910   1.398   3.743   2.332
 5671SOL     OW17911   1.188   0.838   5.684
 5671SOL    HW117912   1.145   0.888   5.609
 5671SOL    HW217913   1.143   0.750   5.696
 5672SOL     OW17914   5.100   3.827   6.193
 5672SOL    HW117915   5.018   3.871   6.156
 5672SOL    HW217916   5.086   3.809   6.290
 5673SOL     OW17917   1.462   7.018   0.763
 5673SOL    HW117918   1.453   0.053   0.679
 5673SOL    HW217919   1.410   0.043   0.836
 5674SOL     OW17920   6.224   3.235   1.117
 5674SOL    HW117921   6.148   3.256   1.056
 5674SOL    HW217922   6.305   3.287   1.091
 5675SOL     OW17923   3.542   1.127   6.527
 5675SOL    HW117924   3.470   1.192   6.504
 5675SOL    HW217925   3.502   1.042   6.562
 5676SOL     OW17926   3.671   0.114   1.511
 5676SOL    HW117927   3.755   0.089   1.463
 5676SOL    HW217928   3.598   0.128   1.444
 5677SOL     OW17929   6.955   1.373   3.535
 5677SOL    HW117930   0.016   1.383   3.476
 5677SOL    HW217931   6.974   1.304   3.605
 5678SOL     OW17932   1.846   5.319   3.697
 5678SOL    HW117933   1.808   5.269   3.774
 5678SOL    HW217934   1.890   5.256   3.634
 5679SOL     OW17935   3.273   5.610   5.201
 5679SOL    HW117936   3.194   5.591   5.142
 5679SOL    HW217937   3.276   5.542   5.275
 5680SOL     OW17938   1.770   6.835   6.557
 5680SOL    HW117939   1.843   6.847   6.624
 5680SOL    HW217940   1.747   6.738   6.550
 5681SOL     OW17941   2.718   4.012   0.248
 5681SOL    HW117942   2.687   3.918   0.264
 5681SOL    HW217943   2.693   4.040   0.155
 5682SOL     OW17944   0.937   3.748   4.195
 5682SOL    HW117945   0.983   3.791   4.273
 5682SOL    HW217946   0.891   3.818   4.141
 5683SOL     OW17947   4.031   3.417   4.639
 5683SOL    HW117948   4.058   3.502   4.594
 5683SOL    HW217949   4.043   3.426   4.738
 5684SOL     OW17950   2.883   3.714   2.998
 5684SOL    HW117951   2.945   3.718   3.076
 5684SOL    HW217952   2.846   3.621   2.989
 5685SOL     OW17953   0.581   5.469   1.965
 5685SOL    HW117954   0.574   5.454   1.866
 5685SOL    HW217955   0.671   5.440   1.996
 5686SOL     OW17956   3.472   4.889   6.764
 5686SOL    HW117957   3.517   4.898   6.676
 5686SOL    HW217958   3.530   4.927   6.836
 5687SOL     OW17959   4.055   5.805   6.524
 5687SOL    HW117960   4.030   5.819   6.428
 5687SOL    HW217961   4.119   5.728   6.531
 5688SOL     OW17962   5.679   1.995   2.120
 5688SOL    HW117963   5.646   1.901   2.109
 5688SOL    HW217964   5.604   2.059   2.106
 5689SOL     OW17965   4.304   3.061   6.527
 5689SOL    HW117966   4.256   3.135   6.573
 5689SOL    HW217967   4.303   2.979   6.583
 5690SOL     OW17968   4.359   6.601   2.313
 5690SOL    HW117969   4.274   6.556   2.285
 5690SOL    HW217970   4.433   6.534   2.317
 5691SOL     OW17971   2.654   0.374   3.504
 5691SOL    HW117972   2.658   0.422   3.417
 5691SOL    HW217973   2.723   0.302   3.506
 5692SOL     OW17974   5.902   3.201   0.029
 5692SOL    HW117975   5.983   3.144   0.021
 5692SOL    HW217976   5.832   3.171   6.984
 5693SOL     OW17977   5.141   2.419   2.588
 5693SOL    HW117978   5.171   2.323   2.587
 5693SOL    HW217979   5.124   2.450   2.494
 5694SOL     OW17980   1.592   1.756   4.060
 5694SOL    HW117981   1.660   1.817   4.020
 5694SOL    HW217982   1.630   1.664   4.066
 5695SOL     OW17983   1.788   4.030   3.544
 5695SOL    HW117984   1.816   4.120   3.510
 5695SOL    HW217985   1.868   3.971   3.550
 5696SOL     OW17986   3.460   0.491   5.969
 5696SOL    HW117987   3.527   0.533   6.031
 5696SOL    HW217988   3.405   0.425   6.021
 5697SOL     OW17989   6.574   3.529   0.297
 5697SOL    HW117990   6.554   3.451   0.356
 5697SOL    HW217991   6.496   3.592   0.297
 5698SOL     OW17992   0.866   4.248   3.011
 5698SOL    HW117993   0.870   4.325   3.075
 5698SOL    HW217994   0.937   4.182   3.035
 5699SOL     OW17995   6.472   2.115   4.742
 5699SOL    HW117996   6.531   2.046   4.783
 5699SOL    HW217997   6.528   2.189   4.704
 5700SOL     OW17998   1.054   5.641   3.109
 5700SOL    HW117999   1.044   5.725   3.164
 5700SOL    HW218000   1.151   5.624   3.091
 5701SOL     OW18001   5.434   4.786   2.201
 5701SOL    HW118002   5.436   4.727   2.282
 5701SOL    HW218003   5.360   4.755   2.140
 5702SOL     OW18004   1.974   0.196   6.861
 5702SOL    HW118005   1.885   0.161   6.835
 5702SOL    HW218006   1.980   0.293   6.839
 5703SOL     OW18007   4.957   4.355   1.923
 5703SOL    HW118008   4.880   4.402   1.878
 5703SOL    HW218009   5.017   4.317   1.853
 5704SOL     OW18010   4.747   4.190   3.083
 5704SOL    HW118011   4.697   4.259   3.135
 5704SOL    HW218012   4.842   4.218   3.070
 5705SOL     OW18013   5.874   1.812   2.754
 5705SOL    HW118014   5.923   1.788   2.838
 5705SOL    HW218015   5.901   1.904   2.725
 5706SOL     OW18016   1.959   0.944   6.861
 5706SOL    HW118017   1.988   1.030   6.903
 5706SOL    HW218018   1.863   0.926   6.883
 5707SOL     OW18019   3.324   1.817   6.273
 5707SOL    HW118020   3.345   1.830   6.370
 5707SOL    HW218021   3.369   1.734   6.240
 5708SOL     OW18022   6.540   6.804   1.650
 5708SOL    HW118023   6.586   6.715   1.649
 5708SOL    HW218024   6.464   6.803   1.585
 5709SOL     OW18025   1.174   1.439   2.036
 5709SOL    HW118026   1.143   1.505   1.967
 5709SOL    HW218027   1.099   1.419   2.099
 5710SOL     OW18028   3.158   4.263   6.312
 5710SOL    HW118029   3.175   4.318   6.230
 5710SOL    HW218030   3.063   4.231   6.311
 5711SOL     OW18031   4.621   1.151   4.852
 5711SOL    HW118032   4.617   1.157   4.952
 5711SOL    HW218033   4.714   1.170   4.820
 5712SOL     OW18034   6.710   6.309   6.852
 5712SOL    HW118035   6.636   6.265   6.903
 5712SOL    HW218036   6.797   6.293   6.898
 5713SOL     OW18037   0.132   2.628   2.675
 5713SOL    HW118038   0.158   2.714   2.719
 5713SOL    HW218039   0.092   2.566   2.742
 5714SOL     OW18040   2.098   0.729   6.360
 5714SOL    HW118041   2.090   0.826   6.335
 5714SOL    HW218042   2.188   0.712   6.399
 5715SOL     OW18043   1.268   6.772   3.469
 5715SOL    HW118044   1.361   6.737   3.461
 5715SOL    HW218045   1.220   6.762   3.382
 5716SOL     OW18046   1.668   2.810   4.869
 5716SOL    HW118047   1.755   2.829   4.915
 5716SOL    HW218048   1.685   2.757   4.786
 5717SOL     OW18049   0.512   3.288   6.986
 5717SOL    HW118050   0.462   3.368   7.018
 5717SOL    HW218051   0.606   3.314   6.964
 5718SOL     OW18052   2.282   5.371   4.997
 5718SOL    HW118053   2.257   5.283   5.037
 5718SOL    HW218054   2.313   5.356   4.903
 5719SOL     OW18055   2.576   0.566   6.743
 5719SOL    HW118056   2.598   0.498   6.673
 5719SOL    HW218057   2.624   0.651   6.724
 5720SOL     OW18058   2.104   5.946   4.075
 5720SOL    HW118059   2.158   6.030   4.069
 5720SOL    HW218060   2.164   5.867   4.059
 5721SOL     OW18061   0.046   4.394   0.509
 5721SOL    HW118062   0.045   4.344   0.595
 5721SOL    HW218063   6.978   4.382   0.463
 5722SOL     OW18064   5.433   1.252   3.832
 5722SOL    HW118065   5.390   1.332   3.873
 5722SOL    HW218066   5.454   1.185   3.905
 5723SOL     OW18067   1.219   4.050   0.876
 5723SOL    HW118068   1.120   4.041   0.886
 5723SOL    HW218069   1.258   4.078   0.964
 5724SOL     OW18070   4.975   2.366   6.307
 5724SOL    HW118071   4.877   2.379   6.293
 5724SOL    HW218072   5.011   2.308   6.235
 5725SOL     OW18073   4.988   5.875   5.664
 5725SOL    HW118074   5.048   5.953   5.680
 5725SOL    HW218075   4.969   5.828   5.750
 5726SOL     OW18076   4.352   3.817   5.306
 5726SOL    HW118077   4.373   3.721   5.288
 5726SOL    HW218078   4.401   3.847   5.388
 5727SOL     OW18079   5.984   1.970   3.660
 5727SOL    HW118080   6.068   1.946   3.708
 5727SOL    HW218081   5.936   2.041   3.712
 5728SOL     OW18082   4.863   0.700   5.947
 5728SOL    HW118083   4.868   0.798   5.968
 5728SOL    HW218084   4.845   0.688   5.850
 5729SOL     OW18085   1.295   2.974   4.777
 5729SOL    HW118086   1.226   2.987   4.848
 5729SOL    HW218087   1.343   2.887   4.792
 5730SOL     OW18088   4.158   5.639   0.037
 5730SOL    HW118089   4.171   5.581   0.117
 5730SOL    HW218090   4.189   5.732   0.056
 5731SOL     OW18091   4.484   1.374   4.772
 5731SOL    HW118092   4.538   1.445   4.727
 5731SOL    HW218093   4.545   1.303   4.807
 5732SOL     OW18094   5.569   4.178   4.030
 5732SOL    HW118095   5.585   4.086   4.066
 5732SOL    HW218096   5.624   4.244   4.080
 5733SOL     OW18097   2.384   6.863   1.322
 5733SOL    HW118098   2.433   6.941   1.362
 5733SOL    HW218099   2.310   6.835   1.383
 5734SOL     OW18100   1.344   6.447   6.555
 5734SOL    HW118101   1.434   6.483   6.581
 5734SOL    HW218102   1.272   6.504   6.595
 5735SOL     OW18103   5.036   0.727   2.236
 5735SOL    HW118104   5.062   0.823   2.228
 5735SOL    HW218105   5.011   0.706   2.330
 5736SOL     OW18106   6.038   4.514   6.699
 5736SOL    HW118107   6.131   4.491   6.727
 5736SOL    HW218108   6.012   4.601   6.741
 5737SOL     OW18109   4.700   5.428   1.909
 5737SOL    HW118110   4.645   5.358   1.955
 5737SOL    HW218111   4.645   5.510   1.894
 5738SOL     OW18112   2.237   0.567   0.627
 5738SOL    HW118113   2.331   0.554   0.595
 5738SOL    HW218114   2.235   0.564   0.727
 5739SOL     OW18115   2.117   1.443   5.755
 5739SOL    HW118116   2.046   1.386   5.796
 5739SOL    HW218117   2.207   1.415   5.789
 5740SOL     OW18118   5.018   3.505   2.494
 5740SOL    HW118119   5.003   3.409   2.517
 5740SOL    HW218120   5.107   3.515   2.449
 5741SOL     OW18121   0.824   3.628   3.949
 5741SOL    HW118122   0.849   3.725   3.947
 5741SOL    HW218123   0.775   3.608   4.034
 5742SOL     OW18124   5.819   6.808   3.225
 5742SOL    HW118125   5.916   6.830   3.230
 5742SOL    HW218126   5.808   6.711   3.205
 5743SOL     OW18127   3.374   5.546   6.881
 5743SOL    HW118128   3.279   5.552   6.851
 5743SOL    HW218129   3.435   5.545   6.802
 5744SOL     OW18130   5.196   6.668   3.372
 5744SOL    HW118131   5.165   6.760   3.348
 5744SOL    HW218132   5.186   6.608   3.293
 5745SOL     OW18133   0.997   2.808   1.756
 5745SOL    HW118134   0.906   2.796   1.798
 5745SOL    HW218135   1.061   2.840   1.825
 5746SOL     OW18136   4.889   6.639   3.174
 5746SOL    HW118137   4.978   6.597   3.158
 5746SOL    HW218138   4.829   6.620   3.097
 5747SOL     OW18139   1.550   6.432   1.085
 5747SOL    HW118140   1.498   6.381   1.153
 5747SOL    HW218141   1.499   6.433   0.999
 5748SOL     OW18142   0.091   6.341   0.803
 5748SOL    HW118143   0.079   6.291   0.717
 5748SOL    HW218144   0.180   6.320   0.842
 5749SOL     OW18145   1.891   5.512   6.211
 5749SOL    HW118146   1.817   5.537   6.274
 5749SOL    HW218147   1.978   5.511   6.260
 5750SOL     OW18148   6.940   3.091   4.516
 5750SOL    HW118149   6.902   3.002   4.491
 5750SOL    HW218150   0.016   3.079   4.545
 5751SOL     OW18151   1.100   3.957   4.809
 5751SOL    HW118152   1.141   3.867   4.796
 5751SOL    HW218153   1.154   4.009   4.876
 5752SOL     OW18154   5.154   0.578   0.795
 5752SOL    HW118155   5.136   0.625   0.709
 5752SOL    HW218156   5.181   0.645   0.865
 5753SOL     OW18157   3.753   4.124   4.635
 5753SOL    HW118158   3.844   4.084   4.648
 5753SOL    HW218159   3.761   4.224   4.633
 5754SOL     OW18160   0.386   5.754   1.216
 5754SOL    HW118161   0.318   5.736   1.144
 5754SOL    HW218162   0.478   5.746   1.177
 5755SOL     OW18163   0.744   2.896   6.162
 5755SOL    HW118164   0.723   2.898   6.259
 5755SOL    HW218165   0.842   2.877   6.149
 5756SOL     OW18166   5.599   6.257   1.502
 5756SOL    HW118167   5.543   6.221   1.577
 5756SOL    HW218168   5.554   6.337   1.463
 5757SOL     OW18169   0.146   0.999   4.017
 5757SOL    HW118170   0.070   0.934   4.008
 5757SOL    HW218171   0.232   0.952   4.000
 5758SOL     OW18172   6.076   6.577   3.034
 5758SOL    HW118173   6.101   6.673   3.025
 5758SOL    HW218174   5.978   6.566   3.023
 5759SOL     OW18175   2.995   0.171   1.415
 5759SOL    HW118176   3.071   0.229   1.445
 5759SOL    HW218177   2.979   0.100   1.483
 5760SOL     OW18178   1.773   2.572   0.152
 5760SOL    HW118179   1.862   2.539   0.184
 5760SOL    HW218180   1.761   2.667   0.180
 5761SOL     OW18181   6.344   0.076   4.612
 5761SOL    HW118182   6.323   0.064   4.515
 5761SOL    HW218183   6.359   7.005   4.654
 5762SOL     OW18184   0.692   5.417   6.382
 5762SOL    HW118185   0.782   5.377   6.368
 5762SOL    HW218186   0.688   5.506   6.336
 5763SOL     OW18187   5.933   0.381   0.558
 5763SOL    HW118188   5.916   0.297   0.610
 5763SOL    HW218189   5.937   0.459   0.620
 5764SOL     OW18190   4.830   6.176   4.126
 5764SOL    HW118191   4.753   6.164   4.189
 5764SOL    HW218192   4.819   6.263   4.078
 5765SOL     OW18193   6.112   5.175   2.585
 5765SOL    HW118194   6.034   5.122   2.552
 5765SOL    HW218195   6.102   5.192   2.683
 5766SOL     OW18196   0.522   1.305   4.336
 5766SOL    HW118197   0.586   1.288   4.261
 5766SOL    HW218198   0.443   1.357   4.302
 5767SOL     OW18199   4.187   7.001   6.299
 5767SOL    HW118200   4.188   0.079   6.276
 5767SOL    HW218201   4.198   6.947   6.216
 5768SOL     OW18202   0.630   0.885   5.545
 5768SOL    HW118203   0.536   0.850   5.556
 5768SOL    HW218204   0.649   0.899   5.448
 5769SOL     OW18205   1.537   3.976   5.518
 5769SOL    HW118206   1.448   3.932   5.536
 5769SOL    HW218207   1.529   4.074   5.533
 5770SOL     OW18208   2.334   3.984   1.888
 5770SOL    HW118209   2.311   4.052   1.818
 5770SOL    HW218210   2.340   4.029   1.977
 5771SOL     OW18211   3.712   4.940   4.323
 5771SOL    HW118212   3.757   5.028   4.338
 5771SOL    HW218213   3.753   4.894   4.243
 5772SOL     OW18214   3.462   6.989   2.176
 5772SOL    HW118215   3.498   7.014   2.086
 5772SOL    HW218216   3.527   7.016   2.247
 5773SOL     OW18217   5.250   1.547   2.658
 5773SOL    HW118218   5.307   1.580   2.582
 5773SOL    HW218219   5.280   1.456   2.686
 5774SOL     OW18220   0.886   6.496   2.511
 5774SOL    HW118221   0.864   6.531   2.602
 5774SOL    HW218222   0.864   6.566   2.443
 5775SOL     OW18223   6.251   5.417   1.607
 5775SOL    HW118224   6.288   5.510   1.609
 5775SOL    HW218225   6.154   5.421   1.582
 5776SOL     OW18226   3.009   1.261   3.949
 5776SOL    HW118227   2.996   1.280   4.046
 5776SOL    HW218228   3.050   1.341   3.905
 5777SOL     OW18229   1.962   6.512   2.196
 5777SOL    HW118230   1.890   6.442   2.199
 5777SOL    HW218231   2.051   6.469   2.211
 5778SOL     OW18232   0.509   1.327   0.767
 5778SOL    HW118233   0.513   1.281   0.856
 5778SOL    HW218234   0.584   1.393   0.761
 5779SOL     OW18235   5.971   0.947   6.034
 5779SOL    HW118236   5.993   0.906   6.123
 5779SOL    HW218237   6.055   0.966   5.984
 5780SOL     OW18238   5.333   5.434   4.513
 5780SOL    HW118239   5.275   5.354   4.527
 5780SOL    HW218240   5.299   5.510   4.567
 5781SOL     OW18241   1.116   4.541   5.221
 5781SOL    HW118242   1.210   4.506   5.227
 5781SOL    HW218243   1.113   4.633   5.260
 5782SOL     OW18244   0.516   0.750   0.408
 5782SOL    HW118245   0.567   0.831   0.379
 5782SOL    HW218246   0.436   0.779   0.461
 5783SOL     OW18247   2.240   2.354   0.660
 5783SOL    HW118248   2.193   2.354   0.749
 5783SOL    HW218249   2.295   2.271   0.652
 5784SOL     OW18250   6.608   5.978   6.708
 5784SOL    HW118251   6.512   6.001   6.723
 5784SOL    HW218252   6.640   6.021   6.624
 5785SOL     OW18253   1.010   1.413   0.711
 5785SOL    HW118254   0.910   1.411   0.710
 5785SOL    HW218255   1.044   1.398   0.618
 5786SOL     OW18256   5.651   5.168   1.782
 5786SOL    HW118257   5.638   5.267   1.779
 5786SOL    HW218258   5.736   5.147   1.831
 5787SOL     OW18259   2.155   2.772   6.453
 5787SOL    HW118260   2.160   2.679   6.417
 5787SOL    HW218261   2.212   2.780   6.535
 5788SOL     OW18262   2.688   0.771   3.409
 5788SOL    HW118263   2.649   0.699   3.352
 5788SOL    HW218264   2.635   0.780   3.493
 5789SOL     OW18265   3.667   4.599   6.101
 5789SOL    HW118266   3.655   4.637   6.192
 5789SOL    HW218267   3.728   4.657   6.047
 5790SOL     OW18268   1.384   3.388   3.406
 5790SOL    HW118269   1.426   3.394   3.316
 5790SOL    HW218270   1.412   3.467   3.461
 5791SOL     OW18271   2.010   0.976   2.911
 5791SOL    HW118272   2.053   0.995   2.823
 5791SOL    HW218273   1.974   0.882   2.911
 5792SOL     OW18274   6.723   2.346   2.818
 5792SOL    HW118275   6.725   2.300   2.906
 5792SOL    HW218276   6.659   2.299   2.757
 5793SOL     OW18277   0.436   0.760   4.406
 5793SOL    HW118278   0.385   0.692   4.459
 5793SOL    HW218279   0.394   0.850   4.417
 5794SOL     OW18280   4.974   4.340   6.476
 5794SOL    HW118281   4.977   4.246   6.443
 5794SOL    HW218282   4.881   4.376   6.468
 5795SOL     OW18283   5.655   4.459   6.936
 5795SOL    HW118284   5.573   4.517   6.942
 5795SOL    HW218285   5.630   4.370   6.899
 5796SOL     OW18286   3.565   2.251   0.542
 5796SOL    HW118287   3.606   2.228   0.631
 5796SOL    HW218288   3.577   2.174   0.479
 5797SOL     OW18289   3.455   2.247   6.015
 5797SOL    HW118290   3.489   2.211   6.102
 5797SOL    HW218291   3.366   2.291   6.030
 5798SOL     OW18292   6.603   4.953   3.942
 5798SOL    HW118293   6.512   4.994   3.930
 5798SOL    HW218294   6.621   4.890   3.867
 5799SOL     OW18295   5.689   0.340   3.863
 5799SOL    HW118296   5.713   0.306   3.772
 5799SOL    HW218297   5.592   0.322   3.880
 5800SOL     OW18298   5.438   5.090   0.892
 5800SOL    HW118299   5.414   5.064   0.985
 5800SOL    HW218300   5.360   5.135   0.849
 5801SOL     OW18301   2.698   1.227   2.953
 5801SOL    HW118302   2.778   1.276   2.919
 5801SOL    HW218303   2.615   1.278   2.927
 5802SOL     OW18304   0.425   2.899   4.719
 5802SOL    HW118305   0.471   2.934   4.801
 5802SOL    HW218306   0.329   2.881   4.741
 5803SOL     OW18307   1.997   4.403   0.563
 5803SOL    HW118308   1.905   4.442   0.554
 5803SOL    HW218309   2.007   4.328   0.498
 5804SOL     OW18310   6.256   3.205   5.140
 5804SOL    HW118311   6.234   3.114   5.105
 5804SOL    HW218312   6.207   3.274   5.086
 5805SOL     OW18313   5.905   3.479   0.108
 5805SOL    HW118314   5.827   3.541   0.112
 5805SOL    HW218315   5.873   3.384   0.103
 5806SOL     OW18316   0.396   6.643   0.408
 5806SOL    HW118317   0.493   6.631   0.388
 5806SOL    HW218318   0.370   6.584   0.484
 5807SOL     OW18319   2.059   3.730   1.859
 5807SOL    HW118320   2.107   3.651   1.897
 5807SOL    HW218321   2.104   3.759   1.774
 5808SOL     OW18322   6.586   3.282   3.469
 5808SOL    HW118323   6.629   3.192   3.472
 5808SOL    HW218324   6.486   3.272   3.465
 5809SOL     OW18325   6.368   3.546   3.885
 5809SOL    HW118326   6.326   3.628   3.923
 5809SOL    HW218327   6.349   3.468   3.945
 5810SOL     OW18328   2.546   2.451   2.458
 5810SOL    HW118329   2.494   2.372   2.426
 5810SOL    HW218330   2.498   2.535   2.433
 5811SOL     OW18331   2.606   1.484   3.148
 5811SOL    HW118332   2.609   1.403   3.089
 5811SOL    HW218333   2.515   1.523   3.146
 5812SOL     OW18334   4.203   0.794   4.772
 5812SOL    HW118335   4.181   0.795   4.870
 5812SOL    HW218336   4.118   0.793   4.719
 5813SOL     OW18337   1.425   0.682   5.699
 5813SOL    HW118338   1.442   0.653   5.605
 5813SOL    HW218339   1.347   0.745   5.701
 5814SOL     OW18340   0.576   5.083   1.066
 5814SOL    HW118341   0.654   5.146   1.076
 5814SOL    HW218342   0.603   4.992   1.097
 5815SOL     OW18343   3.479   1.489   3.035
 5815SOL    HW118344   3.439   1.579   3.056
 5815SOL    HW218345   3.462   1.466   2.939
 5816SOL     OW18346   4.641   0.108   1.077
 5816SOL    HW118347   4.649   0.129   0.980
 5816SOL    HW218348   4.732   0.105   1.118
 5817SOL     OW18349   5.224   1.832   5.036
 5817SOL    HW118350   5.287   1.860   4.965
 5817SOL    HW218351   5.142   1.889   5.033
 5818SOL     OW18352   5.680   6.122   5.868
 5818SOL    HW118353   5.734   6.070   5.802
 5818SOL    HW218354   5.713   6.216   5.871
 5819SOL     OW18355   6.222   0.263   0.773
 5819SOL    HW118356   6.211   0.328   0.698
 5819SOL    HW218357   6.211   0.170   0.738
 5820SOL     OW18358   5.707   6.193   3.085
 5820SOL    HW118359   5.677   6.252   3.160
 5820SOL    HW218360   5.764   6.247   3.022
 5821SOL     OW18361   2.808   0.483   1.560
 5821SOL    HW118362   2.824   0.400   1.614
 5821SOL    HW218363   2.756   0.549   1.615
 5822SOL     OW18364   0.485   1.193   2.233
 5822SOL    HW118365   0.496   1.199   2.134
 5822SOL    HW218366   0.527   1.272   2.276
 5823SOL     OW18367   2.676   2.337   4.006
 5823SOL    HW118368   2.637   2.307   3.919
 5823SOL    HW218369   2.605   2.338   4.076
 5824SOL     OW18370   4.737   0.484   3.910
 5824SOL    HW118371   4.725   0.555   3.980
 5824SOL    HW218372   4.649   0.464   3.867
 5825SOL     OW18373   2.613   0.679   0.712
 5825SOL    HW118374   2.606   0.632   0.624
 5825SOL    HW218375   2.664   0.765   0.700
 5826SOL     OW18376   6.646   0.643   4.617
 5826SOL    HW118377   6.725   0.615   4.563
 5826SOL    HW218378   6.631   0.576   4.690
 5827SOL     OW18379   0.965   5.266   5.053
 5827SOL    HW118380   0.886   5.220   5.014
 5827SOL    HW218381   1.049   5.232   5.009
 5828SOL     OW18382   0.151   3.024   1.634
 5828SOL    HW118383   0.089   2.961   1.681
 5828SOL    HW218384   0.118   3.041   1.541
 5829SOL     OW18385   1.712   1.086   1.693
 5829SOL    HW118386   1.761   1.028   1.627
 5829SOL    HW218387   1.742   1.063   1.786
 5830SOL     OW18388   1.788   1.508   5.618
 5830SOL    HW118389   1.740   1.454   5.687
 5830SOL    HW218390   1.859   1.563   5.661
 5831SOL     OW18391   5.590   6.586   3.007
 5831SOL    HW118392   5.612   6.577   3.104
 5831SOL    HW218393   5.494   6.563   2.991
 5832SOL     OW18394   3.623   3.870   5.093
 5832SOL    HW118395   3.599   3.950   5.148
 5832SOL    HW218396   3.547   3.847   5.033
 5833SOL     OW18397   3.700   3.362   4.936
 5833SOL    HW118398   3.663   3.272   4.914
 5833SOL    HW218399   3.737   3.403   4.853
 5834SOL     OW18400   5.936   1.118   0.407
 5834SOL    HW118401   5.852   1.086   0.362
 5834SOL    HW218402   6.004   1.045   0.405
 5835SOL     OW18403   5.169   2.266   4.221
 5835SOL    HW118404   5.233   2.303   4.153
 5835SOL    HW218405   5.108   2.200   4.177
 5836SOL     OW18406   3.266   5.996   2.482
 5836SOL    HW118407   3.169   6.020   2.473
 5836SOL    HW218408   3.274   5.901   2.512
 5837SOL     OW18409   4.681   4.472   6.480
 5837SOL    HW118410   4.608   4.404   6.475
 5837SOL    HW218411   4.665   4.542   6.410
 5838SOL     OW18412   0.808   1.603   5.429
 5838SOL    HW118413   0.883   1.585   5.492
 5838SOL    HW218414   0.726   1.555   5.459
 5839SOL     OW18415   0.319   3.427   2.684
 5839SOL    HW118416   0.386   3.459   2.751
 5839SOL    HW218417   0.244   3.380   2.730
 5840SOL     OW18418   1.884   5.190   6.650
 5840SOL    HW118419   1.951   5.132   6.697
 5840SOL    HW218420   1.927   5.234   6.572
 5841SOL     OW18421   6.643   2.492   3.117
 5841SOL    HW118422   6.622   2.492   3.214
 5841SOL    HW218423   6.741   2.510   3.104
 5842SOL     OW18424   3.930   3.190   0.436
 5842SOL    HW118425   3.941   3.274   0.489
 5842SOL    HW218426   4.013   3.172   0.384
 5843SOL     OW18427   1.365   3.167   1.757
 5843SOL    HW118428   1.387   3.218   1.674
 5843SOL    HW218429   1.435   3.185   1.827
 5844SOL     OW18430   1.203   6.412   0.144
 5844SOL    HW118431   1.274   6.341   0.153
 5844SOL    HW218432   1.212   6.456   0.055
 5845SOL     OW18433   0.826   2.324   4.393
 5845SOL    HW118434   0.909   2.270   4.406
 5845SOL    HW218435   0.834   2.378   4.309
 5846SOL     OW18436   6.902   2.966   5.798
 5846SOL    HW118437   6.890   2.965   5.897
 5846SOL    HW218438   6.941   3.054   5.770
 5847SOL     OW18439   2.112   2.761   3.019
 5847SOL    HW118440   2.179   2.709   3.072
 5847SOL    HW218441   2.127   2.859   3.033
 5848SOL     OW18442   1.518   4.669   3.970
 5848SOL    HW118443   1.593   4.635   4.028
 5848SOL    HW218444   1.515   4.615   3.886
 5849SOL     OW18445   2.377   6.752   5.532
 5849SOL    HW118446   2.333   6.664   5.553
 5849SOL    HW218447   2.439   6.777   5.606
 5850SOL     OW18448   0.815   4.451   2.809
 5850SOL    HW118449   0.844   4.390   2.883
 5850SOL    HW218450   0.777   4.396   2.734
 5851SOL     OW18451   6.076   3.434   1.990
 5851SOL    HW118452   6.049   3.507   2.054
 5851SOL    HW218453   6.000   3.371   1.978
 5852SOL     OW18454   4.238   5.671   2.979
 5852SOL    HW118455   4.184   5.590   3.001
 5852SOL    HW218456   4.264   5.718   3.064
 5853SOL     OW18457   3.718   4.144   5.833
 5853SOL    HW118458   3.703   4.164   5.930
 5853SOL    HW218459   3.651   4.194   5.778
 5854SOL     OW18460   6.887   1.123   6.565
 5854SOL    HW118461   6.970   1.070   6.546
 5854SOL    HW218462   6.882   1.142   6.664
 5855SOL     OW18463   1.682   1.076   4.834
 5855SOL    HW118464   1.687   1.082   4.934
 5855SOL    HW218465   1.772   1.050   4.798
 5856SOL     OW18466   2.269   4.988   3.788
 5856SOL    HW118467   2.306   5.031   3.871
 5856SOL    HW218468   2.175   5.017   3.774
 5857SOL     OW18469   6.966   2.921   5.266
 5857SOL    HW118470   6.907   2.988   5.221
 5857SOL    HW218471   7.019   2.871   5.198
 5858SOL     OW18472   3.623   0.621   2.549
 5858SOL    HW118473   3.600   0.695   2.612
 5858SOL    HW218474   3.571   0.539   2.573
 5859SOL     OW18475   6.258   6.014   1.296
 5859SOL    HW118476   6.349   6.054   1.287
 5859SOL    HW218477   6.263   5.916   1.280
 5860SOL     OW18478   1.789   3.809   1.222
 5860SOL    HW118479   1.827   3.866   1.294
 5860SOL    HW218480   1.805   3.712   1.244
 5861SOL     OW18481   5.908   2.120   4.015
 5861SOL    HW118482   5.814   2.153   4.028
 5861SOL    HW218483   5.939   2.077   4.099
 5862SOL     OW18484   5.009   4.270   3.060
 5862SOL    HW118485   5.063   4.274   2.976
 5862SOL    HW218486   5.057   4.319   3.133
 5863SOL     OW18487   2.192   1.355   0.108
 5863SOL    HW118488   2.103   1.395   0.127
 5863SOL    HW218489   2.199   1.335   0.010
 5864SOL     OW18490   4.744   4.952   0.835
 5864SOL    HW118491   4.650   4.959   0.800
 5864SOL    HW218492   4.742   4.923   0.930
 5865SOL     OW18493   4.035   0.857   3.044
 5865SOL    HW118494   4.030   0.941   3.097
 5865SOL    HW218495   4.127   0.846   3.007
 5866SOL     OW18496   3.842   0.385   6.671
 5866SOL    HW118497   3.843   0.303   6.615
 5866SOL    HW218498   3.870   0.464   6.616
 5867SOL     OW18499   6.981   2.528   0.905
 5867SOL    HW118500   0.053   2.520   0.946
 5867SOL    HW218501   6.976   2.472   0.823
 5868SOL     OW18502   1.350   0.103   5.128
 5868SOL    HW118503   1.430   0.092   5.187
 5868SOL    HW218504   1.309   0.193   5.144
 5869SOL     OW18505   2.842   4.721   3.614
 5869SOL    HW118506   2.789   4.726   3.529
 5869SOL    HW218507   2.782   4.690   3.688
 5870SOL     OW18508   5.583   4.704   4.824
 5870SOL    HW118509   5.519   4.690   4.748
 5870SOL    HW218510   5.664   4.648   4.811
 5871SOL     OW18511   2.971   2.931   6.613
 5871SOL    HW118512   2.926   2.978   6.689
 5871SOL    HW218513   2.973   2.992   6.533
 5872SOL     OW18514   3.666   5.828   4.715
 5872SOL    HW118515   3.615   5.753   4.758
 5872SOL    HW218516   3.612   5.867   4.641
 5873SOL     OW18517   2.760   3.671   0.263
 5873SOL    HW118518   2.860   3.668   0.270
 5873SOL    HW218519   2.722   3.703   0.349
 5874SOL     OW18520   1.888   4.043   0.651
 5874SOL    HW118521   1.921   4.044   0.556
 5874SOL    HW218522   1.928   3.965   0.699
 5875SOL     OW18523   4.161   1.977   0.273
 5875SOL    HW118524   4.221   1.897   0.269
 5875SOL    HW218525   4.073   1.950   0.311
 5876SOL     OW18526   3.581   4.431   5.898
 5876SOL    HW118527   3.591   4.496   5.974
 5876SOL    HW218528   3.532   4.350   5.930
 5877SOL     OW18529   6.666   6.876   2.724
 5877SOL    HW118530   6.587   6.878   2.662
 5877SOL    HW218531   6.642   6.827   2.807
 5878SOL     OW18532   5.000   4.616   2.248
 5878SOL    HW118533   4.994   4.569   2.336
 5878SOL    HW218534   5.091   4.605   2.209
 5879SOL     OW18535   3.759   3.291   5.644
 5879SOL    HW118536   3.669   3.298   5.601
 5879SOL    HW218537   3.826   3.262   5.576
 5880SOL     OW18538   5.777   2.589   5.954
 5880SOL    HW118539   5.747   2.680   5.928
 5880SOL    HW218540   5.840   2.554   5.885
 5881SOL     OW18541   1.434   5.944   2.344
 5881SOL    HW118542   1.464   5.878   2.413
 5881SOL    HW218543   1.440   6.037   2.381
 5882SOL     OW18544   1.548   4.967   5.454
 5882SOL    HW118545   1.647   4.956   5.440
 5882SOL    HW218546   1.499   4.915   5.384
 5883SOL     OW18547   6.480   4.938   0.061
 5883SOL    HW118548   6.422   4.875   0.011
 5883SOL    HW218549   6.430   5.022   0.080
 5884SOL     OW18550   6.094   2.077   2.960
 5884SOL    HW118551   6.154   2.031   3.025
 5884SOL    HW218552   6.034   2.140   3.009
 5885SOL     OW18553   6.343   5.561   0.590
 5885SOL    HW118554   6.278   5.516   0.529
 5885SOL    HW218555   6.315   5.544   0.685
 5886SOL     OW18556   1.936   4.384   3.621
 5886SOL    HW118557   2.018   4.439   3.607
 5886SOL    HW218558   1.924   4.323   3.542
 5887SOL     OW18559   2.641   2.888   0.977
 5887SOL    HW118560   2.705   2.928   1.043
 5887SOL    HW218561   2.681   2.806   0.937
 5888SOL     OW18562   3.102   6.521   1.320
 5888SOL    HW118563   3.118   6.590   1.250
 5888SOL    HW218564   3.018   6.543   1.370
 5889SOL     OW18565   6.170   1.551   1.952
 5889SOL    HW118566   6.228   1.471   1.941
 5889SOL    HW218567   6.075   1.523   1.967
 5890SOL     OW18568   1.362   5.462   2.646
 5890SOL    HW118569   1.405   5.373   2.640
 5890SOL    HW218570   1.345   5.485   2.742
 5891SOL     OW18571   2.473   3.820   0.262
 5891SOL    HW118572   2.485   3.743   0.200
 5891SOL    HW218573   2.377   3.827   0.289
 5892SOL     OW18574   1.098   2.853   0.261
 5892SOL    HW118575   1.040   2.809   0.329
 5892SOL    HW218576   1.154   2.924   0.305
 5893SOL     OW18577   0.987   6.699   1.036
 5893SOL    HW118578   0.979   6.731   1.130
 5893SOL    HW218579   0.926   6.621   1.021
 5894SOL     OW18580   2.160   5.407   6.591
 5894SOL    HW118581   2.149   5.506   6.602
 5894SOL    HW218582   2.258   5.384   6.595
 5895SOL     OW18583   5.122   3.851   3.628
 5895SOL    HW118584   5.193   3.782   3.613
 5895SOL    HW218585   5.032   3.809   3.618
 5896SOL     OW18586   5.764   2.787   2.480
 5896SOL    HW118587   5.688   2.744   2.526
 5896SOL    HW218588   5.834   2.812   2.547
 5897SOL     OW18589   3.844   2.204   0.655
 5897SOL    HW118590   3.898   2.156   0.586
 5897SOL    HW218591   3.880   2.185   0.746
 5898SOL     OW18592   2.103   1.341   6.366
 5898SOL    HW118593   2.059   1.393   6.293
 5898SOL    HW218594   2.145   1.259   6.328
 5899SOL     OW18595   0.275   6.407   6.756
 5899SOL    HW118596   0.206   6.455   6.810
 5899SOL    HW218597   0.304   6.325   6.806
 5900SOL     OW18598   5.783   6.514   3.225
 5900SOL    HW118599   5.868   6.482   3.268
 5900SOL    HW218600   5.707   6.457   3.256
 5901SOL     OW18601   2.503   0.604   4.962
 5901SOL    HW118602   2.519   0.675   5.031
 5901SOL    HW218603   2.433   0.636   4.898
 5902SOL     OW18604   4.545   3.928   6.141
 5902SOL    HW118605   4.511   3.986   6.215
 5902SOL    HW218606   4.528   3.972   6.053
 5903SOL     OW18607   6.084   1.725   5.303
 5903SOL    HW118608   6.122   1.634   5.320
 5903SOL    HW218609   6.099   1.750   5.208
 5904SOL     OW18610   0.896   4.580   1.454
 5904SOL    HW118611   0.853   4.669   1.442
 5904SOL    HW218612   0.963   4.565   1.381
 5905SOL     OW18613   5.917   1.448   4.461
 5905SOL    HW118614   5.886   1.383   4.392
 5905SOL    HW218615   5.894   1.415   4.552
 5906SOL     OW18616   4.838   1.091   5.712
 5906SOL    HW118617   4.811   1.154   5.640
 5906SOL    HW218618   4.888   1.140   5.783
 5907SOL     OW18619   1.347   3.735   5.419
 5907SOL    HW118620   1.427   3.677   5.407
 5907SOL    HW218621   1.291   3.733   5.336
 5908SOL     OW18622   4.935   3.402   6.405
 5908SOL    HW118623   4.877   3.434   6.330
 5908SOL    HW218624   4.891   3.423   6.493
 5909SOL     OW18625   6.581   4.794   3.599
 5909SOL    HW118626   6.482   4.796   3.611
 5909SOL    HW218627   6.606   4.714   3.543
 5910SOL     OW18628   3.166   4.707   0.691
 5910SOL    HW118629   3.119   4.795   0.683
 5910SOL    HW218630   3.207   4.699   0.782
 5911SOL     OW18631   5.648   6.560   0.255
 5911SOL    HW118632   5.666   6.464   0.274
 5911SOL    HW218633   5.592   6.568   0.173
 5912SOL     OW18634   0.011   3.291   5.389
 5912SOL    HW118635   6.973   3.303   5.308
 5912SOL    HW218636   0.107   3.306   5.365
 5913SOL     OW18637   1.029   2.254   5.247
 5913SOL    HW118638   1.078   2.313   5.311
 5913SOL    HW218639   1.044   2.158   5.272
 5914SOL     OW18640   1.878   5.745   0.892
 5914SOL    HW118641   1.902   5.681   0.819
 5914SOL    HW218642   1.930   5.724   0.974
 5915SOL     OW18643   5.106   2.974   3.790
 5915SOL    HW118644   5.017   2.930   3.805
 5915SOL    HW218645   5.093   3.073   3.783
 5916SOL     OW18646   3.394   0.327   6.202
 5916SOL    HW118647   3.329   0.273   6.148
 5916SOL    HW218648   3.473   0.270   6.226
 5917SOL     OW18649   4.067   3.782   2.660
 5917SOL    HW118650   3.986   3.726   2.680
 5917SOL    HW218651   4.103   3.819   2.745
 5918SOL     OW18652   2.445   2.713   3.602
 5918SOL    HW118653   2.467   2.638   3.539
 5918SOL    HW218654   2.430   2.676   3.694
 5919SOL     OW18655   1.272   2.708   0.060
 5919SOL    HW118656   1.209   2.725   7.003
 5919SOL    HW218657   1.234   2.747   0.143
 5920SOL     OW18658   3.091   5.542   6.800
 5920SOL    HW118659   3.034   5.463   6.780
 5920SOL    HW218660   3.071   5.575   6.892
 5921SOL     OW18661   3.446   5.459   5.633
 5921SOL    HW118662   3.490   5.400   5.701
 5921SOL    HW218663   3.500   5.541   5.620
 5922SOL     OW18664   5.904   4.381   1.743
 5922SOL    HW118665   5.869   4.311   1.681
 5922SOL    HW218666   5.828   4.439   1.773
 5923SOL     OW18667   0.032   0.217   3.281
 5923SOL    HW118668   0.101   0.170   3.225
 5923SOL    HW218669   6.960   0.183   3.257
 5924SOL     OW18670   5.334   2.160   4.631
 5924SOL    HW118671   5.369   2.214   4.708
 5924SOL    HW218672   5.243   2.124   4.655
 5925SOL     OW18673   6.550   5.804   1.047
 5925SOL    HW118674   6.569   5.708   1.027
 5925SOL    HW218675   6.554   5.857   0.962
 5926SOL     OW18676   3.723   4.828   2.227
 5926SOL    HW118677   3.684   4.915   2.197
 5926SOL    HW218678   3.681   4.753   2.176
 5927SOL     OW18679   2.361   5.432   2.242
 5927SOL    HW118680   2.261   5.433   2.240
 5927SOL    HW218681   2.395   5.350   2.196
 5928SOL     OW18682   1.121   6.390   1.846
 5928SOL    HW118683   1.185   6.436   1.908
 5928SOL    HW218684   1.142   6.415   1.752
 5929SOL     OW18685   1.260   6.998   5.443
 5929SOL    HW118686   1.258   6.991   5.343
 5929SOL    HW218687   1.349   6.968   5.477
 5930SOL     OW18688   0.089   1.337   5.303
 5930SOL    HW118689   0.093   1.390   5.218
 5930SOL    HW218690   0.066   1.398   5.379
 5931SOL     OW18691   5.768   5.213   1.499
 5931SOL    HW118692   5.720   5.217   1.586
 5931SOL    HW218693   5.837   5.141   1.502
 5932SOL     OW18694   2.126   6.903   0.034
 5932SOL    HW118695   2.048   6.897   0.097
 5932SOL    HW218696   2.196   6.838   0.064
 5933SOL     OW18697   6.011   3.587   2.876
 5933SOL    HW118698   6.055   3.532   2.806
 5933SOL    HW218699   6.034   3.551   2.967
 5934SOL     OW18700   3.413   4.078   2.844
 5934SOL    HW118701   3.480   4.112   2.778
 5934SOL    HW218702   3.323   4.075   2.801
 5935SOL     OW18703   4.137   3.283   2.954
 5935SOL    HW118704   4.067   3.343   2.916
 5935SOL    HW218705   4.121   3.189   2.923
 5936SOL     OW18706   5.636   5.901   6.019
 5936SOL    HW118707   5.574   5.905   6.097
 5936SOL    HW218708   5.642   5.991   5.976
 5937SOL     OW18709   1.019   3.927   0.448
 5937SOL    HW118710   0.967   3.921   0.362
 5937SOL    HW218711   1.048   3.835   0.475
 5938SOL     OW18712   1.852   4.270   1.416
 5938SOL    HW118713   1.884   4.364   1.403
 5938SOL    HW218714   1.929   4.212   1.441
 5939SOL     OW18715   2.488   0.947   2.925
 5939SOL    HW118716   2.432   1.030   2.920
 5939SOL    HW218717   2.572   0.966   2.974
 5940SOL     OW18718   4.137   5.157   3.608
 5940SOL    HW118719   4.203   5.100   3.559
 5940SOL    HW218720   4.186   5.224   3.663
 5941SOL     OW18721   6.455   4.265   2.598
 5941SOL    HW118722   6.446   4.285   2.500
 5941SOL    HW218723   6.438   4.347   2.651
 5942SOL     OW18724   5.672   1.902   5.233
 5942SOL    HW118725   5.624   1.921   5.319
 5942SOL    HW218726   5.769   1.921   5.245
 5943SOL     OW18727   1.182   5.160   0.181
 5943SOL    HW118728   1.140   5.246   0.213
 5943SOL    HW218729   1.161   5.147   0.084
 5944SOL     OW18730   4.633   2.026   2.703
 5944SOL    HW118731   4.666   2.078   2.624
 5944SOL    HW218732   4.535   2.006   2.691
 5945SOL     OW18733   0.281   5.237   5.588
 5945SOL    HW118734   0.344   5.245   5.666
 5945SOL    HW218735   0.257   5.328   5.555
 5946SOL     OW18736   3.923   2.801   5.218
 5946SOL    HW118737   3.837   2.787   5.170
 5946SOL    HW218738   3.973   2.714   5.222
 5947SOL     OW18739   4.244   3.629   1.545
 5947SOL    HW118740   4.208   3.695   1.610
 5947SOL    HW218741   4.264   3.676   1.458
 5948SOL     OW18742   3.908   5.290   3.153
 5948SOL    HW118743   3.954   5.333   3.230
 5948SOL    HW218744   3.839   5.353   3.116
 5949SOL     OW18745   4.440   4.801   2.221
 5949SOL    HW118746   4.456   4.705   2.201
 5949SOL    HW218747   4.503   4.831   2.293
 5950SOL     OW18748   6.443   2.412   3.620
 5950SOL    HW118749   6.433   2.458   3.709
 5950SOL    HW218750   6.388   2.329   3.620
 5951SOL     OW18751   2.103   6.308   3.530
 5951SOL    HW118752   2.022   6.292   3.587
 5951SOL    HW218753   2.088   6.388   3.472
 5952SOL     OW18754   0.076   6.678   4.969
 5952SOL    HW118755   0.117   6.769   4.975
 5952SOL    HW218756   0.015   6.675   4.890
 5953SOL     OW18757   0.126   3.338   6.360
 5953SOL    HW118758   0.090   3.366   6.449
 5953SOL    HW218759   0.223   3.359   6.355
 5954SOL     OW18760   1.518   4.744   6.771
 5954SOL    HW118761   1.439   4.685   6.756
 5954SOL    HW218762   1.502   4.802   6.851
 5955SOL     OW18763   5.426   5.735   2.871
 5955SOL    HW118764   5.509   5.776   2.909
 5955SOL    HW218765   5.350   5.749   2.935
 5956SOL     OW18766   5.951   2.472   6.880
 5956SOL    HW118767   5.925   2.381   6.913
 5956SOL    HW218768   6.042   2.468   6.839
 5957SOL     OW18769   4.611   6.843   5.669
 5957SOL    HW118770   4.560   6.801   5.594
 5957SOL    HW218771   4.586   6.800   5.755
 5958SOL     OW18772   1.172   5.870   2.391
 5958SOL    HW118773   1.137   5.782   2.361
 5958SOL    HW218774   1.271   5.875   2.375
 5959SOL     OW18775   1.833   1.364   6.579
 5959SOL    HW118776   1.859   1.282   6.527
 5959SOL    HW218777   1.812   1.338   6.673
 5960SOL     OW18778   3.667   0.435   4.683
 5960SOL    HW118779   3.705   0.363   4.741
 5960SOL    HW218780   3.683   0.412   4.587
 5961SOL     OW18781   2.957   1.282   6.067
 5961SOL    HW118782   2.931   1.377   6.051
 5961SOL    HW218783   3.016   1.277   6.148
 5962SOL     OW18784   5.200   5.417   2.640
 5962SOL    HW118785   5.265   5.459   2.703
 5962SOL    HW218786   5.246   5.349   2.584
 5963SOL     OW18787   4.049   3.903   1.980
 5963SOL    HW118788   4.033   3.824   2.039
 5963SOL    HW218789   4.049   3.986   2.036
 5964SOL     OW18790   0.958   4.360   5.781
 5964SOL    HW118791   0.927   4.358   5.876
 5964SOL    HW218792   0.985   4.453   5.756
 5965SOL     OW18793   2.328   1.695   4.415
 5965SOL    HW118794   2.421   1.679   4.381
 5965SOL    HW218795   2.323   1.667   4.511
 5966SOL     OW18796   1.595   6.814   3.974
 5966SOL    HW118797   1.515   6.869   3.998
 5966SOL    HW218798   1.585   6.779   3.880
 5967SOL     OW18799   4.695   6.860   2.029
 5967SOL    HW118800   4.756   6.886   1.955
 5967SOL    HW218801   4.627   6.933   2.043
 5968SOL     OW18802   0.437   2.103   4.160
 5968SOL    HW118803   0.338   2.095   4.171
 5968SOL    HW218804   0.469   2.033   4.096
 5969SOL     OW18805   5.637   2.862   2.841
 5969SOL    HW118806   5.607   2.952   2.873
 5969SOL    HW218807   5.708   2.827   2.902
 5970SOL     OW18808   2.033   2.902   3.815
 5970SOL    HW118809   2.028   2.936   3.909
 5970SOL    HW218810   2.120   2.930   3.774
 5971SOL     OW18811   2.528   6.828   2.628
 5971SOL    HW118812   2.452   6.891   2.646
 5971SOL    HW218813   2.494   6.749   2.577
 5972SOL     OW18814   4.564   6.515   1.125
 5972SOL    HW118815   4.617   6.440   1.162
 5972SOL    HW218816   4.610   6.551   1.043
 5973SOL     OW18817   0.969   4.619   3.892
 5973SOL    HW118818   0.978   4.558   3.813
 5973SOL    HW218819   0.945   4.565   3.973
 5974SOL     OW18820   1.154   3.717   6.276
 5974SOL    HW118821   1.102   3.727   6.361
 5974SOL    HW218822   1.249   3.694   6.298
 5975SOL     OW18823   1.379   3.077   6.875
 5975SOL    HW118824   1.476   3.088   6.896
 5975SOL    HW218825   1.366   2.996   6.818
 5976SOL     OW18826   3.385   3.877   4.967
 5976SOL    HW118827   3.331   3.798   4.939
 5976SOL    HW218828   3.399   3.938   4.890
 5977SOL     OW18829   1.193   3.356   2.961
 5977SOL    HW118830   1.213   3.298   2.882
 5977SOL    HW218831   1.241   3.320   3.041
 5978SOL     OW18832   5.658   5.435   3.096
 5978SOL    HW118833   5.564   5.427   3.130
 5978SOL    HW218834   5.698   5.520   3.131
 5979SOL     OW18835   0.452   0.676   2.815
 5979SOL    HW118836   0.407   0.637   2.895
 5979SOL    HW218837   0.416   0.767   2.797
 5980SOL     OW18838   6.429   3.649   6.130
 5980SOL    HW118839   6.336   3.684   6.122
 5980SOL    HW218840   6.477   3.698   6.203
 5981SOL     OW18841   3.740   1.598   1.361
 5981SOL    HW118842   3.662   1.661   1.357
 5981SOL    HW218843   3.730   1.537   1.440
 5982SOL     OW18844   5.963   2.748   6.823
 5982SOL    HW118845   5.991   2.750   6.727
 5982SOL    HW218846   5.932   2.655   6.846
 5983SOL     OW18847   1.181   1.521   4.949
 5983SOL    HW118848   1.243   1.590   4.911
 5983SOL    HW218849   1.087   1.540   4.920
 5984SOL     OW18850   0.442   0.298   5.334
 5984SOL    HW118851   0.430   0.222   5.271
 5984SOL    HW218852   0.398   0.277   5.421
 5985SOL     OW18853   4.877   3.095   4.364
 5985SOL    HW118854   4.973   3.089   4.389
 5985SOL    HW218855   4.820   3.084   4.445
 5986SOL     OW18856   3.783   3.099   2.263
 5986SOL    HW118857   3.866   3.093   2.319
 5986SOL    HW218858   3.715   3.156   2.310
 5987SOL     OW18859   4.250   6.959   5.433
 5987SOL    HW118860   4.173   6.907   5.396
 5987SOL    HW218861   4.325   6.958   5.367
 5988SOL     OW18862   4.262   0.671   4.033
 5988SOL    HW118863   4.303   0.692   4.122
 5988SOL    HW218864   4.253   0.755   3.979
 5989SOL     OW18865   2.829   0.818   6.484
 5989SOL    HW118866   2.861   0.723   6.475
 5989SOL    HW218867   2.896   0.872   6.534
 5990SOL     OW18868   3.104   4.924   1.969
 5990SOL    HW118869   3.185   4.887   1.924
 5990SOL    HW218870   3.026   4.922   1.906
 5991SOL     OW18871   3.125   5.219   3.954
 5991SOL    HW118872   3.056   5.263   3.896
 5991SOL    HW218873   3.153   5.133   3.913
 5992SOL     OW18874   4.723   1.050   4.294
 5992SOL    HW118875   4.781   0.996   4.355
 5992SOL    HW218876   4.661   1.107   4.349
 5993SOL     OW18877   3.455   5.476   4.414
 5993SOL    HW118878   3.553   5.498   4.409
 5993SOL    HW218879   3.415   5.483   4.323
 5994SOL     OW18880   6.769   2.675   1.930
 5994SOL    HW118881   6.794   2.689   2.026
 5994SOL    HW218882   6.788   2.580   1.904
 5995SOL     OW18883   0.444   4.631   1.292
 5995SOL    HW118884   0.362   4.672   1.332
 5995SOL    HW218885   0.487   4.697   1.231
 5996SOL     OW18886   0.685   5.096   6.126
 5996SOL    HW118887   0.758   5.059   6.183
 5996SOL    HW218888   0.724   5.140   6.045
 5997SOL     OW18889   0.949   0.207   1.949
 5997SOL    HW118890   1.036   0.166   1.975
 5997SOL    HW218891   0.905   0.150   1.879
 5998SOL     OW18892   4.197   1.841   3.635
 5998SOL    HW118893   4.201   1.913   3.567
 5998SOL    HW218894   4.101   1.819   3.655
 5999SOL     OW18895   1.846   1.798   2.837
 5999SOL    HW118896   1.902   1.828   2.760
 5999SOL    HW218897   1.779   1.868   2.859
 6000SOL     OW18898   4.426   6.466   2.906
 6000SOL    HW118899   4.337   6.508   2.922
 6000SOL    HW218900   4.418   6.394   2.837
 6001SOL     OW18901   6.202   1.892   6.899
 6001SOL    HW118902   6.183   1.971   6.956
 6001SOL    HW218903   6.232   1.922   6.809
 6002SOL     OW18904   1.904   7.007   2.102
 6002SOL    HW118905   1.809   0.016   2.095
 6002SOL    HW218906   1.942   6.994   2.010
 6003SOL     OW18907   4.729   4.275   3.839
 6003SOL    HW118908   4.673   4.284   3.756
 6003SOL    HW218909   4.768   4.183   3.844
 6004SOL     OW18910   0.080   3.891   1.563
 6004SOL    HW118911   0.092   3.965   1.497
 6004SOL    HW218912   0.014   3.919   1.632
 6005SOL     OW18913   2.578   5.976   2.383
 6005SOL    HW118914   2.565   5.998   2.480
 6005SOL    HW218915   2.574   5.877   2.371
 6006SOL     OW18916   2.344   5.736   6.710
 6006SOL    HW118917   2.351   5.835   6.723
 6006SOL    HW218918   2.424   5.703   6.660
 6007SOL     OW18919   5.498   2.137   3.922
 6007SOL    HW118920   5.534   2.046   3.904
 6007SOL    HW218921   5.444   2.168   3.843
 6008SOL     OW18922   4.018   4.862   6.783
 6008SOL    HW118923   3.937   4.808   6.804
 6008SOL    HW218924   4.067   4.821   6.706
 6009SOL     OW18925   3.105   1.577   4.186
 6009SOL    HW118926   3.115   1.671   4.152
 6009SOL    HW218927   3.058   1.579   4.274
 6010SOL     OW18928   2.076   2.710   3.538
 6010SOL    HW118929   1.988   2.706   3.492
 6010SOL    HW218930   2.127   2.790   3.505
 6011SOL     OW18931   7.016   3.063   2.474
 6011SOL    HW118932   7.008   3.023   2.382
 6011SOL    HW218933   0.038   2.997   2.536
 6012SOL     OW18934   6.619   3.279   0.703
 6012SOL    HW118935   6.666   3.367   0.696
 6012SOL    HW218936   6.653   3.229   0.783
 6013SOL     OW18937   6.115   0.825   2.507
 6013SOL    HW118938   6.209   0.806   2.535
 6013SOL    HW218939   6.053   0.801   2.582
 6014SOL     OW18940   5.515   0.250   1.208
 6014SOL    HW118941   5.515   0.156   1.173
 6014SOL    HW218942   5.426   0.292   1.190
 6015SOL     OW18943   5.039   1.782   4.689
 6015SOL    HW118944   4.961   1.817   4.741
 6015SOL    HW218945   5.111   1.852   4.686
 6016SOL     OW18946   2.012   0.119   5.181
 6016SOL    HW118947   1.933   0.166   5.220
 6016SOL    HW218948   2.045   0.169   5.102
 6017SOL     OW18949   6.633   4.019   2.420
 6017SOL    HW118950   6.629   4.043   2.516
 6017SOL    HW218951   6.659   4.099   2.366
 6018SOL     OW18952   2.613   5.156   0.896
 6018SOL    HW118953   2.706   5.185   0.918
 6018SOL    HW218954   2.604   5.057   0.910
 6019SOL     OW18955   5.204   6.750   4.149
 6019SOL    HW118956   5.167   6.660   4.127
 6019SOL    HW218957   5.300   6.742   4.174
 6020SOL     OW18958   3.481   0.406   2.691
 6020SOL    HW118959   3.554   0.405   2.760
 6020SOL    HW218960   3.417   0.331   2.709
 6021SOL     OW18961   4.047   0.656   2.833
 6021SOL    HW118962   3.968   0.622   2.782
 6021SOL    HW218963   4.025   0.658   2.931
 6022SOL     OW18964   4.282   1.507   5.860
 6022SOL    HW118965   4.343   1.547   5.792
 6022SOL    HW218966   4.216   1.447   5.815
 6023SOL     OW18967   6.821   1.940   2.595
 6023SOL    HW118968   6.736   1.889   2.598
 6023SOL    HW218969   6.895   1.884   2.632
 6024SOL     OW18970   0.762   4.837   2.138
 6024SOL    HW118971   0.689   4.793   2.189
 6024SOL    HW218972   0.724   4.910   2.082
 6025SOL     OW18973   4.066   2.121   2.291
 6025SOL    HW118974   4.104   2.163   2.373
 6025SOL    HW218975   4.122   2.043   2.264
 6026SOL     OW18976   0.964   4.359   5.350
 6026SOL    HW118977   0.898   4.425   5.385
 6026SOL    HW218978   1.040   4.408   5.306
 6027SOL     OW18979   3.175   3.444   1.163
 6027SOL    HW118980   3.187   3.542   1.149
 6027SOL    HW218981   3.221   3.393   1.090
 6028SOL     OW18982   1.466   3.972   6.853
 6028SOL    HW118983   1.482   3.875   6.873
 6028SOL    HW218984   1.456   3.984   6.754
 6029SOL     OW18985   1.504   5.242   1.240
 6029SOL    HW118986   1.527   5.306   1.313
 6029SOL    HW218987   1.530   5.282   1.152
 6030SOL     OW18988   1.873   6.789   1.149
 6030SOL    HW118989   1.895   6.849   1.226
 6030SOL    HW218990   1.839   6.843   1.073
 6031SOL     OW18991   5.570   0.380   5.151
 6031SOL    HW118992   5.641   0.417   5.091
 6031SOL    HW218993   5.484   0.428   5.135
 6032SOL     OW18994   0.387   3.809   2.847
 6032SOL    HW118995   0.387   3.898   2.804
 6032SOL    HW218996   0.293   3.783   2.871
 6033SOL     OW18997   0.738   0.484   4.567
 6033SOL    HW118998   0.810   0.534   4.518
 6033SOL    HW218999   0.778   0.404   4.612
 6034SOL     OW19000   2.124   3.973   4.819
 6034SOL    HW119001   2.186   4.004   4.891
 6034SOL    HW219002   2.160   4.000   4.730
 6035SOL     OW19003   5.674   0.713   4.129
 6035SOL    HW119004   5.680   0.711   4.030
 6035SOL    HW219005   5.755   0.759   4.166
 6036SOL     OW19006   0.708   1.006   4.006
 6036SOL    HW119007   0.732   0.915   4.041
 6036SOL    HW219008   0.752   1.076   4.061
 6037SOL     OW19009   6.596   5.083   4.868
 6037SOL    HW119010   6.611   5.022   4.946
 6037SOL    HW219011   6.510   5.133   4.882
 6038SOL     OW19012   5.054   4.098   6.322
 6038SOL    HW119013   5.123   4.060   6.383
 6038SOL    HW219014   5.100   4.136   6.241
 6039SOL     OW19015   3.520   3.302   3.480
 6039SOL    HW119016   3.617   3.320   3.471
 6039SOL    HW219017   3.470   3.347   3.406
 6040SOL     OW19018   1.028   1.726   0.408
 6040SOL    HW119019   1.049   1.801   0.471
 6040SOL    HW219020   0.968   1.760   0.335
 6041SOL     OW19021   0.794   2.721   0.219
 6041SOL    HW119022   0.830   2.779   0.146
 6041SOL    HW219023   0.753   2.778   0.290
 6042SOL     OW19024   5.827   4.887   4.639
 6042SOL    HW119025   5.842   4.981   4.608
 6042SOL    HW219026   5.907   4.856   4.691
 6043SOL     OW19027   0.424   4.920   4.016
 6043SOL    HW119028   0.492   4.847   4.009
 6043SOL    HW219029   0.470   5.006   4.038
 6044SOL     OW19030   1.138   0.784   1.360
 6044SOL    HW119031   1.121   0.778   1.458
 6044SOL    HW219032   1.190   0.704   1.330
 6045SOL     OW19033   0.257   3.754   1.101
 6045SOL    HW119034   0.333   3.736   1.162
 6045SOL    HW219035   0.268   3.701   1.017
 6046SOL     OW19036   2.937   2.796   0.207
 6046SOL    HW119037   2.855   2.831   0.251
 6046SOL    HW219038   2.969   2.714   0.255
 6047SOL     OW19039   0.252   6.251   4.847
 6047SOL    HW119040   0.315   6.302   4.788
 6047SOL    HW219041   0.298   6.226   4.932
 6048SOL     OW19042   5.061   5.990   4.995
 6048SOL    HW119043   4.996   5.989   4.919
 6048SOL    HW219044   5.127   5.916   4.984
 6049SOL     OW19045   5.988   5.393   1.484
 6049SOL    HW119046   5.911   5.333   1.464
 6049SOL    HW219047   5.954   5.483   1.514
 6050SOL     OW19048   4.902   4.531   5.464
 6050SOL    HW119049   4.931   4.476   5.543
 6050SOL    HW219050   4.836   4.600   5.494
 6051SOL     OW19051   2.079   2.204   3.572
 6051SOL    HW119052   2.085   2.244   3.663
 6051SOL    HW219053   2.092   2.276   3.503
 6052SOL     OW19054   6.488   0.852   0.318
 6052SOL    HW119055   6.491   0.756   0.291
 6052SOL    HW219056   6.422   0.864   0.392
 6053SOL     OW19057   1.925   0.279   6.029
 6053SOL    HW119058   1.886   0.291   5.938
 6053SOL    HW219059   1.865   0.319   6.097
 6054SOL     OW19060   2.657   4.711   0.045
 6054SOL    HW119061   2.717   4.632   0.050
 6054SOL    HW219062   2.608   4.721   0.132
 6055SOL     OW19063   4.961   0.664   3.867
 6055SOL    HW119064   4.942   0.567   3.851
 6055SOL    HW219065   4.911   0.694   3.948
 6056SOL     OW19066   4.854   2.967   6.408
 6056SOL    HW119067   4.858   2.887   6.468
 6056SOL    HW219068   4.847   3.050   6.462
 6057SOL     OW19069   3.450   0.821   6.240
 6057SOL    HW119070   3.446   0.827   6.340
 6057SOL    HW219071   3.427   0.910   6.201
 6058SOL     OW19072   5.561   1.604   3.974
 6058SOL    HW119073   5.497   1.589   3.899
 6058SOL    HW219074   5.634   1.535   3.969
 6059SOL     OW19075   6.917   5.904   6.597
 6059SOL    HW119076   6.898   6.002   6.586
 6059SOL    HW219077   6.943   5.886   6.692
 6060SOL     OW19078   3.037   6.495   6.242
 6060SOL    HW119079   3.086   6.549   6.173
 6060SOL    HW219080   3.103   6.439   6.293
 6061SOL     OW19081   2.152   1.802   6.652
 6061SOL    HW119082   2.060   1.768   6.671
 6061SOL    HW219083   2.184   1.857   6.728
 6062SOL     OW19084   2.350   0.893   4.234
 6062SOL    HW119085   2.440   0.872   4.274
 6062SOL    HW219086   2.361   0.922   4.139
 6063SOL     OW19087   4.149   0.113   0.300
 6063SOL    HW119088   4.075   0.115   0.232
 6063SOL    HW219089   4.218   0.181   0.275
 6064SOL     OW19090   0.583   5.991   3.568
 6064SOL    HW119091   0.553   5.998   3.663
 6064SOL    HW219092   0.562   5.901   3.532
 6065SOL     OW19093   6.695   0.228   0.714
 6065SOL    HW119094   6.620   0.164   0.731
 6065SOL    HW219095   6.767   0.181   0.662
 6066SOL     OW19096   4.700   2.383   0.285
 6066SOL    HW119097   4.786   2.420   0.251
 6066SOL    HW219098   4.648   2.455   0.332
 6067SOL     OW19099   5.651   2.101   0.036
 6067SOL    HW119100   5.675   2.174   6.990
 6067SOL    HW219101   5.558   2.116   0.069
 6068SOL     OW19102   4.820   2.082   5.217
 6068SOL    HW119103   4.812   2.128   5.306
 6068SOL    HW219104   4.807   2.150   5.144
 6069SOL     OW19105   6.015   3.691   4.218
 6069SOL    HW119106   5.962   3.769   4.248
 6069SOL    HW219107   6.031   3.629   4.295
 6070SOL     OW19108   3.479   2.350   6.708
 6070SOL    HW119109   3.484   2.429   6.770
 6070SOL    HW219110   3.484   2.382   6.614
 6071SOL     OW19111   4.620   6.169   5.217
 6071SOL    HW119112   4.643   6.206   5.127
 6071SOL    HW219113   4.686   6.203   5.284
 6072SOL     OW19114   6.854   2.092   0.899
 6072SOL    HW119115   6.867   2.004   0.854
 6072SOL    HW219116   6.911   2.161   0.855
 6073SOL     OW19117   0.065   2.469   1.612
 6073SOL    HW119118   0.051   2.558   1.657
 6073SOL    HW219119   0.160   2.440   1.625
 6074SOL     OW19120   0.681   0.549   5.049
 6074SOL    HW119121   0.724   0.605   5.120
 6074SOL    HW219122   0.726   0.566   4.962
 6075SOL     OW19123   5.055   3.901   6.724
 6075SOL    HW119124   4.974   3.934   6.772
 6075SOL    HW219125   5.113   3.850   6.788
 6076SOL     OW19126   2.395   6.621   3.716
 6076SOL    HW119127   2.433   6.686   3.781
 6076SOL    HW219128   2.304   6.593   3.745
 6077SOL     OW19129   5.600   5.798   2.522
 6077SOL    HW119130   5.674   5.816   2.457
 6077SOL    HW219131   5.512   5.809   2.476
 6078SOL     OW19132   2.477   4.911   3.323
 6078SOL    HW119133   2.377   4.905   3.330
 6078SOL    HW219134   2.503   4.926   3.228
 6079SOL     OW19135   1.914   1.430   0.199
 6079SOL    HW119136   1.900   1.363   0.125
 6079SOL    HW219137   1.883   1.520   0.169
 6080SOL     OW19138   5.958   2.094   2.708
 6080SOL    HW119139   6.021   2.110   2.784
 6080SOL    HW219140   5.868   2.129   2.732
 6081SOL     OW19141   0.614   4.107   2.978
 6081SOL    HW119142   0.580   4.050   2.903
 6081SOL    HW219143   0.713   4.097   2.986
 6082SOL     OW19144   3.834   1.593   4.579
 6082SOL    HW119145   3.871   1.538   4.503
 6082SOL    HW219146   3.826   1.535   4.660
 6083SOL     OW19147   1.738   6.783   0.274
 6083SOL    HW119148   1.754   6.688   0.299
 6083SOL    HW219149   1.653   6.790   0.222
 6084SOL     OW19150   0.523   4.892   6.080
 6084SOL    HW119151   0.517   4.817   6.145
 6084SOL    HW219152   0.578   4.966   6.118
 6085SOL     OW19153   4.936   4.229   1.598
 6085SOL    HW119154   5.029   4.214   1.633
 6085SOL    HW219155   4.871   4.180   1.656
 6086SOL     OW19156   2.744   1.920   3.099
 6086SOL    HW119157   2.679   1.954   3.031
 6086SOL    HW219158   2.837   1.926   3.061
 6087SOL     OW19159   4.579   6.695   0.218
 6087SOL    HW119160   4.549   6.779   0.171
 6087SOL    HW219161   4.635   6.720   0.297
 6088SOL     OW19162   0.064   0.145   5.105
 6088SOL    HW119163   7.019   0.215   5.073
 6088SOL    HW219164   0.086   0.162   5.201
 6089SOL     OW19165   6.807   3.278   0.179
 6089SOL    HW119166   6.762   3.349   0.125
 6089SOL    HW219167   6.746   3.200   0.188
 6090SOL     OW19168   0.205   5.921   3.635
 6090SOL    HW119169   0.296   5.885   3.654
 6090SOL    HW219170   0.136   5.867   3.683
 6091SOL     OW19171   5.821   1.905   1.737
 6091SOL    HW119172   5.796   1.847   1.815
 6091SOL    HW219173   5.876   1.982   1.770
 6092SOL     OW19174   1.688   2.793   0.903
 6092SOL    HW119175   1.669   2.696   0.890
 6092SOL    HW219176   1.607   2.838   0.941
 6093SOL     OW19177   1.037   3.248   0.682
 6093SOL    HW119178   1.109   3.290   0.626
 6093SOL    HW219179   1.069   3.239   0.776
 6094SOL     OW19180   0.763   0.677   0.963
 6094SOL    HW119181   0.805   0.692   0.873
 6094SOL    HW219182   0.832   0.689   1.035
 6095SOL     OW19183   6.983   4.259   5.178
 6095SOL    HW119184   6.909   4.317   5.144
 6095SOL    HW219185   6.955   4.163   5.175
 6096SOL     OW19186   3.708   1.742   2.877
 6096SOL    HW119187   3.644   1.688   2.822
 6096SOL    HW219188   3.797   1.744   2.832
 6097SOL     OW19189   3.036   1.814   1.922
 6097SOL    HW119190   3.015   1.855   1.834
 6097SOL    HW219191   2.951   1.804   1.975
 6098SOL     OW19192   1.666   1.367   5.852
 6098SOL    HW119193   1.566   1.375   5.858
 6098SOL    HW219194   1.709   1.436   5.911
 6099SOL     OW19195   6.320   4.918   5.073
 6099SOL    HW119196   6.339   5.008   5.113
 6099SOL    HW219197   6.318   4.926   4.974
 6100SOL     OW19198   6.443   2.378   0.194
 6100SOL    HW119199   6.351   2.387   0.154
 6100SOL    HW219200   6.434   2.366   0.293
 6101SOL     OW19201   5.549   1.648   4.234
 6101SOL    HW119202   5.613   1.722   4.255
 6101SOL    HW219203   5.547   1.634   4.135
 6102SOL     OW19204   3.076   0.571   5.178
 6102SOL    HW119205   3.117   0.502   5.237
 6102SOL    HW219206   3.145   0.610   5.118
 6103SOL     OW19207   6.335   0.609   5.363
 6103SOL    HW119208   6.325   0.598   5.462
 6103SOL    HW219209   6.306   0.525   5.317
 6104SOL     OW19210   1.791   3.315   0.854
 6104SOL    HW119211   1.702   3.361   0.861
 6104SOL    HW219212   1.780   3.229   0.804
 6105SOL     OW19213   3.176   5.591   4.228
 6105SOL    HW119214   3.104   5.657   4.251
 6105SOL    HW219215   3.159   5.505   4.276
 6106SOL     OW19216   3.269   5.484   4.624
 6106SOL    HW119217   3.193   5.452   4.567
 6106SOL    HW219218   3.353   5.481   4.570
 6107SOL     OW19219   2.244   5.096   5.043
 6107SOL    HW119220   2.206   5.027   5.104
 6107SOL    HW219221   2.330   5.062   5.004
 6108SOL     OW19222   6.846   2.138   4.250
 6108SOL    HW119223   6.843   2.040   4.230
 6108SOL    HW219224   6.874   2.188   4.167
 6109SOL     OW19225   6.685   4.381   1.942
 6109SOL    HW119226   6.615   4.336   1.887
 6109SOL    HW219227   6.769   4.326   1.940
 6110SOL     OW19228   3.391   2.138   3.750
 6110SOL    HW119229   3.404   2.234   3.724
 6110SOL    HW219230   3.478   2.089   3.739
 6111SOL     OW19231   0.495   4.796   3.154
 6111SOL    HW119232   0.439   4.772   3.234
 6111SOL    HW219233   0.497   4.896   3.144
 6112SOL     OW19234   1.194   1.764   2.151
 6112SOL    HW119235   1.136   1.742   2.073
 6112SOL    HW219236   1.186   1.861   2.172
 6113SOL     OW19237   2.064   5.889   5.499
 6113SOL    HW119238   2.022   5.809   5.543
 6113SOL    HW219239   2.003   5.925   5.429
 6114SOL     OW19240   5.046   5.333   0.867
 6114SOL    HW119241   5.102   5.348   0.786
 6114SOL    HW219242   4.999   5.245   0.860
 6115SOL     OW19243   6.229   4.699   2.519
 6115SOL    HW119244   6.164   4.693   2.443
 6115SOL    HW219245   6.322   4.695   2.484
 6116SOL     OW19246   3.500   1.947   1.239
 6116SOL    HW119247   3.521   2.040   1.270
 6116SOL    HW219248   3.576   1.912   1.185
 6117SOL     OW19249   5.394   6.745   4.396
 6117SOL    HW119250   5.486   6.716   4.421
 6117SOL    HW219251   5.327   6.705   4.459
 6118SOL     OW19252   5.846   0.167   2.699
 6118SOL    HW119253   5.937   0.156   2.739
 6118SOL    HW219254   5.840   0.256   2.654
 6119SOL     OW19255   6.355   5.073   3.402
 6119SOL    HW119256   6.435   5.020   3.374
 6119SOL    HW219257   6.366   5.168   3.374
 6120SOL     OW19258   2.871   0.555   3.007
 6120SOL    HW119259   2.779   0.586   2.981
 6120SOL    HW219260   2.903   0.488   2.940
 6121SOL     OW19261   6.490   2.189   4.314
 6121SOL    HW119262   6.467   2.211   4.219
 6121SOL    HW219263   6.411   2.146   4.358
 6122SOL     OW19264   4.222   5.862   3.864
 6122SOL    HW119265   4.225   5.942   3.924
 6122SOL    HW219266   4.131   5.822   3.867
 6123SOL     OW19267   6.974   1.194   1.754
 6123SOL    HW119268   6.990   1.112   1.699
 6123SOL    HW219269   6.970   1.170   1.851
 6124SOL     OW19270   2.626   0.379   5.724
 6124SOL    HW119271   2.575   0.417   5.801
 6124SOL    HW219272   2.598   0.284   5.709
 6125SOL     OW19273   1.765   5.162   2.244
 6125SOL    HW119274   1.724   5.220   2.315
 6125SOL    HW219275   1.864   5.174   2.245
 6126SOL     OW19276   5.236   5.340   2.059
 6126SOL    HW119277   5.185   5.330   2.144
 6126SOL    HW219278   5.328   5.374   2.078
 6127SOL     OW19279   2.250   4.328   1.783
 6127SOL    HW119280   2.155   4.316   1.812
 6127SOL    HW219281   2.297   4.389   1.846
 6128SOL     OW19282   5.184   2.571   1.016
 6128SOL    HW119283   5.100   2.602   1.062
 6128SOL    HW219284   5.237   2.514   1.079
 6129SOL     OW19285   6.166   3.998   3.557
 6129SOL    HW119286   6.085   4.020   3.502
 6129SOL    HW219287   6.149   4.021   3.653
 6130SOL     OW19288   5.485   4.413   2.856
 6130SOL    HW119289   5.462   4.431   2.760
 6130SOL    HW219290   5.584   4.418   2.867
 6131SOL     OW19291   6.982   1.021   5.123
 6131SOL    HW119292   0.018   0.991   5.200
 6131SOL    HW219293   6.911   1.085   5.154
 6132SOL     OW19294   6.169   2.030   0.469
 6132SOL    HW119295   6.104   1.972   0.520
 6132SOL    HW219296   6.237   2.067   0.532
 6133SOL     OW19297   1.783   4.451   0.357
 6133SOL    HW119298   1.720   4.502   0.415
 6133SOL    HW219299   1.733   4.379   0.308
 6134SOL     OW19300   4.934   2.758   0.434
 6134SOL    HW119301   4.976   2.808   0.509
 6134SOL    HW219302   4.866   2.817   0.389
 6135SOL     OW19303   5.428   0.477   1.678
 6135SOL    HW119304   5.500   0.449   1.743
 6135SOL    HW219305   5.439   0.425   1.593
 6136SOL     OW19306   0.128   1.474   1.830
 6136SOL    HW119307   0.052   1.512   1.776
 6136SOL    HW219308   0.175   1.405   1.776
 6137SOL     OW19309   2.593   6.609   5.683
 6137SOL    HW119310   2.692   6.591   5.684
 6137SOL    HW219311   2.545   6.535   5.730
 6138SOL     OW19312   4.276   0.224   2.910
 6138SOL    HW119313   4.359   0.208   2.856
 6138SOL    HW219314   4.227   0.138   2.923
 6139SOL     OW19315   2.013   5.401   4.467
 6139SOL    HW119316   1.940   5.442   4.411
 6139SOL    HW219317   2.101   5.413   4.421
 6140SOL     OW19318   2.136   6.493   1.105
 6140SOL    HW119319   2.168   6.547   1.183
 6140SOL    HW219320   2.102   6.405   1.138
 6141SOL     OW19321   6.474   6.449   5.640
 6141SOL    HW119322   6.392   6.506   5.628
 6141SOL    HW219323   6.447   6.352   5.639
 6142SOL     OW19324   0.476   4.464   2.820
 6142SOL    HW119325   0.554   4.443   2.879
 6142SOL    HW219326   0.474   4.402   2.743
 6143SOL     OW19327   6.526   4.394   6.474
 6143SOL    HW119328   6.499   4.426   6.565
 6143SOL    HW219329   6.491   4.457   6.405
 6144SOL     OW19330   0.111   5.134   4.307
 6144SOL    HW119331   0.151   5.116   4.217
 6144SOL    HW219332   0.073   5.227   4.308
 6145SOL     OW19333   4.942   5.654   3.922
 6145SOL    HW119334   4.854   5.677   3.964
 6145SOL    HW219335   4.954   5.707   3.838
 6146SOL     OW19336   5.605   0.936   3.480
 6146SOL    HW119337   5.631   0.989   3.400
 6146SOL    HW219338   5.673   0.865   3.498
 6147SOL     OW19339   1.141   3.786   3.214
 6147SOL    HW119340   1.195   3.801   3.131
 6147SOL    HW219341   1.055   3.741   3.190
 6148SOL     OW19342   6.104   6.187   4.217
 6148SOL    HW119343   6.165   6.113   4.188
 6148SOL    HW219344   6.086   6.247   4.140
 6149SOL     OW19345   2.320   6.930   4.032
 6149SOL    HW119346   2.399   6.872   4.053
 6149SOL    HW219347   2.290   6.913   3.938
 6150SOL     OW19348   4.025   5.508   5.937
 6150SOL    HW119349   4.097   5.440   5.939
 6150SOL    HW219350   3.957   5.484   5.867
 6151SOL     OW19351   4.558   1.284   5.710
 6151SOL    HW119352   4.474   1.331   5.685
 6151SOL    HW219353   4.584   1.220   5.638
 6152SOL     OW19354   0.204   5.069   6.338
 6152SOL    HW119355   0.120   5.116   6.366
 6152SOL    HW219356   0.274   5.082   6.408
 6153SOL     OW19357   4.683   4.172   6.904
 6153SOL    HW119358   4.675   4.169   7.004
 6153SOL    HW219359   4.716   4.084   6.872
 6154SOL     OW19360   5.086   2.947   2.909
 6154SOL    HW119361   5.058   2.872   2.969
 6154SOL    HW219362   5.127   2.909   2.826
 6155SOL     OW19363   1.366   3.675   4.189
 6155SOL    HW119364   1.398   3.690   4.096
 6155SOL    HW219365   1.267   3.663   4.189
 6156SOL     OW19366   6.581   0.518   4.112
 6156SOL    HW119367   6.519   0.440   4.100
 6156SOL    HW219368   6.627   0.511   4.200
 6157SOL     OW19369   1.794   1.747   3.386
 6157SOL    HW119370   1.807   1.817   3.457
 6157SOL    HW219371   1.867   1.754   3.319
 6158SOL     OW19372   4.475   0.933   0.671
 6158SOL    HW119373   4.490   0.897   0.578
 6158SOL    HW219374   4.440   0.859   0.729
 6159SOL     OW19375   5.374   3.173   6.934
 6159SOL    HW119376   5.357   3.076   6.951
 6159SOL    HW219377   5.347   3.226   7.015
 6160SOL     OW19378   6.542   4.888   2.027
 6160SOL    HW119379   6.598   4.825   2.080
 6160SOL    HW219380   6.469   4.924   2.085
 6161SOL     OW19381   5.469   0.114   6.650
 6161SOL    HW119382   5.408   0.193   6.644
 6161SOL    HW219383   5.537   0.120   6.577
 6162SOL     OW19384   6.056   5.258   3.903
 6162SOL    HW119385   6.033   5.171   3.859
 6162SOL    HW219386   6.080   5.325   3.833
 6163SOL     OW19387   6.870   3.977   1.726
 6163SOL    HW119388   6.791   3.951   1.670
 6163SOL    HW219389   6.888   3.904   1.792
 6164SOL     OW19390   4.825   2.589   1.023
 6164SOL    HW119391   4.731   2.595   1.055
 6164SOL    HW219392   4.857   2.494   1.030
 6165SOL     OW19393   4.677   6.481   6.988
 6165SOL    HW119394   4.659   6.519   6.897
 6165SOL    HW219395   4.610   6.518   0.033
 6166SOL     OW19396   3.781   1.664   0.018
 6166SOL    HW119397   3.826   1.637   0.103
 6166SOL    HW219398   3.705   1.726   0.038
 6167SOL     OW19399   6.902   4.769   3.018
 6167SOL    HW119400   6.960   4.688   3.027
 6167SOL    HW219401   6.954   4.850   3.043
 6168SOL     OW19402   0.632   2.438   1.809
 6168SOL    HW119403   0.671   2.407   1.896
 6168SOL    HW219404   0.660   2.533   1.792
 6169SOL     OW19405   1.891   4.011   2.252
 6169SOL    HW119406   1.966   3.976   2.197
 6169SOL    HW219407   1.832   3.936   2.280
 6170SOL     OW19408   6.769   2.060   3.738
 6170SOL    HW119409   6.721   2.060   3.826
 6170SOL    HW219410   6.865   2.082   3.753
 6171SOL     OW19411   6.466   0.402   6.566
 6171SOL    HW119412   6.551   0.424   6.518
 6171SOL    HW219413   6.388   0.427   6.508
 6172SOL     OW19414   0.887   4.486   4.108
 6172SOL    HW119415   0.893   4.552   4.183
 6172SOL    HW219416   0.947   4.408   4.127
 6173SOL     OW19417   5.851   6.148   3.483
 6173SOL    HW119418   5.881   6.240   3.461
 6173SOL    HW219419   5.872   6.087   3.406
 6174SOL     OW19420   5.927   2.906   1.827
 6174SOL    HW119421   5.999   2.842   1.800
 6174SOL    HW219422   5.942   2.934   1.922
 6175SOL     OW19423   3.813   2.030   6.506
 6175SOL    HW119424   3.758   2.095   6.558
 6175SOL    HW219425   3.852   1.962   6.568
 6176SOL     OW19426   3.614   4.358   6.221
 6176SOL    HW119427   3.607   4.451   6.185
 6176SOL    HW219428   3.565   4.353   6.308
 6177SOL     OW19429   5.945   6.730   1.259
 6177SOL    HW119430   5.917   6.719   1.354
 6177SOL    HW219431   6.006   6.809   1.250
 6178SOL     OW19432   4.252   4.710   1.390
 6178SOL    HW119433   4.257   4.684   1.293
 6178SOL    HW219434   4.203   4.640   1.441
 6179SOL     OW19435   6.036   4.838   4.854
 6179SOL    HW119436   6.054   4.758   4.910
 6179SOL    HW219437   6.121   4.887   4.836
 6180SOL     OW19438   3.164   4.597   6.719
 6180SOL    HW119439   3.182   4.688   6.755
 6180SOL    HW219440   3.071   4.593   6.683
 6181SOL     OW19441   6.058   6.270   0.195
 6181SOL    HW119442   6.110   6.185   0.202
 6181SOL    HW219443   6.100   6.329   0.126
 6182SOL     OW19444   3.113   2.716   0.531
 6182SOL    HW119445   3.153   2.646   0.590
 6182SOL    HW219446   3.055   2.673   0.462
 6183SOL     OW19447   0.095   6.793   0.690
 6183SOL    HW119448   0.056   6.884   0.706
 6183SOL    HW219449   0.189   6.803   0.658
 6184SOL     OW19450   2.868   6.505   5.412
 6184SOL    HW119451   2.899   6.463   5.498
 6184SOL    HW219452   2.899   6.449   5.335
 6185SOL     OW19453   4.075   3.418   4.897
 6185SOL    HW119454   3.993   3.405   4.951
 6185SOL    HW219455   4.144   3.467   4.951
 6186SOL     OW19456   0.613   1.872   2.130
 6186SOL    HW119457   0.696   1.927   2.139
 6186SOL    HW219458   0.576   1.853   2.221
 6187SOL     OW19459   3.250   1.318   6.018
 6187SOL    HW119460   3.325   1.384   6.030
 6187SOL    HW219461   3.271   1.258   5.941
 6188SOL     OW19462   1.738   1.121   5.117
 6188SOL    HW119463   1.651   1.101   5.161
 6188SOL    HW219464   1.813   1.097   5.179
 6189SOL     OW19465   6.510   5.217   1.129
 6189SOL    HW119466   6.535   5.295   1.187
 6189SOL    HW219467   6.415   5.193   1.145
 6190SOL     OW19468   0.421   2.966   4.457
 6190SOL    HW119469   0.426   2.933   4.552
 6190SOL    HW219470   0.388   2.892   4.398
 6191SOL     OW19471   3.312   3.457   0.097
 6191SOL    HW119472   3.265   3.430   0.181
 6191SOL    HW219473   3.352   3.376   0.053
 6192SOL     OW19474   3.052   1.513   0.828
 6192SOL    HW119475   3.086   1.510   0.923
 6192SOL    HW219476   3.011   1.425   0.805
 6193SOL     OW19477   4.201   6.084   6.622
 6193SOL    HW119478   4.194   6.098   6.721
 6193SOL    HW219479   4.165   5.994   6.598
 6194SOL     OW19480   5.311   6.918   6.674
 6194SOL    HW119481   5.373   6.990   6.642
 6194SOL    HW219482   5.217   6.943   6.652
 6195SOL     OW19483   5.907   6.167   6.371
 6195SOL    HW119484   5.869   6.076   6.386
 6195SOL    HW219485   5.963   6.167   6.288
 6196SOL     OW19486   5.850   3.794   2.938
 6196SOL    HW119487   5.899   3.718   2.895
 6196SOL    HW219488   5.819   3.857   2.867
 6197SOL     OW19489   1.097   5.429   0.890
 6197SOL    HW119490   1.037   5.441   0.968
 6197SOL    HW219491   1.155   5.510   0.879
 6198SOL     OW19492   5.673   1.336   6.706
 6198SOL    HW119493   5.656   1.370   6.798
 6198SOL    HW219494   5.771   1.341   6.686
 6199SOL     OW19495   2.040   0.028   5.978
 6199SOL    HW119496   2.090   0.066   5.900
 6199SOL    HW219497   1.970   0.092   6.008
 6200SOL     OW19498   1.557   0.517   1.109
 6200SOL    HW119499   1.631   0.553   1.166
 6200SOL    HW219500   1.505   0.449   1.161
 6201SOL     OW19501   0.534   4.791   2.881
 6201SOL    HW119502   0.577   4.708   2.845
 6201SOL    HW219503   0.516   4.780   2.978
 6202SOL     OW19504   5.806   1.246   2.590
 6202SOL    HW119505   5.889   1.197   2.616
 6202SOL    HW219506   5.822   1.344   2.595
 6203SOL     OW19507   6.467   0.114   2.173
 6203SOL    HW119508   6.409   0.195   2.166
 6203SOL    HW219509   6.430   0.053   2.244
 6204SOL     OW19510   1.274   6.354   5.122
 6204SOL    HW119511   1.188   6.305   5.134
 6204SOL    HW219512   1.255   6.451   5.103
 6205SOL     OW19513   5.524   4.413   3.876
 6205SOL    HW119514   5.518   4.415   3.777
 6205SOL    HW219515   5.493   4.324   3.909
 6206SOL     OW19516   5.277   1.697   3.439
 6206SOL    HW119517   5.359   1.750   3.418
 6206SOL    HW219518   5.198   1.758   3.446
 6207SOL     OW19519   0.790   5.779   4.202
 6207SOL    HW119520   0.705   5.727   4.214
 6207SOL    HW219521   0.868   5.717   4.210
 6208SOL     OW19522   4.404   4.272   5.628
 6208SOL    HW119523   4.484   4.219   5.601
 6208SOL    HW219524   4.373   4.327   5.551
 6209SOL     OW19525   3.421   2.325   1.670
 6209SOL    HW119526   3.497   2.307   1.732
 6209SOL    HW219527   3.357   2.248   1.673
 6210SOL     OW19528   5.339   1.704   4.535
 6210SOL    HW119529   5.288   1.777   4.488
 6210SOL    HW219530   5.398   1.743   4.605
 6211SOL     OW19531   5.778   4.200   5.197
 6211SOL    HW119532   5.692   4.221   5.152
 6211SOL    HW219533   5.784   4.253   5.282
 6212SOL     OW19534   5.190   4.713   5.233
 6212SOL    HW119535   5.276   4.725   5.184
 6212SOL    HW219536   5.135   4.642   5.188
 6213SOL     OW19537   3.956   5.778   0.469
 6213SOL    HW119538   3.931   5.730   0.384
 6213SOL    HW219539   3.975   5.873   0.448
 6214SOL     OW19540   5.899   6.803   0.060
 6214SOL    HW119541   5.993   6.822   0.088
 6214SOL    HW219542   5.842   6.882   0.081
 6215SOL     OW19543   5.672   2.684   5.387
 6215SOL    HW119544   5.620   2.626   5.324
 6215SOL    HW219545   5.658   2.780   5.362
 6216SOL     OW19546   4.327   1.561   4.271
 6216SOL    HW119547   4.328   1.520   4.180
 6216SOL    HW219548   4.289   1.497   4.337
 6217SOL     OW19549   0.413   4.140   3.135
 6217SOL    HW119550   0.497   4.117   3.086
 6217SOL    HW219551   0.364   4.212   3.086
 6218SOL     OW19552   4.592   5.860   0.031
 6218SOL    HW119553   4.592   5.832   6.954
 6218SOL    HW219554   4.652   5.800   0.083
 6219SOL     OW19555   2.078   1.249   6.744
 6219SOL    HW119556   2.076   1.319   6.673
 6219SOL    HW219557   2.112   1.163   6.705
 6220SOL     OW19558   3.399   6.246   0.688
 6220SOL    HW119559   3.338   6.279   0.761
 6220SOL    HW219560   3.450   6.167   0.721
 6221SOL     OW19561   5.282   5.733   6.530
 6221SOL    HW119562   5.256   5.640   6.556
 6221SOL    HW219563   5.381   5.744   6.541
 6222SOL     OW19564   6.941   1.851   2.261
 6222SOL    HW119565   0.002   1.851   2.202
 6222SOL    HW219566   6.969   1.867   2.356
 6223SOL     OW19567   0.196   5.031   4.074
 6223SOL    HW119568   0.132   5.006   4.002
 6223SOL    HW219569   0.281   4.980   4.062
 6224SOL     OW19570   3.843   0.147   0.362
 6224SOL    HW119571   3.915   0.089   0.400
 6224SOL    HW219572   3.838   0.133   0.263
 6225SOL     OW19573   5.081   6.449   6.240
 6225SOL    HW119574   5.135   6.414   6.317
 6225SOL    HW219575   5.115   6.410   6.155
 6226SOL     OW19576   1.074   0.971   4.523
 6226SOL    HW119577   0.996   0.957   4.462
 6226SOL    HW219578   1.083   1.069   4.544
 6227SOL     OW19579   2.829   4.756   5.553
 6227SOL    HW119580   2.755   4.814   5.590
 6227SOL    HW219581   2.840   4.775   5.456
 6228SOL     OW19582   1.073   3.184   3.782
 6228SOL    HW119583   1.157   3.231   3.753
 6228SOL    HW219584   1.056   3.107   3.721
 6229SOL     OW19585   0.600   3.293   3.943
 6229SOL    HW119586   0.664   3.300   4.019
 6229SOL    HW219587   0.595   3.198   3.912
 6230SOL     OW19588   0.236   1.126   1.205
 6230SOL    HW119589   0.294   1.195   1.246
 6230SOL    HW219590   0.278   1.036   1.217
 6231SOL     OW19591   2.304   5.181   5.952
 6231SOL    HW119592   2.333   5.173   6.047
 6231SOL    HW219593   2.345   5.263   5.912
 6232SOL     OW19594   4.208   0.548   6.601
 6232SOL    HW119595   4.118   0.542   6.556
 6232SOL    HW219596   4.217   0.638   6.646
 6233SOL     OW19597   6.633   3.266   1.129
 6233SOL    HW119598   6.682   3.241   1.045
 6233SOL    HW219599   6.682   3.230   1.208
 6234SOL     OW19600   5.122   4.578   4.531
 6234SOL    HW119601   5.072   4.663   4.546
 6234SOL    HW219602   5.061   4.509   4.493
 6235SOL     OW19603   0.210   0.403   2.745
 6235SOL    HW119604   0.187   0.500   2.735
 6235SOL    HW219605   0.223   0.382   2.842
 6236SOL     OW19606   6.785   5.696   1.968
 6236SOL    HW119607   6.700   5.645   1.983
 6236SOL    HW219608   6.833   5.658   1.888
 6237SOL     OW19609   3.233   1.205   2.090
 6237SOL    HW119610   3.159   1.268   2.113
 6237SOL    HW219611   3.299   1.203   2.164
 6238SOL     OW19612   2.541   0.770   3.645
 6238SOL    HW119613   2.492   0.828   3.709
 6238SOL    HW219614   2.573   0.688   3.692
 6239SOL     OW19615   4.855   1.263   4.525
 6239SOL    HW119616   4.757   1.250   4.508
 6239SOL    HW219617   4.870   1.278   4.623
 6240SOL     OW19618   4.093   3.392   3.727
 6240SOL    HW119619   4.051   3.483   3.732
 6240SOL    HW219620   4.095   3.352   3.819
 6241SOL     OW19621   3.716   6.894   3.412
 6241SOL    HW119622   3.792   6.957   3.428
 6241SOL    HW219623   3.742   6.802   3.442
 6242SOL     OW19624   2.694   2.008   3.544
 6242SOL    HW119625   2.749   1.972   3.619
 6242SOL    HW219626   2.599   2.018   3.573
 6243SOL     OW19627   4.622   1.620   6.802
 6243SOL    HW119628   4.564   1.580   6.731
 6243SOL    HW219629   4.690   1.680   6.759
 6244SOL     OW19630   4.560   2.546   1.877
 6244SOL    HW119631   4.475   2.496   1.861
 6244SOL    HW219632   4.555   2.594   1.965
 6245SOL     OW19633   0.287   5.221   2.063
 6245SOL    HW119634   0.366   5.166   2.092
 6245SOL    HW219635   0.311   5.273   1.982
 6246SOL     OW19636   6.733   0.102   4.541
 6246SOL    HW119637   6.705   0.029   4.604
 6246SOL    HW219638   6.662   0.116   4.472
 6247SOL     OW19639   6.385   5.923   3.666
 6247SOL    HW119640   6.463   5.885   3.617
 6247SOL    HW219641   6.300   5.885   3.628
 6248SOL     OW19642   3.884   3.167   5.145
 6248SOL    HW119643   3.864   3.265   5.139
 6248SOL    HW219644   3.912   3.145   5.238
 6249SOL     OW19645   5.910   3.648   2.462
 6249SOL    HW119646   5.975   3.684   2.529
 6249SOL    HW219647   5.833   3.607   2.510
 6250SOL     OW19648   5.694   6.871   6.403
 6250SOL    HW119649   5.717   6.924   6.485
 6250SOL    HW219650   5.601   6.895   6.373
 6251SOL     OW19651   2.631   0.839   4.377
 6251SOL    HW119652   2.694   0.776   4.423
 6251SOL    HW219653   2.663   0.855   4.284
 6252SOL     OW19654   3.426   5.156   6.674
 6252SOL    HW119655   3.413   5.117   6.765
 6252SOL    HW219656   3.523   5.176   6.659
 6253SOL     OW19657   3.551   6.029   4.028
 6253SOL    HW119658   3.534   5.931   4.034
 6253SOL    HW219659   3.531   6.060   3.935
 6254SOL     OW19660   0.356   0.114   1.814
 6254SOL    HW119661   0.302   0.166   1.880
 6254SOL    HW219662   0.300   0.093   1.734
 6255SOL     OW19663   1.316   1.848   0.592
 6255SOL    HW119664   1.274   1.766   0.631
 6255SOL    HW219665   1.407   1.826   0.557
 6256SOL     OW19666   5.792   5.827   2.315
 6256SOL    HW119667   5.779   5.879   2.231
 6256SOL    HW219668   5.839   5.742   2.294
 6257SOL     OW19669   3.455   4.900   0.512
 6257SOL    HW119670   3.426   4.920   0.419
 6257SOL    HW219671   3.411   4.816   0.544
 6258SOL     OW19672   4.577   5.060   5.187
 6258SOL    HW119673   4.649   5.064   5.118
 6258SOL    HW219674   4.607   5.110   5.269
 6259SOL     OW19675   4.322   1.132   4.918
 6259SOL    HW119676   4.363   1.218   4.950
 6259SOL    HW219677   4.346   1.058   4.982
 6260SOL     OW19678   2.198   1.385   0.642
 6260SOL    HW119679   2.265   1.449   0.605
 6260SOL    HW219680   2.192   1.395   0.741
 6261SOL     OW19681   3.540   0.151   0.814
 6261SOL    HW119682   3.462   0.159   0.753
 6261SOL    HW219683   3.586   0.239   0.822
 6262SOL     OW19684   5.982   0.941   2.281
 6262SOL    HW119685   6.023   0.928   2.372
 6262SOL    HW219686   5.915   1.014   2.284
 6263SOL     OW19687   6.251   5.812   5.924
 6263SOL    HW119688   6.157   5.838   5.949
 6263SOL    HW219689   6.312   5.830   6.001
 6264SOL     OW19690   2.329   6.000   6.828
 6264SOL    HW119691   2.384   6.063   6.883
 6264SOL    HW219692   2.247   6.046   6.795
 6265SOL     OW19693   4.361   6.556   6.047
 6265SOL    HW119694   4.273   6.559   5.999
 6265SOL    HW219695   4.358   6.485   6.118
 6266SOL     OW19696   3.177   5.223   2.768
 6266SOL    HW119697   3.191   5.125   2.754
 6266SOL    HW219698   3.211   5.273   2.689
 6267SOL     OW19699   1.351   6.550   4.648
 6267SOL    HW119700   1.433   6.496   4.632
 6267SOL    HW219701   1.367   6.645   4.618
 6268SOL     OW19702   3.298   1.740   1.088
 6268SOL    HW119703   3.374   1.731   1.024
 6268SOL    HW219704   3.217   1.771   1.040
 6269SOL     OW19705   6.972   5.764   6.388
 6269SOL    HW119706   6.931   5.820   6.460
 6269SOL    HW219707   0.030   5.713   6.426
 6270SOL     OW19708   2.149   6.184   0.846
 6270SOL    HW119709   2.110   6.092   0.839
 6270SOL    HW219710   2.217   6.185   0.919
 6271SOL     OW19711   6.725   2.824   5.452
 6271SOL    HW119712   6.705   2.890   5.525
 6271SOL    HW219713   6.821   2.833   5.426
 6272SOL     OW19714   0.313   0.801   7.000
 6272SOL    HW119715   0.214   0.818   7.008
 6272SOL    HW219716   0.337   0.721   0.036
 6273SOL     OW19717   0.799   6.641   2.733
 6273SOL    HW119718   0.831   6.676   2.821
 6273SOL    HW219719   0.742   6.561   2.748
 6274SOL     OW19720   2.749   5.815   3.779
 6274SOL    HW119721   2.694   5.830   3.861
 6274SOL    HW219722   2.813   5.891   3.768
 6275SOL     OW19723   2.904   5.831   6.640
 6275SOL    HW119724   2.931   5.895   6.568
 6275SOL    HW219725   2.806   5.810   6.630
 6276SOL     OW19726   1.381   5.681   2.491
 6276SOL    HW119727   1.313   5.751   2.513
 6276SOL    HW219728   1.387   5.615   2.565
 6277SOL     OW19729   5.496   2.520   1.438
 6277SOL    HW119730   5.415   2.532   1.496
 6277SOL    HW219731   5.483   2.570   1.353
 6278SOL     OW19732   4.396   2.145   0.828
 6278SOL    HW119733   4.422   2.149   0.924
 6278SOL    HW219734   4.376   2.238   0.795
 6279SOL     OW19735   3.499   6.756   1.331
 6279SOL    HW119736   3.447   6.716   1.406
 6279SOL    HW219737   3.511   6.854   1.348
 6280SOL     OW19738   5.209   2.504   6.611
 6280SOL    HW119739   5.243   2.573   6.548
 6280SOL    HW219740   5.232   2.413   6.577
 6281SOL     OW19741   5.034   4.455   6.186
 6281SOL    HW119742   4.962   4.525   6.186
 6281SOL    HW219743   5.042   4.416   6.277
 6282SOL     OW19744   0.483   3.699   6.303
 6282SOL    HW119745   0.530   3.670   6.386
 6282SOL    HW219746   0.392   3.733   6.326
 6283SOL     OW19747   2.595   6.537   4.499
 6283SOL    HW119748   2.579   6.495   4.410
 6283SOL    HW219749   2.559   6.478   4.571
 6284SOL     OW19750   1.450   3.248   5.397
 6284SOL    HW119751   1.545   3.257   5.369
 6284SOL    HW219752   1.394   3.218   5.320
 6285SOL     OW19753   1.411   3.216   2.796
 6285SOL    HW119754   1.404   3.265   2.709
 6285SOL    HW219755   1.501   3.174   2.804
 6286SOL     OW19756   0.765   2.135   6.637
 6286SOL    HW119757   0.816   2.221   6.639
 6286SOL    HW219758   0.798   2.078   6.562
 6287SOL     OW19759   4.734   4.807   5.194
 6287SOL    HW119760   4.645   4.764   5.180
 6287SOL    HW219761   4.741   4.839   5.289
 6288SOL     OW19762   2.593   4.062   5.914
 6288SOL    HW119763   2.651   4.091   5.837
 6288SOL    HW219764   2.526   4.134   5.933
 6289SOL     OW19765   2.120   4.773   4.919
 6289SOL    HW119766   2.218   4.775   4.899
 6289SOL    HW219767   2.070   4.819   4.845
 6290SOL     OW19768   5.886   6.898   4.025
 6290SOL    HW119769   5.832   6.982   4.027
 6290SOL    HW219770   5.836   6.825   4.072
 6291SOL     OW19771   3.710   3.528   2.093
 6291SOL    HW119772   3.669   3.546   2.004
 6291SOL    HW219773   3.691   3.604   2.155
 6292SOL     OW19774   1.625   4.809   4.440
 6292SOL    HW119775   1.585   4.812   4.532
 6292SOL    HW219776   1.551   4.808   4.372
 6293SOL     OW19777   3.143   2.025   6.231
 6293SOL    HW119778   3.214   1.955   6.245
 6293SOL    HW219779   3.169   2.109   6.279
 6294SOL     OW19780   2.040   1.386   2.167
 6294SOL    HW119781   2.081   1.476   2.183
 6294SOL    HW219782   2.003   1.351   2.253
 6295SOL     OW19783   4.544   3.514   6.477
 6295SOL    HW119784   4.520   3.437   6.417
 6295SOL    HW219785   4.545   3.599   6.423
 6296SOL     OW19786   0.746   2.706   6.691
 6296SOL    HW119787   0.783   2.786   6.643
 6296SOL    HW219788   0.651   2.692   6.663
 6297SOL     OW19789   6.640   1.457   3.981
 6297SOL    HW119790   6.597   1.404   3.908
 6297SOL    HW219791   6.738   1.438   3.983
 6298SOL     OW19792   0.505   6.400   0.938
 6298SOL    HW119793   0.437   6.327   0.948
 6298SOL    HW219794   0.559   6.406   1.021
 6299SOL     OW19795   3.744   1.448   4.048
 6299SOL    HW119796   3.732   1.361   4.097
 6299SOL    HW219797   3.680   1.515   4.084
 6300SOL     OW19798   2.669   1.841   0.070
 6300SOL    HW119799   2.644   1.750   0.103
 6300SOL    HW219800   2.608   1.866   7.014
 6301SOL     OW19801   4.334   6.310   6.591
 6301SOL    HW119802   4.403   6.295   6.662
 6301SOL    HW219803   4.262   6.241   6.600
 6302SOL     OW19804   1.673   3.139   6.932
 6302SOL    HW119805   1.769   3.148   6.903
 6302SOL    HW219806   1.645   3.222   6.980
 6303SOL     OW19807   0.777   5.364   4.408
 6303SOL    HW119808   0.731   5.387   4.494
 6303SOL    HW219809   0.727   5.406   4.332
 6304SOL     OW19810   3.198   0.907   4.232
 6304SOL    HW119811   3.104   0.937   4.214
 6304SOL    HW219812   3.198   0.834   4.301
 6305SOL     OW19813   0.986   5.778   6.024
 6305SOL    HW119814   1.018   5.761   5.931
 6305SOL    HW219815   0.946   5.869   6.029
 6306SOL     OW19816   0.470   4.245   5.063
 6306SOL    HW119817   0.495   4.331   5.017
 6306SOL    HW219818   0.546   4.215   5.121
 6307SOL     OW19819   3.592   2.937   2.127
 6307SOL    HW119820   3.623   2.869   2.061
 6307SOL    HW219821   3.671   2.976   2.175
 6308SOL     OW19822   0.485   2.415   0.459
 6308SOL    HW119823   0.531   2.411   0.548
 6308SOL    HW219824   0.397   2.367   0.464
 6309SOL     OW19825   1.991   6.472   4.835
 6309SOL    HW119826   1.988   6.536   4.758
 6309SOL    HW219827   2.069   6.411   4.824
 6310SOL     OW19828   1.032   6.998   3.657
 6310SOL    HW119829   1.003   0.026   3.740
 6310SOL    HW219830   1.112   0.025   3.619
 6311SOL     OW19831   6.339   1.227   6.514
 6311SOL    HW119832   6.347   1.302   6.449
 6311SOL    HW219833   6.307   1.263   6.602
 6312SOL     OW19834   3.125   5.653   0.053
 6312SOL    HW119835   3.218   5.667   0.087
 6312SOL    HW219836   3.071   5.736   0.067
 6313SOL     OW19837   6.250   4.324   3.816
 6313SOL    HW119838   6.249   4.393   3.744
 6313SOL    HW219839   6.262   4.368   3.905
 6314SOL     OW19840   1.803   6.422   2.880
 6314SOL    HW119841   1.859   6.366   2.820
 6314SOL    HW219842   1.837   6.415   2.974
 6315SOL     OW19843   2.006   1.733   3.753
 6315SOL    HW119844   2.015   1.711   3.850
 6315SOL    HW219845   2.069   1.677   3.700
 6316SOL     OW19846   4.365   0.568   4.978
 6316SOL    HW119847   4.360   0.520   4.891
 6316SOL    HW219848   4.459   0.598   4.995
 6317SOL     OW19849   5.489   4.709   2.872
 6317SOL    HW119850   5.460   4.640   2.806
 6317SOL    HW219851   5.562   4.672   2.930
 6318SOL     OW19852   6.547   6.902   7.019
 6318SOL    HW119853   6.554   6.932   6.924
 6318SOL    HW219854   6.517   6.807   0.002
 6319SOL     OW19855   4.731   2.006   4.559
 6319SOL    HW119856   4.705   2.102   4.564
 6319SOL    HW219857   4.785   1.981   4.640
 6320SOL     OW19858   6.188   1.438   5.312
 6320SOL    HW119859   6.212   1.370   5.243
 6320SOL    HW219860   6.128   1.397   5.381
 6321SOL     OW19861   0.190   2.591   0.325
 6321SOL    HW119862   0.283   2.619   0.350
 6321SOL    HW219863   0.133   2.672   0.315
 6322SOL     OW19864   1.285   1.255   3.359
 6322SOL    HW119865   1.362   1.316   3.341
 6322SOL    HW219866   1.262   1.203   3.277
 6323SOL     OW19867   2.307   5.045   0.769
 6323SOL    HW119868   2.287   4.949   0.788
 6323SOL    HW219869   2.364   5.083   0.842
 6324SOL     OW19870   4.772   3.544   1.283
 6324SOL    HW119871   4.702   3.474   1.270
 6324SOL    HW219872   4.778   3.567   1.380
 6325SOL     OW19873   1.775   3.051   3.985
 6325SOL    HW119874   1.815   2.967   4.022
 6325SOL    HW219875   1.839   3.127   4.000
 6326SOL     OW19876   5.455   5.342   5.435
 6326SOL    HW119877   5.489   5.312   5.345
 6326SOL    HW219878   5.453   5.264   5.497
 6327SOL     OW19879   0.533   1.238   3.585
 6327SOL    HW119880   0.596   1.167   3.616
 6327SOL    HW219881   0.580   1.300   3.522
 6328SOL     OW19882   4.730   3.830   5.311
 6328SOL    HW119883   4.712   3.756   5.246
 6328SOL    HW219884   4.828   3.835   5.330
 6329SOL     OW19885   0.874   1.978   6.101
 6329SOL    HW119886   0.776   1.996   6.102
 6329SOL    HW219887   0.892   1.887   6.138
 6330SOL     OW19888   4.464   1.434   3.979
 6330SOL    HW119889   4.482   1.350   3.927
 6330SOL    HW219890   4.523   1.437   4.059
 6331SOL     OW19891   1.130   3.143   4.062
 6331SOL    HW119892   1.193   3.213   4.097
 6331SOL    HW219893   1.125   3.150   3.962
 6332SOL     OW19894   3.164   1.588   6.852
 6332SOL    HW119895   3.190   1.511   6.910
 6332SOL    HW219896   3.070   1.616   6.873
 6333SOL     OW19897   5.507   0.717   0.973
 6333SOL    HW119898   5.415   0.744   0.945
 6333SOL    HW219899   5.571   0.732   0.897
 6334SOL     OW19900   1.494   0.992   1.250
 6334SOL    HW119901   1.577   1.035   1.215
 6334SOL    HW219902   1.518   0.906   1.296
 6335SOL     OW19903   6.675   2.980   5.654
 6335SOL    HW119904   6.754   2.967   5.714
 6335SOL    HW219905   6.614   3.049   5.693
 6336SOL     OW19906   0.438   3.771   5.565
 6336SOL    HW119907   0.425   3.847   5.502
 6336SOL    HW219908   0.486   3.697   5.517
 6337SOL     OW19909   5.660   0.139   5.238
 6337SOL    HW119910   5.628   0.212   5.177
 6337SOL    HW219911   5.673   0.055   5.185
 6338SOL     OW19912   1.186   0.799   3.364
 6338SOL    HW119913   1.188   0.721   3.302
 6338SOL    HW219914   1.162   0.882   3.314
 6339SOL     OW19915   0.220   3.512   3.481
 6339SOL    HW119916   0.213   3.419   3.447
 6339SOL    HW219917   0.162   3.523   3.562
 6340SOL     OW19918   2.924   4.807   0.575
 6340SOL    HW119919   2.870   4.836   0.654
 6340SOL    HW219920   2.864   4.776   0.502
 6341SOL     OW19921   0.367   5.649   1.908
 6341SOL    HW119922   0.415   5.707   1.842
 6341SOL    HW219923   0.426   5.573   1.935
 6342SOL     OW19924   2.331   0.900   1.941
 6342SOL    HW119925   2.253   0.945   1.897
 6342SOL    HW219926   2.321   0.801   1.932
 6343SOL     OW19927   1.214   5.696   0.582
 6343SOL    HW119928   1.256   5.605   0.583
 6343SOL    HW219929   1.205   5.726   0.487
 6344SOL     OW19930   1.376   1.316   4.600
 6344SOL    HW119931   1.426   1.322   4.514
 6344SOL    HW219932   1.416   1.379   4.667
 6345SOL     OW19933   5.771   2.411   2.892
 6345SOL    HW119934   5.734   2.347   2.824
 6345SOL    HW219935   5.857   2.449   2.859
 6346SOL     OW19936   6.981   4.175   4.697
 6346SOL    HW119937   0.056   4.204   4.677
 6346SOL    HW219938   6.953   4.212   4.785
 6347SOL     OW19939   2.136   2.470   3.421
 6347SOL    HW119940   2.109   2.561   3.452
 6347SOL    HW219941   2.131   2.466   3.321
 6348SOL     OW19942   0.980   2.777   6.112
 6348SOL    HW119943   0.960   2.689   6.155
 6348SOL    HW219944   1.024   2.761   6.023
 6349SOL     OW19945   6.308   0.831   0.912
 6349SOL    HW119946   6.380   0.845   0.844
 6349SOL    HW219947   6.246   0.909   0.912
 6350SOL     OW19948   1.140   5.999   1.615
 6350SOL    HW119949   1.113   5.933   1.685
 6350SOL    HW219950   1.238   5.989   1.596
 6351SOL     OW19951   5.797   3.810   1.319
 6351SOL    HW119952   5.846   3.809   1.231
 6351SOL    HW219953   5.858   3.840   1.391
 6352SOL     OW19954   3.846   0.605   4.816
 6352SOL    HW119955   3.777   0.559   4.761
 6352SOL    HW219956   3.893   0.673   4.760
 6353SOL     OW19957   3.907   6.237   5.294
 6353SOL    HW119958   3.884   6.140   5.295
 6353SOL    HW219959   3.943   6.262   5.204
 6354SOL     OW19960   5.129   4.974   2.555
 6354SOL    HW119961   5.156   5.069   2.542
 6354SOL    HW219962   5.096   4.935   2.469
 6355SOL     OW19963   3.327   5.417   0.820
 6355SOL    HW119964   3.281   5.442   0.905
 6355SOL    HW219965   3.383   5.335   0.835
 6356SOL     OW19966   0.178   6.116   6.472
 6356SOL    HW119967   0.103   6.097   6.409
 6356SOL    HW219968   0.147   6.178   6.544
 6357SOL     OW19969   5.057   1.062   2.914
 6357SOL    HW119970   5.088   1.115   2.836
 6357SOL    HW219971   5.134   1.044   2.976
 6358SOL     OW19972   1.144   2.081   4.746
 6358SOL    HW119973   1.097   2.009   4.797
 6358SOL    HW219974   1.149   2.164   4.802
 6359SOL     OW19975   5.430   6.126   1.692
 6359SOL    HW119976   5.427   6.026   1.694
 6359SOL    HW219977   5.480   6.159   1.771
 6360SOL     OW19978   1.620   1.871   1.016
 6360SOL    HW119979   1.646   1.792   0.960
 6360SOL    HW219980   1.641   1.955   0.966
 6361SOL     OW19981   0.097   1.353   0.953
 6361SOL    HW119982   0.101   1.254   0.942
 6361SOL    HW219983   0.087   1.395   0.862
 6362SOL     OW19984   1.848   5.222   0.541
 6362SOL    HW119985   1.767   5.172   0.510
 6362SOL    HW219986   1.915   5.158   0.578
 6363SOL     OW19987   1.794   3.731   1.829
 6363SOL    HW119988   1.777   3.774   1.740
 6363SOL    HW219989   1.889   3.746   1.855
 6364SOL     OW19990   2.677   2.179   4.343
 6364SOL    HW119991   2.652   2.249   4.411
 6364SOL    HW219992   2.594   2.142   4.302
 6365SOL     OW19993   5.938   0.007   2.927
 6365SOL    HW119994   5.955   0.105   2.937
 6365SOL    HW219995   5.840   7.011   2.913
 6366SOL     OW19996   5.792   0.980   4.624
 6366SOL    HW119997   5.705   1.029   4.625
 6366SOL    HW219998   5.821   0.961   4.718
 6367SOL     OW19999   0.998   2.411   3.291
 6367SOL    HW120000   1.013   2.403   3.193
 6367SOL    HW220001   0.922   2.352   3.318
 6368SOL     OW20002   4.942   3.589   4.802
 6368SOL    HW120003   5.035   3.622   4.819
 6368SOL    HW220004   4.888   3.598   4.886
 6369SOL     OW20005   4.340   4.654   0.321
 6369SOL    HW120006   4.258   4.612   0.283
 6369SOL    HW220007   4.417   4.639   0.259
 6370SOL     OW20008   5.658   4.236   4.438
 6370SOL    HW120009   5.671   4.283   4.350
 6370SOL    HW220010   5.571   4.264   4.479
 6371SOL     OW20011   5.286   4.763   0.850
 6371SOL    HW120012   5.245   4.751   0.759
 6371SOL    HW220013   5.219   4.802   0.912
 6372SOL     OW20014   6.618   1.563   1.727
 6372SOL    HW120015   6.578   1.473   1.707
 6372SOL    HW220016   6.716   1.561   1.706
 6373SOL     OW20017   5.005   3.232   2.346
 6373SOL    HW120018   4.966   3.162   2.287
 6373SOL    HW220019   5.000   3.321   2.300
 6374SOL     OW20020   4.789   3.423   6.664
 6374SOL    HW120021   4.737   3.502   6.632
 6374SOL    HW220022   4.842   3.449   6.745
 6375SOL     OW20023   4.878   1.037   2.120
 6375SOL    HW120024   4.944   1.103   2.156
 6375SOL    HW220025   4.791   1.084   2.103
 6376SOL     OW20026   2.339   0.372   0.254
 6376SOL    HW120027   2.330   0.309   0.177
 6376SOL    HW220028   2.249   0.404   0.282
 6377SOL     OW20029   0.574   0.898   0.147
 6377SOL    HW120030   0.515   0.956   0.204
 6377SOL    HW220031   0.518   0.829   0.101
 6378SOL     OW20032   5.699   4.723   2.516
 6378SOL    HW120033   5.708   4.767   2.606
 6378SOL    HW220034   5.771   4.654   2.506
 6379SOL     OW20035   1.613   5.128   6.445
 6379SOL    HW120036   1.636   5.220   6.415
 6379SOL    HW220037   1.690   5.067   6.427
 6380SOL     OW20038   1.052   3.370   5.261
 6380SOL    HW120039   1.030   3.445   5.323
 6380SOL    HW220040   1.031   3.282   5.305
 6381SOL     OW20041   3.844   3.508   0.254
 6381SOL    HW120042   3.766   3.460   0.215
 6381SOL    HW220043   3.915   3.518   0.185
 6382SOL     OW20044   1.810   1.380   0.439
 6382SOL    HW120045   1.866   1.334   0.508
 6382SOL    HW220046   1.864   1.394   0.356
 6383SOL     OW20047   2.394   2.606   2.078
 6383SOL    HW120048   2.477   2.562   2.110
 6383SOL    HW220049   2.358   2.556   1.999
 6384SOL     OW20050   6.615   2.767   1.732
 6384SOL    HW120051   6.526   2.722   1.739
 6384SOL    HW220052   6.676   2.731   1.802
 6385SOL     OW20053   6.632   3.891   6.841
 6385SOL    HW120054   6.680   3.978   6.850
 6385SOL    HW220055   6.673   3.838   6.766
 6386SOL     OW20056   2.837   3.104   0.499
 6386SOL    HW120057   2.778   3.023   0.508
 6386SOL    HW220058   2.929   3.075   0.472
 6387SOL     OW20059   6.806   0.057   6.816
 6387SOL    HW120060   6.773   0.016   6.901
 6387SOL    HW220061   6.846   7.006   6.758
 6388SOL     OW20062   5.484   5.393   2.142
 6388SOL    HW120063   5.545   5.468   2.167
 6388SOL    HW220064   5.519   5.307   2.179
 6389SOL     OW20065   6.661   6.651   0.601
 6389SOL    HW120066   6.629   6.577   0.660
 6389SOL    HW220067   6.754   6.677   0.627
 6390SOL     OW20068   5.455   0.507   0.294
 6390SOL    HW120069   5.412   0.576   0.353
 6390SOL    HW220070   5.417   0.417   0.315
 6391SOL     OW20071   1.671   2.164   4.897
 6391SOL    HW120072   1.600   2.113   4.944
 6391SOL    HW220073   1.761   2.128   4.923
 6392SOL     OW20074   4.729   0.143   3.896
 6392SOL    HW120075   4.774   0.108   3.978
 6392SOL    HW220076   4.644   0.189   3.921
 6393SOL     OW20077   1.803   4.663   0.582
 6393SOL    HW120078   1.709   4.628   0.575
 6393SOL    HW220079   1.813   4.714   0.667
 6394SOL     OW20080   1.793   4.958   1.472
 6394SOL    HW120081   1.835   4.997   1.391
 6394SOL    HW220082   1.722   4.893   1.445
 6395SOL     OW20083   1.956   4.218   3.837
 6395SOL    HW120084   1.879   4.245   3.895
 6395SOL    HW220085   1.962   4.281   3.759
 6396SOL     OW20086   2.026   3.091   5.413
 6396SOL    HW120087   1.963   3.060   5.342
 6396SOL    HW220088   2.106   3.134   5.370
 6397SOL     OW20089   5.748   3.778   4.954
 6397SOL    HW120090   5.847   3.772   4.967
 6397SOL    HW220091   5.702   3.713   5.015
 6398SOL     OW20092   2.284   6.947   2.647
 6398SOL    HW120093   2.249   6.903   2.729
 6398SOL    HW220094   2.307   0.023   2.666
 6399SOL     OW20095   3.306   0.246   0.014
 6399SOL    HW120096   3.304   0.254   6.933
 6399SOL    HW220097   3.382   0.187   0.040
 6400SOL     OW20098   0.582   6.893   2.902
 6400SOL    HW120099   0.550   6.799   2.899
 6400SOL    HW220100   0.515   6.951   2.949
 6401SOL     OW20101   4.278   5.318   2.808
 6401SOL    HW120102   4.236   5.265   2.735
 6401SOL    HW220103   4.310   5.406   2.772
 6402SOL     OW20104   3.071   4.668   5.586
 6402SOL    HW120105   3.098   4.653   5.681
 6402SOL    HW220106   2.974   4.691   5.582
 6403SOL     OW20107   5.439   5.204   5.691
 6403SOL    HW120108   5.451   5.146   5.771
 6403SOL    HW220109   5.499   5.284   5.699
 6404SOL     OW20110   4.981   6.206   0.837
 6404SOL    HW120111   5.068   6.188   0.881
 6404SOL    HW220112   4.965   6.139   0.765
 6405SOL     OW20113   4.432   1.307   2.701
 6405SOL    HW120114   4.480   1.266   2.778
 6405SOL    HW220115   4.498   1.353   2.641
 6406SOL     OW20116   0.525   3.496   2.855
 6406SOL    HW120117   0.585   3.562   2.809
 6406SOL    HW220118   0.494   3.535   2.941
 6407SOL     OW20119   0.174   6.672   2.910
 6407SOL    HW120120   0.136   6.587   2.875
 6407SOL    HW220121   0.157   6.745   2.844
 6408SOL     OW20122   0.372   1.234   1.974
 6408SOL    HW120123   0.277   1.256   1.948
 6408SOL    HW220124   0.428   1.228   1.891
 6409SOL     OW20125   5.374   4.822   3.646
 6409SOL    HW120126   5.312   4.746   3.627
 6409SOL    HW220127   5.381   4.834   3.745
 6410SOL     OW20128   2.184   0.993   0.239
 6410SOL    HW120129   2.184   0.993   0.139
 6410SOL    HW220130   2.185   1.087   0.272
 6411SOL     OW20131   0.515   2.687   2.068
 6411SOL    HW120132   0.534   2.720   1.976
 6411SOL    HW220133   0.472   2.759   2.122
 6412SOL     OW20134   3.963   1.287   6.615
 6412SOL    HW120135   3.963   1.381   6.582
 6412SOL    HW220136   4.039   1.237   6.572
 6413SOL     OW20137   4.806   6.041   3.567
 6413SOL    HW120138   4.756   6.084   3.491
 6413SOL    HW220139   4.904   6.044   3.548
 6414SOL     OW20140   2.488   0.581   0.480
 6414SOL    HW120141   2.444   0.594   0.391
 6414SOL    HW220142   2.544   0.498   0.478
 6415SOL     OW20143   0.674   1.775   4.031
 6415SOL    HW120144   0.697   1.817   3.943
 6415SOL    HW220145   0.620   1.693   4.016
 6416SOL     OW20146   3.171   4.907   0.061
 6416SOL    HW120147   3.143   4.812   0.058
 6416SOL    HW220148   3.091   4.966   0.047
 6417SOL     OW20149   4.272   2.913   6.751
 6417SOL    HW120150   4.254   2.987   6.816
 6417SOL    HW220151   4.335   2.847   6.793
 6418SOL     OW20152   5.044   4.794   0.181
 6418SOL    HW120153   5.023   4.710   0.232
 6418SOL    HW220154   5.141   4.797   0.160
 6419SOL     OW20155   0.827   6.582   6.505
 6419SOL    HW120156   0.765   6.608   6.579
 6419SOL    HW220157   0.775   6.573   6.420
 6420SOL     OW20158   2.754   4.741   3.948
 6420SOL    HW120159   2.704   4.687   3.880
 6420SOL    HW220160   2.848   4.755   3.918
 6421SOL     OW20161   4.462   6.987   1.548
 6421SOL    HW120162   4.555   6.965   1.579
 6421SOL    HW220163   4.460   6.990   1.448
 6422SOL     OW20164   6.214   2.604   5.090
 6422SOL    HW120165   6.246   2.662   5.015
 6422SOL    HW220166   6.136   2.550   5.058
 6423SOL     OW20167   1.023   4.931   4.828
 6423SOL    HW120168   1.110   4.902   4.868
 6423SOL    HW220169   0.948   4.882   4.873
 6424SOL     OW20170   6.985   4.628   6.425
 6424SOL    HW120171   0.057   4.587   6.423
 6424SOL    HW220172   6.918   4.559   6.453
 6425SOL     OW20173   6.996   6.029   3.985
 6425SOL    HW120174   0.031   6.050   4.067
 6425SOL    HW220175   6.989   6.111   3.929
 6426SOL     OW20176   4.630   4.854   4.626
 6426SOL    HW120177   4.694   4.778   4.636
 6426SOL    HW220178   4.594   4.879   4.716
 6427SOL     OW20179   3.690   2.906   3.160
 6427SOL    HW120180   3.775   2.956   3.169
 6427SOL    HW220181   3.708   2.816   3.120
 6428SOL     OW20182   5.677   2.489   0.219
 6428SOL    HW120183   5.641   2.429   0.291
 6428SOL    HW220184   5.603   2.548   0.186
 6429SOL     OW20185   2.395   1.493   5.332
 6429SOL    HW120186   2.303   1.470   5.298
 6429SOL    HW220187   2.408   1.592   5.328
 6430SOL     OW20188   6.404   0.850   5.252
 6430SOL    HW120189   6.400   0.765   5.304
 6430SOL    HW220190   6.434   0.831   5.158
 6431SOL     OW20191   3.359   4.993   2.464
 6431SOL    HW120192   3.326   4.952   2.549
 6431SOL    HW220193   3.289   4.985   2.393
 6432SOL     OW20194   4.790   3.401   5.789
 6432SOL    HW120195   4.781   3.351   5.703
 6432SOL    HW220196   4.714   3.377   5.850
 6433SOL     OW20197   3.584   4.735   5.348
 6433SOL    HW120198   3.573   4.637   5.339
 6433SOL    HW220199   3.677   4.761   5.321
 6434SOL     OW20200   5.269   5.800   5.847
 6434SOL    HW120201   5.240   5.896   5.844
 6434SOL    HW220202   5.228   5.754   5.925
 6435SOL     OW20203   4.972   1.324   1.219
 6435SOL    HW120204   4.951   1.339   1.123
 6435SOL    HW220205   4.912   1.380   1.276
 6436SOL     OW20206   0.489   3.397   3.580
 6436SOL    HW120207   0.430   3.471   3.549
 6436SOL    HW220208   0.452   3.358   3.664
 6437SOL     OW20209   1.511   2.733   5.740
 6437SOL    HW120210   1.607   2.708   5.755
 6437SOL    HW220211   1.494   2.823   5.779
 6438SOL     OW20212   0.582   5.590   0.061
 6438SOL    HW120213   0.591   5.538   6.995
 6438SOL    HW220214   0.490   5.630   0.066
 6439SOL     OW20215   5.329   6.705   2.299
 6439SOL    HW120216   5.406   6.716   2.362
 6439SOL    HW220217   5.296   6.794   2.269
 6440SOL     OW20218   2.867   1.519   6.185
 6440SOL    HW120219   2.947   1.546   6.239
 6440SOL    HW220220   2.791   1.498   6.246
 6441SOL     OW20221   0.230   2.106   2.003
 6441SOL    HW120222   0.240   2.025   1.945
 6441SOL    HW220223   0.278   2.183   1.961
 6442SOL     OW20224   2.423   1.942   4.764
 6442SOL    HW120225   2.368   1.967   4.844
 6442SOL    HW220226   2.515   1.979   4.775
 6443SOL     OW20227   3.659   2.849   6.539
 6443SOL    HW120228   3.728   2.797   6.488
 6443SOL    HW220229   3.685   2.946   6.541
 6444SOL     OW20230   6.780   4.323   4.480
 6444SOL    HW120231   6.820   4.391   4.417
 6444SOL    HW220232   6.852   4.264   4.515
 6445SOL     OW20233   2.864   3.489   3.312
 6445SOL    HW120234   2.878   3.588   3.309
 6445SOL    HW220235   2.776   3.470   3.357
 6446SOL     OW20236   1.285   1.558   0.066
 6446SOL    HW120237   1.357   1.580   0.132
 6446SOL    HW220238   1.277   1.632   7.018
 6447SOL     OW20239   5.412   3.211   2.208
 6447SOL    HW120240   5.440   3.213   2.113
 6447SOL    HW220241   5.349   3.286   2.227
 6448SOL     OW20242   4.553   4.576   1.029
 6448SOL    HW120243   4.642   4.581   1.074
 6448SOL    HW220244   4.564   4.590   0.931
 6449SOL     OW20245   3.335   5.111   0.653
 6449SOL    HW120246   3.370   5.028   0.608
 6449SOL    HW220247   3.271   5.158   0.592
 6450SOL     OW20248   6.074   4.236   6.479
 6450SOL    HW120249   5.975   4.250   6.485
 6450SOL    HW220250   6.098   4.150   6.524
 6451SOL     OW20251   4.179   2.644   1.684
 6451SOL    HW120252   4.177   2.730   1.735
 6451SOL    HW220253   4.087   2.623   1.652
 6452SOL     OW20254   3.738   2.114   4.916
 6452SOL    HW120255   3.749   2.182   4.989
 6452SOL    HW220256   3.657   2.057   4.936
 6453SOL     OW20257   2.063   0.283   2.457
 6453SOL    HW120258   2.115   0.231   2.391
 6453SOL    HW220259   1.974   0.239   2.473
 6454SOL     OW20260   4.935   2.419   3.801
 6454SOL    HW120261   4.999   2.495   3.811
 6454SOL    HW220262   4.955   2.349   3.870
 6455SOL     OW20263   6.828   2.999   4.187
 6455SOL    HW120264   6.923   3.000   4.219
 6455SOL    HW220265   6.792   3.092   4.187
 6456SOL     OW20266   6.713   1.977   2.141
 6456SOL    HW120267   6.786   1.917   2.110
 6456SOL    HW220268   6.690   1.956   2.236
 6457SOL     OW20269   3.032   6.482   2.718
 6457SOL    HW120270   3.012   6.480   2.816
 6457SOL    HW220271   2.959   6.435   2.669
 6458SOL     OW20272   7.006   0.054   4.491
 6458SOL    HW120273   0.029   0.070   4.580
 6458SOL    HW220274   6.907   0.042   4.502
 6459SOL     OW20275   0.956   3.182   2.993
 6459SOL    HW120276   0.922   3.213   3.082
 6459SOL    HW220277   0.937   3.253   2.924
 6460SOL     OW20278   1.004   5.444   6.665
 6460SOL    HW120279   0.904   5.436   6.655
 6460SOL    HW220280   1.037   5.517   6.605
 6461SOL     OW20281   1.166   6.497   1.085
 6461SOL    HW120282   1.229   6.477   1.010
 6461SOL    HW220283   1.100   6.566   1.055
 6462SOL     OW20284   1.783   3.786   5.142
 6462SOL    HW120285   1.814   3.692   5.128
 6462SOL    HW220286   1.787   3.808   5.240
 6463SOL     OW20287   4.748   3.384   0.950
 6463SOL    HW120288   4.841   3.405   0.921
 6463SOL    HW220289   4.724   3.291   0.923
 6464SOL     OW20290   0.623   4.087   4.009
 6464SOL    HW120291   0.671   4.146   4.074
 6464SOL    HW220292   0.561   4.026   4.058
 6465SOL     OW20293   3.409   0.804   3.832
 6465SOL    HW120294   3.316   0.768   3.832
 6465SOL    HW220295   3.416   0.878   3.899
 6466SOL     OW20296   0.143   4.821   6.952
 6466SOL    HW120297   0.089   4.854   6.874
 6466SOL    HW220298   0.150   4.721   6.948
 6467SOL     OW20299   1.869   2.142   6.443
 6467SOL    HW120300   1.969   2.140   6.443
 6467SOL    HW220301   1.837   2.220   6.389
 6468SOL     OW20302   1.741   0.049   0.874
 6468SOL    HW120303   1.662   0.007   0.830
 6468SOL    HW220304   1.712   0.094   0.959
 6469SOL     OW20305   2.079   0.996   1.771
 6469SOL    HW120306   2.022   1.045   1.705
 6469SOL    HW220307   2.086   0.900   1.743
 6470SOL     OW20308   6.459   2.253   6.902
 6470SOL    HW120309   6.545   2.249   6.852
 6470SOL    HW220310   6.444   2.346   6.935
 6471SOL     OW20311   0.335   6.537   5.853
 6471SOL    HW120312   0.338   6.575   5.760
 6471SOL    HW220313   0.374   6.445   5.853
 6472SOL     OW20314   6.919   6.252   2.960
 6472SOL    HW120315   6.963   6.195   2.890
 6472SOL    HW220316   6.843   6.202   3.001
 6473SOL     OW20317   2.273   0.738   3.018
 6473SOL    HW120318   2.292   0.797   2.939
 6473SOL    HW220319   2.314   0.776   3.100
 6474SOL     OW20320   3.904   6.516   4.249
 6474SOL    HW120321   3.831   6.461   4.209
 6474SOL    HW220322   3.991   6.492   4.206
 6475SOL     OW20323   5.734   5.651   2.748
 6475SOL    HW120324   5.699   5.707   2.823
 6475SOL    HW220325   5.719   5.698   2.661
 6476SOL     OW20326   4.261   2.784   6.370
 6476SOL    HW120327   4.323   2.747   6.439
 6476SOL    HW220328   4.263   2.725   6.289
 6477SOL     OW20329   0.354   6.654   1.430
 6477SOL    HW120330   0.364   6.567   1.479
 6477SOL    HW220331   0.319   6.636   1.338
 6478SOL     OW20332   2.571   6.001   1.006
 6478SOL    HW120333   2.544   6.004   0.909
 6478SOL    HW220334   2.513   5.935   1.054
 6479SOL     OW20335   4.742   5.884   3.290
 6479SOL    HW120336   4.744   5.881   3.390
 6479SOL    HW220337   4.688   5.807   3.255
 6480SOL     OW20338   4.046   1.241   6.225
 6480SOL    HW120339   4.025   1.331   6.264
 6480SOL    HW220340   3.963   1.200   6.188
 6481SOL     OW20341   4.193   3.284   1.946
 6481SOL    HW120342   4.269   3.221   1.932
 6481SOL    HW220343   4.112   3.249   1.898
 6482SOL     OW20344   4.760   3.681   5.822
 6482SOL    HW120345   4.774   3.585   5.798
 6482SOL    HW220346   4.726   3.730   5.742
 6483SOL     OW20347   1.911   5.905   5.187
 6483SOL    HW120348   1.834   5.842   5.182
 6483SOL    HW220349   1.984   5.872   5.127
 6484SOL     OW20350   3.388   1.081   3.087
 6484SOL    HW120351   3.419   1.145   3.158
 6484SOL    HW220352   3.326   1.128   3.025
 6485SOL     OW20353   2.307   6.053   4.882
 6485SOL    HW120354   2.283   6.095   4.795
 6485SOL    HW220355   2.399   6.014   4.876
 6486SOL     OW20356   0.275   4.563   2.662
 6486SOL    HW120357   0.200   4.600   2.717
 6486SOL    HW220358   0.358   4.559   2.717
 6487SOL     OW20359   6.828   4.964   3.663
 6487SOL    HW120360   6.751   4.921   3.615
 6487SOL    HW220361   6.836   5.059   3.634
 6488SOL     OW20362   3.311   5.211   4.135
 6488SOL    HW120363   3.224   5.236   4.093
 6488SOL    HW220364   3.320   5.112   4.137
 6489SOL     OW20365   5.259   3.259   4.723
 6489SOL    HW120366   5.164   3.252   4.694
 6489SOL    HW220367   5.315   3.197   4.669
 6490SOL     OW20368   2.411   2.409   0.400
 6490SOL    HW120369   2.330   2.450   0.442
 6490SOL    HW220370   2.433   2.324   0.447
 6491SOL     OW20371   1.810   6.867   1.844
 6491SOL    HW120372   1.735   6.869   1.909
 6491SOL    HW220373   1.871   6.791   1.866
 6492SOL     OW20374   4.086   3.615   3.970
 6492SOL    HW120375   4.110   3.635   3.875
 6492SOL    HW220376   4.017   3.680   4.001
 6493SOL     OW20377   1.026   4.140   4.032
 6493SOL    HW120378   1.108   4.194   4.017
 6493SOL    HW220379   1.007   4.085   3.951
 6494SOL     OW20380   6.720   0.878   1.456
 6494SOL    HW120381   6.779   0.821   1.399
 6494SOL    HW220382   6.695   0.960   1.406
 6495SOL     OW20383   6.681   6.992   3.138
 6495SOL    HW120384   6.745   6.987   3.061
 6495SOL    HW220385   6.732   6.990   3.224
 6496SOL     OW20386   3.225   2.006   1.975
 6496SOL    HW120387   3.198   1.910   1.963
 6496SOL    HW220388   3.302   2.011   2.039
 6497SOL     OW20389   6.793   1.099   0.555
 6497SOL    HW120390   6.749   1.187   0.535
 6497SOL    HW220391   6.877   1.114   0.606
 6498SOL     OW20392   2.196   4.264   4.045
 6498SOL    HW120393   2.238   4.355   4.054
 6498SOL    HW220394   2.098   4.274   4.025
 6499SOL     OW20395   4.585   2.587   3.500
 6499SOL    HW120396   4.540   2.516   3.446
 6499SOL    HW220397   4.643   2.644   3.441
 6500SOL     OW20398   1.228   3.849   3.485
 6500SOL    HW120399   1.295   3.921   3.469
 6500SOL    HW220400   1.197   3.813   3.397
 6501SOL     OW20401   6.027   1.603   2.959
 6501SOL    HW120402   6.033   1.507   2.987
 6501SOL    HW220403   6.003   1.660   3.038
 6502SOL     OW20404   0.090   3.628   1.522
 6502SOL    HW120405   7.015   3.596   1.515
 6502SOL    HW220406   0.090   3.719   1.566
 6503SOL     OW20407   6.782   3.381   5.488
 6503SOL    HW120408   6.785   3.462   5.429
 6503SOL    HW220409   6.874   3.340   5.493
 6504SOL     OW20410   3.481   0.087   6.308
 6504SOL    HW120411   3.517   0.019   6.373
 6504SOL    HW220412   3.382   0.077   6.301
 6505SOL     OW20413   0.405   6.639   0.968
 6505SOL    HW120414   0.455   6.553   0.957
 6505SOL    HW220415   0.434   6.703   0.897
 6506SOL     OW20416   1.010   3.850   2.268
 6506SOL    HW120417   1.036   3.756   2.244
 6506SOL    HW220418   0.912   3.854   2.288
 6507SOL     OW20419   4.093   5.561   0.848
 6507SOL    HW120420   4.048   5.501   0.783
 6507SOL    HW220421   4.060   5.541   0.940
 6508SOL     OW20422   0.032   0.692   3.395
 6508SOL    HW120423   6.967   0.715   3.443
 6508SOL    HW220424   0.076   0.615   3.441
 6509SOL     OW20425   2.512   1.850   6.872
 6509SOL    HW120426   2.550   1.764   6.837
 6509SOL    HW220427   2.549   1.926   6.819
 6510SOL     OW20428   3.239   5.779   4.871
 6510SOL    HW120429   3.194   5.831   4.798
 6510SOL    HW220430   3.248   5.836   4.952
 6511SOL     OW20431   3.019   2.562   0.342
 6511SOL    HW120432   3.096   2.531   0.287
 6511SOL    HW220433   2.971   2.483   0.380
 6512SOL     OW20434   4.714   0.959   0.225
 6512SOL    HW120435   4.798   0.989   0.272
 6512SOL    HW220436   4.738   0.897   0.151
 6513SOL     OW20437   2.658   4.661   2.665
 6513SOL    HW120438   2.593   4.585   2.662
 6513SOL    HW220439   2.622   4.738   2.613
 6514SOL     OW20440   5.158   6.433   5.449
 6514SOL    HW120441   5.224   6.430   5.524
 6514SOL    HW220442   5.087   6.501   5.469
 6515SOL     OW20443   0.722   4.647   3.046
 6515SOL    HW120444   0.652   4.691   3.103
 6515SOL    HW220445   0.700   4.550   3.034
 6516SOL     OW20446   6.401   2.794   2.452
 6516SOL    HW120447   6.487   2.843   2.467
 6516SOL    HW220448   6.392   2.720   2.518
 6517SOL     OW20449   6.700   3.539   0.619
 6517SOL    HW120450   6.778   3.550   0.681
 6517SOL    HW220451   6.731   3.550   0.525
 6518SOL     OW20452   0.936   0.865   2.396
 6518SOL    HW120453   1.029   0.828   2.399
 6518SOL    HW220454   0.871   0.796   2.426
 6519SOL     OW20455   1.411   1.073   3.515
 6519SOL    HW120456   1.372   1.144   3.456
 6519SOL    HW220457   1.339   1.012   3.546
 6520SOL     OW20458   6.788   5.532   0.608
 6520SOL    HW120459   6.801   5.446   0.657
 6520SOL    HW220460   6.856   5.599   0.639
 6521SOL     OW20461   1.992   4.951   4.146
 6521SOL    HW120462   1.974   4.963   4.243
 6521SOL    HW220463   1.906   4.934   4.098
 6522SOL     OW20464   2.733   2.930   5.322
 6522SOL    HW120465   2.807   2.978   5.275
 6522SOL    HW220466   2.646   2.958   5.283
 6523SOL     OW20467   6.288   6.633   0.827
 6523SOL    HW120468   6.242   6.710   0.871
 6523SOL    HW220469   6.222   6.558   0.814
 6524SOL     OW20470   2.988   2.912   1.260
 6524SOL    HW120471   2.929   2.852   1.315
 6524SOL    HW220472   2.932   2.968   1.200
 6525SOL     OW20473   1.094   4.819   3.726
 6525SOL    HW120474   1.052   4.750   3.785
 6525SOL    HW220475   1.181   4.847   3.765
 6526SOL     OW20476   0.134   6.186   0.582
 6526SOL    HW120477   0.172   6.105   0.626
 6526SOL    HW220478   0.056   6.160   0.525
 6527SOL     OW20479   6.461   1.497   1.147
 6527SOL    HW120480   6.362   1.490   1.131
 6527SOL    HW220481   6.478   1.566   1.217
 6528SOL     OW20482   4.095   6.263   0.324
 6528SOL    HW120483   4.030   6.329   0.286
 6528SOL    HW220484   4.178   6.262   0.268
 6529SOL     OW20485   4.968   0.097   2.296
 6529SOL    HW120486   4.887   0.144   2.261
 6529SOL    HW220487   5.050   0.133   2.252
 6530SOL     OW20488   0.551   2.569   3.495
 6530SOL    HW120489   0.477   2.511   3.529
 6530SOL    HW220490   0.522   2.664   3.497
 6531SOL     OW20491   4.001   3.921   4.237
 6531SOL    HW120492   3.917   3.976   4.239
 6531SOL    HW220493   4.074   3.972   4.280
 6532SOL     OW20494   0.975   6.158   0.685
 6532SOL    HW120495   1.022   6.148   0.597
 6532SOL    HW220496   1.041   6.149   0.760
 6533SOL     OW20497   5.052   4.598   1.843
 6533SOL    HW120498   5.037   4.513   1.893
 6533SOL    HW220499   4.992   4.669   1.879
 6534SOL     OW20500   6.879   4.318   3.040
 6534SOL    HW120501   6.812   4.392   3.036
 6534SOL    HW220502   6.861   4.260   3.119
 6535SOL     OW20503   4.930   4.165   5.447
 6535SOL    HW120504   4.941   4.185   5.544
 6535SOL    HW220505   4.958   4.070   5.429
 6536SOL     OW20506   0.568   4.210   5.833
 6536SOL    HW120507   0.606   4.288   5.884
 6536SOL    HW220508   0.643   4.159   5.791
 6537SOL     OW20509   6.724   5.264   3.632
 6537SOL    HW120510   6.655   5.200   3.668
 6537SOL    HW220511   6.680   5.327   3.569
 6538SOL     OW20512   1.127   2.498   4.405
 6538SOL    HW120513   1.077   2.584   4.416
 6538SOL    HW220514   1.106   2.458   4.316
 6539SOL     OW20515   4.395   6.791   6.160
 6539SOL    HW120516   4.436   6.703   6.135
 6539SOL    HW220517   4.360   6.785   6.253
 6540SOL     OW20518   6.975   2.597   5.566
 6540SOL    HW120519   6.929   2.584   5.654
 6540SOL    HW220520   6.955   2.689   5.531
 6541SOL     OW20521   4.879   1.879   5.603
 6541SOL    HW120522   4.888   1.832   5.515
 6541SOL    HW220523   4.914   1.820   5.676
 6542SOL     OW20524   1.598   3.832   2.794
 6542SOL    HW120525   1.653   3.808   2.714
 6542SOL    HW220526   1.520   3.887   2.766
 6543SOL     OW20527   4.094   1.414   4.975
 6543SOL    HW120528   4.146   1.465   4.906
 6543SOL    HW220529   4.128   1.438   5.066
 6544SOL     OW20530   0.554   0.067   0.893
 6544SOL    HW120531   0.497   0.135   0.939
 6544SOL    HW220532   0.643   0.107   0.870
 6545SOL     OW20533   4.934   6.618   1.522
 6545SOL    HW120534   4.869   6.689   1.494
 6545SOL    HW220535   4.913   6.533   1.473
 6546SOL     OW20536   5.156   4.753   6.190
 6546SOL    HW120537   5.207   4.670   6.165
 6546SOL    HW220538   5.101   4.735   6.271
 6547SOL     OW20539   1.028   6.225   5.101
 6547SOL    HW120540   0.967   6.285   5.050
 6547SOL    HW220541   0.980   6.141   5.126
 6548SOL     OW20542   0.344   1.678   6.278
 6548SOL    HW120543   0.332   1.645   6.184
 6548SOL    HW220544   0.441   1.693   6.296
 6549SOL     OW20545   4.135   1.815   3.085
 6549SOL    HW120546   4.087   1.786   3.002
 6549SOL    HW220547   4.154   1.736   3.142
 6550SOL     OW20548   6.115   6.367   2.834
 6550SOL    HW120549   6.134   6.412   2.747
 6550SOL    HW220550   6.155   6.420   2.909
 6551SOL     OW20551   2.681   4.706   0.826
 6551SOL    HW120552   2.686   4.642   0.903
 6551SOL    HW220553   2.751   4.776   0.837
 6552SOL     OW20554   1.961   4.796   0.162
 6552SOL    HW120555   1.918   4.776   0.073
 6552SOL    HW220556   1.890   4.816   0.229
 6553SOL     OW20557   0.710   1.868   3.769
 6553SOL    HW120558   0.673   1.914   3.688
 6553SOL    HW220559   0.807   1.850   3.755
 6554SOL     OW20560   1.549   2.792   4.159
 6554SOL    HW120561   1.615   2.826   4.225
 6554SOL    HW220562   1.585   2.804   4.066
 6555SOL     OW20563   0.469   3.928   4.170
 6555SOL    HW120564   0.477   3.914   4.269
 6555SOL    HW220565   0.412   3.856   4.131
 6556SOL     OW20566   4.716   2.545   2.739
 6556SOL    HW120567   4.672   2.542   2.649
 6556SOL    HW220568   4.772   2.627   2.745
 6557SOL     OW20569   1.996   1.189   2.382
 6557SOL    HW120570   2.085   1.233   2.393
 6557SOL    HW220571   1.996   1.103   2.432
 6558SOL     OW20572   5.142   6.119   0.460
 6558SOL    HW120573   5.213   6.177   0.500
 6558SOL    HW220574   5.183   6.033   0.429
 6559SOL     OW20575   6.664   2.668   5.895
 6559SOL    HW120576   6.658   2.650   5.796
 6559SOL    HW220577   6.572   2.677   5.933
 6560SOL     OW20578   6.270   4.756   0.027
 6560SOL    HW120579   6.255   4.735   0.123
 6560SOL    HW220580   6.333   4.690   7.007
 6561SOL     OW20581   2.801   4.160   0.457
 6561SOL    HW120582   2.759   4.109   0.382
 6561SOL    HW220583   2.805   4.103   0.539
 6562SOL     OW20584   4.873   2.513   1.828
 6562SOL    HW120585   4.838   2.602   1.856
 6562SOL    HW220586   4.959   2.495   1.876
 6563SOL     OW20587   6.244   5.246   5.456
 6563SOL    HW120588   6.247   5.337   5.497
 6563SOL    HW220589   6.152   5.208   5.467
 6564SOL     OW20590   5.740   3.228   2.533
 6564SOL    HW120591   5.673   3.163   2.567
 6564SOL    HW220592   5.732   3.236   2.434
 6565SOL     OW20593   5.286   6.744   2.750
 6565SOL    HW120594   5.364   6.772   2.804
 6565SOL    HW220595   5.218   6.817   2.749
 6566SOL     OW20596   5.158   5.487   3.916
 6566SOL    HW120597   5.081   5.549   3.903
 6566SOL    HW220598   5.210   5.515   3.998
 6567SOL     OW20599   3.905   0.669   2.225
 6567SOL    HW120600   4.002   0.666   2.202
 6567SOL    HW220601   3.877   0.582   2.267
 6568SOL     OW20602   4.849   1.290   0.982
 6568SOL    HW120603   4.884   1.310   0.890
 6568SOL    HW220604   4.760   1.334   0.994
 6569SOL     OW20605   1.026   4.855   4.376
 6569SOL    HW120606   0.966   4.920   4.423
 6569SOL    HW220607   1.111   4.846   4.428
 6570SOL     OW20608   4.387   6.858   2.246
 6570SOL    HW120609   4.473   6.909   2.245
 6570SOL    HW220610   4.405   6.763   2.272
 6571SOL     OW20611   3.099   6.247   3.318
 6571SOL    HW120612   3.115   6.326   3.258
 6571SOL    HW220613   3.108   6.163   3.264
 6572SOL     OW20614   2.051   5.958   3.784
 6572SOL    HW120615   1.990   5.879   3.788
 6572SOL    HW220616   2.008   6.035   3.832
 6573SOL     OW20617   0.110   2.117   3.468
 6573SOL    HW120618   0.095   2.146   3.373
 6573SOL    HW220619   0.043   2.046   3.491
 6574SOL     OW20620   1.387   4.564   1.969
 6574SOL    HW120621   1.308   4.573   1.907
 6574SOL    HW220622   1.446   4.491   1.936
 6575SOL     OW20623   0.282   1.347   3.539
 6575SOL    HW120624   0.245   1.395   3.619
 6575SOL    HW220625   0.373   1.312   3.561
 6576SOL     OW20626   4.094   6.978   1.748
 6576SOL    HW120627   4.074   6.886   1.713
 6576SOL    HW220628   4.010   0.002   1.778
 6577SOL     OW20629   3.556   1.108   4.439
 6577SOL    HW120630   3.579   1.023   4.485
 6577SOL    HW220631   3.496   1.090   4.362
 6578SOL     OW20632   1.136   4.495   0.687
 6578SOL    HW120633   1.079   4.415   0.666
 6578SOL    HW220634   1.080   4.565   0.731
 6579SOL     OW20635   0.971   0.982   3.772
 6579SOL    HW120636   0.876   1.010   3.758
 6579SOL    HW220637   0.978   0.924   3.853
 6580SOL     OW20638   2.608   2.013   0.290
 6580SOL    HW120639   2.630   1.952   0.214
 6580SOL    HW220640   2.518   2.053   0.276
 6581SOL     OW20641   0.849   2.425   1.093
 6581SOL    HW120642   0.809   2.374   1.170
 6581SOL    HW220643   0.945   2.398   1.082
 6582SOL     OW20644   5.723   0.864   3.083
 6582SOL    HW120645   5.649   0.909   3.132
 6582SOL    HW220646   5.692   0.841   2.990
 6583SOL     OW20647   3.042   4.402   0.095
 6583SOL    HW120648   3.118   4.337   0.103
 6583SOL    HW220649   3.022   4.441   0.185
 6584SOL     OW20650   4.353   1.791   6.337
 6584SOL    HW120651   4.397   1.761   6.253
 6584SOL    HW220652   4.335   1.890   6.331
 6585SOL     OW20653   5.839   0.035   2.138
 6585SOL    HW120654   5.828   0.038   2.237
 6585SOL    HW220655   5.902   0.107   2.109
 6586SOL     OW20656   6.608   1.264   6.503
 6586SOL    HW120657   6.624   1.352   6.549
 6586SOL    HW220658   6.512   1.239   6.512
 6587SOL     OW20659   2.745   5.351   4.945
 6587SOL    HW120660   2.815   5.366   4.876
 6587SOL    HW220661   2.749   5.423   5.014
 6588SOL     OW20662   0.379   2.173   0.595
 6588SOL    HW120663   0.392   2.131   0.506
 6588SOL    HW220664   0.307   2.243   0.588
 6589SOL     OW20665   6.823   6.263   2.221
 6589SOL    HW120666   6.858   6.170   2.208
 6589SOL    HW220667   6.796   6.275   2.317
 6590SOL     OW20668   1.378   6.095   4.529
 6590SOL    HW120669   1.437   6.164   4.486
 6590SOL    HW220670   1.337   6.133   4.611
 6591SOL     OW20671   6.025   3.163   3.718
 6591SOL    HW120672   6.028   3.225   3.796
 6591SOL    HW220673   6.116   3.124   3.703
 6592SOL     OW20674   6.345   6.801   3.849
 6592SOL    HW120675   6.280   6.809   3.925
 6592SOL    HW220676   6.368   6.705   3.834
 6593SOL     OW20677   1.879   1.293   1.969
 6593SOL    HW120678   1.787   1.332   1.976
 6593SOL    HW220679   1.938   1.333   2.039
 6594SOL     OW20680   5.053   6.851   0.136
 6594SOL    HW120681   5.005   6.781   0.083
 6594SOL    HW220682   5.119   6.897   0.077
 6595SOL     OW20683   0.962   1.565   5.195
 6595SOL    HW120684   0.910   1.574   5.280
 6595SOL    HW220685   1.060   1.576   5.214
 6596SOL     OW20686   5.075   1.035   2.440
 6596SOL    HW120687   4.992   1.083   2.412
 6596SOL    HW220688   5.119   0.994   2.360
 6597SOL     OW20689   0.624   4.828   1.138
 6597SOL    HW120690   0.717   4.793   1.130
 6597SOL    HW220691   0.580   4.826   1.048
 6598SOL     OW20692   1.655   4.949   3.265
 6598SOL    HW120693   1.724   4.892   3.221
 6598SOL    HW220694   1.569   4.942   3.215
 6599SOL     OW20695   0.377   5.713   6.169
 6599SOL    HW120696   0.345   5.675   6.083
 6599SOL    HW220697   0.322   5.793   6.193
 6600SOL     OW20698   4.806   6.922   5.306
 6600SOL    HW120699   4.847   6.850   5.362
 6600SOL    HW220700   4.801   7.007   5.360
 6601SOL     OW20701   1.481   2.257   1.912
 6601SOL    HW120702   1.392   2.239   1.869
 6601SOL    HW220703   1.548   2.282   1.842
 6602SOL     OW20704   6.938   5.446   1.619
 6602SOL    HW120705   6.989   5.394   1.688
 6602SOL    HW220706   6.998   5.512   1.575
 6603SOL     OW20707   0.391   4.671   2.107
 6603SOL    HW120708   0.447   4.717   2.176
 6603SOL    HW220709   0.408   4.573   2.110
 6604SOL     OW20710   1.643   5.530   3.690
 6604SOL    HW120711   1.709   5.455   3.682
 6604SOL    HW220712   1.674   5.595   3.760
 6605SOL     OW20713   6.943   5.700   0.801
 6605SOL    HW120714   6.993   5.625   0.844
 6605SOL    HW220715   7.002   5.748   0.736
 6606SOL     OW20716   1.506   3.565   2.894
 6606SOL    HW120717   1.568   3.641   2.872
 6606SOL    HW220718   1.552   3.478   2.876
 6607SOL     OW20719   6.343   3.322   4.040
 6607SOL    HW120720   6.346   3.258   3.963
 6607SOL    HW220721   6.349   3.270   4.126
 6608SOL     OW20722   1.503   6.917   5.553
 6608SOL    HW120723   1.583   6.909   5.494
 6608SOL    HW220724   1.499   6.838   5.614
 6609SOL     OW20725   4.360   1.820   6.602
 6609SOL    HW120726   4.323   1.739   6.648
 6609SOL    HW220727   4.372   1.801   6.505
 6610SOL     OW20728   2.957   5.911   1.063
 6610SOL    HW120729   3.049   5.877   1.084
 6610SOL    HW220730   2.927   5.975   1.134
 6611SOL     OW20731   2.709   1.779   5.051
 6611SOL    HW120732   2.655   1.847   5.099
 6611SOL    HW220733   2.785   1.823   5.003
 6612SOL     OW20734   0.569   0.455   7.008
 6612SOL    HW120735   0.601   0.549   0.002
 6612SOL    HW220736   0.609   0.397   0.060
 6613SOL     OW20737   4.535   6.426   0.232
 6613SOL    HW120738   4.564   6.521   0.245
 6613SOL    HW220739   4.598   6.365   0.282
 6614SOL     OW20740   3.880   5.089   0.770
 6614SOL    HW120741   3.821   5.167   0.746
 6614SOL    HW220742   3.824   5.006   0.774
 6615SOL     OW20743   3.524   5.796   5.948
 6615SOL    HW120744   3.519   5.712   6.003
 6615SOL    HW220745   3.594   5.856   5.986
 6616SOL     OW20746   4.135   1.217   6.960
 6616SOL    HW120747   4.213   1.279   6.971
 6616SOL    HW220748   4.156   1.150   6.888
 6617SOL     OW20749   3.619   0.798   3.669
 6617SOL    HW120750   3.603   0.724   3.603
 6617SOL    HW220751   3.538   0.809   3.727
 6618SOL     OW20752   5.700   2.068   4.261
 6618SOL    HW120753   5.747   1.985   4.233
 6618SOL    HW220754   5.627   2.046   4.325
 6619SOL     OW20755   4.998   5.264   3.921
 6619SOL    HW120756   5.039   5.354   3.934
 6619SOL    HW220757   5.029   5.225   3.834
 6620SOL     OW20758   1.300   2.664   3.365
 6620SOL    HW120759   1.367   2.652   3.439
 6620SOL    HW220760   1.323   2.746   3.313
 6621SOL     OW20761   2.855   3.436   3.952
 6621SOL    HW120762   2.858   3.459   4.050
 6621SOL    HW220763   2.777   3.483   3.910
 6622SOL     OW20764   7.011   5.195   1.072
 6622SOL    HW120765   0.054   5.199   0.994
 6622SOL    HW220766   0.042   5.165   1.153
 6623SOL     OW20767   3.032   3.974   4.195
 6623SOL    HW120768   2.962   3.912   4.159
 6623SOL    HW220769   3.051   3.951   4.290
 6624SOL     OW20770   2.503   2.574   2.698
 6624SOL    HW120771   2.519   2.533   2.608
 6624SOL    HW220772   2.451   2.659   2.687
 6625SOL     OW20773   6.746   3.936   5.529
 6625SOL    HW120774   6.764   3.960   5.434
 6625SOL    HW220775   6.777   4.011   5.588
 6626SOL     OW20776   3.271   5.749   5.537
 6626SOL    HW120777   3.357   5.798   5.519
 6626SOL    HW220778   3.287   5.650   5.529
 6627SOL     OW20779   2.209   6.564   4.067
 6627SOL    HW120780   2.219   6.505   4.147
 6627SOL    HW220781   2.171   6.652   4.096
 6628SOL     OW20782   4.027   6.705   3.150
 6628SOL    HW120783   3.974   6.790   3.151
 6628SOL    HW220784   3.995   6.645   3.223
 6629SOL     OW20785   5.198   5.404   5.180
 6629SOL    HW120786   5.157   5.438   5.265
 6629SOL    HW220787   5.287   5.362   5.201
 6630SOL     OW20788   1.695   1.138   0.298
 6630SOL    HW120789   1.737   1.146   0.207
 6630SOL    HW220790   1.707   1.223   0.348
 6631SOL     OW20791   2.103   3.298   5.630
 6631SOL    HW120792   2.084   3.216   5.577
 6631SOL    HW220793   2.202   3.307   5.643
 6632SOL     OW20794   1.324   0.141   6.883
 6632SOL    HW120795   1.225   0.151   6.882
 6632SOL    HW220796   1.367   0.227   6.854
 6633SOL     OW20797   4.285   5.635   6.379
 6633SOL    HW120798   4.201   5.601   6.337
 6633SOL    HW220799   4.304   5.727   6.346
 6634SOL     OW20800   3.684   2.060   4.230
 6634SOL    HW120801   3.748   2.090   4.300
 6634SOL    HW220802   3.693   2.118   4.149
 6635SOL     OW20803   5.229   5.117   5.240
 6635SOL    HW120804   5.288   5.077   5.171
 6635SOL    HW220805   5.143   5.065   5.246
 6636SOL     OW20806   4.302   1.059   6.814
 6636SOL    HW120807   4.344   1.019   6.895
 6636SOL    HW220808   4.300   0.992   6.740
 6637SOL     OW20809   0.201   2.329   0.221
 6637SOL    HW120810   0.190   2.348   0.124
 6637SOL    HW220811   0.215   2.415   0.270
 6638SOL     OW20812   2.932   3.840   3.695
 6638SOL    HW120813   2.929   3.745   3.662
 6638SOL    HW220814   2.867   3.850   3.771
 6639SOL     OW20815   5.137   2.501   1.322
 6639SOL    HW120816   5.217   2.444   1.306
 6639SOL    HW220817   5.165   2.596   1.332
 6640SOL     OW20818   1.595   4.148   4.809
 6640SOL    HW120819   1.693   4.135   4.823
 6640SOL    HW220820   1.560   4.073   4.752
 6641SOL     OW20821   5.910   2.389   0.344
 6641SOL    HW120822   5.837   2.444   0.303
 6641SOL    HW220823   5.985   2.449   0.371
 6642SOL     OW20824   1.458   5.883   0.326
 6642SOL    HW120825   1.494   5.874   0.419
 6642SOL    HW220826   1.512   5.951   0.276
 6643SOL     OW20827   2.999   6.023   6.474
 6643SOL    HW120828   3.088   6.027   6.430
 6643SOL    HW220829   2.951   6.109   6.461
 6644SOL     OW20830   2.193   0.117   3.709
 6644SOL    HW120831   2.216   0.185   3.779
 6644SOL    HW220832   2.251   0.036   3.722
 6645SOL     OW20833   5.263   2.811   6.282
 6645SOL    HW120834   5.235   2.904   6.303
 6645SOL    HW220835   5.182   2.752   6.277
 6646SOL     OW20836   3.490   0.082   5.570
 6646SOL    HW120837   3.510   7.004   5.579
 6646SOL    HW220838   3.497   0.109   5.474
 6647SOL     OW20839   3.997   4.849   0.623
 6647SOL    HW120840   3.944   4.934   0.616
 6647SOL    HW220841   4.085   4.861   0.578
 6648SOL     OW20842   3.120   5.846   5.242
 6648SOL    HW120843   3.078   5.870   5.155
 6648SOL    HW220844   3.173   5.761   5.232
 6649SOL     OW20845   4.693   2.603   6.233
 6649SOL    HW120846   4.675   2.560   6.145
 6649SOL    HW220847   4.766   2.671   6.224
 6650SOL     OW20848   1.406   1.312   5.849
 6650SOL    HW120849   1.358   1.330   5.762
 6650SOL    HW220850   1.417   1.214   5.861
 6651SOL     OW20851   6.920   1.671   5.822
 6651SOL    HW120852   6.844   1.694   5.761
 6651SOL    HW220853   6.885   1.658   5.915
 6652SOL     OW20854   6.941   5.077   0.625
 6652SOL    HW120855   6.964   5.045   0.717
 6652SOL    HW220856   0.006   5.093   0.573
 6653SOL     OW20857   5.674   4.773   0.205
 6653SOL    HW120858   5.717   4.813   0.124
 6653SOL    HW220859   5.654   4.676   0.188
 6654SOL     OW20860   6.351   3.413   3.663
 6654SOL    HW120861   6.368   3.475   3.740
 6654SOL    HW220862   6.381   3.321   3.687
 6655SOL     OW20863   0.205   5.892   1.566
 6655SOL    HW120864   0.186   5.988   1.547
 6655SOL    HW220865   0.131   5.853   1.620
 6656SOL     OW20866   4.047   1.331   3.163
 6656SOL    HW120867   4.023   1.405   3.101
 6656SOL    HW220868   4.146   1.317   3.163
 6657SOL     OW20869   5.499   1.433   4.415
 6657SOL    HW120870   5.512   1.507   4.349
 6657SOL    HW220871   5.442   1.466   4.490
 6658SOL     OW20872   6.606   6.200   5.393
 6658SOL    HW120873   6.585   6.135   5.466
 6658SOL    HW220874   6.522   6.223   5.344
 6659SOL     OW20875   0.649   5.201   1.513
 6659SOL    HW120876   0.580   5.195   1.441
 6659SOL    HW220877   0.653   5.114   1.563
 6660SOL     OW20878   6.845   0.343   4.644
 6660SOL    HW120879   6.892   0.374   4.561
 6660SOL    HW220880   6.815   0.248   4.631
 6661SOL     OW20881   3.984   5.440   4.038
 6661SOL    HW120882   3.930   5.521   4.062
 6661SOL    HW220883   3.989   5.431   3.939
 6662SOL     OW20884   3.681   6.594   2.731
 6662SOL    HW120885   3.762   6.586   2.788
 6662SOL    HW220886   3.600   6.607   2.788
 6663SOL     OW20887   0.934   4.365   6.063
 6663SOL    HW120888   0.927   4.324   6.154
 6663SOL    HW220889   0.994   4.445   6.066
 6664SOL     OW20890   2.732   0.262   1.328
 6664SOL    HW120891   2.709   0.340   1.386
 6664SOL    HW220892   2.815   0.218   1.363
 6665SOL     OW20893   2.866   0.744   6.823
 6665SOL    HW120894   2.887   0.651   6.793
 6665SOL    HW220895   2.939   0.778   6.882
 6666SOL     OW20896   3.800   6.167   4.806
 6666SOL    HW120897   3.897   6.178   4.783
 6666SOL    HW220898   3.786   6.078   4.849
 6667SOL     OW20899   1.178   5.661   6.537
 6667SOL    HW120900   1.193   5.760   6.539
 6667SOL    HW220901   1.242   5.619   6.472
 6668SOL     OW20902   0.390   4.368   0.601
 6668SOL    HW120903   0.378   4.467   0.605
 6668SOL    HW220904   0.309   4.324   0.641
 6669SOL     OW20905   1.515   2.069   3.209
 6669SOL    HW120906   1.543   2.160   3.178
 6669SOL    HW220907   1.545   2.056   3.303
 6670SOL     OW20908   3.519   3.244   0.355
 6670SOL    HW120909   3.578   3.191   0.415
 6670SOL    HW220910   3.563   3.257   0.267
 6671SOL     OW20911   4.543   4.905   0.319
 6671SOL    HW120912   4.526   4.825   0.261
 6671SOL    HW220913   4.500   4.985   0.277
 6672SOL     OW20914   1.108   1.829   1.602
 6672SOL    HW120915   1.104   1.903   1.536
 6672SOL    HW220916   1.183   1.767   1.578
 6673SOL     OW20917   6.148   2.617   4.153
 6673SOL    HW120918   6.119   2.692   4.212
 6673SOL    HW220919   6.111   2.631   4.060
 6674SOL     OW20920   0.216   1.420   0.679
 6674SOL    HW120921   0.256   1.510   0.666
 6674SOL    HW220922   0.285   1.357   0.716
 6675SOL     OW20923   4.900   0.462   6.802
 6675SOL    HW120924   4.941   0.548   6.772
 6675SOL    HW220925   4.970   0.391   6.805
 6676SOL     OW20926   0.425   4.214   4.327
 6676SOL    HW120927   0.428   4.184   4.422
 6676SOL    HW220928   0.519   4.225   4.293
 6677SOL     OW20929   0.905   1.983   6.485
 6677SOL    HW120930   0.854   1.901   6.458
 6677SOL    HW220931   0.966   2.009   6.410
 6678SOL     OW20932   2.846   4.494   6.370
 6678SOL    HW120933   2.838   4.490   6.271
 6678SOL    HW220934   2.899   4.574   6.397
 6679SOL     OW20935   1.511   0.517   3.973
 6679SOL    HW120936   1.488   0.489   4.066
 6679SOL    HW220937   1.461   0.460   3.908
 6680SOL     OW20938   6.295   5.762   1.183
 6680SOL    HW120939   6.375   5.726   1.231
 6680SOL    HW220940   6.326   5.819   1.106
 6681SOL     OW20941   3.498   6.271   1.742
 6681SOL    HW120942   3.479   6.364   1.774
 6681SOL    HW220943   3.593   6.247   1.762
 6682SOL     OW20944   3.256   5.690   5.830
 6682SOL    HW120945   3.344   5.695   5.876
 6682SOL    HW220946   3.267   5.717   5.734
 6683SOL     OW20947   0.043   5.237   5.984
 6683SOL    HW120948   0.055   5.175   5.905
 6683SOL    HW220949   0.045   5.183   6.068
 6684SOL     OW20950   2.730   5.760   6.880
 6684SOL    HW120951   2.665   5.694   6.919
 6684SOL    HW220952   2.822   5.737   6.912
 6685SOL     OW20953   5.238   2.867   0.884
 6685SOL    HW120954   5.182   2.795   0.923
 6685SOL    HW220955   5.320   2.881   0.940
 6686SOL     OW20956   5.084   5.017   4.988
 6686SOL    HW120957   5.180   4.992   4.996
 6686SOL    HW220958   5.075   5.117   4.996
 6687SOL     OW20959   6.922   1.450   1.667
 6687SOL    HW120960   6.931   1.364   1.718
 6687SOL    HW220961   6.954   1.436   1.573
 6688SOL     OW20962   4.048   4.912   0.240
 6688SOL    HW120963   4.068   4.932   0.144
 6688SOL    HW220964   3.960   4.952   0.264
 6689SOL     OW20965   2.713   4.116   5.555
 6689SOL    HW120966   2.780   4.079   5.491
 6689SOL    HW220967   2.760   4.149   5.637
 6690SOL     OW20968   0.599   0.319   6.654
 6690SOL    HW120969   0.578   0.387   6.723
 6690SOL    HW220970   0.544   0.237   6.671
 6691SOL     OW20971   2.934   1.674   2.361
 6691SOL    HW120972   3.032   1.691   2.355
 6691SOL    HW220973   2.891   1.688   2.272
 6692SOL     OW20974   4.625   5.579   2.259
 6692SOL    HW120975   4.551   5.516   2.285
 6692SOL    HW220976   4.586   5.661   2.218
 6693SOL     OW20977   3.613   1.423   5.303
 6693SOL    HW120978   3.575   1.447   5.213
 6693SOL    HW220979   3.559   1.468   5.375
 6694SOL     OW20980   4.201   4.303   1.179
 6694SOL    HW120981   4.109   4.316   1.215
 6694SOL    HW220982   4.252   4.389   1.184
 6695SOL     OW20983   2.708   2.146   0.525
 6695SOL    HW120984   2.684   2.109   0.435
 6695SOL    HW220985   2.781   2.089   0.565
 6696SOL     OW20986   4.116   3.402   4.204
 6696SOL    HW120987   4.024   3.420   4.238
 6696SOL    HW220988   4.159   3.488   4.176
 6697SOL     OW20989   4.591   2.148   2.089
 6697SOL    HW120990   4.611   2.143   2.187
 6697SOL    HW220991   4.497   2.179   2.076
 6698SOL     OW20992   4.071   4.208   1.581
 6698SOL    HW120993   4.049   4.154   1.663
 6698SOL    HW220994   3.989   4.216   1.524
 6699SOL     OW20995   1.373   3.080   5.586
 6699SOL    HW120996   1.412   3.151   5.528
 6699SOL    HW220997   1.368   2.994   5.534
 6700SOL     OW20998   5.773   0.131   0.915
 6700SOL    HW120999   5.836   0.176   0.978
 6700SOL    HW221000   5.754   0.038   0.947
 6701SOL     OW21001   6.327   6.720   1.472
 6701SOL    HW121002   6.381   6.636   1.464
 6701SOL    HW221003   6.246   6.702   1.529
 6702SOL     OW21004   3.858   3.299   0.922
 6702SOL    HW121005   3.903   3.362   0.858
 6702SOL    HW221006   3.762   3.288   0.896
 6703SOL     OW21007   6.930   1.485   0.213
 6703SOL    HW121008   6.887   1.512   0.127
 6703SOL    HW221009   6.927   1.562   0.277
 6704SOL     OW21010   3.281   6.781   5.812
 6704SOL    HW121011   3.300   6.808   5.907
 6704SOL    HW221012   3.358   6.808   5.754
 6705SOL     OW21013   0.156   4.403   2.228
 6705SOL    HW121014   0.193   4.310   2.230
 6705SOL    HW221015   0.216   4.464   2.280
 6706SOL     OW21016   0.314   6.835   1.628
 6706SOL    HW121017   0.312   6.775   1.548
 6706SOL    HW221018   0.382   6.907   1.613
 6707SOL     OW21019   4.769   1.276   2.593
 6707SOL    HW121020   4.762   1.183   2.556
 6707SOL    HW221021   4.706   1.336   2.545
 6708SOL     OW21022   0.955   2.949   0.051
 6708SOL    HW121023   0.906   3.026   0.092
 6708SOL    HW221024   1.003   2.898   0.123
 6709SOL     OW21025   2.285   4.230   2.472
 6709SOL    HW121026   2.326   4.156   2.525
 6709SOL    HW221027   2.328   4.233   2.381
 6710SOL     OW21028   4.635   1.464   1.003
 6710SOL    HW121029   4.551   1.498   0.960
 6710SOL    HW221030   4.627   1.469   1.102
 6711SOL     OW21031   3.120   6.007   5.969
 6711SOL    HW121032   3.071   6.084   6.009
 6711SOL    HW221033   3.054   5.935   5.945
 6712SOL     OW21034   5.380   4.580   1.294
 6712SOL    HW121035   5.321   4.660   1.305
 6712SOL    HW221036   5.474   4.611   1.277
 6713SOL     OW21037   1.345   5.404   4.559
 6713SOL    HW121038   1.369   5.459   4.480
 6713SOL    HW221039   1.277   5.335   4.533
 6714SOL     OW21040   5.492   1.287   1.492
 6714SOL    HW121041   5.407   1.330   1.520
 6714SOL    HW221042   5.479   1.188   1.487
 6715SOL     OW21043   1.707   0.326   6.229
 6715SOL    HW121044   1.739   0.315   6.323
 6715SOL    HW221045   1.661   0.414   6.219
 6716SOL     OW21046   0.048   5.718   2.191
 6716SOL    HW121047   0.106   5.670   2.257
 6716SOL    HW221048   0.105   5.768   2.126
 6717SOL     OW21049   5.533   1.804   5.878
 6717SOL    HW121050   5.597   1.745   5.928
 6717SOL    HW221051   5.553   1.900   5.900
 6718SOL     OW21052   4.537   1.483   1.253
 6718SOL    HW121053   4.475   1.432   1.312
 6718SOL    HW221054   4.521   1.581   1.264
 6719SOL     OW21055   1.932   1.666   6.994
 6719SOL    HW121056   1.852   1.621   0.014
 6719SOL    HW221057   1.929   1.764   7.017
 6720SOL     OW21058   1.291   0.765   6.204
 6720SOL    HW121059   1.262   0.860   6.217
 6720SOL    HW221060   1.253   0.729   6.119
 6721SOL     OW21061   6.068   6.805   0.975
 6721SOL    HW121062   6.092   6.852   1.060
 6721SOL    HW221063   5.983   6.842   0.939
 6722SOL     OW21064   5.594   3.554   0.094
 6722SOL    HW121065   5.508   3.600   0.072
 6722SOL    HW221066   5.589   3.515   0.186
 6723SOL     OW21067   0.952   2.762   5.774
 6723SOL    HW121068   1.031   2.805   5.815
 6723SOL    HW221069   0.982   2.686   5.716
 6724SOL     OW21070   2.078   3.614   4.313
 6724SOL    HW121071   2.063   3.672   4.233
 6724SOL    HW221072   2.073   3.518   4.286
 6725SOL     OW21073   4.939   2.897   3.413
 6725SOL    HW121074   5.030   2.891   3.454
 6725SOL    HW221075   4.940   2.967   3.342
 6726SOL     OW21076   0.373   0.469   6.046
 6726SOL    HW121077   0.403   0.461   6.141
 6726SOL    HW221078   0.292   0.412   6.032
 6727SOL     OW21079   1.243   5.073   5.523
 6727SOL    HW121080   1.235   5.109   5.430
 6727SOL    HW221081   1.315   5.004   5.526
 6728SOL     OW21082   3.524   1.280   3.530
 6728SOL    HW121083   3.608   1.233   3.558
 6728SOL    HW221084   3.445   1.229   3.564
 6729SOL     OW21085   4.239   1.057   2.094
 6729SOL    HW121086   4.255   0.973   2.146
 6729SOL    HW221087   4.224   1.035   1.998
 6730SOL     OW21088   6.960   1.599   0.933
 6730SOL    HW121089   6.978   1.685   0.886
 6730SOL    HW221090   7.008   1.597   1.020
 6731SOL     OW21091   3.898   0.152   6.539
 6731SOL    HW121092   3.898   0.166   6.440
 6731SOL    HW221093   3.992   0.148   6.572
 6732SOL     OW21094   0.117   5.084   5.769
 6732SOL    HW121095   0.183   5.017   5.802
 6732SOL    HW221096   0.162   5.147   5.706
 6733SOL     OW21097   4.804   4.887   5.459
 6733SOL    HW121098   4.814   4.845   5.549
 6733SOL    HW221099   4.893   4.895   5.415
 6734SOL     OW21100   6.093   1.780   4.248
 6734SOL    HW121101   6.023   1.715   4.220
 6734SOL    HW221102   6.137   1.748   4.332
 6735SOL     OW21103   6.697   2.744   3.428
 6735SOL    HW121104   6.609   2.784   3.404
 6735SOL    HW221105   6.688   2.691   3.512
 6736SOL     OW21106   3.575   3.525   0.880
 6736SOL    HW121107   3.618   3.438   0.855
 6736SOL    HW221108   3.579   3.538   0.979
 6737SOL     OW21109   6.702   3.772   0.241
 6737SOL    HW121110   6.730   3.777   0.145
 6737SOL    HW221111   6.656   3.685   0.258
 6738SOL     OW21112   1.260   5.940   4.098
 6738SOL    HW121113   1.355   5.915   4.119
 6738SOL    HW221114   1.210   5.951   4.184
 6739SOL     OW21115   0.061   0.083   5.385
 6739SOL    HW121116   7.014   0.014   5.414
 6739SOL    HW221117   0.122   0.105   5.462
 6740SOL     OW21118   0.401   0.069   2.978
 6740SOL    HW121119   0.481   0.127   2.968
 6740SOL    HW221120   0.375   0.032   2.888
 6741SOL     OW21121   3.759   1.953   0.257
 6741SOL    HW121122   3.785   1.859   0.234
 6741SOL    HW221123   3.764   2.010   0.175
 6742SOL     OW21124   5.983   4.347   3.455
 6742SOL    HW121125   5.915   4.405   3.499
 6742SOL    HW221126   5.972   4.253   3.486
 6743SOL     OW21127   3.889   3.539   0.637
 6743SOL    HW121128   3.856   3.614   0.694
 6743SOL    HW221129   3.812   3.491   0.595
 6744SOL     OW21130   6.249   6.749   6.330
 6744SOL    HW121131   6.212   6.657   6.339
 6744SOL    HW221132   6.301   6.757   6.245
 6745SOL     OW21133   0.141   4.620   5.156
 6745SOL    HW121134   0.075   4.608   5.082
 6745SOL    HW221135   0.101   4.677   5.227
 6746SOL     OW21136   1.025   2.191   2.820
 6746SOL    HW121137   1.040   2.218   2.725
 6746SOL    HW221138   0.968   2.108   2.823
 6747SOL     OW21139   1.061   6.343   5.773
 6747SOL    HW121140   0.999   6.406   5.726
 6747SOL    HW221141   1.024   6.250   5.768
 6748SOL     OW21142   1.928   1.052   4.695
 6748SOL    HW121143   2.005   1.113   4.714
 6748SOL    HW221144   1.963   0.960   4.675
 6749SOL     OW21145   4.047   5.126   2.123
 6749SOL    HW121146   3.999   5.111   2.036
 6749SOL    HW221147   4.041   5.043   2.179
 6750SOL     OW21148   3.879   1.004   4.782
 6750SOL    HW121149   3.907   1.100   4.778
 6750SOL    HW221150   3.868   0.976   4.878
 6751SOL     OW21151   4.489   0.152   4.753
 6751SOL    HW121152   4.531   0.140   4.664
 6751SOL    HW221153   4.558   0.181   4.819
 6752SOL     OW21154   1.911   4.561   2.253
 6752SOL    HW121155   1.866   4.651   2.251
 6752SOL    HW221156   2.010   4.573   2.245
 6753SOL     OW21157   4.032   3.242   6.414
 6753SOL    HW121158   4.069   3.218   6.504
 6753SOL    HW221159   4.090   3.202   6.343
 6754SOL     OW21160   6.038   1.869   0.662
 6754SOL    HW121161   5.991   1.950   0.695
 6754SOL    HW221162   5.987   1.829   0.586
 6755SOL     OW21163   2.801   5.917   6.261
 6755SOL    HW121164   2.718   5.965   6.233
 6755SOL    HW221165   2.844   5.967   6.336
 6756SOL     OW21166   3.655   2.239   6.208
 6756SOL    HW121167   3.649   2.332   6.171
 6756SOL    HW221168   3.751   2.215   6.222
 6757SOL     OW21169   4.337   0.261   0.930
 6757SOL    HW121170   4.275   0.276   1.007
 6757SOL    HW221171   4.356   0.164   0.920
 6758SOL     OW21172   5.293   2.121   3.470
 6758SOL    HW121173   5.271   2.171   3.387
 6758SOL    HW221174   5.302   2.024   3.449
 6759SOL     OW21175   0.654   1.882   2.907
 6759SOL    HW121176   0.639   1.967   2.856
 6759SOL    HW221177   0.604   1.886   2.993
 6760SOL     OW21178   5.261   2.391   4.827
 6760SOL    HW121179   5.340   2.401   4.768
 6760SOL    HW221180   5.279   2.320   4.895
 6761SOL     OW21181   3.485   1.430   5.042
 6761SOL    HW121182   3.413   1.367   5.073
 6761SOL    HW221183   3.526   1.395   4.958
 6762SOL     OW21184   6.787   5.288   4.500
 6762SOL    HW121185   6.753   5.360   4.561
 6762SOL    HW221186   6.802   5.204   4.553
 6763SOL     OW21187   5.829   5.639   4.738
 6763SOL    HW121188   5.748   5.603   4.783
 6763SOL    HW221189   5.811   5.650   4.640
 6764SOL     OW21190   1.216   4.939   0.572
 6764SOL    HW121191   1.248   5.030   0.600
 6764SOL    HW221192   1.167   4.946   0.486
 6765SOL     OW21193   0.270   4.290   2.951
 6765SOL    HW121194   0.283   4.215   2.886
 6765SOL    HW221195   0.310   4.374   2.913
 6766SOL     OW21196   5.725   0.702   1.390
 6766SOL    HW121197   5.720   0.624   1.328
 6766SOL    HW221198   5.642   0.708   1.444
 6767SOL     OW21199   3.208   0.485   0.812
 6767SOL    HW121200   3.139   0.499   0.741
 6767SOL    HW221201   3.185   0.404   0.866
 6768SOL     OW21202   1.722   0.892   0.399
 6768SOL    HW121203   1.721   0.978   0.349
 6768SOL    HW221204   1.816   0.858   0.405
 6769SOL     OW21205   4.471   2.902   1.483
 6769SOL    HW121206   4.373   2.888   1.472
 6769SOL    HW221207   4.502   2.859   1.568
 6770SOL     OW21208   0.249   1.070   1.569
 6770SOL    HW121209   0.159   1.028   1.578
 6770SOL    HW221210   0.240   1.170   1.572
 6771SOL     OW21211   4.341   1.563   3.326
 6771SOL    HW121212   4.328   1.503   3.247
 6771SOL    HW221213   4.253   1.599   3.355
 6772SOL     OW21214   3.340   1.723   3.112
 6772SOL    HW121215   3.246   1.694   3.092
 6772SOL    HW221216   3.351   1.819   3.087
 6773SOL     OW21217   0.444   3.912   1.500
 6773SOL    HW121218   0.470   3.851   1.574
 6773SOL    HW221219   0.410   3.859   1.422
 6774SOL     OW21220   0.646   2.146   6.290
 6774SOL    HW121221   0.718   2.214   6.275
 6774SOL    HW221222   0.616   2.150   6.386
 6775SOL     OW21223   2.357   4.675   0.021
 6775SOL    HW121224   2.359   4.576   0.035
 6775SOL    HW221225   2.342   4.721   0.109
 6776SOL     OW21226   5.621   5.662   6.815
 6776SOL    HW121227   5.668   5.661   6.727
 6776SOL    HW221228   5.638   5.576   6.863
 6777SOL     OW21229   5.031   5.069   6.839
 6777SOL    HW121230   5.120   5.027   6.822
 6777SOL    HW221231   4.998   5.041   6.929
 6778SOL     OW21232   0.331   6.176   3.013
 6778SOL    HW121233   0.288   6.087   3.021
 6778SOL    HW221234   0.312   6.215   2.923
 6779SOL     OW21235   0.729   4.354   0.411
 6779SOL    HW121236   0.736   4.422   0.337
 6779SOL    HW221237   0.705   4.265   0.373
 6780SOL     OW21238   0.147   2.761   2.112
 6780SOL    HW121239   0.100   2.849   2.114
 6780SOL    HW221240   0.236   2.769   2.158
 6781SOL     OW21241   6.264   5.127   6.182
 6781SOL    HW121242   6.281   5.040   6.228
 6781SOL    HW221243   6.166   5.139   6.169
 6782SOL     OW21244   6.243   1.289   2.677
 6782SOL    HW121245   6.168   1.356   2.681
 6782SOL    HW221246   6.225   1.215   2.740
 6783SOL     OW21247   0.562   6.029   6.837
 6783SOL    HW121248   0.502   6.103   6.868
 6783SOL    HW221249   0.524   5.941   6.866
 6784SOL     OW21250   3.374   2.941   0.181
 6784SOL    HW121251   3.352   2.979   0.271
 6784SOL    HW221252   3.344   2.846   0.177
 6785SOL     OW21253   6.256   6.413   2.136
 6785SOL    HW121254   6.216   6.486   2.192
 6785SOL    HW221255   6.240   6.432   2.039
 6786SOL     OW21256   1.888   3.187   6.089
 6786SOL    HW121257   1.944   3.256   6.043
 6786SOL    HW221258   1.910   3.187   6.187
 6787SOL     OW21259   1.283   3.761   1.840
 6787SOL    HW121260   1.251   3.719   1.925
 6787SOL    HW221261   1.379   3.740   1.826
 6788SOL     OW21262   2.621   4.628   1.125
 6788SOL    HW121263   2.534   4.676   1.131
 6788SOL    HW221264   2.608   4.540   1.080
 6789SOL     OW21265   0.254   6.614   3.331
 6789SOL    HW121266   0.171   6.670   3.329
 6789SOL    HW221267   0.331   6.668   3.298
 6790SOL     OW21268   1.817   3.441   0.227
 6790SOL    HW121269   1.809   3.375   0.302
 6790SOL    HW221270   1.913   3.468   0.217
 6791SOL     OW21271   3.988   3.635   6.275
 6791SOL    HW121272   3.936   3.555   6.304
 6791SOL    HW221273   3.925   3.707   6.248
 6792SOL     OW21274   0.124   5.181   0.470
 6792SOL    HW121275   0.194   5.193   0.541
 6792SOL    HW221276   0.168   5.160   0.383
 6793SOL     OW21277   6.479   1.882   1.003
 6793SOL    HW121278   6.541   1.829   1.060
 6793SOL    HW221279   6.405   1.823   0.970
 6794SOL     OW21280   4.830   1.013   5.247
 6794SOL    HW121281   4.908   1.022   5.185
 6794SOL    HW221282   4.746   1.035   5.198
 6795SOL     OW21283   2.956   5.857   0.098
 6795SOL    HW121284   3.001   5.938   0.136
 6795SOL    HW221285   2.858   5.874   0.090
 6796SOL     OW21286   4.115   2.268   2.811
 6796SOL    HW121287   4.081   2.242   2.901
 6796SOL    HW221288   4.205   2.312   2.821
 6797SOL     OW21289   6.654   3.308   2.555
 6797SOL    HW121290   6.700   3.220   2.573
 6797SOL    HW221291   6.714   3.382   2.585
 6798SOL     OW21292   6.360   6.133   2.339
 6798SOL    HW121293   6.371   6.192   2.419
 6798SOL    HW221294   6.417   6.167   2.264
 6799SOL     OW21295   5.095   6.271   1.433
 6799SOL    HW121296   4.996   6.262   1.444
 6799SOL    HW221297   5.136   6.299   1.520
 6800SOL     OW21298   3.180   4.877   6.800
 6800SOL    HW121299   3.164   4.915   6.891
 6800SOL    HW221300   3.278   4.868   6.784
 6801SOL     OW21301   1.836   1.992   2.604
 6801SOL    HW121302   1.756   2.011   2.659
 6801SOL    HW221303   1.882   2.077   2.581
 6802SOL     OW21304   2.094   5.649   2.390
 6802SOL    HW121305   2.010   5.637   2.443
 6802SOL    HW221306   2.094   5.586   2.312
 6803SOL     OW21307   5.259   2.721   0.229
 6803SOL    HW121308   5.335   2.668   0.192
 6803SOL    HW221309   5.268   2.729   0.328
 6804SOL     OW21310   1.474   6.698   3.768
 6804SOL    HW121311   1.510   6.693   3.675
 6804SOL    HW221312   1.377   6.722   3.765
 6805SOL     OW21313   5.345   0.510   4.217
 6805SOL    HW121314   5.338   0.608   4.235
 6805SOL    HW221315   5.437   0.478   4.239
 6806SOL     OW21316   4.372   0.477   5.894
 6806SOL    HW121317   4.436   0.535   5.944
 6806SOL    HW221318   4.292   0.531   5.868
 6807SOL     OW21319   3.220   2.934   6.873
 6807SOL    HW121320   3.211   2.835   6.867
 6807SOL    HW221321   3.280   2.958   6.949
 6808SOL     OW21322   1.853   3.101   5.180
 6808SOL    HW121323   1.939   3.084   5.132
 6808SOL    HW221324   1.784   3.037   5.148
 6809SOL     OW21325   1.790   4.024   6.322
 6809SOL    HW121326   1.715   3.990   6.266
 6809SOL    HW221327   1.769   4.116   6.354
 6810SOL     OW21328   6.056   1.554   2.417
 6810SOL    HW121329   6.128   1.623   2.420
 6810SOL    HW221330   6.085   1.479   2.356
 6811SOL     OW21331   4.966   5.435   1.279
 6811SOL    HW121332   4.988   5.340   1.299
 6811SOL    HW221333   4.909   5.472   1.352
 6812SOL     OW21334   3.035   3.471   2.800
 6812SOL    HW121335   2.987   3.443   2.883
 6812SOL    HW221336   2.972   3.469   2.722
 6813SOL     OW21337   4.504   3.847   1.169
 6813SOL    HW121338   4.534   3.772   1.111
 6813SOL    HW221339   4.492   3.930   1.114
 6814SOL     OW21340   2.375   3.808   0.601
 6814SOL    HW121341   2.322   3.726   0.581
 6814SOL    HW221342   2.317   3.889   0.588
 6815SOL     OW21343   2.310   0.142   1.956
 6815SOL    HW121344   2.410   0.140   1.962
 6815SOL    HW221345   2.271   0.152   2.047
 6816SOL     OW21346   6.338   4.385   1.658
 6816SOL    HW121347   6.259   4.441   1.682
 6816SOL    HW221348   6.333   4.359   1.561
 6817SOL     OW21349   0.141   1.792   6.059
 6817SOL    HW121350   0.065   1.729   6.073
 6817SOL    HW221351   0.205   1.753   5.992
 6818SOL     OW21352   3.396   6.145   2.703
 6818SOL    HW121353   3.311   6.189   2.733
 6818SOL    HW221354   3.391   6.126   2.605
 6819SOL     OW21355   3.333   1.409   3.810
 6819SOL    HW121356   3.265   1.482   3.810
 6819SOL    HW221357   3.415   1.440   3.762
 6820SOL     OW21358   0.980   4.006   3.774
 6820SOL    HW121359   0.975   3.927   3.712
 6820SOL    HW221360   1.028   4.081   3.729
 6821SOL     OW21361   2.314   1.945   4.523
 6821SOL    HW121362   2.365   1.933   4.609
 6821SOL    HW221363   2.311   1.858   4.474
 6822SOL     OW21364   5.211   2.322   5.863
 6822SOL    HW121365   5.249   2.386   5.930
 6822SOL    HW221366   5.118   2.297   5.890
 6823SOL     OW21367   3.081   3.101   1.977
 6823SOL    HW121368   3.167   3.125   2.021
 6823SOL    HW221369   3.033   3.184   1.947
 6824SOL     OW21370   1.351   4.120   6.402
 6824SOL    HW121371   1.409   4.120   6.483
 6824SOL    HW221372   1.329   4.215   6.377
 6825SOL     OW21373   4.980   6.617   3.859
 6825SOL    HW121374   4.889   6.642   3.825
 6825SOL    HW221375   5.034   6.578   3.784
 6826SOL     OW21376   1.258   2.908   2.542
 6826SOL    HW121377   1.246   2.810   2.560
 6826SOL    HW221378   1.353   2.927   2.520
 6827SOL     OW21379   6.011   6.072   4.894
 6827SOL    HW121380   5.971   6.087   4.984
 6827SOL    HW221381   6.028   5.975   4.882
 6828SOL     OW21382   1.662   2.875   1.422
 6828SOL    HW121383   1.588   2.929   1.382
 6828SOL    HW221384   1.662   2.783   1.383
 6829SOL     OW21385   4.730   5.250   3.856
 6829SOL    HW121386   4.690   5.339   3.833
 6829SOL    HW221387   4.825   5.263   3.883
 6830SOL     OW21388   5.604   1.878   3.875
 6830SOL    HW121389   5.606   1.877   3.775
 6830SOL    HW221390   5.573   1.788   3.908
 6831SOL     OW21391   0.176   1.404   6.527
 6831SOL    HW121392   0.276   1.400   6.515
 6831SOL    HW221393   0.148   1.333   6.592
 6832SOL     OW21394   3.032   5.144   2.436
 6832SOL    HW121395   3.002   5.109   2.524
 6832SOL    HW221396   3.072   5.069   2.382
 6833SOL     OW21397   3.701   5.519   0.476
 6833SOL    HW121398   3.668   5.573   0.554
 6833SOL    HW221399   3.628   5.459   0.445
 6834SOL     OW21400   3.815   5.422   2.282
 6834SOL    HW121401   3.754   5.365   2.226
 6834SOL    HW221402   3.863   5.364   2.348
 6835SOL     OW21403   3.829   6.819   4.599
 6835SOL    HW121404   3.814   6.915   4.619
 6835SOL    HW221405   3.793   6.763   4.674
 6836SOL     OW21406   3.462   6.009   6.796
 6836SOL    HW121407   3.517   5.927   6.810
 6836SOL    HW221408   3.431   6.045   6.884
 6837SOL     OW21409   1.211   2.928   1.864
 6837SOL    HW121410   1.296   2.930   1.916
 6837SOL    HW221411   1.212   3.002   1.796
 6838SOL     OW21412   2.361   1.544   6.765
 6838SOL    HW121413   2.317   1.592   6.841
 6838SOL    HW221414   2.291   1.514   6.700
 6839SOL     OW21415   4.191   1.117   1.089
 6839SOL    HW121416   4.204   1.019   1.105
 6839SOL    HW221417   4.273   1.166   1.120
 6840SOL     OW21418   1.110   2.029   6.700
 6840SOL    HW121419   1.034   1.992   6.647
 6840SOL    HW221420   1.196   1.993   6.666
 6841SOL     OW21421   6.807   3.846   6.363
 6841SOL    HW121422   6.768   3.773   6.419
 6841SOL    HW221423   6.789   3.828   6.266
 6842SOL     OW21424   1.863   4.404   2.970
 6842SOL    HW121425   1.895   4.310   2.978
 6842SOL    HW221426   1.844   4.441   3.060
 6843SOL     OW21427   4.175   6.576   6.843
 6843SOL    HW121428   4.110   6.513   6.885
 6843SOL    HW221429   4.127   6.633   6.776
 6844SOL     OW21430   5.050   0.673   5.697
 6844SOL    HW121431   4.952   0.665   5.684
 6844SOL    HW221432   5.071   0.751   5.756
 6845SOL     OW21433   5.396   1.930   2.230
 6845SOL    HW121434   5.445   1.965   2.310
 6845SOL    HW221435   5.438   1.843   2.201
 6846SOL     OW21436   2.403   4.065   0.124
 6846SOL    HW121437   2.368   4.078   0.031
 6846SOL    HW221438   2.417   3.968   0.141
 6847SOL     OW21439   6.762   3.413   3.765
 6847SOL    HW121440   6.688   3.480   3.753
 6847SOL    HW221441   6.814   3.436   3.847
 6848SOL     OW21442   6.028   4.524   3.245
 6848SOL    HW121443   6.043   4.615   3.283
 6848SOL    HW221444   6.029   4.456   3.319
 6849SOL     OW21445   2.718   3.902   6.556
 6849SOL    HW121446   2.814   3.882   6.537
 6849SOL    HW221447   2.667   3.817   6.562
 6850SOL     OW21448   4.113   1.337   4.172
 6850SOL    HW121449   4.036   1.378   4.221
 6850SOL    HW221450   4.141   1.398   4.098
 6851SOL     OW21451   2.071   3.367   3.444
 6851SOL    HW121452   2.125   3.447   3.469
 6851SOL    HW221453   2.005   3.348   3.516
 6852SOL     OW21454   2.836   4.503   6.977
 6852SOL    HW121455   2.807   4.419   6.932
 6852SOL    HW221456   2.914   4.483   0.018
 6853SOL     OW21457   5.244   3.728   6.850
 6853SOL    HW121458   5.190   3.707   6.769
 6853SOL    HW221459   5.332   3.766   6.823
 6854SOL     OW21460   6.030   6.182   6.117
 6854SOL    HW121461   6.120   6.226   6.122
 6854SOL    HW221462   6.031   6.113   6.044
 6855SOL     OW21463   4.247   5.251   3.855
 6855SOL    HW121464   4.281   5.318   3.921
 6855SOL    HW221465   4.222   5.167   3.903
 6856SOL     OW21466   0.414   1.974   6.378
 6856SOL    HW121467   0.464   1.994   6.294
 6856SOL    HW221468   0.342   1.908   6.360
 6857SOL     OW21469   0.769   3.709   5.155
 6857SOL    HW121470   0.785   3.656   5.072
 6857SOL    HW221471   0.817   3.797   5.148
 6858SOL     OW21472   2.379   3.773   1.750
 6858SOL    HW121473   2.371   3.851   1.812
 6858SOL    HW221474   2.367   3.688   1.801
 6859SOL     OW21475   1.547   1.617   2.425
 6859SOL    HW121476   1.636   1.662   2.427
 6859SOL    HW221477   1.493   1.647   2.504
 6860SOL     OW21478   0.815   6.207   2.178
 6860SOL    HW121479   0.834   6.112   2.155
 6860SOL    HW221480   0.899   6.252   2.208
 6861SOL     OW21481   5.886   3.026   5.702
 6861SOL    HW121482   5.967   3.052   5.649
 6861SOL    HW221483   5.884   3.079   5.787
 6862SOL     OW21484   0.814   4.325   4.802
 6862SOL    HW121485   0.901   4.279   4.817
 6862SOL    HW221486   0.740   4.267   4.835
 6863SOL     OW21487   6.081   0.781   5.419
 6863SOL    HW121488   6.080   0.722   5.500
 6863SOL    HW221489   6.158   0.756   5.360
 6864SOL     OW21490   0.889   3.651   5.852
 6864SOL    HW121491   0.870   3.705   5.770
 6864SOL    HW221492   0.813   3.659   5.916
 6865SOL     OW21493   2.239   0.308   3.495
 6865SOL    HW121494   2.210   0.228   3.548
 6865SOL    HW221495   2.328   0.338   3.528
 6866SOL     OW21496   1.326   4.695   0.595
 6866SOL    HW121497   1.275   4.627   0.648
 6866SOL    HW221498   1.269   4.775   0.579
 6867SOL     OW21499   2.484   3.757   6.918
 6867SOL    HW121500   2.557   3.810   6.876
 6867SOL    HW221501   2.523   3.694   6.986
 6868SOL     OW21502   2.887   5.423   3.959
 6868SOL    HW121503   2.859   5.380   3.874
 6868SOL    HW221504   2.986   5.430   3.963
 6869SOL     OW21505   3.422   1.073   6.127
 6869SOL    HW121506   3.418   1.051   6.029
 6869SOL    HW221507   3.510   1.114   6.148
 6870SOL     OW21508   5.967   2.123   0.316
 6870SOL    HW121509   6.050   2.117   0.372
 6870SOL    HW221510   5.932   2.217   0.320
 6871SOL     OW21511   6.974   3.693   2.372
 6871SOL    HW121512   6.928   3.620   2.423
 6871SOL    HW221513   6.937   3.782   2.399
 6872SOL     OW21514   1.966   3.781   0.700
 6872SOL    HW121515   1.897   3.743   0.763
 6872SOL    HW221516   1.978   3.719   0.623
 6873SOL     OW21517   0.495   4.152   3.397
 6873SOL    HW121518   0.458   4.081   3.456
 6873SOL    HW221519   0.459   4.141   3.305
 6874SOL     OW21520   5.547   6.364   3.292
 6874SOL    HW121521   5.559   6.376   3.391
 6874SOL    HW221522   5.450   6.350   3.272
 6875SOL     OW21523   2.432   1.420   0.237
 6875SOL    HW121524   2.348   1.391   0.191
 6875SOL    HW221525   2.492   1.342   0.250
 6876SOL     OW21526   4.957   5.014   3.486
 6876SOL    HW121527   5.046   5.006   3.441
 6876SOL    HW221528   4.893   4.948   3.447
 6877SOL     OW21529   0.952   3.171   1.918
 6877SOL    HW121530   0.987   3.118   1.841
 6877SOL    HW221531   1.016   3.245   1.939
 6878SOL     OW21532   2.203   1.039   4.647
 6878SOL    HW121533   2.201   0.939   4.655
 6878SOL    HW221534   2.193   1.064   4.550
 6879SOL     OW21535   1.832   0.925   1.057
 6879SOL    HW121536   1.914   0.978   1.037
 6879SOL    HW221537   1.801   0.879   0.973
 6880SOL     OW21538   1.675   5.326   6.793
 6880SOL    HW121539   1.585   5.302   6.757
 6880SOL    HW221540   1.746   5.297   6.728
 6881SOL     OW21541   0.902   2.842   0.818
 6881SOL    HW121542   0.820   2.806   0.863
 6881SOL    HW221543   0.903   2.814   0.722
 6882SOL     OW21544   2.214   6.823   6.752
 6882SOL    HW121545   2.117   6.838   6.734
 6882SOL    HW221546   2.224   6.751   6.821
 6883SOL     OW21547   4.560   0.561   0.815
 6883SOL    HW121548   4.658   0.552   0.800
 6883SOL    HW221549   4.511   0.497   0.756
 6884SOL     OW21550   1.983   4.133   3.164
 6884SOL    HW121551   2.032   4.058   3.207
 6884SOL    HW221552   1.930   4.099   3.086
 6885SOL     OW21553   5.853   5.183   4.526
 6885SOL    HW121554   5.933   5.243   4.519
 6885SOL    HW221555   5.809   5.198   4.615
 6886SOL     OW21556   5.148   2.166   0.302
 6886SOL    HW121557   5.144   2.249   0.246
 6886SOL    HW221558   5.060   2.119   0.298
 6887SOL     OW21559   5.458   5.412   5.941
 6887SOL    HW121560   5.388   5.343   5.927
 6887SOL    HW221561   5.495   5.442   5.853
 6888SOL     OW21562   6.195   4.680   6.364
 6888SOL    HW121563   6.255   4.675   6.444
 6888SOL    HW221564   6.155   4.590   6.347
 6889SOL     OW21565   6.838   2.628   6.698
 6889SOL    HW121566   6.777   2.637   6.777
 6889SOL    HW221567   6.836   2.534   6.665
 6890SOL     OW21568   4.611   4.335   3.579
 6890SOL    HW121569   4.520   4.341   3.537
 6890SOL    HW221570   4.666   4.414   3.549
 6891SOL     OW21571   1.678   1.150   1.089
 6891SOL    HW121572   1.729   1.064   1.087
 6891SOL    HW221573   1.742   1.226   1.098
 6892SOL     OW21574   2.915   0.996   4.478
 6892SOL    HW121575   2.911   1.091   4.512
 6892SOL    HW221576   2.946   0.996   4.383
 6893SOL     OW21577   6.142   3.196   0.852
 6893SOL    HW121578   6.060   3.237   0.891
 6893SOL    HW221579   6.135   3.096   0.856
 6894SOL     OW21580   5.656   5.244   0.582
 6894SOL    HW121581   5.693   5.231   0.674
 6894SOL    HW221582   5.560   5.214   0.580
 6895SOL     OW21583   0.269   6.609   2.221
 6895SOL    HW121584   0.256   6.669   2.300
 6895SOL    HW221585   0.344   6.546   2.239
 6896SOL     OW21586   4.643   1.522   5.012
 6896SOL    HW121587   4.689   1.567   4.936
 6896SOL    HW221588   4.710   1.496   5.082
 6897SOL     OW21589   4.848   2.967   4.899
 6897SOL    HW121590   4.772   2.948   4.961
 6897SOL    HW221591   4.826   2.932   4.808
 6898SOL     OW21592   1.792   6.656   1.523
 6898SOL    HW121593   1.869   6.667   1.586
 6898SOL    HW221594   1.815   6.589   1.454
 6899SOL     OW21595   6.241   5.503   2.264
 6899SOL    HW121596   6.316   5.472   2.323
 6899SOL    HW221597   6.206   5.426   2.210
 6900SOL     OW21598   6.428   3.804   4.997
 6900SOL    HW121599   6.394   3.854   4.917
 6900SOL    HW221600   6.352   3.756   5.041
 6901SOL     OW21601   5.192   4.688   6.908
 6901SOL    HW121602   5.283   4.656   6.882
 6901SOL    HW221603   5.194   4.786   6.925
 6902SOL     OW21604   0.558   6.011   6.017
 6902SOL    HW121605   0.592   6.042   5.928
 6902SOL    HW221606   0.468   6.051   6.034
 6903SOL     OW21607   1.007   5.865   4.570
 6903SOL    HW121608   0.917   5.826   4.552
 6903SOL    HW221609   0.998   5.960   4.600
 6904SOL     OW21610   6.845   6.998   5.792
 6904SOL    HW121611   6.817   6.994   5.888
 6904SOL    HW221612   6.890   6.912   5.766
 6905SOL     OW21613   4.780   6.188   6.111
 6905SOL    HW121614   4.870   6.174   6.150
 6905SOL    HW221615   4.782   6.268   6.051
 6906SOL     OW21616   3.304   1.165   3.644
 6906SOL    HW121617   3.290   1.225   3.722
 6906SOL    HW221618   3.245   1.084   3.653
 6907SOL     OW21619   5.914   2.665   0.753
 6907SOL    HW121620   5.980   2.591   0.755
 6907SOL    HW221621   5.873   2.676   0.843
 6908SOL     OW21622   3.001   5.110   6.992
 6908SOL    HW121623   2.935   5.070   0.037
 6908SOL    HW221624   3.016   5.206   7.015
 6909SOL     OW21625   6.051   5.214   1.722
 6909SOL    HW121626   6.123   5.272   1.687
 6909SOL    HW221627   5.998   5.264   1.791
 6910SOL     OW21628   0.865   2.753   2.771
 6910SOL    HW121629   0.860   2.831   2.708
 6910SOL    HW221630   0.872   2.787   2.865
 6911SOL     OW21631   1.521   6.600   5.429
 6911SOL    HW121632   1.602   6.551   5.398
 6911SOL    HW221633   1.442   6.538   5.427
 6912SOL     OW21634   2.725   3.412   6.801
 6912SOL    HW121635   2.737   3.360   6.717
 6912SOL    HW221636   2.652   3.371   6.856
 6913SOL     OW21637   4.826   6.381   5.897
 6913SOL    HW121638   4.787   6.405   5.808
 6913SOL    HW221639   4.915   6.339   5.884
 6914SOL     OW21640   5.971   2.644   2.377
 6914SOL    HW121641   5.888   2.695   2.398
 6914SOL    HW221642   6.042   2.707   2.345
 6915SOL     OW21643   6.418   3.608   3.478
 6915SOL    HW121644   6.515   3.631   3.491
 6915SOL    HW221645   6.398   3.522   3.523
 6916SOL     OW21646   4.809   6.375   6.712
 6916SOL    HW121647   4.888   6.318   6.688
 6916SOL    HW221648   4.825   6.469   6.679
 6917SOL     OW21649   4.574   6.354   1.914
 6917SOL    HW121650   4.475   6.360   1.924
 6917SOL    HW221651   4.615   6.444   1.930
 6918SOL     OW21652   2.285   3.218   0.874
 6918SOL    HW121653   2.287   3.313   0.843
 6918SOL    HW221654   2.377   3.191   0.904
 6919SOL     OW21655   5.265   5.731   3.608
 6919SOL    HW121656   5.202   5.801   3.577
 6919SOL    HW221657   5.230   5.689   3.692
 6920SOL     OW21658   6.157   1.228   6.044
 6920SOL    HW121659   6.185   1.159   5.977
 6920SOL    HW221660   6.165   1.190   6.136
 6921SOL     OW21661   4.195   0.002   4.719
 6921SOL    HW121662   4.199   6.959   4.641
 6921SOL    HW221663   4.283   0.049   4.728
 6922SOL     OW21664   1.662   4.427   5.931
 6922SOL    HW121665   1.676   4.393   6.025
 6922SOL    HW221666   1.564   4.433   5.912
 6923SOL     OW21667   6.068   6.950   2.341
 6923SOL    HW121668   6.120   0.016   2.338
 6923SOL    HW221669   5.970   6.971   2.336
 6924SOL     OW21670   3.239   5.726   1.903
 6924SOL    HW121671   3.173   5.665   1.946
 6924SOL    HW221672   3.190   5.800   1.857
 6925SOL     OW21673   5.684   6.729   5.396
 6925SOL    HW121674   5.734   6.772   5.471
 6925SOL    HW221675   5.590   6.710   5.424
 6926SOL     OW21676   3.286   2.459   0.601
 6926SOL    HW121677   3.347   2.426   0.530
 6926SOL    HW221678   3.217   2.390   0.621
 6927SOL     OW21679   4.548   0.693   0.301
 6927SOL    HW121680   4.640   0.686   0.341
 6927SOL    HW221681   4.512   0.785   0.318
 6928SOL     OW21682   4.011   5.272   0.493
 6928SOL    HW121683   4.053   5.183   0.514
 6928SOL    HW221684   3.995   5.278   0.394
 6929SOL     OW21685   5.876   5.074   1.914
 6929SOL    HW121686   5.952   5.047   1.855
 6929SOL    HW221687   5.912   5.113   1.999
 6930SOL     OW21688   0.079   6.914   1.767
 6930SOL    HW121689   0.012   6.842   1.788
 6930SOL    HW221690   0.146   6.880   1.702
 6931SOL     OW21691   2.961   3.289   1.178
 6931SOL    HW121692   2.920   3.301   1.269
 6931SOL    HW221693   3.025   3.364   1.160
 6932SOL     OW21694   4.037   6.747   6.366
 6932SOL    HW121695   4.102   6.821   6.348
 6932SOL    HW221696   4.043   6.720   6.462
 6933SOL     OW21697   3.251   6.103   6.372
 6933SOL    HW121698   3.274   6.051   6.454
 6933SOL    HW221699   3.269   6.047   6.291
 6934SOL     OW21700   5.312   4.688   6.584
 6934SOL    HW121701   5.355   4.625   6.649
 6934SOL    HW221702   5.274   4.766   6.634
 6935SOL     OW21703   4.105   6.262   1.815
 6935SOL    HW121704   4.079   6.260   1.718
 6935SOL    HW221705   4.031   6.302   1.869
 6936SOL     OW21706   0.097   1.510   5.100
 6936SOL    HW121707   0.011   1.559   5.108
 6936SOL    HW221708   0.162   1.565   5.047
 6937SOL     OW21709   5.406   5.413   6.963
 6937SOL    HW121710   5.442   5.395   0.036
 6937SOL    HW221711   5.306   5.421   6.968
 6938SOL     OW21712   2.556   0.975   4.869
 6938SOL    HW121713   2.461   1.002   4.885
 6938SOL    HW221714   2.591   1.024   4.789
 6939SOL     OW21715   5.557   3.279   3.611
 6939SOL    HW121716   5.503   3.326   3.541
 6939SOL    HW221717   5.503   3.205   3.651
 6940SOL     OW21718   2.896   6.246   0.687
 6940SOL    HW121719   2.818   6.300   0.718
 6940SOL    HW221720   2.877   6.149   0.702
 6941SOL     OW21721   3.529   3.736   2.965
 6941SOL    HW121722   3.441   3.746   2.918
 6941SOL    HW221723   3.525   3.783   3.054
 6942SOL     OW21724   6.000   5.415   2.569
 6942SOL    HW121725   6.052   5.332   2.550
 6942SOL    HW221726   6.061   5.495   2.565
 6943SOL     OW21727   4.313   4.475   6.019
 6943SOL    HW121728   4.268   4.407   5.963
 6943SOL    HW221729   4.412   4.476   6.000
 6944SOL     OW21730   1.423   3.886   4.809
 6944SOL    HW121731   1.366   3.912   4.886
 6944SOL    HW221732   1.393   3.798   4.773
 6945SOL     OW21733   4.940   1.670   1.399
 6945SOL    HW121734   5.015   1.725   1.364
 6945SOL    HW221735   4.909   1.708   1.487
 6946SOL     OW21736   5.261   6.310   3.263
 6946SOL    HW121737   5.168   6.309   3.301
 6946SOL    HW221738   5.276   6.227   3.209
 6947SOL     OW21739   6.287   4.552   5.361
 6947SOL    HW121740   6.306   4.586   5.269
 6947SOL    HW221741   6.192   4.574   5.385
 6948SOL     OW21742   0.407   4.583   6.950
 6948SOL    HW121743   0.316   4.597   6.914
 6948SOL    HW221744   0.431   4.658   7.011
 6949SOL     OW21745   2.372   1.961   3.756
 6949SOL    HW121746   2.352   1.945   3.853
 6949SOL    HW221747   2.288   1.982   3.708
 6950SOL     OW21748   0.443   1.033   4.411
 6950SOL    HW121749   0.461   1.130   4.399
 6950SOL    HW221750   0.522   0.989   4.454
 6951SOL     OW21751   0.779   4.319   0.038
 6951SOL    HW121752   0.682   4.300   0.021
 6951SOL    HW221753   0.790   4.415   0.064
 6952SOL     OW21754   4.776   5.736   4.294
 6952SOL    HW121755   4.708   5.743   4.366
 6952SOL    HW221756   4.824   5.824   4.286
 6953SOL     OW21757   6.557   2.055   0.805
 6953SOL    HW121758   6.648   2.095   0.820
 6953SOL    HW221759   6.529   2.004   0.886
 6954SOL     OW21760   6.717   4.702   7.010
 6954SOL    HW121761   6.758   4.618   0.026
 6954SOL    HW221762   6.773   4.781   0.019
 6955SOL     OW21763   5.004   6.232   2.893
 6955SOL    HW121764   5.052   6.294   2.831
 6955SOL    HW221765   4.967   6.285   2.970
 6956SOL     OW21766   5.845   5.408   2.349
 6956SOL    HW121767   5.785   5.333   2.377
 6956SOL    HW221768   5.891   5.445   2.430
 6957SOL     OW21769   6.590   5.680   5.696
 6957SOL    HW121770   6.530   5.668   5.617
 6957SOL    HW221771   6.683   5.700   5.665
 6958SOL     OW21772   3.185   3.613   3.308
 6958SOL    HW121773   3.232   3.676   3.246
 6958SOL    HW221774   3.168   3.526   3.261
 6959SOL     OW21775   1.538   4.192   2.850
 6959SOL    HW121776   1.500   4.267   2.904
 6959SOL    HW221777   1.466   4.124   2.833
 6960SOL     OW21778   3.856   4.185   0.655
 6960SOL    HW121779   3.809   4.098   0.671
 6960SOL    HW221780   3.918   4.204   0.732
 6961SOL     OW21781   4.735   2.577   4.956
 6961SOL    HW121782   4.736   2.564   4.857
 6961SOL    HW221783   4.828   2.567   4.991
 6962SOL     OW21784   2.389   6.936   6.311
 6962SOL    HW121785   2.481   6.926   6.347
 6962SOL    HW221786   2.342   7.011   6.357
 6963SOL     OW21787   6.556   5.898   0.786
 6963SOL    HW121788   6.482   5.851   0.739
 6963SOL    HW221789   6.632   5.914   0.722
 6964SOL     OW21790   1.677   1.198   5.549
 6964SOL    HW121791   1.601   1.252   5.584
 6964SOL    HW221792   1.762   1.251   5.557
 6965SOL     OW21793   1.058   1.433   0.446
 6965SOL    HW121794   1.126   1.402   0.379
 6965SOL    HW221795   1.020   1.521   0.416
 6966SOL     OW21796   1.418   6.283   1.260
 6966SOL    HW121797   1.469   6.208   1.301
 6966SOL    HW221798   1.350   6.317   1.325
 6967SOL     OW21799   4.427   1.124   6.409
 6967SOL    HW121800   4.510   1.125   6.465
 6967SOL    HW221801   4.362   1.191   6.445
 6968SOL     OW21802   4.120   6.394   3.007
 6968SOL    HW121803   4.164   6.347   3.083
 6968SOL    HW221804   4.038   6.441   3.041
 6969SOL     OW21805   2.131   1.829   2.262
 6969SOL    HW121806   2.079   1.835   2.177
 6969SOL    HW221807   2.078   1.778   2.330
 6970SOL     OW21808   3.605   5.313   5.147
 6970SOL    HW121809   3.671   5.386   5.169
 6970SOL    HW221810   3.621   5.235   5.207
 6971SOL     OW21811   6.720   4.079   0.301
 6971SOL    HW121812   6.661   3.998   0.290
 6971SOL    HW221813   6.814   4.055   0.274
 6972SOL     OW21814   5.602   4.093   1.346
 6972SOL    HW121815   5.585   4.152   1.266
 6972SOL    HW221816   5.622   4.000   1.315
 6973SOL     OW21817   1.577   2.333   3.102
 6973SOL    HW121818   1.480   2.334   3.075
 6973SOL    HW221819   1.596   2.414   3.158
 6974SOL     OW21820   3.855   3.653   2.763
 6974SOL    HW121821   3.838   3.743   2.803
 6974SOL    HW221822   3.775   3.595   2.775
 6975SOL     OW21823   2.787   5.576   4.371
 6975SOL    HW121824   2.797   5.600   4.275
 6975SOL    HW221825   2.869   5.603   4.421
 6976SOL     OW21826   4.712   4.151   6.255
 6976SOL    HW121827   4.707   4.088   6.178
 6976SOL    HW221828   4.719   4.099   6.340
 6977SOL     OW21829   4.780   5.164   2.238
 6977SOL    HW121830   4.764   5.066   2.250
 6977SOL    HW221831   4.824   5.180   2.149
 6978SOL     OW21832   6.997   3.895   1.187
 6978SOL    HW121833   0.051   3.942   1.137
 6978SOL    HW221834   0.012   3.808   1.222
 6979SOL     OW21835   1.428   3.299   2.213
 6979SOL    HW121836   1.418   3.383   2.159
 6979SOL    HW221837   1.432   3.220   2.152
 6980SOL     OW21838   1.697   5.570   2.734
 6980SOL    HW121839   1.711   5.578   2.833
 6980SOL    HW221840   1.662   5.480   2.712
 6981SOL     OW21841   4.370   2.499   0.085
 6981SOL    HW121842   4.441   2.557   0.126
 6981SOL    HW221843   4.313   2.555   0.024
 6982SOL     OW21844   1.583   0.754   2.777
 6982SOL    HW121845   1.630   0.841   2.761
 6982SOL    HW221846   1.504   0.769   2.837
 6983SOL     OW21847   6.044   1.085   4.248
 6983SOL    HW121848   6.114   1.073   4.177
 6983SOL    HW221849   6.057   1.018   4.320
 6984SOL     OW21850   1.219   3.034   2.932
 6984SOL    HW121851   1.147   3.081   2.982
 6984SOL    HW221852   1.290   3.100   2.906
 6985SOL     OW21853   5.776   3.612   6.532
 6985SOL    HW121854   5.738   3.536   6.584
 6985SOL    HW221855   5.743   3.609   6.438
 6986SOL     OW21856   4.616   4.670   5.547
 6986SOL    HW121857   4.623   4.765   5.514
 6986SOL    HW221858   4.617   4.670   5.647
 6987SOL     OW21859   0.644   1.017   6.778
 6987SOL    HW121860   0.636   1.104   6.827
 6987SOL    HW221861   0.736   0.981   6.790
 6988SOL     OW21862   2.642   1.601   6.550
 6988SOL    HW121863   2.553   1.645   6.557
 6988SOL    HW221864   2.714   1.665   6.578
 6989SOL     OW21865   0.779   4.344   2.569
 6989SOL    HW121866   0.838   4.294   2.506
 6989SOL    HW221867   0.693   4.366   2.524
 6990SOL     OW21868   3.672   3.472   0.473
 6990SOL    HW121869   3.733   3.482   0.395
 6990SOL    HW221870   3.586   3.431   0.443
 6991SOL     OW21871   6.694   2.814   2.485
 6991SOL    HW121872   6.704   2.878   2.408
 6991SOL    HW221873   6.773   2.753   2.487
 6992SOL     OW21874   0.936   5.643   0.238
 6992SOL    HW121875   0.907   5.738   0.233
 6992SOL    HW221876   0.942   5.605   0.145
 6993SOL     OW21877   4.393   2.145   1.782
 6993SOL    HW121878   4.366   2.065   1.835
 6993SOL    HW221879   4.475   2.185   1.822
 6994SOL     OW21880   2.813   1.267   3.785
 6994SOL    HW121881   2.831   1.340   3.719
 6994SOL    HW221882   2.889   1.260   3.849
 6995SOL     OW21883   0.126   4.035   0.898
 6995SOL    HW121884   0.142   4.084   0.984
 6995SOL    HW221885   0.073   3.952   0.916
 6996SOL     OW21886   1.023   1.161   6.716
 6996SOL    HW121887   0.964   1.095   6.764
 6996SOL    HW221888   0.976   1.194   6.634
 6997SOL     OW21889   5.982   5.916   5.967
 6997SOL    HW121890   5.955   5.913   5.871
 6997SOL    HW221891   5.902   5.900   6.025
 6998SOL     OW21892   6.721   1.410   0.423
 6998SOL    HW121893   6.819   1.415   0.446
 6998SOL    HW221894   6.689   1.502   0.399
 6999SOL     OW21895   6.988   3.119   6.337
 6999SOL    HW121896   6.972   3.076   6.426
 6999SOL    HW221897   0.025   3.201   6.349
 7000SOL     OW21898   0.151   5.671   3.200
 7000SOL    HW121899   0.124   5.693   3.294
 7000SOL    HW221900   0.073   5.686   3.139
 7001SOL     OW21901   6.908   2.305   4.062
 7001SOL    HW121902   6.857   2.262   3.988
 7001SOL    HW221903   7.002   2.322   4.033
 7002SOL     OW21904   1.094   5.452   2.593
 7002SOL    HW121905   1.189   5.469   2.618
 7002SOL    HW221906   1.091   5.402   2.506
 7003SOL     OW21907   0.155   4.206   0.690
 7003SOL    HW121908   0.181   4.183   0.784
 7003SOL    HW221909   0.104   4.130   0.650
 7004SOL     OW21910   1.677   0.056   0.389
 7004SOL    HW121911   1.750   7.007   0.395
 7004SOL    HW221912   1.714   0.146   0.414
 7005SOL     OW21913   1.327   5.451   0.574
 7005SOL    HW121914   1.391   5.429   0.648
 7005SOL    HW221915   1.255   5.382   0.571
 7006SOL     OW21916   0.777   0.251   3.984
 7006SOL    HW121917   0.791   0.350   3.975
 7006SOL    HW221918   0.681   0.230   3.967
 7007SOL     OW21919   2.149   0.444   6.022
 7007SOL    HW121920   2.074   0.378   6.018
 7007SOL    HW221921   2.142   0.507   5.945
 7008SOL     OW21922   5.512   3.776   3.023
 7008SOL    HW121923   5.535   3.822   2.938
 7008SOL    HW221924   5.428   3.723   3.011
 7009SOL     OW21925   4.985   5.819   2.606
 7009SOL    HW121926   4.917   5.802   2.535
 7009SOL    HW221927   4.943   5.810   2.696
 7010SOL     OW21928   5.157   3.370   2.096
 7010SOL    HW121929   5.073   3.420   2.075
 7010SOL    HW221930   5.226   3.390   2.026
 7011SOL     OW21931   3.041   6.828   6.411
 7011SOL    HW121932   3.085   6.846   6.323
 7011SOL    HW221933   2.959   6.772   6.396
 7012SOL     OW21934   6.683   2.932   0.149
 7012SOL    HW121935   6.651   2.990   0.073
 7012SOL    HW221936   6.609   2.920   0.214
 7013SOL     OW21937   3.211   2.734   0.118
 7013SOL    HW121938   3.186   2.681   0.036
 7013SOL    HW221939   3.132   2.787   0.148
 7014SOL     OW21940   5.659   3.268   0.457
 7014SOL    HW121941   5.727   3.247   0.388
 7014SOL    HW221942   5.609   3.184   0.481
 7015SOL     OW21943   6.019   6.513   1.123
 7015SOL    HW121944   6.012   6.517   1.023
 7015SOL    HW221945   6.023   6.606   1.159
 7016SOL     OW21946   3.566   4.887   0.944
 7016SOL    HW121947   3.609   4.878   0.855
 7016SOL    HW221948   3.550   4.796   0.983
 7017SOL     OW21949   6.080   4.659   5.825
 7017SOL    HW121950   6.127   4.746   5.810
 7017SOL    HW221951   6.131   4.586   5.781
 7018SOL     OW21952   5.246   3.631   4.804
 7018SOL    HW121953   5.298   3.658   4.723
 7018SOL    HW221954   5.264   3.696   4.878
 7019SOL     OW21955   4.357   5.470   2.299
 7019SOL    HW121956   4.273   5.524   2.300
 7019SOL    HW221957   4.370   5.429   2.209
 7020SOL     OW21958   0.516   2.758   6.394
 7020SOL    HW121959   0.547   2.853   6.392
 7020SOL    HW221960   0.468   2.737   6.309
 7021SOL     OW21961   0.526   2.271   4.685
 7021SOL    HW121962   0.518   2.260   4.586
 7021SOL    HW221963   0.609   2.322   4.706
 7022SOL     OW21964   2.880   2.335   1.154
 7022SOL    HW121965   2.873   2.291   1.243
 7022SOL    HW221966   2.905   2.431   1.165
 7023SOL     OW21967   0.307   1.777   0.499
 7023SOL    HW121968   0.295   1.738   0.591
 7023SOL    HW221969   0.327   1.703   0.434
 7024SOL     OW21970   3.542   3.985   4.747
 7024SOL    HW121971   3.613   3.915   4.755
 7024SOL    HW221972   3.584   4.072   4.720
 7025SOL     OW21973   2.814   0.029   0.936
 7025SOL    HW121974   2.716   0.010   0.933
 7025SOL    HW221975   2.850   0.002   1.026
 7026SOL     OW21976   3.404   2.806   1.165
 7026SOL    HW121977   3.323   2.746   1.160
 7026SOL    HW221978   3.380   2.897   1.131
 7027SOL     OW21979   2.960   4.981   2.614
 7027SOL    HW121980   2.956   4.905   2.550
 7027SOL    HW221981   2.993   4.948   2.703
 7028SOL     OW21982   3.335   0.003   3.422
 7028SOL    HW121983   3.353   6.957   3.495
 7028SOL    HW221984   3.309   0.091   3.462
 7029SOL     OW21985   3.613   3.728   3.424
 7029SOL    HW121986   3.650   3.788   3.495
 7029SOL    HW221987   3.670   3.646   3.416
 7030SOL     OW21988   6.647   0.844   4.350
 7030SOL    HW121989   6.565   0.811   4.396
 7030SOL    HW221990   6.721   0.777   4.363
 7031SOL     OW21991   4.993   6.727   0.801
 7031SOL    HW121992   4.946   6.809   0.769
 7031SOL    HW221993   5.006   6.663   0.725
 7032SOL     OW21994   4.931   5.315   4.405
 7032SOL    HW121995   4.931   5.222   4.368
 7032SOL    HW221996   4.908   5.380   4.332
 7033SOL     OW21997   1.880   1.986   5.209
 7033SOL    HW121998   1.786   1.962   5.234
 7033SOL    HW221999   1.938   1.905   5.217
 7034SOL     OW22000   6.380   1.108   3.252
 7034SOL    HW122001   6.446   1.036   3.270
 7034SOL    HW222002   6.295   1.068   3.217
 7035SOL     OW22003   1.958   0.187   0.743
 7035SOL    HW122004   2.039   0.185   0.802
 7035SOL    HW222005   1.877   0.164   0.797
 7036SOL     OW22006   6.732   1.379   2.208
 7036SOL    HW122007   6.685   1.461   2.175
 7036SOL    HW222008   6.821   1.372   2.163
 7037SOL     OW22009   1.135   0.151   6.032
 7037SOL    HW122010   1.097   0.118   5.946
 7037SOL    HW222011   1.219   0.203   6.013
 7038SOL     OW22012   1.180   3.828   0.060
 7038SOL    HW122013   1.259   3.831   0.121
 7038SOL    HW222014   1.192   3.754   7.013
 7039SOL     OW22015   0.179   6.717   2.455
 7039SOL    HW122016   0.161   6.696   2.552
 7039SOL    HW222017   0.188   6.816   2.444
 7040SOL     OW22018   5.625   2.807   4.805
 7040SOL    HW122019   5.714   2.763   4.819
 7040SOL    HW222020   5.572   2.803   4.891
 7041SOL     OW22021   1.353   6.504   4.271
 7041SOL    HW122022   1.437   6.552   4.248
 7041SOL    HW222023   1.332   6.437   4.200
 7042SOL     OW22024   5.610   5.856   5.116
 7042SOL    HW122025   5.547   5.807   5.177
 7042SOL    HW222026   5.704   5.837   5.143
 7043SOL     OW22027   2.472   5.453   1.062
 7043SOL    HW122028   2.461   5.547   1.093
 7043SOL    HW222029   2.559   5.445   1.013
 7044SOL     OW22030   5.665   6.954   5.009
 7044SOL    HW122031   5.746   6.979   4.956
 7044SOL    HW222032   5.584   6.991   4.964
 7045SOL     OW22033   6.553   5.561   2.062
 7045SOL    HW122034   6.516   5.601   2.145
 7045SOL    HW222035   6.478   5.529   2.004
 7046SOL     OW22036   2.316   1.462   3.937
 7046SOL    HW122037   2.279   1.434   3.848
 7046SOL    HW222038   2.282   1.400   4.008
 7047SOL     OW22039   1.247   6.468   0.643
 7047SOL    HW122040   1.295   6.445   0.558
 7047SOL    HW222041   1.150   6.445   0.633
 7048SOL     OW22042   0.278   6.064   4.135
 7048SOL    HW122043   0.334   5.982   4.147
 7048SOL    HW222044   0.272   6.114   4.221
 7049SOL     OW22045   3.789   1.192   3.606
 7049SOL    HW122046   3.883   1.162   3.621
 7049SOL    HW222047   3.764   1.177   3.510
 7050SOL     OW22048   3.880   3.831   0.747
 7050SOL    HW122049   3.940   3.830   0.667
 7050SOL    HW222050   3.935   3.829   0.830
 7051SOL     OW22051   1.077   1.117   2.067
 7051SOL    HW122052   1.045   1.023   2.075
 7051SOL    HW222053   1.070   1.162   2.156
 7052SOL     OW22054   4.012   1.205   2.827
 7052SOL    HW122055   4.004   1.112   2.791
 7052SOL    HW222056   4.096   1.214   2.880
 7053SOL     OW22057   1.656   3.696   3.280
 7053SOL    HW122058   1.601   3.758   3.336
 7053SOL    HW222059   1.718   3.644   3.338
 7054SOL     OW22060   5.883   0.895   0.043
 7054SOL    HW122061   5.892   0.804   0.002
 7054SOL    HW222062   5.958   0.911   0.106
 7055SOL     OW22063   2.417   0.671   0.219
 7055SOL    HW122064   2.340   0.726   0.186
 7055SOL    HW222065   2.440   0.602   0.151
 7056SOL     OW22066   6.733   5.064   1.040
 7056SOL    HW122067   6.659   5.117   1.081
 7056SOL    HW222068   6.809   5.125   1.018
 7057SOL     OW22069   2.583   6.009   4.816
 7057SOL    HW122070   2.665   6.064   4.827
 7057SOL    HW222071   2.594   5.922   4.864
 7058SOL     OW22072   5.645   2.831   6.411
 7058SOL    HW122073   5.644   2.770   6.490
 7058SOL    HW222074   5.722   2.895   6.419
 7059SOL     OW22075   1.931   6.989   4.844
 7059SOL    HW122076   1.877   0.042   4.889
 7059SOL    HW222077   1.920   6.997   4.745
 7060SOL     OW22078   3.096   1.546   1.090
 7060SOL    HW122079   3.190   1.578   1.102
 7060SOL    HW222080   3.033   1.616   1.123
 7061SOL     OW22081   0.985   1.292   1.631
 7061SOL    HW122082   1.074   1.322   1.594
 7061SOL    HW222083   0.997   1.205   1.678
 7062SOL     OW22084   3.442   0.232   3.870
 7062SOL    HW122085   3.486   0.313   3.908
 7062SOL    HW222086   3.505   0.184   3.810
 7063SOL     OW22087   0.271   0.880   1.032
 7063SOL    HW122088   0.355   0.853   1.079
 7063SOL    HW222089   0.291   0.954   0.968
 7064SOL     OW22090   3.041   1.192   4.988
 7064SOL    HW122091   2.946   1.207   4.961
 7064SOL    HW222092   3.047   1.106   5.040
 7065SOL     OW22093   3.910   5.188   5.385
 7065SOL    HW122094   3.817   5.152   5.371
 7065SOL    HW222095   3.971   5.149   5.316
 7066SOL     OW22096   3.639   0.385   0.926
 7066SOL    HW122097   3.736   0.389   0.900
 7066SOL    HW222098   3.631   0.382   1.025
 7067SOL     OW22099   1.560   3.765   6.302
 7067SOL    HW122100   1.530   3.847   6.254
 7067SOL    HW222101   1.522   3.684   6.256
 7068SOL     OW22102   5.209   3.985   4.508
 7068SOL    HW122103   5.172   4.076   4.528
 7068SOL    HW222104   5.143   3.915   4.533
 7069SOL     OW22105   5.237   0.860   6.118
 7069SOL    HW122106   5.155   0.879   6.065
 7069SOL    HW222107   5.259   0.940   6.175
 7070SOL     OW22108   0.375   0.325   5.599
 7070SOL    HW122109   0.291   0.370   5.630
 7070SOL    HW222110   0.390   0.241   5.651
 7071SOL     OW22111   5.010   5.946   0.091
 7071SOL    HW122112   5.075   5.870   0.088
 7071SOL    HW222113   4.974   5.964   7.018
 7072SOL     OW22114   0.551   3.736   6.654
 7072SOL    HW122115   0.522   3.641   6.659
 7072SOL    HW222116   0.650   3.740   6.636
 7073SOL     OW22117   4.753   1.642   3.781
 7073SOL    HW122118   4.772   1.657   3.878
 7073SOL    HW222119   4.744   1.729   3.734
 7074SOL     OW22120   5.111   3.991   2.990
 7074SOL    HW122121   5.077   4.083   3.012
 7074SOL    HW222122   5.134   3.943   3.075
 7075SOL     OW22123   2.620   5.106   3.443
 7075SOL    HW122124   2.575   5.030   3.397
 7075SOL    HW222125   2.719   5.099   3.431
 7076SOL     OW22126   5.782   2.512   1.449
 7076SOL    HW122127   5.684   2.527   1.444
 7076SOL    HW222128   5.807   2.433   1.393
 7077SOL     OW22129   4.114   5.693   1.998
 7077SOL    HW122130   4.042   5.762   2.002
 7077SOL    HW222131   4.091   5.618   2.060
 7078SOL     OW22132   6.526   0.509   6.847
 7078SOL    HW122133   6.557   0.460   6.766
 7078SOL    HW222134   6.487   0.444   6.912
 7079SOL     OW22135   1.260   6.188   4.772
 7079SOL    HW122136   1.280   6.286   4.771
 7079SOL    HW222137   1.327   6.140   4.828
 7080SOL     OW22138   3.936   1.765   5.788
 7080SOL    HW122139   3.852   1.760   5.843
 7080SOL    HW222140   3.928   1.703   5.711
 7081SOL     OW22141   2.578   0.116   0.311
 7081SOL    HW122142   2.523   0.033   0.312
 7081SOL    HW222143   2.525   0.193   0.347
 7082SOL     OW22144   0.567   3.963   2.647
 7082SOL    HW122145   0.518   3.936   2.565
 7082SOL    HW222146   0.665   3.948   2.634
 7083SOL     OW22147   5.215   2.167   3.207
 7083SOL    HW122148   5.127   2.214   3.196
 7083SOL    HW222149   5.206   2.072   3.175
 7084SOL     OW22150   0.948   5.543   6.981
 7084SOL    HW122151   0.992   5.508   6.898
 7084SOL    HW222152   0.884   5.475   7.016
 7085SOL     OW22153   0.869   4.107   1.976
 7085SOL    HW122154   0.879   4.113   1.877
 7085SOL    HW222155   0.900   4.017   2.007
 7086SOL     OW22156   5.363   0.848   3.910
 7086SOL    HW122157   5.286   0.784   3.910
 7086SOL    HW222158   5.368   0.894   3.822
 7087SOL     OW22159   4.769   2.757   3.046
 7087SOL    HW122160   4.739   2.787   2.955
 7087SOL    HW222161   4.868   2.740   3.043
 7088SOL     OW22162   5.921   2.140   5.068
 7088SOL    HW122163   5.840   2.171   5.118
 7088SOL    HW222164   5.997   2.203   5.086
 7089SOL     OW22165   2.679   5.527   1.489
 7089SOL    HW122166   2.707   5.566   1.577
 7089SOL    HW222167   2.754   5.538   1.423
 7090SOL     OW22168   4.572   2.757   1.285
 7090SOL    HW122169   4.557   2.821   1.211
 7090SOL    HW222170   4.526   2.791   1.368
 7091SOL     OW22171   0.487   6.849   0.826
 7091SOL    HW122172   0.515   6.942   0.847
 7091SOL    HW222173   0.443   6.846   0.737
 7092SOL     OW22174   4.562   0.208   6.262
 7092SOL    HW122175   4.571   0.127   6.203
 7092SOL    HW222176   4.647   0.261   6.259
 7093SOL     OW22177   3.593   3.233   0.839
 7093SOL    HW122178   3.574   3.176   0.760
 7093SOL    HW222179   3.561   3.186   0.922
 7094SOL     OW22180   3.661   0.325   6.341
 7094SOL    HW122181   3.641   0.245   6.397
 7094SOL    HW222182   3.741   0.306   6.283
 7095SOL     OW22183   2.383   4.844   4.538
 7095SOL    HW122184   2.456   4.792   4.583
 7095SOL    HW222185   2.299   4.789   4.537
 7096SOL     OW22186   0.032   0.367   1.413
 7096SOL    HW122187   6.969   0.388   1.360
 7096SOL    HW222188   0.054   0.444   1.474
 7097SOL     OW22189   4.752   1.331   2.234
 7097SOL    HW122190   4.840   1.376   2.248
 7097SOL    HW222191   4.678   1.397   2.249
 7098SOL     OW22192   0.816   0.538   3.544
 7098SOL    HW122193   0.904   0.584   3.548
 7098SOL    HW222194   0.795   0.513   3.450
 7099SOL     OW22195   3.002   1.695   4.569
 7099SOL    HW122196   2.958   1.639   4.499
 7099SOL    HW222197   3.065   1.760   4.526
 7100SOL     OW22198   6.666   3.823   1.613
 7100SOL    HW122199   6.612   3.769   1.678
 7100SOL    HW222200   6.605   3.883   1.562
 7101SOL     OW22201   2.282   6.195   5.117
 7101SOL    HW122202   2.296   6.144   5.032
 7101SOL    HW222203   2.338   6.154   5.190
 7102SOL     OW22204   5.815   1.147   2.321
 7102SOL    HW122205   5.849   1.211   2.390
 7102SOL    HW222206   5.747   1.193   2.264
 7103SOL     OW22207   4.931   3.593   3.205
 7103SOL    HW122208   4.938   3.665   3.136
 7103SOL    HW222209   4.860   3.618   3.271
 7104SOL     OW22210   4.753   2.757   4.096
 7104SOL    HW122211   4.692   2.824   4.138
 7104SOL    HW222212   4.801   2.706   4.167
 7105SOL     OW22213   3.046   3.966   3.465
 7105SOL    HW122214   3.112   4.032   3.504
 7105SOL    HW222215   2.995   3.923   3.539
 7106SOL     OW22216   3.702   1.986   2.475
 7106SOL    HW122217   3.707   2.068   2.532
 7106SOL    HW222218   3.744   2.004   2.386
 7107SOL     OW22219   3.936   0.645   6.551
 7107SOL    HW122220   3.937   0.650   6.451
 7107SOL    HW222221   3.939   0.737   6.589
 7108SOL     OW22222   4.823   0.626   1.993
 7108SOL    HW122223   4.879   0.697   1.949
 7108SOL    HW222224   4.868   0.596   2.077
 7109SOL     OW22225   2.510   5.486   6.917
 7109SOL    HW122226   2.450   5.406   6.925
 7109SOL    HW222227   2.532   5.503   6.821
 7110SOL     OW22228   3.132   6.878   4.465
 7110SOL    HW122229   3.050   6.889   4.410
 7110SOL    HW222230   3.202   6.943   4.435
 7111SOL     OW22231   0.084   0.820   5.001
 7111SOL    HW122232   0.124   0.830   4.909
 7111SOL    HW222233   0.032   0.902   5.023
 7112SOL     OW22234   0.793   4.801   4.978
 7112SOL    HW122235   0.791   4.706   5.010
 7112SOL    HW222236   0.781   4.863   5.056
 7113SOL     OW22237   3.657   6.387   4.949
 7113SOL    HW122238   3.707   6.308   4.913
 7113SOL    HW222239   3.699   6.417   5.034
 7114SOL     OW22240   5.929   3.817   1.079
 7114SOL    HW122241   5.978   3.858   1.003
 7114SOL    HW222242   5.985   3.746   1.121
 7115SOL     OW22243   6.049   3.742   6.251
 7115SOL    HW122244   6.136   3.760   6.296
 7115SOL    HW222245   6.036   3.643   6.242
 7116SOL     OW22246   6.232   3.759   4.585
 7116SOL    HW122247   6.320   3.744   4.541
 7116SOL    HW222248   6.221   3.694   4.660
 7117SOL     OW22249   5.188   6.981   3.278
 7117SOL    HW122250   5.262   6.982   3.212
 7117SOL    HW222251   5.144   0.051   3.281
 7118SOL     OW22252   3.859   4.423   5.850
 7118SOL    HW122253   3.762   4.411   5.829
 7118SOL    HW222254   3.879   4.381   5.939
 7119SOL     OW22255   3.741   6.358   5.492
 7119SOL    HW122256   3.670   6.415   5.450
 7119SOL    HW222257   3.804   6.325   5.422
 7120SOL     OW22258   4.448   1.210   1.135
 7120SOL    HW122259   4.503   1.293   1.134
 7120SOL    HW222260   4.447   1.170   1.044
 7121SOL     OW22261   1.658   5.761   2.192
 7121SOL    HW122262   1.703   5.835   2.242
 7121SOL    HW222263   1.660   5.781   2.094
 7122SOL     OW22264   3.543   1.928   0.018
 7122SOL    HW122265   3.467   1.985   0.049
 7122SOL    HW222266   3.623   1.987   0.001
 7123SOL     OW22267   5.679   5.122   6.103
 7123SOL    HW122268   5.584   5.106   6.129
 7123SOL    HW222269   5.737   5.118   6.184
 7124SOL     OW22270   1.659   2.628   1.311
 7124SOL    HW122271   1.590   2.569   1.271
 7124SOL    HW222272   1.750   2.590   1.294
 7125SOL     OW22273   0.380   6.378   2.382
 7125SOL    HW122274   0.437   6.327   2.318
 7125SOL    HW222275   0.403   6.351   2.476
 7126SOL     OW22276   3.466   5.470   1.215
 7126SOL    HW122277   3.384   5.448   1.162
 7126SOL    HW222278   3.450   5.552   1.269
 7127SOL     OW22279   2.453   6.323   6.196
 7127SOL    HW122280   2.397   6.304   6.276
 7127SOL    HW222281   2.472   6.421   6.191
 7128SOL     OW22282   3.512   4.142   0.075
 7128SOL    HW122283   3.586   4.201   0.041
 7128SOL    HW222284   3.443   4.130   0.004
 7129SOL     OW22285   0.551   7.015   0.344
 7129SOL    HW122286   0.621   7.012   0.415
 7129SOL    HW222287   0.582   0.054   0.268
 7130SOL     OW22288   3.177   6.262   3.978
 7130SOL    HW122289   3.078   6.250   3.988
 7130SOL    HW222290   3.224   6.184   4.019
 7131SOL     OW22291   2.269   1.201   1.881
 7131SOL    HW122292   2.215   1.133   1.831
 7131SOL    HW222293   2.250   1.193   1.979
 7132SOL     OW22294   4.837   4.142   0.728
 7132SOL    HW122295   4.737   4.146   0.723
 7132SOL    HW222296   4.867   4.047   0.732
 7133SOL     OW22297   5.090   5.975   2.967
 7133SOL    HW122298   5.037   5.941   2.889
 7133SOL    HW222299   5.109   6.073   2.955
 7134SOL     OW22300   4.766   5.712   0.173
 7134SOL    HW122301   4.700   5.638   0.189
 7134SOL    HW222302   4.859   5.677   0.184
 7135SOL     OW22303   1.452   3.311   1.432
 7135SOL    HW122304   1.395   3.367   1.372
 7135SOL    HW222305   1.512   3.369   1.486
 7136SOL     OW22306   0.989   2.538   2.114
 7136SOL    HW122307   1.007   2.456   2.059
 7136SOL    HW222308   1.017   2.521   2.209
 7137SOL     OW22309   2.789   1.193   1.349
 7137SOL    HW122310   2.829   1.285   1.354
 7137SOL    HW222311   2.832   1.134   1.417
 7138SOL     OW22312   0.459   2.669   0.343
 7138SOL    HW122313   0.533   2.724   0.381
 7138SOL    HW222314   0.474   2.573   0.367
 7139SOL     OW22315   5.772   6.382   0.893
 7139SOL    HW122316   5.708   6.372   0.969
 7139SOL    HW222317   5.765   6.303   0.833
 7140SOL     OW22318   6.674   4.391   0.230
 7140SOL    HW122319   6.590   4.357   0.188
 7140SOL    HW222320   6.700   4.331   0.306
 7141SOL     OW22321   3.136   0.296   1.013
 7141SOL    HW122322   3.041   0.323   1.029
 7141SOL    HW222323   3.143   0.196   1.017
 7142SOL     OW22324   4.012   6.893   5.015
 7142SOL    HW122325   4.015   6.983   4.971
 7142SOL    HW222326   3.919   6.875   5.048
 7143SOL     OW22327   2.713   3.174   6.565
 7143SOL    HW122328   2.654   3.220   6.500
 7143SOL    HW222329   2.796   3.144   6.519
 7144SOL     OW22330   6.672   1.354   6.216
 7144SOL    HW122331   6.574   1.334   6.215
 7144SOL    HW222332   6.712   1.331   6.127
 7145SOL     OW22333   5.605   1.638   6.450
 7145SOL    HW122334   5.634   1.727   6.413
 7145SOL    HW222335   5.686   1.581   6.465
 7146SOL     OW22336   1.086   2.018   5.885
 7146SOL    HW122337   1.026   2.040   5.962
 7146SOL    HW222338   1.181   2.037   5.911
 7147SOL     OW22339   6.395   6.399   1.656
 7147SOL    HW122340   6.451   6.397   1.573
 7147SOL    HW222341   6.303   6.365   1.636
 7148SOL     OW22342   6.524   6.533   1.451
 7148SOL    HW122343   6.532   6.553   1.353
 7148SOL    HW222344   6.613   6.505   1.487
 7149SOL     OW22345   5.836   4.708   5.974
 7149SOL    HW122346   5.758   4.734   5.916
 7149SOL    HW222347   5.914   4.683   5.917
 7150SOL     OW22348   2.907   2.723   6.793
 7150SOL    HW122349   2.946   2.760   6.708
 7150SOL    HW222350   2.808   2.739   6.793
 7151SOL     OW22351   4.978   1.270   0.348
 7151SOL    HW122352   4.964   1.172   0.362
 7151SOL    HW222353   4.920   1.322   0.411
 7152SOL     OW22354   5.291   0.647   6.307
 7152SOL    HW122355   5.311   0.560   6.262
 7152SOL    HW222356   5.267   0.716   6.238
 7153SOL     OW22357   3.434   5.343   0.074
 7153SOL    HW122358   3.390   5.385   7.015
 7153SOL    HW222359   3.531   5.366   0.075
 7154SOL     OW22360   3.981   1.635   2.335
 7154SOL    HW122361   3.933   1.600   2.415
 7154SOL    HW222362   4.030   1.560   2.290
 7155SOL     OW22363   1.214   0.759   2.588
 7155SOL    HW122364   1.304   0.789   2.558
 7155SOL    HW222365   1.223   0.690   2.659
 7156SOL     OW22366   6.562   3.060   4.765
 7156SOL    HW122367   6.644   3.114   4.781
 7156SOL    HW222368   6.556   2.987   4.833
 7157SOL     OW22369   0.344   4.004   6.361
 7157SOL    HW122370   0.284   3.936   6.319
 7157SOL    HW222371   0.406   4.041   6.292
 7158SOL     OW22372   4.970   6.828   4.302
 7158SOL    HW122373   4.911   6.766   4.250
 7158SOL    HW222374   5.064   6.822   4.267
 7159SOL     OW22375   0.424   6.292   3.464
 7159SOL    HW122376   0.477   6.349   3.527
 7159SOL    HW222377   0.392   6.349   3.388
 7160SOL     OW22378   6.210   0.288   3.786
 7160SOL    HW122379   6.198   0.214   3.853
 7160SOL    HW222380   6.149   0.364   3.810
 7161SOL     OW22381   3.653   3.738   2.547
 7161SOL    HW122382   3.583   3.699   2.486
 7161SOL    HW222383   3.697   3.664   2.598
 7162SOL     OW22384   0.608   6.185   1.875
 7162SOL    HW122385   0.567   6.269   1.840
 7162SOL    HW222386   0.708   6.192   1.869
 7163SOL     OW22387   0.075   0.709   0.771
 7163SOL    HW122388   0.093   0.801   0.736
 7163SOL    HW222389   6.996   0.692   0.772
 7164SOL     OW22390   1.451   0.954   6.818
 7164SOL    HW122391   1.448   0.861   6.781
 7164SOL    HW222392   1.481   1.017   6.746
 7165SOL     OW22393   5.688   2.361   6.968
 7165SOL    HW122394   5.720   2.426   0.017
 7165SOL    HW222395   5.592   2.339   6.986
 7166SOL     OW22396   6.985   6.154   6.008
 7166SOL    HW122397   0.053   6.121   5.972
 7166SOL    HW222398   6.970   6.248   5.979
 7167SOL     OW22399   6.528   2.861   4.962
 7167SOL    HW122400   6.491   2.876   5.054
 7167SOL    HW222401   6.622   2.829   4.970
 7168SOL     OW22402   1.542   1.324   2.418
 7168SOL    HW122403   1.531   1.423   2.427
 7168SOL    HW222404   1.481   1.291   2.345
 7169SOL     OW22405   1.889   4.678   5.522
 7169SOL    HW122406   1.931   4.769   5.524
 7169SOL    HW222407   1.956   4.611   5.488
 7170SOL     OW22408   3.382   1.428   1.190
 7170SOL    HW122409   3.285   1.409   1.210
 7170SOL    HW222410   3.422   1.350   1.143
 7171SOL     OW22411   0.249   3.906   0.674
 7171SOL    HW122412   0.175   3.913   0.607
 7171SOL    HW222413   0.211   3.911   0.766
 7172SOL     OW22414   0.402   2.358   3.643
 7172SOL    HW122415   0.318   2.377   3.593
 7172SOL    HW222416   0.380   2.323   3.734
 7173SOL     OW22417   4.835   5.584   6.216
 7173SOL    HW122418   4.829   5.683   6.228
 7173SOL    HW222419   4.831   5.539   6.305
 7174SOL     OW22420   6.606   4.471   2.234
 7174SOL    HW122421   6.520   4.437   2.270
 7174SOL    HW222422   6.609   4.458   2.135
 7175SOL     OW22423   6.829   3.773   5.750
 7175SOL    HW122424   6.741   3.794   5.792
 7175SOL    HW222425   6.829   3.805   5.655
 7176SOL     OW22426   0.025   1.004   6.356
 7176SOL    HW122427   0.125   1.007   6.368
 7176SOL    HW222428   7.015   0.908   6.350
 7177SOL     OW22429   1.546   5.881   3.647
 7177SOL    HW122430   1.569   5.884   3.744
 7177SOL    HW222431   1.465   5.937   3.630
 7178SOL     OW22432   1.626   6.824   4.741
 7178SOL    HW122433   1.627   6.919   4.709
 7178SOL    HW222434   1.642   6.822   4.840
 7179SOL     OW22435   4.121   4.936   6.082
 7179SOL    HW122436   4.136   4.850   6.034
 7179SOL    HW222437   4.055   4.991   6.032
 7180SOL     OW22438   2.054   3.131   1.821
 7180SOL    HW122439   2.058   3.229   1.801
 7180SOL    HW222440   2.087   3.080   1.741
 7181SOL     OW22441   1.911   1.674   6.729
 7181SOL    HW122442   1.814   1.696   6.725
 7181SOL    HW222443   1.942   1.672   6.824
 7182SOL     OW22444   1.996   1.158   3.757
 7182SOL    HW122445   1.929   1.211   3.705
 7182SOL    HW222446   1.988   1.061   3.735
 7183SOL     OW22447   1.533   6.794   1.982
 7183SOL    HW122448   1.436   6.772   1.973
 7183SOL    HW222449   1.578   6.721   2.034
 7184SOL     OW22450   6.736   1.219   3.566
 7184SOL    HW122451   6.664   1.244   3.501
 7184SOL    HW222452   6.809   1.287   3.563
 7185SOL     OW22453   4.290   0.365   4.479
 7185SOL    HW122454   4.259   0.297   4.413
 7185SOL    HW222455   4.389   0.376   4.472
 7186SOL     OW22456   6.381   0.734   6.737
 7186SOL    HW122457   6.431   0.656   6.775
 7186SOL    HW222458   6.445   0.809   6.718
 7187SOL     OW22459   3.498   3.533   4.110
 7187SOL    HW122460   3.591   3.497   4.110
 7187SOL    HW222461   3.434   3.457   4.123
 7188SOL     OW22462   4.552   4.490   6.752
 7188SOL    HW122463   4.530   4.395   6.730
 7188SOL    HW222464   4.651   4.502   6.748
 7189SOL     OW22465   6.356   2.773   5.807
 7189SOL    HW122466   6.266   2.772   5.765
 7189SOL    HW222467   6.426   2.759   5.737
 7190SOL     OW22468   6.151   5.119   6.933
 7190SOL    HW122469   6.109   5.106   6.843
 7190SOL    HW222470   6.124   5.044   6.993
 7191SOL     OW22471   6.927   5.092   2.834
 7191SOL    HW122472   6.840   5.056   2.866
 7191SOL    HW222473   6.963   5.033   2.762
 7192SOL     OW22474   2.279   4.073   6.213
 7192SOL    HW122475   2.194   4.029   6.242
 7192SOL    HW222476   2.340   4.004   6.173
 7193SOL     OW22477   3.399   1.985   3.079
 7193SOL    HW122478   3.332   2.049   3.041
 7193SOL    HW222479   3.488   2.029   3.082
 7194SOL     OW22480   3.002   2.750   5.986
 7194SOL    HW122481   2.973   2.725   6.078
 7194SOL    HW222482   3.097   2.722   5.972
 7195SOL     OW22483   0.741   4.511   5.047
 7195SOL    HW122484   0.657   4.523   4.994
 7195SOL    HW222485   0.759   4.414   5.060
 7196SOL     OW22486   3.646   4.209   1.886
 7196SOL    HW122487   3.679   4.115   1.883
 7196SOL    HW222488   3.619   4.232   1.980
 7197SOL     OW22489   3.058   4.679   6.435
 7197SOL    HW122490   3.043   4.755   6.498
 7197SOL    HW222491   3.141   4.695   6.383
 7198SOL     OW22492   0.754   1.017   1.969
 7198SOL    HW122493   0.792   0.942   2.023
 7198SOL    HW222494   0.740   1.097   2.027
 7199SOL     OW22495   6.227   1.751   2.315
 7199SOL    HW122496   6.190   1.750   2.222
 7199SOL    HW222497   6.320   1.715   2.313
 7200SOL     OW22498   1.127   2.479   0.376
 7200SOL    HW122499   1.069   2.443   0.449
 7200SOL    HW222500   1.094   2.445   0.288
 7201SOL     OW22501   6.484   5.088   3.688
 7201SOL    HW122502   6.451   5.183   3.682
 7201SOL    HW222503   6.428   5.030   3.629
 7202SOL     OW22504   4.383   0.105   5.860
 7202SOL    HW122505   4.473   0.143   5.838
 7202SOL    HW222506   4.313   0.149   5.804
 7203SOL     OW22507   0.198   1.740   1.046
 7203SOL    HW122508   0.234   1.833   1.039
 7203SOL    HW222509   0.151   1.729   1.134
 7204SOL     OW22510   6.785   0.456   2.442
 7204SOL    HW122511   6.716   0.528   2.441
 7204SOL    HW222512   6.779   0.405   2.528
 7205SOL     OW22513   2.871   1.919   4.009
 7205SOL    HW122514   2.937   1.879   4.072
 7205SOL    HW222515   2.865   2.018   4.025
 7206SOL     OW22516   1.557   3.725   6.970
 7206SOL    HW122517   1.495   3.657   7.009
 7206SOL    HW222518   1.598   3.689   6.887
 7207SOL     OW22519   2.118   1.139   3.351
 7207SOL    HW122520   2.177   1.105   3.424
 7207SOL    HW222521   2.089   1.232   3.371
 7208SOL     OW22522   3.250   0.463   4.117
 7208SOL    HW122523   3.250   0.552   4.163
 7208SOL    HW222524   3.270   0.475   4.020
 7209SOL     OW22525   3.535   0.908   1.819
 7209SOL    HW122526   3.485   0.900   1.905
 7209SOL    HW222527   3.631   0.927   1.838
 7210SOL     OW22528   3.084   1.559   3.182
 7210SOL    HW122529   3.140   1.508   3.247
 7210SOL    HW222530   3.031   1.628   3.231
 7211SOL     OW22531   4.545   6.480   5.320
 7211SOL    HW122532   4.605   6.401   5.325
 7211SOL    HW222533   4.554   6.524   5.231
 7212SOL     OW22534   0.532   4.627   5.727
 7212SOL    HW122535   0.497   4.717   5.702
 7212SOL    HW222536   0.463   4.558   5.705
 7213SOL     OW22537   4.351   2.003   6.869
 7213SOL    HW122538   4.326   1.996   6.773
 7213SOL    HW222539   4.363   2.099   6.894
 7214SOL     OW22540   6.195   0.575   6.413
 7214SOL    HW122541   6.133   0.541   6.484
 7214SOL    HW222542   6.194   0.512   6.336
 7215SOL     OW22543   6.202   1.954   3.197
 7215SOL    HW122544   6.140   1.877   3.211
 7215SOL    HW222545   6.203   2.012   3.279
 7216SOL     OW22546   4.140   6.405   3.355
 7216SOL    HW122547   4.081   6.409   3.436
 7216SOL    HW222548   4.163   6.310   3.336
 7217SOL     OW22549   0.964   3.009   2.689
 7217SOL    HW122550   1.056   2.997   2.651
 7217SOL    HW222551   0.971   3.037   2.784
 7218SOL     OW22552   6.576   2.776   4.373
 7218SOL    HW122553   6.586   2.808   4.279
 7218SOL    HW222554   6.504   2.828   4.418
 7219SOL     OW22555   3.437   6.503   2.803
 7219SOL    HW122556   3.466   6.419   2.849
 7219SOL    HW222557   3.370   6.551   2.859
 7220SOL     OW22558   6.667   4.451   3.687
 7220SOL    HW122559   6.652   4.542   3.725
 7220SOL    HW222560   6.629   4.447   3.595
 7221SOL     OW22561   3.804   5.421   3.805
 7221SOL    HW122562   3.824   5.347   3.741
 7221SOL    HW222563   3.793   5.383   3.897
 7222SOL     OW22564   6.588   5.797   4.459
 7222SOL    HW122565   6.520   5.733   4.495
 7222SOL    HW222566   6.608   5.774   4.364
 7223SOL     OW22567   0.135   4.212   1.505
 7223SOL    HW122568   0.156   4.310   1.504
 7223SOL    HW222569   0.041   4.198   1.533
 7224SOL     OW22570   4.371   1.815   2.354
 7224SOL    HW122571   4.337   1.727   2.387
 7224SOL    HW222572   4.382   1.878   2.431
 7225SOL     OW22573   1.690   5.461   0.598
 7225SOL    HW122574   1.622   5.448   0.670
 7225SOL    HW222575   1.764   5.394   0.610
 7226SOL     OW22576   0.047   6.394   0.336
 7226SOL    HW122577   0.133   6.402   0.284
 7226SOL    HW222578   0.067   6.400   0.434
 7227SOL     OW22579   1.816   1.404   2.383
 7227SOL    HW122580   1.721   1.372   2.382
 7227SOL    HW222581   1.863   1.369   2.464
 7228SOL     OW22582   6.858   3.201   1.953
 7228SOL    HW122583   6.785   3.176   2.016
 7228SOL    HW222584   6.873   3.126   1.888
 7229SOL     OW22585   6.844   1.284   5.026
 7229SOL    HW122586   6.797   1.311   5.110
 7229SOL    HW222587   6.779   1.282   4.951
 7230SOL     OW22588   2.407   5.353   4.735
 7230SOL    HW122589   2.451   5.433   4.696
 7230SOL    HW222590   2.476   5.283   4.754
 7231SOL     OW22591   4.445   3.023   5.929
 7231SOL    HW122592   4.526   3.033   5.986
 7231SOL    HW222593   4.388   2.949   5.965
 7232SOL     OW22594   5.191   6.279   3.668
 7232SOL    HW122595   5.164   6.234   3.753
 7232SOL    HW222596   5.222   6.211   3.602
 7233SOL     OW22597   0.334   1.217   4.675
 7233SOL    HW122598   0.310   1.273   4.754
 7233SOL    HW222599   0.364   1.127   4.707
 7234SOL     OW22600   5.271   4.274   3.545
 7234SOL    HW122601   5.309   4.186   3.573
 7234SOL    HW222602   5.177   4.281   3.578
 7235SOL     OW22603   6.465   5.859   1.806
 7235SOL    HW122604   6.426   5.906   1.726
 7235SOL    HW222605   6.391   5.829   1.866
 7236SOL     OW22606   1.365   3.375   2.561
 7236SOL    HW122607   1.311   3.451   2.596
 7236SOL    HW222608   1.325   3.342   2.475
 7237SOL     OW22609   6.033   0.921   0.666
 7237SOL    HW122610   6.039   0.843   0.604
 7237SOL    HW222611   5.941   0.927   0.704
 7238SOL     OW22612   3.923   3.235   6.793
 7238SOL    HW122613   3.913   3.319   6.846
 7238SOL    HW222614   3.919   3.156   6.853
 7239SOL     OW22615   6.579   2.535   2.333
 7239SOL    HW122616   6.667   2.489   2.339
 7239SOL    HW222617   6.541   2.548   2.425
 7240SOL     OW22618   6.546   2.040   0.356
 7240SOL    HW122619   6.513   2.134   0.346
 7240SOL    HW222620   6.635   2.030   0.312
 7241SOL     OW22621   2.543   1.222   2.133
 7241SOL    HW122622   2.548   1.123   2.120
 7241SOL    HW222623   2.447   1.251   2.135
 7242SOL     OW22624   6.814   4.711   4.541
 7242SOL    HW122625   6.732   4.657   4.519
 7242SOL    HW222626   6.876   4.711   4.463
 7243SOL     OW22627   5.738   4.454   6.382
 7243SOL    HW122628   5.787   4.533   6.345
 7243SOL    HW222629   5.642   4.477   6.394
 7244SOL     OW22630   0.209   6.160   0.174
 7244SOL    HW122631   0.275   6.133   0.243
 7244SOL    HW222632   0.195   6.259   0.177
 7245SOL     OW22633   1.000   3.299   0.387
 7245SOL    HW122634   1.027   3.384   0.430
 7245SOL    HW222635   1.077   3.235   0.389
 7246SOL     OW22636   4.336   6.757   3.557
 7246SOL    HW122637   4.418   6.730   3.609
 7246SOL    HW222638   4.332   6.704   3.472
 7247SOL     OW22639   3.105   3.876   5.352
 7247SOL    HW122640   3.165   3.954   5.370
 7247SOL    HW222641   3.013   3.896   5.386
 7248SOL     OW22642   3.094   1.129   5.310
 7248SOL    HW122643   3.076   1.030   5.311
 7248SOL    HW222644   3.016   1.177   5.349
 7249SOL     OW22645   4.120   4.808   2.461
 7249SOL    HW122646   4.133   4.719   2.504
 7249SOL    HW222647   4.026   4.839   2.476
 7250SOL     OW22648   5.524   4.910   5.213
 7250SOL    HW122649   5.580   4.983   5.252
 7250SOL    HW222650   5.533   4.828   5.269
 7251SOL     OW22651   0.139   6.051   5.769
 7251SOL    HW122652   0.139   5.956   5.739
 7251SOL    HW222653   0.078   6.104   5.710
 7252SOL     OW22654   3.764   3.984   2.502
 7252SOL    HW122655   3.734   3.889   2.509
 7252SOL    HW222656   3.864   3.988   2.505
 7253SOL     OW22657   2.292   5.765   4.779
 7253SOL    HW122658   2.229   5.736   4.852
 7253SOL    HW222659   2.250   5.838   4.726
 7254SOL     OW22660   5.544   2.942   3.946
 7254SOL    HW122661   5.505   2.936   3.855
 7254SOL    HW222662   5.470   2.958   4.013
 7255SOL     OW22663   5.214   3.133   6.555
 7255SOL    HW122664   5.179   3.142   6.648
 7255SOL    HW222665   5.311   3.107   6.558
 7256SOL     OW22666   3.213   0.368   5.302
 7256SOL    HW122667   3.150   0.291   5.296
 7256SOL    HW222668   3.305   0.339   5.275
 7257SOL     OW22669   0.461   1.564   4.635
 7257SOL    HW122670   0.492   1.602   4.548
 7257SOL    HW222671   0.468   1.464   4.631
 7258SOL     OW22672   6.037   2.575   2.818
 7258SOL    HW122673   6.021   2.662   2.772
 7258SOL    HW222674   6.049   2.591   2.916
 7259SOL     OW22675   1.338   3.806   2.483
 7259SOL    HW122676   1.417   3.859   2.512
 7259SOL    HW222677   1.262   3.868   2.464
 7260SOL     OW22678   5.497   3.394   1.279
 7260SOL    HW122679   5.478   3.296   1.270
 7260SOL    HW222680   5.588   3.413   1.244
 7261SOL     OW22681   0.031   4.813   0.500
 7261SOL    HW122682   6.979   4.870   0.539
 7261SOL    HW222683   0.053   4.845   0.408
 7262SOL     OW22684   6.323   1.143   5.159
 7262SOL    HW122685   6.339   1.058   5.210
 7262SOL    HW222686   6.237   1.135   5.108
 7263SOL     OW22687   0.334   5.671   0.079
 7263SOL    HW122688   0.344   5.738   0.153
 7263SOL    HW222689   0.247   5.623   0.089
 7264SOL     OW22690   6.369   1.647   0.359
 7264SOL    HW122691   6.370   1.573   0.426
 7264SOL    HW222692   6.362   1.735   0.407
 7265SOL     OW22693   4.176   6.004   5.889
 7265SOL    HW122694   4.184   6.001   5.789
 7265SOL    HW222695   4.106   5.940   5.919
 7266SOL     OW22696   0.697   1.071   3.735
 7266SOL    HW122697   0.670   1.055   3.830
 7266SOL    HW222698   0.680   0.988   3.681
 7267SOL     OW22699   6.250   4.570   4.668
 7267SOL    HW122700   6.287   4.652   4.625
 7267SOL    HW222701   6.308   4.544   4.745
 7268SOL     OW22702   6.522   6.544   4.578
 7268SOL    HW122703   6.568   6.497   4.653
 7268SOL    HW222704   6.579   6.541   4.496
 7269SOL     OW22705   2.585   4.606   5.159
 7269SOL    HW122706   2.657   4.643   5.101
 7269SOL    HW222707   2.550   4.521   5.119
 7270SOL     OW22708   0.720   1.093   4.775
 7270SOL    HW122709   0.789   1.022   4.785
 7270SOL    HW222710   0.723   1.154   4.854
 7271SOL     OW22711   1.044   4.455   3.625
 7271SOL    HW122712   0.975   4.416   3.563
 7271SOL    HW222713   1.135   4.425   3.596
 7272SOL     OW22714   6.866   4.739   2.636
 7272SOL    HW122715   6.817   4.710   2.718
 7272SOL    HW222716   6.934   4.670   2.612
 7273SOL     OW22717   0.557   2.220   5.107
 7273SOL    HW122718   0.526   2.261   5.193
 7273SOL    HW222719   0.516   2.269   5.030
 7274SOL     OW22720   0.757   4.588   0.123
 7274SOL    HW122721   0.848   4.628   0.137
 7274SOL    HW222722   0.708   4.641   0.053
 7275SOL     OW22723   6.869   0.411   2.719
 7275SOL    HW122724   6.967   0.430   2.722
 7275SOL    HW222725   6.822   0.468   2.787
 7276SOL     OW22726   5.929   6.467   4.702
 7276SOL    HW122727   5.835   6.487   4.675
 7276SOL    HW222728   5.940   6.369   4.715
 7277SOL     OW22729   4.830   0.307   6.226
 7277SOL    HW122730   4.870   0.357   6.150
 7277SOL    HW222731   4.888   0.229   6.249
 7278SOL     OW22732   2.868   3.486   2.581
 7278SOL    HW122733   2.770   3.470   2.592
 7278SOL    HW222734   2.904   3.427   2.510
 7279SOL     OW22735   3.136   6.838   6.156
 7279SOL    HW122736   3.062   6.786   6.115
 7279SOL    HW222737   3.224   6.794   6.135
 7280SOL     OW22738   4.763   1.555   5.855
 7280SOL    HW122739   4.761   1.466   5.900
 7280SOL    HW222740   4.714   1.622   5.911
 7281SOL     OW22741   5.181   1.548   6.364
 7281SOL    HW122742   5.220   1.597   6.286
 7281SOL    HW222743   5.095   1.592   6.391
 7282SOL     OW22744   5.636   5.573   2.283
 7282SOL    HW122745   5.713   5.509   2.286
 7282SOL    HW222746   5.592   5.575   2.373
 7283SOL     OW22747   1.932   0.908   3.654
 7283SOL    HW122748   1.957   0.824   3.701
 7283SOL    HW222749   1.835   0.927   3.667
 7284SOL     OW22750   0.162   3.861   4.764
 7284SOL    HW122751   0.193   3.896   4.675
 7284SOL    HW222752   0.063   3.852   4.764
 7285SOL     OW22753   5.167   5.559   1.431
 7285SOL    HW122754   5.223   5.505   1.494
 7285SOL    HW222755   5.103   5.499   1.384
 7286SOL     OW22756   1.917   3.589   1.333
 7286SOL    HW122757   1.979   3.524   1.288
 7286SOL    HW222758   1.911   3.567   1.430
 7287SOL     OW22759   6.060   1.341   6.356
 7287SOL    HW122760   6.027   1.303   6.443
 7287SOL    HW222761   6.132   1.408   6.375
 7288SOL     OW22762   3.575   6.600   6.879
 7288SOL    HW122763   3.493   6.543   6.872
 7288SOL    HW222764   3.639   6.575   6.807
 7289SOL     OW22765   4.542   1.715   3.367
 7289SOL    HW122766   4.622   1.659   3.388
 7289SOL    HW222767   4.465   1.656   3.342
 7290SOL     OW22768   2.489   5.301   4.391
 7290SOL    HW122769   2.563   5.335   4.449
 7290SOL    HW222770   2.479   5.361   4.312
 7291SOL     OW22771   2.686   5.354   1.830
 7291SOL    HW122772   2.759   5.301   1.873
 7291SOL    HW222773   2.708   5.452   1.836
 7292SOL     OW22774   2.749   6.964   4.381
 7292SOL    HW122775   2.779   0.038   4.359
 7292SOL    HW222776   2.789   6.900   4.315
 7293SOL     OW22777   1.079   2.576   5.600
 7293SOL    HW122778   1.121   2.495   5.560
 7293SOL    HW222779   1.008   2.611   5.538
 7294SOL     OW22780   3.444   5.121   0.899
 7294SOL    HW122781   3.471   5.027   0.923
 7294SOL    HW222782   3.419   5.124   0.802
 7295SOL     OW22783   5.881   0.494   1.614
 7295SOL    HW122784   5.918   0.583   1.588
 7295SOL    HW222785   5.921   0.422   1.558
 7296SOL     OW22786   3.903   4.614   1.573
 7296SOL    HW122787   3.834   4.562   1.623
 7296SOL    HW222788   3.976   4.553   1.543
 7297SOL     OW22789   5.369   0.136   1.690
 7297SOL    HW122790   5.320   0.065   1.741
 7297SOL    HW222791   5.438   0.177   1.750
 7298SOL     OW22792   5.634   3.658   4.201
 7298SOL    HW122793   5.658   3.678   4.295
 7298SOL    HW222794   5.676   3.572   4.172
 7299SOL     OW22795   6.693   4.187   6.420
 7299SOL    HW122796   6.631   4.240   6.478
 7299SOL    HW222797   6.740   4.248   6.356
 7300SOL     OW22798   4.221   5.044   0.961
 7300SOL    HW122799   4.172   5.129   0.975
 7300SOL    HW222800   4.319   5.059   0.976
 7301SOL     OW22801   6.501   0.494   6.202
 7301SOL    HW122802   6.556   0.452   6.130
 7301SOL    HW222803   6.562   0.530   6.274
 7302SOL     OW22804   5.087   1.160   6.558
 7302SOL    HW122805   5.088   1.251   6.600
 7302SOL    HW222806   5.120   1.092   6.624
 7303SOL     OW22807   3.626   1.341   0.302
 7303SOL    HW122808   3.642   1.253   0.346
 7303SOL    HW222809   3.654   1.415   0.364
 7304SOL     OW22810   3.306   3.994   5.622
 7304SOL    HW122811   3.363   3.937   5.563
 7304SOL    HW222812   3.249   4.055   5.566
 7305SOL     OW22813   5.151   1.033   0.607
 7305SOL    HW122814   5.087   1.053   0.681
 7305SOL    HW222815   5.189   1.119   0.572
 7306SOL     OW22816   4.934   4.845   1.915
 7306SOL    HW122817   4.903   4.940   1.909
 7306SOL    HW222818   4.861   4.789   1.955
 7307SOL     OW22819   3.937   6.376   2.546
 7307SOL    HW122820   3.982   6.446   2.490
 7307SOL    HW222821   3.982   6.371   2.635
 7308SOL     OW22822   6.649   2.003   4.413
 7308SOL    HW122823   6.592   2.061   4.354
 7308SOL    HW222824   6.744   2.033   4.408
 7309SOL     OW22825   4.335   6.482   1.290
 7309SOL    HW122826   4.267   6.411   1.272
 7309SOL    HW222827   4.420   6.460   1.241
 7310SOL     OW22828   3.071   5.168   1.496
 7310SOL    HW122829   2.986   5.214   1.520
 7310SOL    HW222830   3.087   5.092   1.559
 7311SOL     OW22831   2.735   2.201   1.857
 7311SOL    HW122832   2.783   2.263   1.919
 7311SOL    HW222833   2.798   2.131   1.823
 7312SOL     OW22834   6.910   1.166   5.738
 7312SOL    HW122835   6.880   1.253   5.699
 7312SOL    HW222836   6.831   1.112   5.764
 7313SOL     OW22837   4.271   2.394   6.739
 7313SOL    HW122838   4.206   2.345   6.681
 7313SOL    HW222839   4.231   2.481   6.768
 7314SOL     OW22840   0.331   3.387   4.199
 7314SOL    HW122841   0.300   3.398   4.294
 7314SOL    HW222842   0.319   3.292   4.172
 7315SOL     OW22843   6.594   0.083   4.302
 7315SOL    HW122844   6.521   0.029   4.260
 7315SOL    HW222845   6.649   0.126   4.230
 7316SOL     OW22846   3.435   3.765   5.490
 7316SOL    HW122847   3.386   3.731   5.410
 7316SOL    HW222848   3.495   3.693   5.526
 7317SOL     OW22849   3.710   1.187   3.881
 7317SOL    HW122850   3.782   1.190   3.950
 7317SOL    HW222851   3.752   1.177   3.790
 7318SOL     OW22852   1.958   2.183   0.987
 7318SOL    HW122853   2.023   2.244   0.940
 7318SOL    HW222854   1.974   2.186   1.085
 7319SOL     OW22855   5.733   4.771   6.671
 7319SOL    HW122856   5.810   4.756   6.734
 7319SOL    HW222857   5.768   4.802   6.583
 7320SOL     OW22858   0.343   3.071   1.931
 7320SOL    HW122859   0.283   3.126   1.873
 7320SOL    HW222860   0.332   3.100   2.026
 7321SOL     OW22861   2.976   1.326   4.213
 7321SOL    HW122862   2.898   1.388   4.203
 7321SOL    HW222863   3.031   1.355   4.291
 7322SOL     OW22864   0.079   4.038   3.176
 7322SOL    HW122865   0.120   4.106   3.237
 7322SOL    HW222866   0.131   4.035   3.090
 7323SOL     OW22867   2.114   3.677   3.442
 7323SOL    HW122868   2.074   3.761   3.477
 7323SOL    HW222869   2.136   3.688   3.345
 7324SOL     OW22870   5.508   6.839   2.895
 7324SOL    HW122871   5.541   6.752   2.931
 7324SOL    HW222872   5.584   6.891   2.858
 7325SOL     OW22873   3.218   6.178   6.974
 7325SOL    HW122874   3.144   6.148   6.914
 7325SOL    HW222875   3.220   6.278   6.976
 7326SOL     OW22876   3.097   6.723   5.364
 7326SOL    HW122877   3.062   6.639   5.405
 7326SOL    HW222878   3.053   6.802   5.408
 7327SOL     OW22879   1.400   2.871   5.417
 7327SOL    HW122880   1.305   2.858   5.386
 7327SOL    HW222881   1.453   2.788   5.397
 7328SOL     OW22882   2.650   0.192   6.844
 7328SOL    HW122883   2.560   0.210   6.884
 7328SOL    HW222884   2.721   0.231   6.903
 7329SOL     OW22885   4.245   2.932   1.084
 7329SOL    HW122886   4.174   3.003   1.086
 7329SOL    HW222887   4.207   2.846   1.120
 7330SOL     OW22888   4.344   1.402   0.006
 7330SOL    HW122889   4.430   1.392   0.056
 7330SOL    HW222890   4.349   1.483   6.966
 7331SOL     OW22891   5.613   0.335   1.968
 7331SOL    HW122892   5.637   0.418   2.019
 7331SOL    HW222893   5.673   0.327   1.888
 7332SOL     OW22894   3.358   5.311   1.429
 7332SOL    HW122895   3.405   5.390   1.390
 7332SOL    HW222896   3.325   5.252   1.356
 7333SOL     OW22897   1.025   5.001   2.488
 7333SOL    HW122898   0.940   5.051   2.506
 7333SOL    HW222899   1.097   5.035   2.549
 7334SOL     OW22900   4.166   6.500   4.390
 7334SOL    HW122901   4.165   6.585   4.442
 7334SOL    HW222902   4.076   6.484   4.350
 7335SOL     OW22903   1.746   2.499   2.711
 7335SOL    HW122904   1.846   2.506   2.719
 7335SOL    HW222905   1.721   2.409   2.675
 7336SOL     OW22906   2.008   6.517   3.366
 7336SOL    HW122907   1.947   6.558   3.433
 7336SOL    HW222908   2.077   6.583   3.338
 7337SOL     OW22909   6.603   2.987   2.200
 7337SOL    HW122910   6.539   2.916   2.170
 7337SOL    HW222911   6.560   3.077   2.188
 7338SOL     OW22912   6.703   2.772   0.498
 7338SOL    HW122913   6.796   2.810   0.496
 7338SOL    HW222914   6.638   2.844   0.521
 7339SOL     OW22915   0.001   5.539   4.651
 7339SOL    HW122916   0.041   5.494   4.571
 7339SOL    HW222917   6.951   5.605   4.621
 7340SOL     OW22918   2.356   0.248   6.747
 7340SOL    HW122919   2.435   0.290   6.702
 7340SOL    HW222920   2.273   0.271   6.696
 7341SOL     OW22921   6.310   2.620   6.439
 7341SOL    HW122922   6.244   2.586   6.372
 7341SOL    HW222923   6.403   2.598   6.409
 7342SOL     OW22924   6.892   6.928   2.558
 7342SOL    HW122925   6.898   6.911   2.460
 7342SOL    HW222926   6.797   6.921   2.588
 7343SOL     OW22927   5.361   3.661   0.067
 7343SOL    HW122928   5.307   3.670   0.151
 7343SOL    HW222929   5.307   3.696   7.009
 7344SOL     OW22930   1.358   6.521   5.899
 7344SOL    HW122931   1.304   6.527   5.983
 7344SOL    HW222932   1.345   6.432   5.856
 7345SOL     OW22933   3.481   5.551   6.054
 7345SOL    HW122934   3.428   5.510   6.129
 7345SOL    HW222935   3.578   5.537   6.071
 7346SOL     OW22936   4.980   4.545   2.875
 7346SOL    HW122937   5.038   4.465   2.880
 7346SOL    HW222938   5.027   4.618   2.826
 7347SOL     OW22939   5.678   2.419   6.711
 7347SOL    HW122940   5.589   2.380   6.686
 7347SOL    HW222941   5.697   2.400   6.808
 7348SOL     OW22942   6.980   4.903   1.540
 7348SOL    HW122943   6.935   4.827   1.493
 7348SOL    HW222944   6.950   4.904   1.636
 7349SOL     OW22945   4.025   1.882   1.959
 7349SOL    HW122946   4.032   1.982   1.970
 7349SOL    HW222947   4.033   1.839   2.049
 7350SOL     OW22948   3.437   0.303   5.166
 7350SOL    HW122949   3.463   0.397   5.143
 7350SOL    HW222950   3.381   0.265   5.092
 7351SOL     OW22951   3.401   4.937   4.220
 7351SOL    HW122952   3.485   4.900   4.260
 7351SOL    HW222953   3.328   4.936   4.288
 7352SOL     OW22954   6.814   2.655   3.841
 7352SOL    HW122955   6.792   2.627   3.934
 7352SOL    HW222956   6.890   2.600   3.807
 7353SOL     OW22957   6.142   0.358   6.636
 7353SOL    HW122958   6.234   0.341   6.671
 7353SOL    HW222959   6.112   0.449   6.663
 7354SOL     OW22960   0.696   1.855   3.258
 7354SOL    HW122961   0.610   1.862   3.208
 7354SOL    HW222962   0.772   1.874   3.195
 7355SOL     OW22963   1.550   1.873   6.925
 7355SOL    HW122964   1.604   1.938   6.873
 7355SOL    HW222965   1.608   1.828   6.994
 7356SOL     OW22966   4.210   3.953   6.218
 7356SOL    HW122967   4.224   3.855   6.205
 7356SOL    HW222968   4.179   3.994   6.131
 7357SOL     OW22969   5.361   5.801   2.349
 7357SOL    HW122970   5.330   5.810   2.444
 7357SOL    HW222971   5.310   5.728   2.304
 7358SOL     OW22972   5.827   0.917   3.833
 7358SOL    HW122973   5.815   1.009   3.871
 7358SOL    HW222974   5.750   0.860   3.859
 7359SOL     OW22975   4.926   0.165   0.996
 7359SOL    HW122976   4.940   0.249   1.048
 7359SOL    HW222977   4.934   0.185   0.899
 7360SOL     OW22978   2.937   3.726   4.766
 7360SOL    HW122979   2.923   3.648   4.827
 7360SOL    HW222980   2.990   3.698   4.687
 7361SOL     OW22981   5.312   0.506   3.716
 7361SOL    HW122982   5.294   0.576   3.785
 7361SOL    HW222983   5.331   0.419   3.762
 7362SOL     OW22984   3.398   5.212   6.321
 7362SOL    HW122985   3.429   5.164   6.240
 7362SOL    HW222986   3.468   5.205   6.393
 7363SOL     OW22987   3.863   0.653   0.802
 7363SOL    HW122988   3.849   0.554   0.798
 7363SOL    HW222989   3.828   0.695   0.718
 7364SOL     OW22990   5.800   0.053   1.304
 7364SOL    HW122991   5.816   0.148   1.276
 7364SOL    HW222992   5.867   7.012   1.260
 7365SOL     OW22993   5.708   4.904   2.302
 7365SOL    HW122994   5.613   4.920   2.276
 7365SOL    HW222995   5.711   4.839   2.378
 7366SOL     OW22996   2.150   1.260   4.087
 7366SOL    HW122997   2.055   1.258   4.117
 7366SOL    HW222998   2.177   1.170   4.052
 7367SOL     OW22999   4.327   0.307   6.726
 7367SOL    HW123000   4.403   0.277   6.668
 7367SOL    HW223001   4.287   0.391   6.689
 7368SOL     OW23002   3.690   3.877   3.628
 7368SOL    HW123003   3.756   3.947   3.655
 7368SOL    HW223004   3.598   3.910   3.647
 7369SOL     OW23005   5.287   2.049   0.775
 7369SOL    HW123006   5.246   2.096   0.697
 7369SOL    HW223007   5.236   2.072   0.858
 7370SOL     OW23008   2.148   1.555   4.269
 7370SOL    HW123009   2.222   1.608   4.312
 7370SOL    HW223010   2.100   1.503   4.339
 7371SOL     OW23011   4.036   0.668   3.701
 7371SOL    HW123012   4.086   0.618   3.771
 7371SOL    HW223013   3.958   0.716   3.743
 7372SOL     OW23014   5.546   0.727   5.405
 7372SOL    HW123015   5.611   0.729   5.329
 7372SOL    HW223016   5.596   0.735   5.492
 7373SOL     OW23017   5.626   3.339   4.380
 7373SOL    HW123018   5.663   3.349   4.473
 7373SOL    HW223019   5.644   3.423   4.328
 7374SOL     OW23020   6.320   1.875   5.375
 7374SOL    HW123021   6.304   1.942   5.303
 7374SOL    HW223022   6.249   1.804   5.371
 7375SOL     OW23023   1.790   3.648   2.093
 7375SOL    HW123024   1.754   3.670   2.002
 7375SOL    HW223025   1.780   3.726   2.153
 7376SOL     OW23026   0.140   3.763   0.219
 7376SOL    HW123027   0.228   3.809   0.208
 7376SOL    HW223028   0.118   3.757   0.317
 7377SOL     OW23029   2.804   6.146   1.142
 7377SOL    HW123030   2.722   6.095   1.117
 7377SOL    HW223031   2.810   6.230   1.088
 7378SOL     OW23032   1.134   5.819   3.866
 7378SOL    HW123033   1.045   5.848   3.832
 7378SOL    HW223034   1.145   5.849   3.960
 7379SOL     OW23035   3.902   1.060   1.121
 7379SOL    HW123036   3.832   1.063   1.193
 7379SOL    HW223037   3.991   1.081   1.160
 7380SOL     OW23038   5.334   3.946   2.116
 7380SOL    HW123039   5.402   3.984   2.178
 7380SOL    HW223040   5.377   3.926   2.028
 7381SOL     OW23041   3.782   0.904   0.921
 7381SOL    HW123042   3.807   0.812   0.891
 7381SOL    HW223043   3.858   0.945   0.971
 7382SOL     OW23044   6.422   1.273   6.185
 7382SOL    HW123045   6.376   1.362   6.191
 7382SOL    HW223046   6.362   1.203   6.222
 7383SOL     OW23047   2.003   6.983   0.565
 7383SOL    HW123048   2.083   7.013   0.514
 7383SOL    HW223049   1.959   0.043   0.608
 7384SOL     OW23050   6.947   6.899   1.214
 7384SOL    HW123051   6.882   6.908   1.289
 7384SOL    HW223052   0.004   6.963   1.228
 7385SOL     OW23053   5.985   4.159   3.158
 7385SOL    HW123054   6.075   4.116   3.153
 7385SOL    HW223055   5.975   4.206   3.246
 7386SOL     OW23056   5.395   3.490   0.383
 7386SOL    HW123057   5.373   3.580   0.421
 7386SOL    HW223058   5.391   3.422   0.456
 7387SOL     OW23059   6.792   5.959   5.455
 7387SOL    HW123060   6.744   6.003   5.379
 7387SOL    HW223061   6.867   6.018   5.485
 7388SOL     OW23062   2.183   4.970   2.944
 7388SOL    HW123063   2.264   4.960   2.888
 7388SOL    HW223064   2.191   5.052   3.001
 7389SOL     OW23065   5.722   2.933   6.948
 7389SOL    HW123066   5.750   2.929   0.025
 7389SOL    HW223067   5.772   2.863   6.896
 7390SOL     OW23068   2.366   2.620   2.966
 7390SOL    HW123069   2.438   2.562   2.927
 7390SOL    HW223070   2.369   2.614   3.065
 7391SOL     OW23071   3.906   3.090   3.129
 7391SOL    HW123072   3.935   3.045   3.045
 7391SOL    HW223073   3.963   3.171   3.146
 7392SOL     OW23074   2.729   6.235   6.679
 7392SOL    HW123075   2.813   6.272   6.718
 7392SOL    HW223076   2.713   6.143   6.716
 7393SOL     OW23077   5.349   5.149   4.139
 7393SOL    HW123078   5.348   5.137   4.040
 7393SOL    HW223079   5.255   5.150   4.174
 7394SOL     OW23080   2.685   1.922   6.020
 7394SOL    HW123081   2.754   1.975   6.069
 7394SOL    HW223082   2.730   1.853   5.964
 7395SOL     OW23083   3.019   5.594   0.954
 7395SOL    HW123084   3.079   5.662   0.913
 7395SOL    HW223085   2.937   5.639   0.991
 7396SOL     OW23086   2.468   5.310   1.999
 7396SOL    HW123087   2.401   5.283   1.929
 7396SOL    HW223088   2.559   5.315   1.958
 7397SOL     OW23089   5.796   4.255   3.859
 7397SOL    HW123090   5.740   4.192   3.913
 7397SOL    HW223091   5.739   4.304   3.793
 7398SOL     OW23092   2.568   4.838   2.491
 7398SOL    HW123093   2.598   4.864   2.399
 7398SOL    HW223094   2.470   4.818   2.490
 7399SOL     OW23095   5.189   2.304   5.213
 7399SOL    HW123096   5.202   2.384   5.272
 7399SOL    HW223097   5.196   2.221   5.268
 7400SOL     OW23098   5.448   2.914   5.784
 7400SOL    HW123099   5.422   3.009   5.769
 7400SOL    HW223100   5.389   2.873   5.854
 7401SOL     OW23101   1.627   3.000   3.729
 7401SOL    HW123102   1.643   3.064   3.804
 7401SOL    HW223103   1.528   2.982   3.721
 7402SOL     OW23104   3.358   6.164   4.641
 7402SOL    HW123105   3.358   6.155   4.741
 7402SOL    HW223106   3.445   6.204   4.612
 7403SOL     OW23107   1.960   3.947   4.164
 7403SOL    HW123108   1.916   3.942   4.254
 7403SOL    HW223109   2.051   3.988   4.174
 7404SOL     OW23110   3.593   3.407   1.164
 7404SOL    HW123111   3.508   3.370   1.202
 7404SOL    HW223112   3.660   3.334   1.155
 7405SOL     OW23113   3.823   6.469   3.882
 7405SOL    HW123114   3.757   6.475   3.957
 7405SOL    HW223115   3.774   6.450   3.797
 7406SOL     OW23116   0.949   1.292   5.068
 7406SOL    HW123117   1.031   1.268   5.016
 7406SOL    HW223118   0.953   1.389   5.093
 7407SOL     OW23119   0.872   5.790   5.540
 7407SOL    HW123120   0.826   5.778   5.628
 7407SOL    HW223121   0.829   5.865   5.490
 7408SOL     OW23122   3.852   4.777   5.249
 7408SOL    HW123123   3.863   4.846   5.179
 7408SOL    HW223124   3.888   4.811   5.336
 7409SOL     OW23125   6.463   3.452   1.042
 7409SOL    HW123126   6.512   3.373   1.078
 7409SOL    HW223127   6.528   3.525   1.022
 7410SOL     OW23128   0.545   0.861   1.131
 7410SOL    HW123129   0.574   0.917   1.208
 7410SOL    HW223130   0.585   0.770   1.138
 7411SOL     OW23131   1.650   1.513   5.230
 7411SOL    HW123132   1.640   1.565   5.146
 7411SOL    HW223133   1.726   1.550   5.284
 7412SOL     OW23134   4.247   6.647   0.406
 7412SOL    HW123135   4.239   6.606   0.497
 7412SOL    HW223136   4.302   6.588   0.347
 7413SOL     OW23137   4.424   0.012   3.691
 7413SOL    HW123138   4.415   6.957   3.757
 7413SOL    HW223139   4.340   0.065   3.688
 7414SOL     OW23140   3.355   1.491   4.147
 7414SOL    HW123141   3.258   1.508   4.133
 7414SOL    HW223142   3.381   1.406   4.100
 7415SOL     OW23143   3.738   6.355   6.301
 7415SOL    HW123144   3.647   6.392   6.319
 7415SOL    HW223145   3.798   6.376   6.378
 7416SOL     OW23146   1.395   0.741   2.127
 7416SOL    HW123147   1.303   0.717   2.158
 7416SOL    HW223148   1.397   0.838   2.102
 7417SOL     OW23149   0.337   1.131   3.157
 7417SOL    HW123150   0.422   1.084   3.134
 7417SOL    HW223151   0.291   1.083   3.231
 7418SOL     OW23152   1.604   4.093   5.951
 7418SOL    HW123153   1.523   4.043   5.919
 7418SOL    HW223154   1.687   4.043   5.924
 7419SOL     OW23155   6.901   3.825   3.789
 7419SOL    HW123156   6.900   3.820   3.889
 7419SOL    HW223157   6.813   3.859   3.757
 7420SOL     OW23158   0.010   0.108   1.899
 7420SOL    HW123159   0.072   0.166   1.953
 7420SOL    HW223160   0.064   0.042   1.848
 7421SOL     OW23161   5.444   3.797   1.033
 7421SOL    HW123162   5.434   3.697   1.031
 7421SOL    HW223163   5.407   3.832   1.119
 7422SOL     OW23164   5.683   2.177   2.755
 7422SOL    HW123165   5.615   2.115   2.794
 7422SOL    HW223166   5.679   2.173   2.655
 7423SOL     OW23167   5.335   1.828   5.686
 7423SOL    HW123168   5.283   1.912   5.698
 7423SOL    HW223169   5.417   1.830   5.743
 7424SOL     OW23170   0.674   2.230   3.606
 7424SOL    HW123171   0.584   2.271   3.618
 7424SOL    HW223172   0.664   2.130   3.600
 7425SOL     OW23173   6.066   0.442   1.092
 7425SOL    HW123174   6.093   0.482   1.005
 7425SOL    HW223175   6.088   0.505   1.166
 7426SOL     OW23176   4.012   3.191   5.548
 7426SOL    HW123177   4.070   3.189   5.630
 7426SOL    HW223178   4.021   3.105   5.498
 7427SOL     OW23179   2.933   0.838   3.452
 7427SOL    HW123180   2.938   0.912   3.385
 7427SOL    HW223181   2.843   0.795   3.448
 7428SOL     OW23182   4.780   6.244   4.796
 7428SOL    HW123183   4.852   6.297   4.841
 7428SOL    HW223184   4.715   6.211   4.865
 7429SOL     OW23185   1.139   6.692   3.072
 7429SOL    HW123186   1.234   6.686   3.102
 7429SOL    HW223187   1.127   6.768   3.009
 7430SOL     OW23188   6.651   5.358   2.696
 7430SOL    HW123189   6.642   5.281   2.633
 7430SOL    HW223190   6.647   5.325   2.790
 7431SOL     OW23191   1.207   1.689   3.650
 7431SOL    HW123192   1.139   1.713   3.718
 7431SOL    HW223193   1.286   1.647   3.694
 7432SOL     OW23194   2.446   0.376   3.118
 7432SOL    HW123195   2.362   0.429   3.104
 7432SOL    HW223196   2.499   0.418   3.192
 7433SOL     OW23197   2.569   6.982   6.706
 7433SOL    HW123198   2.482   6.943   6.735
 7433SOL    HW223199   2.579   0.055   6.744
 7434SOL     OW23200   4.073   6.709   4.559
 7434SOL    HW123201   3.991   6.765   4.547
 7434SOL    HW223202   4.154   6.767   4.557
 7435SOL     OW23203   5.158   4.330   2.812
 7435SOL    HW123204   5.163   4.277   2.727
 7435SOL    HW223205   5.244   4.380   2.825
 7436SOL     OW23206   5.473   2.794   6.119
 7436SOL    HW123207   5.406   2.774   6.190
 7436SOL    HW223208   5.557   2.829   6.162
 7437SOL     OW23209   2.954   6.846   0.572
 7437SOL    HW123210   2.996   6.888   0.653
 7437SOL    HW223211   2.998   6.882   0.489
 7438SOL     OW23212   1.798   0.405   0.107
 7438SOL    HW123213   1.709   0.381   0.068
 7438SOL    HW223214   1.854   0.323   0.117
 7439SOL     OW23215   1.155   4.292   6.845
 7439SOL    HW123216   1.239   4.311   6.896
 7439SOL    HW223217   1.111   4.210   6.882
 7440SOL     OW23218   5.433   3.639   3.987
 7440SOL    HW123219   5.516   3.647   4.042
 7440SOL    HW223220   5.444   3.566   3.920
 7441SOL     OW23221   5.649   5.685   1.415
 7441SOL    HW123222   5.683   5.777   1.393
 7441SOL    HW223223   5.549   5.684   1.410
 7442SOL     OW23224   5.209   0.502   5.832
 7442SOL    HW123225   5.156   0.543   5.758
 7442SOL    HW223226   5.257   0.574   5.882
 7443SOL     OW23227   0.314   0.814   1.767
 7443SOL    HW123228   0.286   0.887   1.829
 7443SOL    HW223229   0.237   0.789   1.709
 7444SOL     OW23230   1.989   6.496   6.942
 7444SOL    HW123231   1.983   6.529   0.017
 7444SOL    HW223232   1.923   6.422   6.928
 7445SOL     OW23233   4.108   6.474   1.530
 7445SOL    HW123234   4.084   6.469   1.433
 7445SOL    HW223235   4.102   6.569   1.561
 7446SOL     OW23236   5.417   4.226   0.149
 7446SOL    HW123237   5.388   4.290   0.078
 7446SOL    HW223238   5.499   4.177   0.120
 7447SOL     OW23239   0.407   4.599   0.797
 7447SOL    HW123240   0.402   4.508   0.838
 7447SOL    HW223241   0.329   4.613   0.736
 7448SOL     OW23242   4.625   5.482   0.084
 7448SOL    HW123243   4.549   5.426   0.055
 7448SOL    HW223244   4.698   5.424   0.121
 7449SOL     OW23245   0.231   4.479   6.200
 7449SOL    HW123246   0.192   4.407   6.258
 7449SOL    HW223247   0.192   4.567   6.225
 7450SOL     OW23248   5.394   2.235   5.048
 7450SOL    HW123249   5.456   2.237   5.127
 7450SOL    HW223250   5.302   2.262   5.077
 7451SOL     OW23251   4.628   4.449   3.205
 7451SOL    HW123252   4.553   4.494   3.253
 7451SOL    HW223253   4.712   4.501   3.218
 7452SOL     OW23254   5.955   5.338   5.883
 7452SOL    HW123255   5.993   5.264   5.827
 7452SOL    HW223256   6.012   5.351   5.963
 7453SOL     OW23257   3.335   5.917   6.176
 7453SOL    HW123258   3.330   5.967   6.090
 7453SOL    HW223259   3.267   5.843   6.175
 7454SOL     OW23260   4.411   2.182   1.110
 7454SOL    HW123261   4.383   2.276   1.129
 7454SOL    HW223262   4.461   2.146   1.189
 7455SOL     OW23263   6.687   1.849   3.056
 7455SOL    HW123264   6.704   1.797   2.972
 7455SOL    HW223265   6.593   1.883   3.056
 7456SOL     OW23266   2.611   2.092   6.430
 7456SOL    HW123267   2.545   2.091   6.505
 7456SOL    HW223268   2.563   2.080   6.343
 7457SOL     OW23269   2.083   0.923   2.635
 7457SOL    HW123270   2.166   0.876   2.665
 7457SOL    HW223271   2.053   0.885   2.548
 7458SOL     OW23272   1.821   4.963   5.380
 7458SOL    HW123273   1.899   4.975   5.441
 7458SOL    HW223274   1.850   4.913   5.298
 7459SOL     OW23275   5.823   0.487   2.506
 7459SOL    HW123276   5.723   0.490   2.498
 7459SOL    HW223277   5.854   0.552   2.575
 7460SOL     OW23278   1.966   6.458   0.877
 7460SOL    HW123279   1.899   6.530   0.896
 7460SOL    HW223280   2.047   6.471   0.935
 7461SOL     OW23281   2.122   4.355   5.944
 7461SOL    HW123282   2.122   4.294   5.865
 7461SOL    HW223283   2.126   4.302   6.028
 7462SOL     OW23284   1.357   4.116   0.615
 7462SOL    HW123285   1.296   4.084   0.542
 7462SOL    HW223286   1.305   4.131   0.698
 7463SOL     OW23287   3.968   5.634   1.403
 7463SOL    HW123288   4.058   5.598   1.426
 7463SOL    HW223289   3.974   5.690   1.320
 7464SOL     OW23290   6.099   6.291   5.100
 7464SOL    HW123291   6.032   6.218   5.102
 7464SOL    HW223292   6.053   6.380   5.102
 7465SOL     OW23293   1.761   4.862   0.354
 7465SOL    HW123294   1.791   4.791   0.417
 7465SOL    HW223295   1.699   4.925   0.402
 7466SOL     OW23296   0.400   0.556   5.054
 7466SOL    HW123297   0.359   0.627   5.112
 7466SOL    HW223298   0.499   0.559   5.062
 7467SOL     OW23299   0.317   3.409   5.090
 7467SOL    HW123300   0.230   3.440   5.054
 7467SOL    HW223301   0.302   3.357   5.174
 7468SOL     OW23302   5.755   3.818   5.630
 7468SOL    HW123303   5.786   3.898   5.580
 7468SOL    HW223304   5.656   3.807   5.618
 7469SOL     OW23305   0.162   1.999   0.730
 7469SOL    HW123306   0.095   2.069   0.756
 7469SOL    HW223307   0.239   2.043   0.683
 7470SOL     OW23308   5.784   2.758   3.421
 7470SOL    HW123309   5.725   2.817   3.476
 7470SOL    HW223310   5.773   2.663   3.451
 7471SOL     OW23311   3.991   5.882   6.273
 7471SOL    HW123312   4.086   5.894   6.244
 7471SOL    HW223313   3.940   5.835   6.201
 7472SOL     OW23314   6.586   0.100   5.854
 7472SOL    HW123315   6.530   0.113   5.773
 7472SOL    HW223316   6.670   0.052   5.829
 7473SOL     OW23317   3.250   6.019   3.803
 7473SOL    HW123318   3.300   5.971   3.875
 7473SOL    HW223319   3.167   6.061   3.842
 7474SOL     OW23320   5.858   1.790   6.935
 7474SOL    HW123321   5.830   1.711   6.990
 7474SOL    HW223322   5.900   1.859   6.994
 7475SOL     OW23323   5.189   2.194   1.014
 7475SOL    HW123324   5.119   2.169   1.081
 7475SOL    HW223325   5.259   2.250   1.059
 7476SOL     OW23326   2.115   0.252   2.988
 7476SOL    HW123327   2.104   0.265   3.086
 7476SOL    HW223328   2.151   0.336   2.947
 7477SOL     OW23329   0.840   3.937   4.789
 7477SOL    HW123330   0.846   3.867   4.718
 7477SOL    HW223331   0.928   3.984   4.798
 7478SOL     OW23332   0.699   1.166   6.167
 7478SOL    HW123333   0.668   1.071   6.157
 7478SOL    HW223334   0.621   1.224   6.189
 7479SOL     OW23335   5.316   2.680   0.509
 7479SOL    HW123336   5.300   2.778   0.499
 7479SOL    HW223337   5.261   2.644   0.584
 7480SOL     OW23338   3.649   4.897   2.516
 7480SOL    HW123339   3.551   4.918   2.514
 7480SOL    HW223340   3.677   4.861   2.427
 7481SOL     OW23341   0.207   3.636   6.889
 7481SOL    HW123342   0.222   3.581   6.807
 7481SOL    HW223343   0.284   3.698   6.902
 7482SOL     OW23344   5.048   2.149   2.954
 7482SOL    HW123345   4.995   2.064   2.945
 7482SOL    HW223346   5.033   2.188   3.044
 7483SOL     OW23347   4.866   2.131   5.485
 7483SOL    HW123348   4.835   2.203   5.548
 7483SOL    HW223349   4.871   2.044   5.534
 7484SOL     OW23350   3.560   6.717   3.695
 7484SOL    HW123351   3.619   6.639   3.679
 7484SOL    HW223352   3.522   6.712   3.788
 7485SOL     OW23353   3.516   6.486   5.726
 7485SOL    HW123354   3.557   6.395   5.715
 7485SOL    HW223355   3.559   6.533   5.803
 7486SOL     OW23356   2.439   6.570   1.233
 7486SOL    HW123357   2.415   6.640   1.300
 7486SOL    HW223358   2.426   6.479   1.275
 7487SOL     OW23359   3.876   6.115   4.426
 7487SOL    HW123360   3.956   6.144   4.479
 7487SOL    HW223361   3.792   6.137   4.477
 7488SOL     OW23362   0.553   5.599   3.990
 7488SOL    HW123363   0.597   5.646   3.913
 7488SOL    HW223364   0.512   5.514   3.958
 7489SOL     OW23365   5.646   3.172   6.861
 7489SOL    HW123366   5.547   3.184   6.866
 7489SOL    HW223367   5.671   3.080   6.893
 7490SOL     OW23368   0.801   2.304   2.436
 7490SOL    HW123369   0.890   2.267   2.465
 7490SOL    HW223370   0.815   2.392   2.392
 7491SOL     OW23371   4.140   3.179   0.245
 7491SOL    HW123372   4.232   3.214   0.227
 7491SOL    HW223373   4.140   3.080   0.235
 7492SOL     OW23374   1.321   0.093   4.443
 7492SOL    HW123375   1.232   0.137   4.429
 7492SOL    HW223376   1.370   0.142   4.515
 7493SOL     OW23377   6.745   4.585   5.274
 7493SOL    HW123378   6.832   4.583   5.323
 7493SOL    HW223379   6.670   4.574   5.339
 7494SOL     OW23380   6.962   0.923   1.628
 7494SOL    HW123381   6.882   0.901   1.572
 7494SOL    HW223382   6.964   0.863   1.708
 7495SOL     OW23383   1.728   3.793   4.846
 7495SOL    HW123384   1.742   3.802   4.945
 7495SOL    HW223385   1.634   3.819   4.823
 7496SOL     OW23386   5.900   4.526   2.513
 7496SOL    HW123387   5.971   4.544   2.445
 7496SOL    HW223388   5.940   4.530   2.605
 7497SOL     OW23389   6.972   6.542   1.161
 7497SOL    HW123390   6.982   6.595   1.245
 7497SOL    HW223391   7.006   6.595   1.084
 7498SOL     OW23392   3.218   6.675   2.904
 7498SOL    HW123393   3.178   6.619   2.976
 7498SOL    HW223394   3.146   6.728   2.859
 7499SOL     OW23395   2.773   1.674   3.928
 7499SOL    HW123396   2.701   1.694   3.862
 7499SOL    HW223397   2.831   1.755   3.940
 7500SOL     OW23398   3.842   0.141   3.644
 7500SOL    HW123399   3.886   0.177   3.562
 7500SOL    HW223400   3.812   0.217   3.702
 7501SOL     OW23401   6.162   2.476   5.389
 7501SOL    HW123402   6.250   2.509   5.356
 7501SOL    HW223403   6.106   2.554   5.418
 7502SOL     OW23404   4.761   0.753   4.103
 7502SOL    HW123405   4.851   0.795   4.117
 7502SOL    HW223406   4.702   0.816   4.052
 7503SOL     OW23407   1.907   5.532   1.627
 7503SOL    HW123408   1.962   5.453   1.597
 7503SOL    HW223409   1.928   5.553   1.722
 7504SOL     OW23410   6.674   6.902   4.734
 7504SOL    HW123411   6.596   6.867   4.681
 7504SOL    HW223412   6.748   6.836   4.732
 7505SOL     OW23413   0.354   6.197   5.095
 7505SOL    HW123414   0.419   6.267   5.123
 7505SOL    HW223415   0.293   6.175   5.172
 7506SOL     OW23416   3.531   1.776   3.915
 7506SOL    HW123417   3.440   1.813   3.934
 7506SOL    HW223418   3.575   1.749   4.001
 7507SOL     OW23419   6.695   4.436   5.564
 7507SOL    HW123420   6.716   4.525   5.605
 7507SOL    HW223421   6.781   4.389   5.540
 7508SOL     OW23422   2.660   5.871   0.115
 7508SOL    HW123423   2.580   5.860   0.056
 7508SOL    HW223424   2.637   5.842   0.208
 7509SOL     OW23425   6.217   5.061   1.879
 7509SOL    HW123426   6.137   5.078   1.820
 7509SOL    HW223427   6.290   5.124   1.852
 7510SOL     OW23428   3.216   3.775   3.018
 7510SOL    HW123429   3.190   3.848   3.081
 7510SOL    HW223430   3.164   3.784   2.933
 7511SOL     OW23431   4.561   6.546   4.332
 7511SOL    HW123432   4.614   6.583   4.408
 7511SOL    HW223433   4.501   6.474   4.366
 7512SOL     OW23434   3.588   1.068   0.344
 7512SOL    HW123435   3.627   1.084   0.253
 7512SOL    HW223436   3.524   0.992   0.340
 7513SOL     OW23437   1.305   2.253   2.426
 7513SOL    HW123438   1.390   2.200   2.424
 7513SOL    HW223439   1.308   2.324   2.356
 7514SOL     OW23440   1.394   5.486   1.794
 7514SOL    HW123441   1.493   5.498   1.783
 7514SOL    HW223442   1.375   5.445   1.882
 7515SOL     OW23443   0.591   4.843   5.231
 7515SOL    HW123444   0.568   4.929   5.185
 7515SOL    HW223445   0.674   4.855   5.285
 7516SOL     OW23446   1.627   6.081   5.338
 7516SOL    HW123447   1.711   6.134   5.347
 7516SOL    HW223448   1.561   6.109   5.408
 7517SOL     OW23449   0.785   1.520   6.139
 7517SOL    HW123450   0.851   1.449   6.113
 7517SOL    HW223451   0.783   1.590   6.068
 7518SOL     OW23452   4.579   2.216   3.655
 7518SOL    HW123453   4.523   2.298   3.663
 7518SOL    HW223454   4.593   2.176   3.746
 7519SOL     OW23455   3.772   6.240   4.212
 7519SOL    HW123456   3.806   6.204   4.125
 7519SOL    HW223457   3.821   6.196   4.287
 7520SOL     OW23458   1.570   1.775   0.593
 7520SOL    HW123459   1.598   1.748   0.685
 7520SOL    HW223460   1.547   1.693   0.540
 7521SOL     OW23461   3.733   1.988   5.298
 7521SOL    HW123462   3.825   1.996   5.337
 7521SOL    HW223463   3.717   1.893   5.270
 7522SOL     OW23464   1.845   6.796   3.396
 7522SOL    HW123465   1.877   6.800   3.491
 7522SOL    HW223466   1.777   6.868   3.381
 7523SOL     OW23467   5.471   1.104   0.632
 7523SOL    HW123468   5.493   1.057   0.546
 7523SOL    HW223469   5.410   1.180   0.614
 7524SOL     OW23470   0.161   3.281   4.448
 7524SOL    HW123471   0.171   3.203   4.510
 7524SOL    HW223472   0.067   3.283   4.413
 7525SOL     OW23473   4.072   5.499   6.280
 7525SOL    HW123474   4.088   5.400   6.290
 7525SOL    HW223475   3.974   5.515   6.273
 7526SOL     OW23476   2.387   3.377   1.551
 7526SOL    HW123477   2.401   3.450   1.485
 7526SOL    HW223478   2.405   3.411   1.643
 7527SOL     OW23479   3.930   4.835   3.841
 7527SOL    HW123480   4.029   4.847   3.850
 7527SOL    HW223481   3.905   4.837   3.744
 7528SOL     OW23482   5.832   3.035   6.384
 7528SOL    HW123483   5.795   3.127   6.378
 7528SOL    HW223484   5.896   3.019   6.309
 7529SOL     OW23485   6.036   3.056   4.059
 7529SOL    HW123486   5.937   3.057   4.067
 7529SOL    HW223487   6.066   3.133   4.002
 7530SOL     OW23488   0.820   2.063   1.868
 7530SOL    HW123489   0.728   2.026   1.858
 7530SOL    HW223490   0.847   2.061   1.965
 7531SOL     OW23491   4.173   1.924   4.066
 7531SOL    HW123492   4.125   1.850   4.115
 7531SOL    HW223493   4.164   2.009   4.118
 7532SOL     OW23494   4.580   5.443   6.680
 7532SOL    HW123495   4.650   5.493   6.731
 7532SOL    HW223496   4.604   5.347   6.674
 7533SOL     OW23497   4.480   4.340   1.654
 7533SOL    HW123498   4.420   4.313   1.578
 7533SOL    HW223499   4.465   4.279   1.732
 7534SOL     OW23500   3.836   0.067   4.644
 7534SOL    HW123501   3.890   0.106   4.569
 7534SOL    HW223502   3.812   0.139   4.709
 7535SOL     OW23503   0.646   6.230   4.277
 7535SOL    HW123504   0.684   6.295   4.210
 7535SOL    HW223505   0.645   6.138   4.237
 7536SOL     OW23506   5.619   5.910   4.637
 7536SOL    HW123507   5.664   5.851   4.570
 7536SOL    HW223508   5.688   5.953   4.695
 7537SOL     OW23509   2.896   6.716   3.084
 7537SOL    HW123510   2.952   6.770   3.148
 7537SOL    HW223511   2.825   6.775   3.044
 7538SOL     OW23512   0.666   3.591   0.458
 7538SOL    HW123513   0.600   3.615   0.387
 7538SOL    HW223514   0.646   3.644   0.541
 7539SOL     OW23515   0.032   0.463   4.389
 7539SOL    HW123516   0.027   0.403   4.309
 7539SOL    HW223517   0.109   0.435   4.446
 7540SOL     OW23518   6.024   5.546   3.254
 7540SOL    HW123519   6.120   5.550   3.228
 7540SOL    HW223520   5.999   5.631   3.302
 7541SOL     OW23521   2.467   4.261   6.072
 7541SOL    HW123522   2.452   4.313   5.988
 7541SOL    HW223523   2.383   4.213   6.097
 7542SOL     OW23524   6.381   5.677   5.196
 7542SOL    HW123525   6.322   5.641   5.124
 7542SOL    HW223526   6.463   5.717   5.155
 7543SOL     OW23527   2.598   1.185   6.651
 7543SOL    HW123528   2.512   1.162   6.608
 7543SOL    HW223529   2.590   1.273   6.699
 7544SOL     OW23530   6.536   1.869   4.142
 7544SOL    HW123531   6.586   1.828   4.065
 7544SOL    HW223532   6.587   1.854   4.226
 7545SOL     OW23533   1.581   4.880   5.690
 7545SOL    HW123534   1.589   4.785   5.660
 7545SOL    HW223535   1.575   4.940   5.611
 7546SOL     OW23536   2.521   2.717   1.778
 7546SOL    HW123537   2.494   2.728   1.873
 7546SOL    HW223538   2.603   2.772   1.760
 7547SOL     OW23539   4.145   0.325   1.348
 7547SOL    HW123540   4.228   0.283   1.386
 7547SOL    HW223541   4.168   0.371   1.262
 7548SOL     OW23542   3.488   2.939   6.282
 7548SOL    HW123543   3.504   2.841   6.290
 7548SOL    HW223544   3.576   2.985   6.270
 7549SOL     OW23545   5.258   1.608   4.185
 7549SOL    HW123546   5.185   1.664   4.224
 7549SOL    HW223547   5.346   1.651   4.204
 7550SOL     OW23548   2.600   4.782   4.187
 7550SOL    HW123549   2.648   4.769   4.100
 7550SOL    HW223550   2.666   4.791   4.261
 7551SOL     OW23551   6.445   2.580   6.087
 7551SOL    HW123552   6.497   2.583   6.172
 7551SOL    HW223553   6.354   2.618   6.102
 7552SOL     OW23554   2.480   6.772   4.929
 7552SOL    HW123555   2.459   6.741   4.837
 7552SOL    HW223556   2.574   6.808   4.932
 7553SOL     OW23557   5.416   6.058   5.474
 7553SOL    HW123558   5.429   6.108   5.388
 7553SOL    HW223559   5.461   5.969   5.467
 7554SOL     OW23560   4.864   0.792   0.942
 7554SOL    HW123561   4.951   0.841   0.928
 7554SOL    HW223562   4.789   0.858   0.944
 7555SOL     OW23563   4.124   5.196   4.977
 7555SOL    HW123564   4.212   5.150   4.960
 7555SOL    HW223565   4.105   5.195   5.075
 7556SOL     OW23566   0.406   6.455   1.700
 7556SOL    HW123567   0.408   6.548   1.737
 7556SOL    HW223568   0.499   6.428   1.675
 7557SOL     OW23569   4.848   0.572   0.776
 7557SOL    HW123570   4.898   0.491   0.806
 7557SOL    HW223571   4.881   0.652   0.825
 7558SOL     OW23572   1.096   1.930   4.208
 7558SOL    HW123573   1.115   1.866   4.282
 7558SOL    HW223574   1.165   1.920   4.136
 7559SOL     OW23575   2.721   1.805   5.379
 7559SOL    HW123576   2.750   1.767   5.466
 7559SOL    HW223577   2.797   1.802   5.314
 7560SOL     OW23578   0.957   1.722   6.199
 7560SOL    HW123579   0.888   1.652   6.214
 7560SOL    HW223580   1.025   1.718   6.273
 7561SOL     OW23581   5.879   1.578   5.122
 7561SOL    HW123582   5.891   1.610   5.216
 7561SOL    HW223583   5.910   1.648   5.058
 7562SOL     OW23584   2.285   6.002   3.249
 7562SOL    HW123585   2.236   5.964   3.327
 7562SOL    HW223586   2.371   5.953   3.236
 7563SOL     OW23587   3.530   5.459   1.991
 7563SOL    HW123588   3.535   5.392   2.064
 7563SOL    HW223589   3.612   5.454   1.934
 7564SOL     OW23590   3.286   2.090   5.485
 7564SOL    HW123591   3.358   2.099   5.416
 7564SOL    HW223592   3.203   2.136   5.452
 7565SOL     OW23593   6.598   3.835   5.899
 7565SOL    HW123594   6.560   3.921   5.864
 7565SOL    HW223595   6.530   3.762   5.888
 7566SOL     OW23596   4.529   4.755   1.269
 7566SOL    HW123597   4.523   4.697   1.350
 7566SOL    HW223598   4.484   4.709   1.192
 7567SOL     OW23599   0.933   0.264   4.203
 7567SOL    HW123600   1.000   0.192   4.182
 7567SOL    HW223601   0.870   0.274   4.126
 7568SOL     OW23602   6.056   5.848   2.111
 7568SOL    HW123603   6.077   5.922   2.174
 7568SOL    HW223604   6.032   5.766   2.163
 7569SOL     OW23605   4.603   3.750   0.369
 7569SOL    HW123606   4.634   3.745   0.274
 7569SOL    HW223607   4.595   3.846   0.397
 7570SOL     OW23608   0.397   3.081   2.651
 7570SOL    HW123609   0.442   3.052   2.567
 7570SOL    HW223610   0.463   3.130   2.709
 7571SOL     OW23611   5.309   1.941   2.648
 7571SOL    HW123612   5.226   1.895   2.678
 7571SOL    HW223613   5.291   2.039   2.635
 7572SOL     OW23614   4.755   7.015   3.683
 7572SOL    HW123615   4.669   0.026   3.642
 7572SOL    HW223616   4.765   0.036   3.774
 7573SOL     OW23617   4.760   6.459   5.633
 7573SOL    HW123618   4.664   6.445   5.611
 7573SOL    HW223619   4.794   6.539   5.583
 7574SOL     OW23620   1.175   2.997   3.579
 7574SOL    HW123621   1.263   3.003   3.532
 7574SOL    HW223622   1.150   2.900   3.591
 7575SOL     OW23623   0.399   6.978   2.065
 7575SOL    HW123624   0.414   6.980   1.966
 7575SOL    HW223625   0.323   6.917   2.085
 7576SOL     OW23626   5.093   2.470   0.490
 7576SOL    HW123627   5.026   2.544   0.494
 7576SOL    HW223628   5.185   2.508   0.492
 7577SOL     OW23629   0.801   6.991   1.380
 7577SOL    HW123630   0.830   0.067   1.380
 7577SOL    HW223631   0.725   6.979   1.316
 7578SOL     OW23632   6.451   6.101   3.329
 7578SOL    HW123633   6.523   6.156   3.372
 7578SOL    HW223634   6.475   6.086   3.233
 7579SOL     OW23635   0.632   1.268   6.906
 7579SOL    HW123636   0.663   1.211   6.982
 7579SOL    HW223637   0.594   1.353   6.942
 7580SOL     OW23638   2.592   5.000   3.714
 7580SOL    HW123639   2.527   4.925   3.705
 7580SOL    HW223640   2.621   5.030   3.623
 7581SOL     OW23641   6.680   0.958   2.381
 7581SOL    HW123642   6.618   1.035   2.366
 7581SOL    HW223643   6.748   0.956   2.308
 7582SOL     OW23644   2.534   1.605   5.822
 7582SOL    HW123645   2.632   1.615   5.836
 7582SOL    HW223646   2.516   1.522   5.769
 7583SOL     OW23647   5.022   2.747   3.133
 7583SOL    HW123648   5.109   2.778   3.173
 7583SOL    HW223649   4.974   2.689   3.199
 7584SOL     OW23650   0.304   0.823   3.525
 7584SOL    HW123651   0.220   0.874   3.503
 7584SOL    HW223652   0.304   0.800   3.622
 7585SOL     OW23653   1.106   1.454   6.561
 7585SOL    HW123654   1.125   1.512   6.640
 7585SOL    HW223655   1.180   1.387   6.551
 7586SOL     OW23656   1.729   0.736   2.483
 7586SOL    HW123657   1.751   0.823   2.440
 7586SOL    HW223658   1.685   0.752   2.571
 7587SOL     OW23659   3.860   0.386   0.789
 7587SOL    HW123660   3.828   0.379   0.695
 7587SOL    HW223661   3.952   0.347   0.796
 7588SOL     OW23662   2.381   2.733   3.907
 7588SOL    HW123663   2.285   2.706   3.895
 7588SOL    HW223664   2.440   2.654   3.891
 7589SOL     OW23665   0.553   0.545   2.594
 7589SOL    HW123666   0.538   0.454   2.556
 7589SOL    HW223667   0.491   0.559   2.671
 7590SOL     OW23668   0.044   0.845   0.004
 7590SOL    HW123669   0.017   0.767   0.060
 7590SOL    HW223670   6.996   0.919   0.014
 7591SOL     OW23671   3.831   2.987   4.389
 7591SOL    HW123672   3.929   3.006   4.384
 7591SOL    HW223673   3.798   2.959   4.298
 7592SOL     OW23674   6.933   6.681   4.748
 7592SOL    HW123675   6.996   6.709   4.675
 7592SOL    HW223676   6.888   6.596   4.722
 7593SOL     OW23677   0.981   1.154   5.761
 7593SOL    HW123678   0.968   1.075   5.702
 7593SOL    HW223679   0.918   1.227   5.735
 7594SOL     OW23680   0.393   4.284   0.337
 7594SOL    HW123681   0.405   4.327   0.426
 7594SOL    HW223682   0.414   4.186   0.345
 7595SOL     OW23683   1.103   3.251   6.268
 7595SOL    HW123684   1.043   3.266   6.189
 7595SOL    HW223685   1.188   3.302   6.256
 7596SOL     OW23686   3.183   1.226   5.616
 7596SOL    HW123687   3.146   1.143   5.575
 7596SOL    HW223688   3.243   1.201   5.693
 7597SOL     OW23689   1.555   4.369   1.801
 7597SOL    HW123690   1.622   4.356   1.728
 7597SOL    HW223691   1.494   4.290   1.803
 7598SOL     OW23692   6.554   1.014   2.709
 7598SOL    HW123693   6.633   1.026   2.769
 7598SOL    HW223694   6.544   1.094   2.651
 7599SOL     OW23695   3.371   3.736   1.105
 7599SOL    HW123696   3.290   3.759   1.050
 7599SOL    HW223697   3.369   3.789   1.189
 7600SOL     OW23698   1.590   6.649   4.216
 7600SOL    HW123699   1.573   6.659   4.118
 7600SOL    HW223700   1.687   6.630   4.231
 7601SOL     OW23701   3.157   6.700   2.066
 7601SOL    HW123702   3.085   6.676   2.132
 7601SOL    HW223703   3.192   6.791   2.088
 7602SOL     OW23704   0.048   2.139   0.363
 7602SOL    HW123705   0.105   2.214   0.331
 7602SOL    HW223706   6.985   2.177   0.408
 7603SOL     OW23707   3.698   6.949   5.982
 7603SOL    HW123708   3.761   6.986   6.051
 7603SOL    HW223709   3.746   6.940   5.895
 7604SOL     OW23710   0.202   2.343   5.100
 7604SOL    HW123711   0.191   2.245   5.119
 7604SOL    HW223712   0.261   2.355   5.020
 7605SOL     OW23713   2.205   6.285   6.935
 7605SOL    HW123714   2.135   6.222   6.901
 7605SOL    HW223715   2.160   6.365   6.976
 7606SOL     OW23716   6.531   1.357   2.923
 7606SOL    HW123717   6.449   1.321   2.878
 7606SOL    HW223718   6.605   1.291   2.914
 7607SOL     OW23719   1.759   6.166   5.866
 7607SOL    HW123720   1.824   6.093   5.845
 7607SOL    HW223721   1.774   6.244   5.806
 7608SOL     OW23722   5.700   2.298   6.445
 7608SOL    HW123723   5.664   2.206   6.435
 7608SOL    HW223724   5.685   2.329   6.539
 7609SOL     OW23725   1.640   1.830   5.294
 7609SOL    HW123726   1.574   1.797   5.361
 7609SOL    HW223727   1.653   1.761   5.223
 7610SOL     OW23728   4.045   5.245   4.625
 7610SOL    HW123729   4.010   5.168   4.678
 7610SOL    HW223730   4.031   5.227   4.527
 7611SOL     OW23731   4.820   3.278   0.227
 7611SOL    HW123732   4.894   3.335   0.192
 7611SOL    HW223733   4.808   3.295   0.325
 7612SOL     OW23734   3.819   1.677   3.536
 7612SOL    HW123735   3.772   1.740   3.474
 7612SOL    HW223736   3.868   1.729   3.606
 7613SOL     OW23737   0.951   1.608   1.054
 7613SOL    HW123738   0.986   1.517   1.075
 7613SOL    HW223739   0.894   1.640   1.130
 7614SOL     OW23740   5.072   3.727   0.233
 7614SOL    HW123741   5.084   3.805   0.171
 7614SOL    HW223742   4.986   3.739   0.284
 7615SOL     OW23743   5.608   3.603   5.106
 7615SOL    HW123744   5.531   3.553   5.067
 7615SOL    HW223745   5.659   3.543   5.168
 7616SOL     OW23746   5.754   0.146   3.397
 7616SOL    HW123747   5.798   0.181   3.314
 7616SOL    HW223748   5.729   0.050   3.383
 7617SOL     OW23749   6.360   3.864   3.425
 7617SOL    HW123750   6.367   3.768   3.450
 7617SOL    HW223751   6.278   3.904   3.467
 7618SOL     OW23752   2.243   2.788   0.450
 7618SOL    HW123753   2.289   2.778   0.538
 7618SOL    HW223754   2.146   2.767   0.460
 7619SOL     OW23755   1.383   1.649   4.788
 7619SOL    HW123756   1.336   1.712   4.727
 7619SOL    HW223757   1.482   1.659   4.778
 7620SOL     OW23758   4.097   4.421   0.565
 7620SOL    HW123759   4.054   4.419   0.474
 7620SOL    HW223760   4.064   4.344   0.619
 7621SOL     OW23761   6.261   4.298   6.872
 7621SOL    HW123762   6.175   4.249   6.860
 7621SOL    HW223763   6.267   4.333   6.966
 7622SOL     OW23764   3.280   3.913   1.314
 7622SOL    HW123765   3.289   3.990   1.251
 7622SOL    HW223766   3.285   3.947   1.408
 7623SOL     OW23767   5.062   4.353   1.387
 7623SOL    HW123768   5.057   4.438   1.439
 7623SOL    HW223769   5.017   4.280   1.438
 7624SOL     OW23770   1.210   3.268   2.353
 7624SOL    HW123771   1.272   3.241   2.279
 7624SOL    HW223772   1.162   3.186   2.387
 7625SOL     OW23773   5.550   1.028   1.597
 7625SOL    HW123774   5.486   0.957   1.625
 7625SOL    HW223775   5.644   0.992   1.599
 7626SOL     OW23776   4.522   0.699   6.001
 7626SOL    HW123777   4.573   0.767   5.949
 7626SOL    HW223778   4.571   0.675   6.084
 7627SOL     OW23779   4.065   2.623   6.751
 7627SOL    HW123780   4.088   2.704   6.697
 7627SOL    HW223781   3.980   2.582   6.716
 7628SOL     OW23782   3.437   2.599   0.159
 7628SOL    HW123783   3.383   2.673   0.119
 7628SOL    HW223784   3.376   2.526   0.190
 7629SOL     OW23785   6.066   2.415   3.253
 7629SOL    HW123786   6.001   2.350   3.214
 7629SOL    HW223787   6.047   2.506   3.216
 7630SOL     OW23788   0.873   6.413   4.929
 7630SOL    HW123789   0.946   6.480   4.915
 7630SOL    HW223790   0.784   6.458   4.919
 7631SOL     OW23791   0.939   0.388   5.776
 7631SOL    HW123792   0.884   0.379   5.692
 7631SOL    HW223793   0.879   0.381   5.855
 7632SOL     OW23794   4.312   5.872   0.068
 7632SOL    HW123795   4.389   5.921   0.029
 7632SOL    HW223796   4.323   5.866   0.167
 7633SOL     OW23797   6.549   1.084   1.362
 7633SOL    HW123798   6.536   1.108   1.266
 7633SOL    HW223799   6.523   1.161   1.420
 7634SOL     OW23800   6.707   2.732   6.943
 7634SOL    HW123801   6.732   2.815   6.991
 7634SOL    HW223802   6.769   2.658   6.970
 7635SOL     OW23803   2.331   3.584   5.706
 7635SOL    HW123804   2.271   3.658   5.737
 7635SOL    HW223805   2.359   3.601   5.612
 7636SOL     OW23806   6.804   3.906   4.276
 7636SOL    HW123807   6.860   3.977   4.233
 7636SOL    HW223808   6.745   3.864   4.207
 7637SOL     OW23809   1.408   5.170   5.029
 7637SOL    HW123810   1.496   5.131   5.000
 7637SOL    HW223811   1.425   5.255   5.079
 7638SOL     OW23812   0.376   6.209   1.397
 7638SOL    HW123813   0.405   6.117   1.424
 7638SOL    HW223814   0.441   6.248   1.332
 7639SOL     OW23815   1.438   1.072   0.087
 7639SOL    HW123816   1.453   1.009   0.011
 7639SOL    HW223817   1.505   1.056   0.159
 7640SOL     OW23818   3.159   1.032   0.846
 7640SOL    HW123819   3.078   0.982   0.879
 7640SOL    HW223820   3.241   0.982   0.872
 7641SOL     OW23821   0.361   3.828   3.761
 7641SOL    HW123822   0.352   3.912   3.708
 7641SOL    HW223823   0.453   3.790   3.747
 7642SOL     OW23824   5.833   1.178   3.019
 7642SOL    HW123825   5.788   1.248   2.963
 7642SOL    HW223826   5.818   1.088   2.978
 7643SOL     OW23827   5.132   3.403   3.700
 7643SOL    HW123828   5.171   3.437   3.785
 7643SOL    HW223829   5.186   3.325   3.668
 7644SOL     OW23830   5.541   3.797   1.414
 7644SOL    HW123831   5.539   3.733   1.490
 7644SOL    HW223832   5.635   3.807   1.380
 7645SOL     OW23833   3.270   4.902   6.440
 7645SOL    HW123834   3.291   4.945   6.528
 7645SOL    HW223835   3.256   4.972   6.371
 7646SOL     OW23836   6.048   1.331   0.543
 7646SOL    HW123837   5.977   1.397   0.567
 7646SOL    HW223838   6.006   1.250   0.503
 7647SOL     OW23839   0.155   2.096   4.232
 7647SOL    HW123840   0.159   2.005   4.274
 7647SOL    HW223841   0.062   2.114   4.200
 7648SOL     OW23842   2.506   2.062   1.857
 7648SOL    HW123843   2.594   2.100   1.831
 7648SOL    HW223844   2.484   2.091   1.951
 7649SOL     OW23845   3.770   0.972   6.259
 7649SOL    HW123846   3.817   0.884   6.263
 7649SOL    HW223847   3.777   1.016   6.349
 7650SOL     OW23848   4.112   2.639   0.726
 7650SOL    HW123849   4.193   2.694   0.748
 7650SOL    HW223850   4.031   2.697   0.731
 7651SOL     OW23851   3.037   4.847   6.163
 7651SOL    HW123852   2.979   4.892   6.096
 7651SOL    HW223853   3.061   4.911   6.236
 7652SOL     OW23854   1.390   0.754   4.152
 7652SOL    HW123855   1.409   0.716   4.242
 7652SOL    HW223856   1.437   0.701   4.082
 7653SOL     OW23857   1.700   0.837   6.401
 7653SOL    HW123858   1.690   0.898   6.322
 7653SOL    HW223859   1.752   0.756   6.374
 7654SOL     OW23860   5.865   1.856   6.067
 7654SOL    HW123861   5.935   1.838   5.998
 7654SOL    HW223862   5.909   1.890   6.150
 7655SOL     OW23863   3.478   1.297   3.224
 7655SOL    HW123864   3.425   1.340   3.296
 7655SOL    HW223865   3.502   1.365   3.154
 7656SOL     OW23866   6.801   3.531   6.763
 7656SOL    HW123867   6.745   3.452   6.788
 7656SOL    HW223868   6.789   3.550   6.666
 7657SOL     OW23869   1.280   4.305   4.420
 7657SOL    HW123870   1.338   4.376   4.460
 7657SOL    HW223871   1.220   4.266   4.491
 7658SOL     OW23872   2.302   0.809   1.170
 7658SOL    HW123873   2.384   0.823   1.114
 7658SOL    HW223874   2.266   0.898   1.199
 7659SOL     OW23875   4.545   4.098   5.885
 7659SOL    HW123876   4.607   4.117   5.809
 7659SOL    HW223877   4.455   4.073   5.849
 7660SOL     OW23878   6.908   5.014   5.422
 7660SOL    HW123879   6.822   5.043   5.381
 7660SOL    HW223880   6.897   5.010   5.522
 7661SOL     OW23881   3.941   1.290   5.418
 7661SOL    HW123882   4.023   1.235   5.403
 7661SOL    HW223883   3.876   1.273   5.343
 7662SOL     OW23884   6.612   6.248   1.482
 7662SOL    HW123885   6.572   6.183   1.417
 7662SOL    HW223886   6.690   6.294   1.441
 7663SOL     OW23887   0.237   5.393   5.289
 7663SOL    HW123888   0.334   5.390   5.268
 7663SOL    HW223889   0.196   5.303   5.274
 7664SOL     OW23890   3.809   2.042   2.236
 7664SOL    HW123891   3.760   2.107   2.178
 7664SOL    HW223892   3.907   2.062   2.233
 7665SOL     OW23893   3.563   0.421   5.721
 7665SOL    HW123894   3.485   0.397   5.663
 7665SOL    HW223895   3.531   0.460   5.807
 7666SOL     OW23896   5.222   4.342   3.271
 7666SOL    HW123897   5.245   4.318   3.365
 7666SOL    HW223898   5.277   4.421   3.242
 7667SOL     OW23899   4.089   5.754   2.777
 7667SOL    HW123900   4.056   5.688   2.710
 7667SOL    HW223901   4.140   5.707   2.849
 7668SOL     OW23902   2.426   5.758   0.811
 7668SOL    HW123903   2.381   5.701   0.743
 7668SOL    HW223904   2.399   5.729   0.903
 7669SOL     OW23905   2.304   1.141   6.267
 7669SOL    HW123906   2.370   1.105   6.202
 7669SOL    HW223907   2.337   1.125   6.360
 7670SOL     OW23908   0.818   0.243   1.290
 7670SOL    HW123909   0.803   0.289   1.202
 7670SOL    HW223910   0.916   0.245   1.312
 7671SOL     OW23911   3.270   0.170   0.666
 7671SOL    HW123912   3.227   0.223   0.593
 7671SOL    HW223913   3.266   0.072   0.643
 7672SOL     OW23914   4.714   4.532   2.408
 7672SOL    HW123915   4.807   4.544   2.372
 7672SOL    HW223916   4.719   4.491   2.499
 7673SOL     OW23917   1.856   6.575   4.294
 7673SOL    HW123918   1.906   6.489   4.305
 7673SOL    HW223919   1.828   6.610   4.384
 7674SOL     OW23920   5.010   5.897   4.581
 7674SOL    HW123921   5.091   5.846   4.608
 7674SOL    HW223922   5.014   5.916   4.483
 7675SOL     OW23923   4.976   6.264   3.341
 7675SOL    HW123924   4.916   6.200   3.293
 7675SOL    HW223925   4.924   6.345   3.367
 7676SOL     OW23926   3.708   2.922   5.476
 7676SOL    HW123927   3.675   3.014   5.456
 7676SOL    HW223928   3.753   2.884   5.395
 7677SOL     OW23929   6.499   4.665   0.247
 7677SOL    HW123930   6.547   4.725   0.183
 7677SOL    HW223931   6.557   4.586   0.269
 7678SOL     OW23932   2.200   1.057   5.121
 7678SOL    HW123933   2.121   1.117   5.137
 7678SOL    HW223934   2.279   1.093   5.170
 7679SOL     OW23935   3.587   5.955   5.178
 7679SOL    HW123936   3.559   5.862   5.153
 7679SOL    HW223937   3.684   5.955   5.203
 7680SOL     OW23938   1.907   6.943   4.277
 7680SOL    HW123939   1.917   7.016   4.210
 7680SOL    HW223940   1.974   6.871   4.258
 7681SOL     OW23941   2.573   3.371   6.187
 7681SOL    HW123942   2.623   3.285   6.181
 7681SOL    HW223943   2.562   3.411   6.096
 7682SOL     OW23944   2.954   0.777   2.765
 7682SOL    HW123945   2.986   0.765   2.859
 7682SOL    HW223946   3.002   0.855   2.724
 7683SOL     OW23947   0.360   4.998   4.588
 7683SOL    HW123948   0.381   5.084   4.635
 7683SOL    HW223949   0.440   4.967   4.537
 7684SOL     OW23950   4.554   3.416   1.313
 7684SOL    HW123951   4.520   3.465   1.393
 7684SOL    HW223952   4.540   3.318   1.325
 7685SOL     OW23953   2.089   0.138   0.354
 7685SOL    HW123954   2.028   0.199   0.405
 7685SOL    HW223955   2.060   0.136   0.258
 7686SOL     OW23956   6.415   6.876   5.140
 7686SOL    HW123957   6.498   6.928   5.122
 7686SOL    HW223958   6.389   6.824   5.058
 7687SOL     OW23959   5.363   4.244   6.272
 7687SOL    HW123960   5.456   4.216   6.251
 7687SOL    HW223961   5.303   4.223   6.195
 7688SOL     OW23962   6.960   4.268   6.569
 7688SOL    HW123963   6.903   4.187   6.580
 7688SOL    HW223964   6.901   4.348   6.554
 7689SOL     OW23965   4.424   0.906   1.657
 7689SOL    HW123966   4.419   0.812   1.691
 7689SOL    HW223967   4.510   0.919   1.608
 7690SOL     OW23968   5.656   5.756   1.791
 7690SOL    HW123969   5.621   5.718   1.876
 7690SOL    HW223970   5.728   5.822   1.812
 7691SOL     OW23971   4.874   3.435   3.553
 7691SOL    HW123972   4.966   3.440   3.591
 7691SOL    HW223973   4.830   3.351   3.585
 7692SOL     OW23974   3.168   0.323   2.611
 7692SOL    HW123975   3.208   0.275   2.689
 7692SOL    HW223976   3.197   0.419   2.613
 7693SOL     OW23977   2.541   0.758   1.698
 7693SOL    HW123978   2.483   0.795   1.770
 7693SOL    HW223979   2.520   0.803   1.611
 7694SOL     OW23980   5.016   1.490   5.515
 7694SOL    HW123981   4.931   1.527   5.553
 7694SOL    HW223982   5.091   1.511   5.578
 7695SOL     OW23983   4.703   6.818   3.909
 7695SOL    HW123984   4.657   6.739   3.867
 7695SOL    HW223985   4.679   6.901   3.859
 7696SOL     OW23986   2.003   2.991   5.668
 7696SOL    HW123987   2.032   3.010   5.762
 7696SOL    HW223988   2.080   2.951   5.618
 7697SOL     OW23989   5.085   0.237   3.261
 7697SOL    HW123990   5.139   0.309   3.305
 7697SOL    HW223991   5.022   0.278   3.195
 7698SOL     OW23992   6.126   2.899   0.939
 7698SOL    HW123993   6.125   2.803   0.911
 7698SOL    HW223994   6.063   2.913   1.015
 7699SOL     OW23995   4.747   5.529   5.794
 7699SOL    HW123996   4.709   5.598   5.733
 7699SOL    HW223997   4.766   5.445   5.743
 7700SOL     OW23998   5.337   6.241   2.301
 7700SOL    HW123999   5.351   6.261   2.398
 7700SOL    HW224000   5.387   6.158   2.277
 7701SOL     OW24001   1.319   2.543   6.028
 7701SOL    HW124002   1.325   2.542   5.928
 7701SOL    HW224003   1.374   2.618   6.064
 7702SOL     OW24004   4.588   0.103   4.468
 7702SOL    HW124005   4.678   0.069   4.494
 7702SOL    HW224006   4.599   0.178   4.402
 7703SOL     OW24007   6.666   0.097   5.373
 7703SOL    HW124008   6.628   0.171   5.427
 7703SOL    HW224009   6.600   0.022   5.366
 7704SOL     OW24010   1.006   1.851   4.857
 7704SOL    HW124011   0.977   1.830   4.764
 7704SOL    HW224012   0.928   1.883   4.910
 7705SOL     OW24013   1.444   4.968   6.929
 7705SOL    HW124014   1.375   5.035   6.902
 7705SOL    HW224015   1.512   5.013   6.988
 7706SOL     OW24016   3.398   2.900   2.628
 7706SOL    HW124017   3.362   2.834   2.694
 7706SOL    HW224018   3.345   2.896   2.544
 7707SOL     OW24019   0.032   3.940   6.998
 7707SOL    HW124020   0.092   3.930   6.918
 7707SOL    HW224021   0.080   3.907   0.060
 7708SOL     OW24022   2.172   0.618   4.099
 7708SOL    HW124023   2.263   0.607   4.058
 7708SOL    HW224024   2.138   0.710   4.082
 7709SOL     OW24025   0.151   5.071   1.552
 7709SOL    HW124026   0.197   5.071   1.463
 7709SOL    HW224027   0.071   5.011   1.547
 7710SOL     OW24028   7.007   3.126   0.992
 7710SOL    HW124029   0.064   3.066   1.018
 7710SOL    HW224030   0.022   3.200   0.934
 7711SOL     OW24031   0.104   4.946   4.724
 7711SOL    HW124032   0.177   4.973   4.787
 7711SOL    HW224033   0.140   4.878   4.659
 7712SOL     OW24034   0.162   5.828   5.612
 7712SOL    HW124035   0.137   5.746   5.560
 7712SOL    HW224036   0.259   5.848   5.597
 7713SOL     OW24037   1.381   4.120   0.069
 7713SOL    HW124038   1.378   4.215   0.037
 7713SOL    HW224039   1.405   4.060   7.012
 7714SOL     OW24040   6.628   1.903   4.786
 7714SOL    HW124041   6.716   1.920   4.830
 7714SOL    HW224042   6.643   1.873   4.692
 7715SOL     OW24043   3.896   3.445   5.108
 7715SOL    HW124044   3.803   3.440   5.073
 7715SOL    HW224045   3.894   3.470   5.205
 7716SOL     OW24046   0.777   6.357   6.135
 7716SOL    HW124047   0.744   6.412   6.212
 7716SOL    HW224048   0.859   6.401   6.096
 7717SOL     OW24049   0.116   2.221   6.723
 7717SOL    HW124050   0.199   2.244   6.672
 7717SOL    HW224051   0.036   2.243   6.667
 7718SOL     OW24052   0.939   3.538   3.017
 7718SOL    HW124053   0.913   3.611   3.081
 7718SOL    HW224054   0.949   3.452   3.066
 7719SOL     OW24055   1.678   5.443   4.827
 7719SOL    HW124056   1.579   5.455   4.824
 7719SOL    HW224057   1.721   5.503   4.760
 7720SOL     OW24058   4.669   1.286   6.476
 7720SOL    HW124059   4.690   1.303   6.572
 7720SOL    HW224060   4.733   1.218   6.439
 7721SOL     OW24061   0.083   6.861   2.725
 7721SOL    HW124062   0.137   6.943   2.705
 7721SOL    HW224063   7.014   6.867   2.678
 7722SOL     OW24064   1.162   5.503   3.698
 7722SOL    HW124065   1.211   5.589   3.711
 7722SOL    HW224066   1.063   5.519   3.707
 7723SOL     OW24067   4.914   3.700   6.961
 7723SOL    HW124068   4.935   3.620   6.905
 7723SOL    HW224069   4.999   3.744   6.989
 7724SOL     OW24070   2.154   3.790   1.329
 7724SOL    HW124071   2.168   3.860   1.258
 7724SOL    HW224072   2.073   3.737   1.308
 7725SOL     OW24073   5.232   2.836   3.992
 7725SOL    HW124074   5.181   2.892   3.927
 7725SOL    HW224075   5.243   2.886   4.078
 7726SOL     OW24076   1.417   2.983   5.838
 7726SOL    HW124077   1.491   3.025   5.890
 7726SOL    HW224078   1.416   3.020   5.745
 7727SOL     OW24079   4.285   0.830   2.247
 7727SOL    HW124080   4.380   0.852   2.273
 7727SOL    HW224081   4.286   0.771   2.166
 7728SOL     OW24082   1.918   3.887   4.645
 7728SOL    HW124083   1.856   3.857   4.718
 7728SOL    HW224084   2.002   3.924   4.685
 7729SOL     OW24085   6.483   1.607   3.059
 7729SOL    HW124086   6.500   1.523   3.007
 7729SOL    HW224087   6.554   1.674   3.039
 7730SOL     OW24088   6.439   4.549   4.880
 7730SOL    HW124089   6.513   4.608   4.847
 7730SOL    HW224090   6.386   4.597   4.950
 7731SOL     OW24091   6.707   6.731   6.353
 7731SOL    HW124092   6.712   6.631   6.349
 7731SOL    HW224093   6.789   6.771   6.314
 7732SOL     OW24094   3.545   0.196   6.548
 7732SOL    HW124095   3.472   0.184   6.480
 7732SOL    HW224096   3.537   0.286   6.590
 7733SOL     OW24097   6.467   5.652   1.382
 7733SOL    HW124098   6.375   5.614   1.398
 7733SOL    HW224099   6.492   5.710   1.460
 7734SOL     OW24100   3.282   3.851   4.258
 7734SOL    HW124101   3.342   3.927   4.235
 7734SOL    HW224102   3.216   3.879   4.328
 7735SOL     OW24103   0.592   6.683   1.307
 7735SOL    HW124104   0.510   6.715   1.353
 7735SOL    HW224105   0.604   6.734   1.221
 7736SOL     OW24106   1.424   3.055   6.528
 7736SOL    HW124107   1.366   3.034   6.449
 7736SOL    HW224108   1.388   3.134   6.577
 7737SOL     OW24109   4.226   4.336   0.182
 7737SOL    HW124110   4.320   4.366   0.163
 7737SOL    HW224111   4.168   4.355   0.103
 7738SOL     OW24112   2.322   0.436   5.099
 7738SOL    HW124113   2.328   0.518   5.042
 7738SOL    HW224114   2.360   0.456   5.190
 7739SOL     OW24115   1.844   1.828   0.807
 7739SOL    HW124116   1.790   1.747   0.831
 7739SOL    HW224117   1.940   1.811   0.826
 7740SOL     OW24118   1.910   0.592   4.780
 7740SOL    HW124119   1.964   0.508   4.789
 7740SOL    HW224120   1.817   0.569   4.750
 7741SOL     OW24121   1.063   4.639   6.037
 7741SOL    HW124122   1.094   4.732   6.055
 7741SOL    HW224123   1.059   4.624   5.939
 7742SOL     OW24124   4.642   1.948   4.101
 7742SOL    HW124125   4.599   1.858   4.098
 7742SOL    HW224126   4.588   2.013   4.047
 7743SOL     OW24127   4.323   1.877   5.811
 7743SOL    HW124128   4.250   1.877   5.879
 7743SOL    HW224129   4.335   1.969   5.773
 7744SOL     OW24130   1.372   6.813   4.637
 7744SOL    HW124131   1.401   6.814   4.541
 7744SOL    HW224132   1.451   6.827   4.696
 7745SOL     OW24133   3.054   6.741   0.957
 7745SOL    HW124134   3.041   6.831   0.915
 7745SOL    HW224135   2.977   6.682   0.933
 7746SOL     OW24136   0.824   5.938   1.067
 7746SOL    HW124137   0.848   5.857   1.013
 7746SOL    HW224138   0.868   5.933   1.156
 7747SOL     OW24139   0.612   5.754   1.074
 7747SOL    HW124140   0.617   5.702   0.989
 7747SOL    HW224141   0.676   5.831   1.070
 7748SOL     OW24142   4.622   1.982   6.329
 7748SOL    HW124143   4.719   1.989   6.306
 7748SOL    HW224144   4.611   1.976   6.428
 7749SOL     OW24145   3.604   3.805   4.123
 7749SOL    HW124146   3.532   3.819   4.056
 7749SOL    HW224147   3.580   3.729   4.184
 7750SOL     OW24148   5.627   4.214   5.796
 7750SOL    HW124149   5.580   4.275   5.859
 7750SOL    HW224150   5.560   4.152   5.754
 7751SOL     OW24151   0.187   1.351   4.448
 7751SOL    HW124152   0.217   1.315   4.537
 7751SOL    HW224153   0.107   1.300   4.417
 7752SOL     OW24154   6.491   5.598   5.458
 7752SOL    HW124155   6.578   5.562   5.426
 7752SOL    HW224156   6.442   5.640   5.382
 7753SOL     OW24157   2.778   1.147   4.968
 7753SOL    HW124158   2.749   1.060   4.927
 7753SOL    HW224159   2.707   1.178   5.032
 7754SOL     OW24160   6.314   0.663   1.793
 7754SOL    HW124161   6.361   0.585   1.834
 7754SOL    HW224162   6.380   0.725   1.751
 7755SOL     OW24163   1.031   5.748   5.330
 7755SOL    HW124164   1.004   5.657   5.298
 7755SOL    HW224165   0.982   5.769   5.415
 7756SOL     OW24166   3.831   5.325   2.696
 7756SOL    HW124167   3.903   5.319   2.766
 7756SOL    HW224168   3.868   5.296   2.608
 7757SOL     OW24169   4.279   6.228   5.975
 7757SOL    HW124170   4.266   6.132   5.951
 7757SOL    HW224171   4.306   6.235   6.071
 7758SOL     OW24172   3.242   2.407   6.110
 7758SOL    HW124173   3.161   2.407   6.052
 7758SOL    HW224174   3.214   2.416   6.206
 7759SOL     OW24175   2.248   0.691   4.865
 7759SOL    HW124176   2.193   0.698   4.781
 7759SOL    HW224177   2.189   0.707   4.944
 7760SOL     OW24178   5.004   1.795   3.297
 7760SOL    HW124179   4.978   1.700   3.316
 7760SOL    HW224180   5.008   1.846   3.383
 7761SOL     OW24181   3.764   6.979   6.672
 7761SOL    HW124182   3.797   0.044   6.630
 7761SOL    HW224183   3.820   6.902   6.642
 7762SOL     OW24184   2.490   1.906   0.987
 7762SOL    HW124185   2.516   1.982   1.047
 7762SOL    HW224186   2.399   1.873   1.012
 7763SOL     OW24187   2.252   1.816   1.063
 7763SOL    HW124188   2.181   1.857   1.006
 7763SOL    HW224189   2.213   1.745   1.121
 7764SOL     OW24190   3.937   3.015   2.870
 7764SOL    HW124191   3.866   3.008   2.799
 7764SOL    HW224192   4.007   2.946   2.854
 7765SOL     OW24193   0.033   2.040   2.467
 7765SOL    HW124194   6.957   2.045   2.499
 7765SOL    HW224195   0.041   2.086   2.379
 7766SOL     OW24196   6.938   3.579   0.135
 7766SOL    HW124197   6.901   3.628   0.056
 7766SOL    HW224198   0.012   3.612   0.152
 7767SOL     OW24199   5.768   4.411   5.383
 7767SOL    HW124200   5.817   4.388   5.467
 7767SOL    HW224201   5.670   4.421   5.403
 7768SOL     OW24202   4.020   5.449   2.092
 7768SOL    HW124203   4.001   5.375   2.028
 7768SOL    HW224204   3.939   5.463   2.151
 7769SOL     OW24205   6.263   2.007   2.020
 7769SOL    HW124206   6.349   1.958   2.007
 7769SOL    HW224207   6.261   2.088   1.962
 7770SOL     OW24208   3.850   5.739   1.661
 7770SOL    HW124209   3.909   5.816   1.686
 7770SOL    HW224210   3.897   5.682   1.593
 7771SOL     OW24211   2.035   1.301   5.133
 7771SOL    HW124212   2.025   1.341   5.224
 7771SOL    HW224213   1.974   1.348   5.069
 7772SOL     OW24214   5.256   1.236   4.925
 7772SOL    HW124215   5.349   1.240   4.963
 7772SOL    HW224216   5.191   1.267   4.994
 7773SOL     OW24217   3.925   4.505   5.379
 7773SOL    HW124218   3.876   4.592   5.369
 7773SOL    HW224219   3.871   4.432   5.336
 7774SOL     OW24220   4.672   1.697   6.318
 7774SOL    HW124221   4.662   1.796   6.311
 7774SOL    HW224222   4.737   1.675   6.391
 7775SOL     OW24223   3.108   0.134   2.134
 7775SOL    HW124224   3.086   0.181   2.220
 7775SOL    HW224225   3.161   0.052   2.153
 7776SOL     OW24226   3.314   3.814   0.527
 7776SOL    HW124227   3.387   3.773   0.581
 7776SOL    HW224228   3.319   3.780   0.433
 7777SOL     OW24229   1.622   0.585   6.797
 7777SOL    HW124230   1.713   0.575   6.757
 7777SOL    HW224231   1.631   0.601   6.896
 7778SOL     OW24232   5.925   0.951   1.106
 7778SOL    HW124233   5.944   0.862   1.148
 7778SOL    HW224234   5.829   0.975   1.122
 7779SOL     OW24235   3.380   3.234   6.972
 7779SOL    HW124236   3.467   3.197   6.939
 7779SOL    HW224237   3.315   3.239   6.896
 7780SOL     OW24238   1.332   0.413   4.505
 7780SOL    HW124239   1.276   0.386   4.583
 7780SOL    HW224240   1.429   0.397   4.526
 7781SOL     OW24241   1.458   4.786   5.152
 7781SOL    HW124242   1.458   4.739   5.240
 7781SOL    HW224243   1.539   4.760   5.100
 7782SOL     OW24244   3.433   4.525   6.673
 7782SOL    HW124245   3.338   4.557   6.663
 7782SOL    HW224246   3.481   4.583   6.738
 7783SOL     OW24247   3.018   5.259   6.078
 7783SOL    HW124248   2.921   5.268   6.053
 7783SOL    HW224249   3.071   5.331   6.033
 7784SOL     OW24250   0.010   2.808   6.798
 7784SOL    HW124251   0.040   2.745   6.870
 7784SOL    HW224252   6.953   2.769   6.748
 7785SOL     OW24253   2.433   6.250   4.245
 7785SOL    HW124254   2.497   6.241   4.169
 7785SOL    HW224255   2.475   6.214   4.328
 7786SOL     OW24256   3.124   3.941   4.441
 7786SOL    HW124257   3.166   4.006   4.505
 7786SOL    HW224258   3.076   3.870   4.493
 7787SOL     OW24259   2.797   2.246   5.520
 7787SOL    HW124260   2.842   2.222   5.607
 7787SOL    HW224261   2.860   2.227   5.445
 7788SOL     OW24262   0.370   1.557   0.333
 7788SOL    HW124263   0.467   1.538   0.319
 7788SOL    HW224264   0.315   1.495   0.277
 7789SOL     OW24265   2.041   0.200   1.296
 7789SOL    HW124266   1.995   0.278   1.337
 7789SOL    HW224267   2.037   0.208   1.196
 7790SOL     OW24268   6.092   4.045   2.575
 7790SOL    HW124269   6.125   4.131   2.614
 7790SOL    HW224270   6.163   4.005   2.516
 7791SOL     OW24271   1.468   4.790   4.705
 7791SOL    HW124272   1.557   4.823   4.736
 7791SOL    HW224273   1.407   4.781   4.783
 7792SOL     OW24274   2.531   5.425   5.626
 7792SOL    HW124275   2.608   5.451   5.685
 7792SOL    HW224276   2.542   5.329   5.599
 7793SOL     OW24277   0.767   0.524   6.570
 7793SOL    HW124278   0.784   0.567   6.659
 7793SOL    HW224279   0.716   0.439   6.584
 7794SOL     OW24280   5.291   5.365   3.709
 7794SOL    HW124281   5.211   5.393   3.763
 7794SOL    HW224282   5.352   5.444   3.697
 7795SOL     OW24283   1.955   4.839   5.140
 7795SOL    HW124284   1.994   4.808   5.053
 7795SOL    HW224285   2.029   4.851   5.206
 7796SOL     OW24286   4.088   3.257   3.479
 7796SOL    HW124287   4.046   3.173   3.513
 7796SOL    HW224288   4.126   3.310   3.555
 7797SOL     OW24289   1.203   0.006   2.652
 7797SOL    HW124290   1.121   0.047   2.694
 7797SOL    HW224291   1.187   7.013   2.554
 7798SOL     OW24292   4.271   5.728   6.808
 7798SOL    HW124293   4.229   5.690   6.890
 7798SOL    HW224294   4.260   5.828   6.807
 7799SOL     OW24295   6.449   4.890   1.074
 7799SOL    HW124296   6.471   4.934   1.161
 7799SOL    HW224297   6.532   4.849   1.035
 7800SOL     OW24298   0.885   5.952   2.178
 7800SOL    HW124299   0.873   5.934   2.276
 7800SOL    HW224300   0.831   5.886   2.125
 7801SOL     OW24301   4.109   1.937   6.668
 7801SOL    HW124302   4.062   1.856   6.704
 7801SOL    HW224303   4.165   1.911   6.589
 7802SOL     OW24304   6.052   1.923   1.205
 7802SOL    HW124305   6.067   1.824   1.207
 7802SOL    HW224306   5.973   1.946   1.262
 7803SOL     OW24307   3.656   4.133   5.491
 7803SOL    HW124308   3.736   4.102   5.542
 7803SOL    HW224309   3.603   4.198   5.546
 7804SOL     OW24310   4.982   1.410   6.558
 7804SOL    HW124311   4.890   1.396   6.522
 7804SOL    HW224312   5.043   1.438   6.483
 7805SOL     OW24313   5.133   4.003   1.928
 7805SOL    HW124314   5.191   3.967   2.002
 7805SOL    HW224315   5.037   3.990   1.951
 7806SOL     OW24316   4.651   2.922   6.745
 7806SOL    HW124317   4.604   2.967   6.821
 7806SOL    HW224318   4.716   2.986   6.703
 7807SOL     OW24319   0.238   4.006   6.772
 7807SOL    HW124320   0.212   4.101   6.787
 7807SOL    HW224321   0.336   3.995   6.792
 7808SOL     OW24322   0.605   1.520   4.853
 7808SOL    HW124323   0.657   1.593   4.898
 7808SOL    HW224324   0.571   1.553   4.765
 7809SOL     OW24325   1.601   5.470   5.361
 7809SOL    HW124326   1.565   5.544   5.418
 7809SOL    HW224327   1.558   5.474   5.271
 7810SOL     OW24328   2.744   1.387   0.033
 7810SOL    HW124329   2.781   1.304   0.076
 7810SOL    HW224330   2.684   1.361   6.976
 7811SOL     OW24331   6.877   4.481   4.278
 7811SOL    HW124332   6.897   4.441   4.188
 7811SOL    HW224333   6.921   4.570   4.285
 7812SOL     OW24334   1.165   1.376   3.722
 7812SOL    HW124335   1.184   1.326   3.807
 7812SOL    HW224336   1.080   1.427   3.731
 7813SOL     OW24337   6.377   2.697   0.610
 7813SOL    HW124338   6.456   2.758   0.615
 7813SOL    HW224339   6.318   2.724   0.534
 7814SOL     OW24340   1.145   3.822   3.979
 7814SOL    HW124341   1.132   3.896   4.045
 7814SOL    HW224342   1.091   3.742   4.007
 7815SOL     OW24343   6.443   1.621   5.810
 7815SOL    HW124344   6.509   1.650   5.880
 7815SOL    HW224345   6.361   1.584   5.854
 7816SOL     OW24346   1.225   3.680   5.209
 7816SOL    HW124347   1.297   3.676   5.140
 7816SOL    HW224348   1.159   3.607   5.193
 7817SOL     OW24349   5.199   3.428   4.950
 7817SOL    HW124350   5.190   3.344   4.896
 7817SOL    HW224351   5.204   3.507   4.888
 7818SOL     OW24352   5.349   5.228   2.512
 7818SOL    HW124353   5.442   5.229   2.477
 7818SOL    HW224354   5.349   5.187   2.603
 7819SOL     OW24355   0.048   1.257   1.381
 7819SOL    HW124356   6.975   1.229   1.352
 7819SOL    HW224357   0.116   1.200   1.335
 7820SOL     OW24358   1.780   7.019   6.116
 7820SOL    HW124359   1.848   6.975   6.175
 7820SOL    HW224360   1.764   0.093   6.147
 7821SOL     OW24361   3.087   5.332   1.253
 7821SOL    HW124362   3.116   5.298   1.342
 7821SOL    HW224363   3.061   5.255   1.195
 7822SOL     OW24364   1.539   5.836   5.385
 7822SOL    HW124365   1.561   5.933   5.387
 7822SOL    HW224366   1.581   5.794   5.305
 7823SOL     OW24367   1.457   4.432   4.977
 7823SOL    HW124368   1.545   4.479   4.971
 7823SOL    HW224369   1.470   4.335   4.957
 7824SOL     OW24370   0.266   3.341   5.333
 7824SOL    HW124371   0.257   3.431   5.375
 7824SOL    HW224372   0.338   3.289   5.379
 7825SOL     OW24373   2.861   1.428   6.681
 7825SOL    HW124374   2.784   1.457   6.624
 7825SOL    HW224375   2.910   1.509   6.714
 7826SOL     OW24376   0.713   3.098   5.981
 7826SOL    HW124377   0.732   3.013   6.030
 7826SOL    HW224378   0.616   3.103   5.957
 7827SOL     OW24379   6.314   5.548   4.966
 7827SOL    HW124380   6.279   5.459   4.936
 7827SOL    HW224381   6.384   5.579   4.901
 7828SOL     OW24382   0.884   4.945   0.036
 7828SOL    HW124383   0.931   4.992   6.980
 7828SOL    HW224384   0.930   4.858   0.055
 7829SOL     OW24385   3.691   3.082   0.489
 7829SOL    HW124386   3.779   3.128   0.483
 7829SOL    HW224387   3.702   2.996   0.539
 7830SOL     OW24388   2.807   5.289   3.720
 7830SOL    HW124389   2.747   5.260   3.646
 7830SOL    HW224390   2.829   5.210   3.778
 7831SOL     OW24391   1.584   0.214   6.775
 7831SOL    HW124392   1.628   0.127   6.797
 7831SOL    HW224393   1.566   0.219   6.677
 7832SOL     OW24394   6.030   0.931   4.482
 7832SOL    HW124395   5.962   0.982   4.534
 7832SOL    HW224396   6.120   0.946   4.523
 7833SOL     OW24397   1.383   0.288   3.224
 7833SOL    HW124398   1.454   0.325   3.284
 7833SOL    HW224399   1.392   0.329   3.133
 7834SOL     OW24400   6.218   3.518   5.316
 7834SOL    HW124401   6.317   3.508   5.327
 7834SOL    HW224402   6.195   3.515   5.219
 7835SOL     OW24403   4.239   2.386   5.372
 7835SOL    HW124404   4.183   2.447   5.317
 7835SOL    HW224405   4.292   2.440   5.437
 7836SOL     OW24406   3.308   3.372   3.802
 7836SOL    HW124407   3.237   3.302   3.810
 7836SOL    HW224408   3.266   3.461   3.783
 7837SOL     OW24409   6.940   5.728   0.351
 7837SOL    HW124410   6.890   5.811   0.327
 7837SOL    HW224411   6.876   5.653   0.367
 7838SOL     OW24412   4.804   5.783   2.422
 7838SOL    HW124413   4.752   5.868   2.431
 7838SOL    HW224414   4.750   5.716   2.370
 7839SOL     OW24415   5.817   2.685   4.172
 7839SOL    HW124416   5.916   2.696   4.160
 7839SOL    HW224417   5.786   2.745   4.245
 7840SOL     OW24418   1.900   2.953   4.378
 7840SOL    HW124419   1.932   2.950   4.473
 7840SOL    HW224420   1.852   3.039   4.361
 7841SOL     OW24421   3.809   1.532   6.159
 7841SOL    HW124422   3.780   1.625   6.183
 7841SOL    HW224423   3.800   1.473   6.239
 7842SOL     OW24424   1.550   0.640   1.850
 7842SOL    HW124425   1.529   0.709   1.919
 7842SOL    HW224426   1.477   0.638   1.781
 7843SOL     OW24427   0.004   6.184   3.352
 7843SOL    HW124428   6.981   6.200   3.441
 7843SOL    HW224429   0.088   6.132   3.364
 7844SOL     OW24430   3.989   1.241   2.168
 7844SOL    HW124431   3.902   1.191   2.170
 7844SOL    HW224432   4.063   1.178   2.144
 7845SOL     OW24433   6.730   3.114   0.929
 7845SOL    HW124434   6.822   3.111   0.967
 7845SOL    HW224435   6.705   3.024   0.893
 7846SOL     OW24436   1.025   1.851   0.726
 7846SOL    HW124437   1.060   1.909   0.652
 7846SOL    HW224438   0.994   1.908   0.802
 7847SOL     OW24439   5.137   4.180   5.636
 7847SOL    HW124440   5.101   4.086   5.630
 7847SOL    HW224441   5.234   4.180   5.614
 7848SOL     OW24442   3.645   4.323   1.267
 7848SOL    HW124443   3.652   4.332   1.367
 7848SOL    HW224444   3.630   4.227   1.244
 7849SOL     OW24445   4.436   4.665   6.585
 7849SOL    HW124446   4.456   4.590   6.648
 7849SOL    HW224447   4.517   4.724   6.577
 7850SOL     OW24448   6.888   1.360   4.026
 7850SOL    HW124449   6.889   1.268   3.988
 7850SOL    HW224450   6.957   1.367   4.098
 7851SOL     OW24451   6.902   4.857   1.191
 7851SOL    HW124452   6.835   4.929   1.183
 7851SOL    HW224453   6.856   4.769   1.202
 7852SOL     OW24454   0.939   3.252   6.492
 7852SOL    HW124455   0.994   3.270   6.573
 7852SOL    HW224456   0.999   3.232   6.414
 7853SOL     OW24457   4.117   2.938   1.797
 7853SOL    HW124458   4.062   2.950   1.879
 7853SOL    HW224459   4.202   2.991   1.806
 7854SOL     OW24460   4.855   2.016   6.647
 7854SOL    HW124461   4.945   1.973   6.652
 7854SOL    HW224462   4.864   2.114   6.662
 7855SOL     OW24463   5.247   6.986   4.466
 7855SOL    HW124464   5.277   6.900   4.426
 7855SOL    HW224465   5.238   6.976   4.565
 7856SOL     OW24466   2.118   6.809   4.179
 7856SOL    HW124467   2.145   6.860   4.098
 7856SOL    HW224468   2.186   6.822   4.251
 7857SOL     OW24469   6.095   4.570   1.440
 7857SOL    HW124470   6.106   4.556   1.539
 7857SOL    HW224471   6.053   4.489   1.399
 7858SOL     OW24472   6.784   4.460   6.512
 7858SOL    HW124473   6.688   4.444   6.488
 7858SOL    HW224474   6.791   4.477   6.610
 7859SOL     OW24475   5.255   2.538   0.746
 7859SOL    HW124476   5.243   2.562   0.843
 7859SOL    HW224477   5.199   2.459   0.724
 7860SOL     OW24478   2.601   1.553   4.946
 7860SOL    HW124479   2.669   1.514   4.883
 7860SOL    HW224480   2.633   1.642   4.978
 7861SOL     OW24481   2.283   6.194   0.245
 7861SOL    HW124482   2.360   6.241   0.202
 7861SOL    HW224483   2.228   6.149   0.175
 7862SOL     OW24484   2.140   5.674   6.553
 7862SOL    HW124485   2.062   5.725   6.516
 7862SOL    HW224486   2.197   5.735   6.609
 7863SOL     OW24487   0.728   4.065   3.472
 7863SOL    HW124488   0.717   3.981   3.526
 7863SOL    HW224489   0.638   4.104   3.453
 7864SOL     OW24490   1.963   6.005   5.772
 7864SOL    HW124491   2.017   6.071   5.721
 7864SOL    HW224492   2.011   5.980   5.857
 7865SOL     OW24493   5.473   4.422   3.618
 7865SOL    HW124494   5.382   4.381   3.616
 7865SOL    HW224495   5.489   4.471   3.532
 7866SOL     OW24496   6.934   0.761   6.206
 7866SOL    HW124497   6.991   0.691   6.249
 7866SOL    HW224498   6.988   0.811   6.138
 7867SOL     OW24499   4.585   4.825   3.595
 7867SOL    HW124500   4.539   4.752   3.646
 7867SOL    HW224501   4.639   4.880   3.658
 7868SOL     OW24502   2.854   6.539   1.436
 7868SOL    HW124503   2.850   6.440   1.419
 7868SOL    HW224504   2.814   6.588   1.359
 7869SOL     OW24505   6.015   4.890   6.484
 7869SOL    HW124506   5.947   4.927   6.421
 7869SOL    HW224507   6.051   4.804   6.447
 7870SOL     OW24508   5.631   5.424   4.548
 7870SOL    HW124509   5.539   5.388   4.531
 7870SOL    HW224510   5.670   5.379   4.629
 7871SOL     OW24511   5.298   1.368   0.876
 7871SOL    HW124512   5.226   1.349   0.809
 7871SOL    HW224513   5.258   1.418   0.953
 7872SOL     OW24514   1.195   5.700   3.427
 7872SOL    HW124515   1.136   5.620   3.440
 7872SOL    HW224516   1.237   5.724   3.514
 7873SOL     OW24517   5.074   2.079   6.976
 7873SOL    HW124518   4.978   2.064   6.997
 7873SOL    HW224519   5.125   1.994   6.986
 7874SOL     OW24520   5.928   2.730   0.474
 7874SOL    HW124521   5.909   2.719   0.571
 7874SOL    HW224522   5.848   2.767   0.427
 7875SOL     OW24523   6.141   4.820   6.081
 7875SOL    HW124524   6.175   4.805   5.988
 7875SOL    HW224525   6.161   4.739   6.137
 7876SOL     OW24526   1.447   0.067   3.854
 7876SOL    HW124527   1.396   0.153   3.851
 7876SOL    HW224528   1.434   0.023   3.943
 7877SOL     OW24529   0.181   2.896   3.263
 7877SOL    HW124530   0.190   2.819   3.200
 7877SOL    HW224531   0.095   2.889   3.312
 7878SOL     OW24532   4.627   4.880   3.121
 7878SOL    HW124533   4.530   4.890   3.099
 7878SOL    HW224534   4.675   4.838   3.045
 7879SOL     OW24535   3.188   4.854   3.074
 7879SOL    HW124536   3.287   4.859   3.086
 7879SOL    HW224537   3.145   4.828   3.161
 7880SOL     OW24538   1.104   4.433   2.114
 7880SOL    HW124539   1.064   4.510   2.164
 7880SOL    HW224540   1.067   4.348   2.150
 7881SOL     OW24541   4.824   4.020   3.788
 7881SOL    HW124542   4.917   4.038   3.756
 7881SOL    HW224543   4.823   3.938   3.845
 7882SOL     OW24544   1.061   3.394   0.108
 7882SOL    HW124545   1.034   3.347   0.024
 7882SOL    HW224546   1.010   3.355   0.185
 7883SOL     OW24547   0.722   0.662   5.317
 7883SOL    HW124548   0.641   0.657   5.376
 7883SOL    HW224549   0.766   0.751   5.329
 7884SOL     OW24550   1.027   2.739   4.412
 7884SOL    HW124551   1.081   2.822   4.427
 7884SOL    HW224552   0.938   2.765   4.373
 7885SOL     OW24553   6.700   6.057   6.433
 7885SOL    HW124554   6.645   5.977   6.408
 7885SOL    HW224555   6.669   6.136   6.381
 7886SOL     OW24556   5.130   4.489   0.828
 7886SOL    HW124557   5.112   4.572   0.775
 7886SOL    HW224558   5.163   4.515   0.919
 7887SOL     OW24559   4.650   2.996   6.105
 7887SOL    HW124560   4.691   2.906   6.091
 7887SOL    HW224561   4.626   3.006   6.202
 7888SOL     OW24562   5.218   0.236   4.556
 7888SOL    HW124563   5.175   0.145   4.554
 7888SOL    HW224564   5.317   0.225   4.555
 7889SOL     OW24565   0.859   5.135   2.297
 7889SOL    HW124566   0.769   5.092   2.303
 7889SOL    HW224567   0.899   5.118   2.208
 7890SOL     OW24568   1.804   2.862   2.604
 7890SOL    HW124569   1.858   2.906   2.533
 7890SOL    HW224570   1.804   2.763   2.590
 7891SOL     OW24571   1.146   4.705   3.036
 7891SOL    HW124572   1.164   4.608   3.051
 7891SOL    HW224573   1.219   4.744   2.980
 7892SOL     OW24574   2.138   2.585   5.871
 7892SOL    HW124575   2.121   2.501   5.819
 7892SOL    HW224576   2.196   2.647   5.818
 7893SOL     OW24577   6.196   6.214   1.562
 7893SOL    HW124578   6.097   6.230   1.561
 7893SOL    HW224579   6.237   6.254   1.481
 7894SOL     OW24580   2.920   0.304   1.731
 7894SOL    HW124581   2.997   0.246   1.703
 7894SOL    HW224582   2.950   0.365   1.804
 7895SOL     OW24583   6.843   0.932   3.286
 7895SOL    HW124584   6.902   1.002   3.244
 7895SOL    HW224585   6.845   0.943   3.386
 7896SOL     OW24586   4.329   1.587   6.107
 7896SOL    HW124587   4.321   1.592   6.007
 7896SOL    HW224588   4.253   1.636   6.149
 7897SOL     OW24589   2.488   2.859   6.397
 7897SOL    HW124590   2.553   2.835   6.325
 7897SOL    HW224591   2.409   2.798   6.392
 7898SOL     OW24592   4.346   2.121   3.522
 7898SOL    HW124593   4.404   2.129   3.603
 7898SOL    HW224594   4.394   2.067   3.452
 7899SOL     OW24595   4.787   1.037   2.877
 7899SOL    HW124596   4.873   1.079   2.849
 7899SOL    HW224597   4.718   1.050   2.806
 7900SOL     OW24598   1.824   5.191   0.866
 7900SOL    HW124599   1.854   5.264   0.805
 7900SOL    HW224600   1.780   5.230   0.946
 7901SOL     OW24601   5.596   5.772   0.701
 7901SOL    HW124602   5.611   5.691   0.758
 7901SOL    HW224603   5.650   5.848   0.737
 7902SOL     OW24604   5.318   5.075   6.541
 7902SOL    HW124605   5.244   5.114   6.485
 7902SOL    HW224606   5.404   5.081   6.492
 7903SOL     OW24607   0.115   2.656   6.986
 7903SOL    HW124608   0.117   2.569   0.016
 7903SOL    HW224609   0.197   2.708   7.009
 7904SOL     OW24610   6.724   1.299   2.456
 7904SOL    HW124611   6.748   1.321   2.361
 7904SOL    HW224612   6.805   1.265   2.503
 7905SOL     OW24613   2.712   1.733   0.977
 7905SOL    HW124614   2.781   1.749   0.906
 7905SOL    HW224615   2.642   1.803   0.971
 7906SOL     OW24616   0.149   5.279   7.003
 7906SOL    HW124617   0.159   5.227   6.919
 7906SOL    HW224618   0.072   5.342   6.994
 7907SOL     OW24619   5.692   2.873   2.219
 7907SOL    HW124620   5.675   2.904   2.312
 7907SOL    HW224621   5.613   2.897   2.161
 7908SOL     OW24622   6.233   1.660   2.757
 7908SOL    HW124623   6.167   1.639   2.829
 7908SOL    HW224624   6.274   1.574   2.725
 7909SOL     OW24625   4.706   5.716   5.591
 7909SOL    HW124626   4.798   5.707   5.553
 7909SOL    HW224627   4.684   5.813   5.603
 7910SOL     OW24628   5.713   4.028   6.033
 7910SOL    HW124629   5.786   4.038   5.966
 7910SOL    HW224630   5.703   4.113   6.085
 7911SOL     OW24631   0.011   4.880   0.216
 7911SOL    HW124632   6.937   4.914   0.213
 7911SOL    HW224633   0.021   4.803   0.153
 7912SOL     OW24634   0.365   5.096   5.352
 7912SOL    HW124635   0.310   5.166   5.398
 7912SOL    HW224636   0.359   5.010   5.403
 7913SOL     OW24637   0.835   6.083   6.779
 7913SOL    HW124638   0.825   6.181   6.762
 7913SOL    HW224639   0.747   6.044   6.805
 7914SOL     OW24640   0.429   3.529   2.480
 7914SOL    HW124641   0.375   3.486   2.553
 7914SOL    HW224642   0.521   3.548   2.514
 7915SOL     OW24643   4.514   1.026   2.195
 7915SOL    HW124644   4.520   1.000   2.098
 7915SOL    HW224645   4.429   1.077   2.210
 7916SOL     OW24646   4.552   3.634   5.594
 7916SOL    HW124647   4.609   3.580   5.532
 7916SOL    HW224648   4.456   3.607   5.582
 7917SOL     OW24649   3.582   4.145   3.504
 7917SOL    HW124650   3.487   4.115   3.493
 7917SOL    HW224651   3.629   4.137   3.416
 7918SOL     OW24652   6.225   2.396   2.160
 7918SOL    HW124653   6.245   2.324   2.093
 7918SOL    HW224654   6.299   2.462   2.161
 7919SOL     OW24655   6.196   4.780   1.800
 7919SOL    HW124656   6.199   4.847   1.875
 7919SOL    HW224657   6.250   4.814   1.723
 7920SOL     OW24658   0.412   6.414   2.060
 7920SOL    HW124659   0.349   6.342   2.032
 7920SOL    HW224660   0.368   6.503   2.053
 7921SOL     OW24661   3.376   6.553   2.077
 7921SOL    HW124662   3.291   6.602   2.055
 7921SOL    HW224663   3.453   6.615   2.066
 7922SOL     OW24664   0.848   5.120   6.525
 7922SOL    HW124665   0.805   5.058   6.590
 7922SOL    HW224666   0.882   5.068   6.447
 7923SOL     OW24667   0.847   1.576   3.223
 7923SOL    HW124668   0.926   1.625   3.261
 7923SOL    HW224669   0.764   1.629   3.242
 7924SOL     OW24670   2.482   1.257   3.734
 7924SOL    HW124671   2.508   1.337   3.680
 7924SOL    HW224672   2.509   1.272   3.829
 7925SOL     OW24673   0.363   1.236   6.817
 7925SOL    HW124674   0.460   1.250   6.799
 7925SOL    HW224675   0.338   1.283   6.902
 7926SOL     OW24676   3.396   0.368   1.727
 7926SOL    HW124677   3.360   0.310   1.655
 7926SOL    HW224678   3.335   0.365   1.806
 7927SOL     OW24679   4.938   4.343   4.124
 7927SOL    HW124680   4.899   4.400   4.051
 7927SOL    HW224681   4.888   4.257   4.129
 7928SOL     OW24682   1.327   4.542   0.188
 7928SOL    HW124683   1.306   4.480   0.264
 7928SOL    HW224684   1.254   4.538   0.120
 7929SOL     OW24685   3.982   3.771   4.596
 7929SOL    HW124686   3.893   3.790   4.554
 7929SOL    HW224687   4.041   3.725   4.531
 7930SOL     OW24688   5.294   5.812   4.288
 7930SOL    HW124689   5.227   5.820   4.214
 7930SOL    HW224690   5.344   5.899   4.296
 7931SOL     OW24691   2.230   3.586   0.530
 7931SOL    HW124692   2.153   3.526   0.552
 7931SOL    HW224693   2.313   3.531   0.519
 7932SOL     OW24694   3.187   6.801   1.212
 7932SOL    HW124695   3.158   6.760   1.126
 7932SOL    HW224696   3.278   6.767   1.236
 7933SOL     OW24697   1.299   1.051   6.187
 7933SOL    HW124698   1.348   1.137   6.200
 7933SOL    HW224699   1.228   1.063   6.117
 7934SOL     OW24700   4.024   2.944   5.424
 7934SOL    HW124701   4.086   2.872   5.454
 7934SOL    HW224702   3.979   2.916   5.340
 7935SOL     OW24703   4.530   6.047   1.673
 7935SOL    HW124704   4.557   6.141   1.652
 7935SOL    HW224705   4.610   5.988   1.667
 7936SOL     OW24706   4.572   5.161   3.131
 7936SOL    HW124707   4.581   5.172   3.032
 7936SOL    HW224708   4.612   5.073   3.158
 7937SOL     OW24709   6.334   7.014   5.918
 7937SOL    HW124710   6.334   6.975   6.010
 7937SOL    HW224711   6.421   0.042   5.902
 7938SOL     OW24712   5.614   4.519   4.375
 7938SOL    HW124713   5.635   4.596   4.435
 7938SOL    HW224714   5.515   4.505   4.374
 7939SOL     OW24715   0.725   0.075   4.456
 7939SOL    HW124716   0.676   0.072   4.369
 7939SOL    HW224717   0.787   7.017   4.462
 7940SOL     OW24718   1.590   5.871   0.869
 7940SOL    HW124719   1.685   5.846   0.888
 7940SOL    HW224720   1.530   5.827   0.936
 7941SOL     OW24721   0.444   0.289   0.263
 7941SOL    HW124722   0.394   0.239   0.334
 7941SOL    HW224723   0.407   0.382   0.257
 7942SOL     OW24724   1.397   1.573   1.008
 7942SOL    HW124725   1.379   1.479   1.039
 7942SOL    HW224726   1.315   1.609   0.963
 7943SOL     OW24727   5.689   2.071   0.392
 7943SOL    HW124728   5.644   1.987   0.364
 7943SOL    HW224729   5.780   2.075   0.351
 7944SOL     OW24730   0.170   3.975   2.249
 7944SOL    HW124731   0.182   3.885   2.291
 7944SOL    HW224732   0.083   3.977   2.198
 7945SOL     OW24733   5.517   6.884   1.316
 7945SOL    HW124734   5.421   6.878   1.344
 7945SOL    HW224735   5.543   6.801   1.267
 7946SOL     OW24736   1.608   2.096   5.943
 7946SOL    HW124737   1.662   2.173   5.909
 7946SOL    HW224738   1.603   2.099   6.042
 7947SOL     OW24739   4.585   4.897   6.505
 7947SOL    HW124740   4.568   4.968   6.573
 7947SOL    HW224741   4.633   4.937   6.427
 7948SOL     OW24742   1.247   4.796   7.006
 7948SOL    HW124743   1.236   4.801   0.086
 7948SOL    HW224744   1.329   4.845   6.979
 7949SOL     OW24745   6.618   4.239   4.117
 7949SOL    HW124746   6.566   4.227   4.202
 7949SOL    HW224747   6.634   4.337   4.103
 7950SOL     OW24748   3.527   4.966   4.517
 7950SOL    HW124749   3.484   5.050   4.484
 7950SOL    HW224750   3.596   4.936   4.450
 7951SOL     OW24751   3.148   3.652   0.940
 7951SOL    HW124752   3.058   3.615   0.920
 7951SOL    HW224753   3.218   3.596   0.897
 7952SOL     OW24754   4.835   4.760   0.013
 7952SOL    HW124755   4.892   4.797   0.087
 7952SOL    HW224756   4.868   4.670   7.006
 7953SOL     OW24757   2.193   2.889   3.349
 7953SOL    HW124758   2.113   2.944   3.371
 7953SOL    HW224759   2.257   2.944   3.295
 7954SOL     OW24760   5.162   5.494   4.911
 7954SOL    HW124761   5.178   5.477   5.008
 7954SOL    HW224762   5.172   5.409   4.860
 7955SOL     OW24763   1.147   0.125   6.336
 7955SOL    HW124764   1.064   0.084   6.297
 7955SOL    HW224765   1.197   0.174   6.264
 7956SOL     OW24766   6.227   0.073   3.959
 7956SOL    HW124767   6.223   0.121   4.047
 7956SOL    HW224768   6.175   7.007   3.966
 7957SOL     OW24769   1.353   2.212   1.408
 7957SOL    HW124770   1.303   2.292   1.375
 7957SOL    HW224771   1.435   2.199   1.352
 7958SOL     OW24772   1.975   5.283   2.927
 7958SOL    HW124773   2.030   5.337   2.991
 7958SOL    HW224774   1.883   5.272   2.964
 7959SOL     OW24775   4.581   5.297   0.457
 7959SOL    HW124776   4.583   5.371   0.524
 7959SOL    HW224777   4.671   5.286   0.416
 7960SOL     OW24778   2.273   2.761   0.723
 7960SOL    HW124779   2.189   2.711   0.703
 7960SOL    HW224780   2.257   2.825   0.798
 7961SOL     OW24781   1.746   5.707   0.059
 7961SOL    HW124782   1.703   5.700   0.149
 7961SOL    HW224783   1.844   5.725   0.069
 7962SOL     OW24784   1.314   0.411   1.990
 7962SOL    HW124785   1.393   0.465   1.960
 7962SOL    HW224786   1.277   0.451   2.074
 7963SOL     OW24787   1.265   6.871   4.304
 7963SOL    HW124788   1.294   6.956   4.349
 7963SOL    HW224789   1.237   6.805   4.373
 7964SOL     OW24790   6.367   5.606   3.542
 7964SOL    HW124791   6.296   5.667   3.577
 7964SOL    HW224792   6.455   5.653   3.543
 7965SOL     OW24793   5.929   2.113   0.722
 7965SOL    HW124794   5.918   2.104   0.821
 7965SOL    HW224795   5.864   2.179   0.686
 7966SOL     OW24796   6.607   6.187   3.644
 7966SOL    HW124797   6.705   6.167   3.639
 7966SOL    HW224798   6.557   6.105   3.671
 7967SOL     OW24799   3.013   6.472   3.013
 7967SOL    HW124800   2.965   6.551   3.052
 7967SOL    HW224801   2.948   6.396   3.003
 7968SOL     OW24802   1.893   0.949   1.505
 7968SOL    HW124803   1.941   1.019   1.452
 7968SOL    HW224804   1.959   0.885   1.544
 7969SOL     OW24805   3.157   2.007   3.408
 7969SOL    HW124806   3.077   1.950   3.386
 7969SOL    HW224807   3.230   1.988   3.343
 7970SOL     OW24808   0.679   4.941   3.340
 7970SOL    HW124809   0.668   4.992   3.425
 7970SOL    HW224810   0.690   4.843   3.361
 7971SOL     OW24811   2.279   1.599   2.158
 7971SOL    HW124812   2.300   1.692   2.188
 7971SOL    HW224813   2.364   1.550   2.140
 7972SOL     OW24814   0.992   5.037   1.777
 7972SOL    HW124815   0.906   5.006   1.736
 7972SOL    HW224816   1.054   5.069   1.705
 7973SOL     OW24817   4.683   2.203   2.349
 7973SOL    HW124818   4.654   2.264   2.422
 7973SOL    HW224819   4.741   2.131   2.387
 7974SOL     OW24820   5.562   6.647   3.920
 7974SOL    HW124821   5.568   6.746   3.906
 7974SOL    HW224822   5.597   6.624   4.010
 7975SOL     OW24823   2.662   0.716   2.997
 7975SOL    HW124824   2.629   0.728   2.904
 7975SOL    HW224825   2.686   0.804   3.036
 7976SOL     OW24826   0.431   6.648   6.090
 7976SOL    HW124827   0.385   6.604   6.012
 7976SOL    HW224828   0.366   6.706   6.138
 7977SOL     OW24829   5.086   6.722   1.950
 7977SOL    HW124830   5.141   6.642   1.973
 7977SOL    HW224831   5.052   6.765   2.034
 7978SOL     OW24832   3.825   2.434   6.465
 7978SOL    HW124833   3.869   2.367   6.405
 7978SOL    HW224834   3.852   2.417   6.560
 7979SOL     OW24835   4.440   6.953   4.319
 7979SOL    HW124836   4.503   6.885   4.281
 7979SOL    HW224837   4.492   0.002   4.371
 7980SOL     OW24838   2.628   0.397   2.042
 7980SOL    HW124839   2.597   0.479   1.994
 7980SOL    HW224840   2.566   0.377   2.118
 7981SOL     OW24841   1.255   6.139   2.966
 7981SOL    HW124842   1.250   6.232   3.002
 7981SOL    HW224843   1.319   6.086   3.020
 7982SOL     OW24844   0.203   2.429   0.603
 7982SOL    HW124845   0.264   2.488   0.656
 7982SOL    HW224846   0.190   2.467   0.512
 7983SOL     OW24847   4.611   2.649   2.106
 7983SOL    HW124848   4.670   2.587   2.158
 7983SOL    HW224849   4.584   2.726   2.164
 7984SOL     OW24850   0.356   0.635   0.206
 7984SOL    HW124851   0.272   0.592   0.240
 7984SOL    HW224852   0.407   0.672   0.283
 7985SOL     OW24853   0.609   1.170   0.991
 7985SOL    HW124854   0.681   1.101   0.993
 7985SOL    HW224855   0.528   1.135   1.038
 7986SOL     OW24856   4.291   2.552   0.446
 7986SOL    HW124857   4.253   2.580   0.534
 7986SOL    HW224858   4.222   2.503   0.393
 7987SOL     OW24859   0.398   2.599   4.738
 7987SOL    HW124860   0.381   2.560   4.648
 7987SOL    HW224861   0.328   2.669   4.758
 7988SOL     OW24862   2.397   1.732   5.600
 7988SOL    HW124863   2.409   1.634   5.612
 7988SOL    HW224864   2.450   1.781   5.669
 7989SOL     OW24865   3.587   3.448   5.306
 7989SOL    HW124866   3.644   3.518   5.263
 7989SOL    HW224867   3.510   3.426   5.246
 7990SOL     OW24868   2.396   2.557   4.868
 7990SOL    HW124869   2.475   2.512   4.909
 7990SOL    HW224870   2.312   2.515   4.902
 7991SOL     OW24871   0.043   3.518   4.691
 7991SOL    HW124872   0.121   3.456   4.698
 7991SOL    HW224873   0.050   3.572   4.608
 7992SOL     OW24874   2.112   0.445   0.373
 7992SOL    HW124875   2.029   0.499   0.363
 7992SOL    HW224876   2.126   0.423   0.469
 7993SOL     OW24877   2.105   6.581   6.103
 7993SOL    HW124878   2.086   6.648   6.030
 7993SOL    HW224879   2.196   6.599   6.141
 7994SOL     OW24880   6.125   0.391   4.056
 7994SOL    HW124881   6.064   0.416   3.981
 7994SOL    HW224882   6.144   0.471   4.113
 7995SOL     OW24883   4.316   5.152   3.189
 7995SOL    HW124884   4.300   5.237   3.240
 7995SOL    HW224885   4.413   5.145   3.165
 7996SOL     OW24886   3.931   0.999   5.055
 7996SOL    HW124887   3.889   1.072   5.110
 7996SOL    HW224888   4.018   1.031   5.018
 7997SOL     OW24889   5.599   2.524   2.401
 7997SOL    HW124890   5.536   2.573   2.341
 7997SOL    HW224891   5.590   2.560   2.494
 7998SOL     OW24892   6.032   5.238   6.517
 7998SOL    HW124893   5.946   5.257   6.565
 7998SOL    HW224894   6.090   5.181   6.574
 7999SOL     OW24895   1.410   0.557   5.443
 7999SOL    HW124896   1.423   0.493   5.518
 7999SOL    HW224897   1.413   0.508   5.356
 8000SOL     OW24898   5.667   6.913   5.662
 8000SOL    HW124899   5.712   6.994   5.624
 8000SOL    HW224900   5.569   6.920   5.647
 8001SOL     OW24901   2.179   6.651   1.338
 8001SOL    HW124902   2.220   6.641   1.429
 8001SOL    HW224903   2.143   6.744   1.328
 8002SOL     OW24904   5.316   3.147   5.717
 8002SOL    HW124905   5.217   3.134   5.722
 8002SOL    HW224906   5.339   3.240   5.746
 8003SOL     OW24907   3.967   5.510   3.375
 8003SOL    HW124908   3.885   5.528   3.430
 8003SOL    HW224909   3.994   5.594   3.329
 8004SOL     OW24910   1.384   4.113   2.332
 8004SOL    HW124911   1.395   4.211   2.347
 8004SOL    HW224912   1.297   4.083   2.370
 8005SOL     OW24913   2.726   1.008   1.945
 8005SOL    HW124914   2.781   1.090   1.933
 8005SOL    HW224915   2.767   0.949   2.014
 8006SOL     OW24916   3.340   6.465   1.017
 8006SOL    HW124917   3.261   6.406   1.029
 8006SOL    HW224918   3.318   6.540   0.955
 8007SOL     OW24919   0.854   0.924   4.377
 8007SOL    HW124920   0.808   0.888   4.458
 8007SOL    HW224921   0.842   0.860   4.301
 8008SOL     OW24922   5.984   5.743   0.682
 8008SOL    HW124923   5.965   5.659   0.732
 8008SOL    HW224924   5.926   5.746   0.600
 8009SOL     OW24925   0.069   7.017   3.818
 8009SOL    HW124926   0.049   6.945   3.885
 8009SOL    HW224927   7.005   0.048   3.796
 8010SOL     OW24928   1.918   2.861   6.809
 8010SOL    HW124929   1.828   2.817   6.804
 8010SOL    HW224930   1.947   2.890   6.718
 8011SOL     OW24931   2.113   2.394   0.917
 8011SOL    HW124932   2.063   2.475   0.946
 8011SOL    HW224933   2.199   2.387   0.968
 8012SOL     OW24934   3.050   6.697   3.361
 8012SOL    HW124935   3.124   6.669   3.300
 8012SOL    HW224936   2.977   6.629   3.358
 8013SOL     OW24937   6.304   5.208   5.212
 8013SOL    HW124938   6.290   5.221   5.310
 8013SOL    HW224939   6.398   5.233   5.188
 8014SOL     OW24940   1.978   0.088   6.534
 8014SOL    HW124941   1.914   0.011   6.537
 8014SOL    HW224942   1.994   0.115   6.439
 8015SOL     OW24943   1.482   2.148   6.528
 8015SOL    HW124944   1.506   2.166   6.623
 8015SOL    HW224945   1.409   2.209   6.499
 8016SOL     OW24946   3.520   6.656   1.072
 8016SOL    HW124947   3.454   6.583   1.057
 8016SOL    HW224948   3.508   6.695   1.163
 8017SOL     OW24949   5.927   4.274   4.517
 8017SOL    HW124950   5.941   4.372   4.531
 8017SOL    HW224951   5.844   4.259   4.464
 8018SOL     OW24952   5.396   2.738   4.662
 8018SOL    HW124953   5.485   2.749   4.707
 8018SOL    HW224954   5.408   2.686   4.577
 8019SOL     OW24955   2.495   4.893   1.607
 8019SOL    HW124956   2.595   4.906   1.605
 8019SOL    HW224957   2.468   4.856   1.696
 8020SOL     OW24958   6.142   6.522   6.388
 8020SOL    HW124959   6.064   6.497   6.329
 8020SOL    HW224960   6.107   6.555   6.476
 8021SOL     OW24961   0.793   0.820   1.324
 8021SOL    HW124962   0.825   0.913   1.310
 8021SOL    HW224963   0.849   0.757   1.270
 8022SOL     OW24964   4.170   5.730   3.543
 8022SOL    HW124965   4.270   5.724   3.551
 8022SOL    HW224966   4.133   5.638   3.526
 8023SOL     OW24967   6.037   6.295   3.776
 8023SOL    HW124968   5.998   6.361   3.840
 8023SOL    HW224969   6.081   6.344   3.700
 8024SOL     OW24970   5.011   4.901   4.485
 8024SOL    HW124971   5.045   4.917   4.578
 8024SOL    HW224972   4.911   4.909   4.484
 8025SOL     OW24973   3.198   5.635   0.369
 8025SOL    HW124974   3.259   5.690   0.312
 8025SOL    HW224975   3.220   5.650   0.465
 8026SOL     OW24976   2.145   2.973   0.902
 8026SOL    HW124977   2.047   2.986   0.916
 8026SOL    HW224978   2.191   3.062   0.901
 8027SOL     OW24979   5.115   3.410   5.850
 8027SOL    HW124980   5.036   3.467   5.824
 8027SOL    HW224981   5.099   3.316   5.820
 8028SOL     OW24982   5.235   4.939   0.380
 8028SOL    HW124983   5.304   4.972   0.315
 8028SOL    HW224984   5.169   5.012   0.397
 8029SOL     OW24985   3.102   4.812   0.362
 8029SOL    HW124986   3.040   4.767   0.426
 8029SOL    HW224987   3.067   4.903   0.339
 8030SOL     OW24988   5.926   4.241   6.935
 8030SOL    HW124989   5.923   4.146   6.905
 8030SOL    HW224990   5.910   4.301   6.857
 8031SOL     OW24991   3.894   6.108   1.657
 8031SOL    HW124992   3.859   6.160   1.580
 8031SOL    HW224993   3.857   6.144   1.742
 8032SOL     OW24994   5.200   4.998   6.016
 8032SOL    HW124995   5.195   4.947   6.101
 8032SOL    HW224996   5.206   5.096   6.035
 8033SOL     OW24997   6.173   2.464   0.391
 8033SOL    HW124998   6.256   2.409   0.394
 8033SOL    HW224999   6.189   2.549   0.442
 8034SOL     OW25000   5.969   1.283   5.194
 8034SOL    HW125001   6.000   1.296   5.288
 8034SOL    HW225002   5.945   1.372   5.155
 8035SOL     OW25003   5.306   6.041   0.039
 8035SOL    HW125004   5.383   6.003   7.006
 8035SOL    HW225005   5.307   6.002   0.131
 8036SOL     OW25006   2.108   4.178   1.479
 8036SOL    HW125007   2.131   4.222   1.392
 8036SOL    HW225008   2.184   4.189   1.543
 8037SOL     OW25009   1.903   3.473   1.031
 8037SOL    HW125010   1.859   3.414   0.964
 8037SOL    HW225011   1.985   3.429   1.066
 8038SOL     OW25012   7.015   1.610   3.906
 8038SOL    HW125013   6.941   1.664   3.863
 8038SOL    HW225014   6.976   1.551   3.976
 8039SOL     OW25015   2.859   6.524   4.593
 8039SOL    HW125016   2.782   6.555   4.537
 8039SOL    HW225017   2.854   6.567   4.683
 8040SOL     OW25018   6.561   5.538   0.984
 8040SOL    HW125019   6.635   5.529   0.918
 8040SOL    HW225020   6.587   5.494   1.070
 8041SOL     OW25021   3.917   2.025   0.481
 8041SOL    HW125022   3.866   1.994   0.400
 8041SOL    HW225023   3.908   1.958   0.554
 8042SOL     OW25024   2.392   3.534   1.134
 8042SOL    HW125025   2.418   3.607   1.070
 8042SOL    HW225026   2.436   3.448   1.107
 8043SOL     OW25027   2.238   0.139   1.505
 8043SOL    HW125028   2.316   0.152   1.443
 8043SOL    HW225029   2.158   0.186   1.468
 8044SOL     OW25030   3.217   4.115   1.822
 8044SOL    HW125031   3.274   4.195   1.802
 8044SOL    HW225032   3.154   4.137   1.896
 8045SOL     OW25033   6.238   3.046   3.596
 8045SOL    HW125034   6.234   3.072   3.499
 8045SOL    HW225035   6.178   2.967   3.611
 8046SOL     OW25036   0.311   5.325   5.992
 8046SOL    HW125037   0.218   5.288   5.977
 8046SOL    HW225038   0.324   5.342   6.089
 8047SOL     OW25039   2.957   6.038   3.850
 8047SOL    HW125040   2.945   6.065   3.755
 8047SOL    HW225041   2.930   6.114   3.910
 8048SOL     OW25042   6.351   0.734   5.786
 8048SOL    HW125043   6.445   0.747   5.757
 8048SOL    HW225044   6.304   0.674   5.721
 8049SOL     OW25045   1.718   5.650   0.392
 8049SOL    HW125046   1.759   5.737   0.419
 8049SOL    HW225047   1.716   5.588   0.470
 8050SOL     OW25048   1.339   2.562   1.378
 8050SOL    HW125049   1.289   2.577   1.463
 8050SOL    HW225050   1.308   2.627   1.309
 8051SOL     OW25051   3.593   1.531   3.428
 8051SOL    HW125052   3.551   1.442   3.445
 8051SOL    HW225053   3.653   1.555   3.505
 8052SOL     OW25054   3.226   2.175   2.982
 8052SOL    HW125055   3.157   2.234   3.024
 8052SOL    HW225056   3.196   2.148   2.890
 8053SOL     OW25057   3.882   3.328   2.036
 8053SOL    HW125058   3.819   3.396   2.075
 8053SOL    HW225059   3.965   3.325   2.091
 8054SOL     OW25060   4.108   5.801   4.364
 8054SOL    HW125061   4.031   5.770   4.419
 8054SOL    HW225062   4.144   5.886   4.402
 8055SOL     OW25063   1.174   6.920   5.061
 8055SOL    HW125064   1.247   6.988   5.068
 8055SOL    HW225065   1.139   6.919   4.967
 8056SOL     OW25066   3.943   1.565   3.043
 8056SOL    HW125067   3.850   1.546   3.077
 8056SOL    HW225068   3.938   1.591   2.946
 8057SOL     OW25069   4.001   6.713   3.589
 8057SOL    HW125070   4.099   6.734   3.593
 8057SOL    HW225071   3.951   6.773   3.652
 8058SOL     OW25072   1.818   0.035   3.059
 8058SOL    HW125073   1.888   7.003   3.110
 8058SOL    HW225074   1.828   0.132   3.078
 8059SOL     OW25075   2.451   1.679   4.014
 8059SOL    HW125076   2.404   1.595   3.988
 8059SOL    HW225077   2.503   1.664   4.098
 8060SOL     OW25078   0.356   1.733   5.344
 8060SOL    HW125079   0.260   1.713   5.363
 8060SOL    HW225080   0.362   1.793   5.264
 8061SOL     OW25081   0.296   5.574   1.589
 8061SOL    HW125082   0.241   5.547   1.668
 8061SOL    HW225083   0.235   5.593   1.512
 8062SOL     OW25084   2.145   3.818   2.445
 8062SOL    HW125085   2.111   3.735   2.488
 8062SOL    HW225086   2.118   3.819   2.348
 8063SOL     OW25087   2.973   2.983   0.012
 8063SOL    HW125088   2.960   2.897   0.063
 8063SOL    HW225089   3.037   2.968   6.956
 8064SOL     OW25090   6.404   3.213   6.934
 8064SOL    HW125091   6.346   3.160   6.872
 8064SOL    HW225092   6.346   3.256   7.004
 8065SOL     OW25093   4.297   0.215   6.171
 8065SOL    HW125094   4.387   0.227   6.213
 8065SOL    HW225095   4.306   0.157   6.090
 8066SOL     OW25096   2.229   0.351   1.109
 8066SOL    HW125097   2.238   0.440   1.152
 8066SOL    HW225098   2.315   0.301   1.118
 8067SOL     OW25099   5.349   1.997   1.877
 8067SOL    HW125100   5.421   1.942   1.834
 8067SOL    HW225101   5.270   2.002   1.816
 8068SOL     OW25102   0.409   4.325   3.937
 8068SOL    HW125103   0.333   4.262   3.953
 8068SOL    HW225104   0.479   4.280   3.882
 8069SOL     OW25105   1.739   6.276   2.238
 8069SOL    HW125106   1.715   6.314   2.327
 8069SOL    HW225107   1.715   6.340   2.166
 8070SOL     OW25108   4.022   0.272   2.038
 8070SOL    HW125109   4.079   0.334   1.983
 8070SOL    HW225110   3.981   0.323   2.114
 8071SOL     OW25111   3.549   6.291   0.360
 8071SOL    HW125112   3.506   6.376   0.329
 8071SOL    HW225113   3.603   6.252   0.286
 8072SOL     OW25114   5.428   0.661   1.982
 8072SOL    HW125115   5.424   0.747   1.932
 8072SOL    HW225116   5.335   0.632   2.005
 8073SOL     OW25117   3.961   6.561   5.547
 8073SOL    HW125118   3.940   6.656   5.569
 8073SOL    HW225119   3.879   6.505   5.557
 8074SOL     OW25120   3.056   3.818   6.964
 8074SOL    HW125121   3.079   3.846   0.038
 8074SOL    HW225122   3.079   3.721   6.951
 8075SOL     OW25123   6.084   1.361   2.224
 8075SOL    HW125124   6.124   1.293   2.285
 8075SOL    HW225125   6.112   1.342   2.130
 8076SOL     OW25126   5.117   3.045   6.309
 8076SOL    HW125127   5.019   3.027   6.320
 8076SOL    HW225128   5.155   3.071   6.398
 8077SOL     OW25129   1.369   1.064   0.521
 8077SOL    HW125130   1.463   1.040   0.544
 8077SOL    HW225131   1.319   1.085   0.605
 8078SOL     OW25132   6.102   3.537   0.317
 8078SOL    HW125133   6.140   3.444   0.328
 8078SOL    HW225134   6.030   3.536   0.248
 8079SOL     OW25135   0.301   1.924   1.828
 8079SOL    HW125136   0.360   1.845   1.815
 8079SOL    HW225137   0.285   1.968   1.739
 8080SOL     OW25138   3.745   5.160   0.083
 8080SOL    HW125139   3.718   5.144   0.178
 8080SOL    HW225140   3.719   5.080   0.028
 8081SOL     OW25141   5.992   0.655   5.652
 8081SOL    HW125142   5.981   0.573   5.708
 8081SOL    HW225143   5.902   0.690   5.626
 8082SOL     OW25144   6.299   3.091   4.196
 8082SOL    HW125145   6.276   3.059   4.288
 8082SOL    HW225146   6.222   3.077   4.135
 8083SOL     OW25147   5.515   2.578   4.464
 8083SOL    HW125148   5.458   2.502   4.432
 8083SOL    HW225149   5.597   2.542   4.508
 8084SOL     OW25150   6.959   6.995   1.511
 8084SOL    HW125151   6.915   6.955   1.591
 8084SOL    HW225152   6.995   0.066   1.534
 8085SOL     OW25153   6.488   2.253   1.101
 8085SOL    HW125154   6.568   2.201   1.130
 8085SOL    HW225155   6.412   2.190   1.081
 8086SOL     OW25156   3.256   6.544   5.657
 8086SOL    HW125157   3.350   6.519   5.680
 8086SOL    HW225158   3.233   6.632   5.700
 8087SOL     OW25159   2.559   3.003   1.419
 8087SOL    HW125160   2.546   3.028   1.515
 8087SOL    HW225161   2.472   3.012   1.371
 8088SOL     OW25162   4.484   0.553   2.607
 8088SOL    HW125163   4.500   0.563   2.705
 8088SOL    HW225164   4.487   0.457   2.582
 8089SOL     OW25165   5.879   2.930   0.694
 8089SOL    HW125166   5.897   2.961   0.600
 8089SOL    HW225167   5.919   2.839   0.706
 8090SOL     OW25168   4.697   2.281   4.973
 8090SOL    HW125169   4.765   2.349   5.001
 8090SOL    HW225170   4.607   2.324   4.969
 8091SOL     OW25171   3.175   5.394   5.858
 8091SOL    HW125172   3.250   5.330   5.842
 8091SOL    HW225173   3.203   5.486   5.831
 8092SOL     OW25174   0.231   1.735   3.992
 8092SOL    HW125175   0.270   1.643   3.998
 8092SOL    HW225176   0.132   1.728   3.981
 8093SOL     OW25177   5.469   5.997   1.024
 8093SOL    HW125178   5.426   6.002   1.114
 8093SOL    HW225179   5.435   6.071   0.966
 8094SOL     OW25180   1.334   3.820   4.409
 8094SOL    HW125181   1.389   3.894   4.447
 8094SOL    HW225182   1.358   3.806   4.313
 8095SOL     OW25183   5.831   3.658   4.721
 8095SOL    HW125184   5.795   3.719   4.791
 8095SOL    HW225185   5.887   3.711   4.656
 8096SOL     OW25186   3.875   0.256   1.148
 8096SOL    HW125187   3.832   0.166   1.158
 8096SOL    HW225188   3.805   0.325   1.132
 8097SOL     OW25189   4.507   0.887   4.813
 8097SOL    HW125190   4.413   0.869   4.840
 8097SOL    HW225191   4.528   0.984   4.825
 8098SOL     OW25192   2.765   0.408   4.197
 8098SOL    HW125193   2.786   0.450   4.285
 8098SOL    HW225194   2.797   0.313   4.198
 8099SOL     OW25195   5.332   6.474   4.848
 8099SOL    HW125196   5.316   6.380   4.876
 8099SOL    HW225197   5.361   6.528   4.927
 8100SOL     OW25198   0.836   6.209   1.102
 8100SOL    HW125199   0.820   6.114   1.076
 8100SOL    HW225200   0.932   6.221   1.128
 8101SOL     OW25201   0.825   5.471   2.686
 8101SOL    HW125202   0.855   5.520   2.767
 8101SOL    HW225203   0.903   5.456   2.625
 8102SOL     OW25204   0.222   0.218   6.596
 8102SOL    HW125205   0.318   0.194   6.612
 8102SOL    HW225206   0.174   0.223   6.684
 8103SOL     OW25207   2.715   1.610   2.529
 8103SOL    HW125208   2.791   1.604   2.465
 8103SOL    HW225209   2.750   1.607   2.623
 8104SOL     OW25210   2.744   6.291   5.946
 8104SOL    HW125211   2.777   6.198   5.961
 8104SOL    HW225212   2.741   6.340   6.033
 8105SOL     OW25213   1.566   2.662   2.564
 8105SOL    HW125214   1.473   2.646   2.597
 8105SOL    HW225215   1.624   2.584   2.589
 8106SOL     OW25216   0.423   4.143   4.600
 8106SOL    HW125217   0.418   4.127   4.699
 8106SOL    HW225218   0.448   4.058   4.554
 8107SOL     OW25219   1.599   5.976   6.379
 8107SOL    HW125220   1.536   6.052   6.395
 8107SOL    HW225221   1.614   5.965   6.281
 8108SOL     OW25222   2.108   3.214   4.773
 8108SOL    HW125223   2.111   3.310   4.745
 8108SOL    HW225224   2.154   3.158   4.704
 8109SOL     OW25225   0.749   5.571   5.424
 8109SOL    HW125226   0.790   5.552   5.335
 8109SOL    HW225227   0.787   5.657   5.460
 8110SOL     OW25228   1.592   4.297   0.630
 8110SOL    HW125229   1.518   4.230   0.627
 8110SOL    HW225230   1.680   4.249   0.637
 8111SOL     OW25231   2.618   6.069   4.402
 8111SOL    HW125232   2.568   6.014   4.335
 8111SOL    HW225233   2.702   6.021   4.427
 8112SOL     OW25234   4.167   1.121   4.680
 8112SOL    HW125235   4.121   1.034   4.696
 8112SOL    HW225236   4.224   1.144   4.759
 8113SOL     OW25237   3.935   3.063   5.914
 8113SOL    HW125238   3.937   2.989   5.982
 8113SOL    HW225239   3.841   3.095   5.904
 8114SOL     OW25240   3.209   4.057   1.562
 8114SOL    HW125241   3.171   4.148   1.546
 8114SOL    HW225242   3.228   4.046   1.659
 8115SOL     OW25243   3.909   2.234   0.932
 8115SOL    HW125244   3.811   2.252   0.942
 8115SOL    HW225245   3.960   2.319   0.946
 8116SOL     OW25246   5.088   0.875   5.868
 8116SOL    HW125247   5.029   0.954   5.853
 8116SOL    HW225248   5.180   0.893   5.833
 8117SOL     OW25249   2.548   1.929   5.766
 8117SOL    HW125250   2.555   2.022   5.732
 8117SOL    HW225251   2.558   1.929   5.866
 8118SOL     OW25252   1.294   2.637   4.192
 8118SOL    HW125253   1.233   2.666   4.265
 8118SOL    HW225254   1.377   2.693   4.193
 8119SOL     OW25255   1.449   5.589   2.244
 8119SOL    HW125256   1.414   5.628   2.329
 8119SOL    HW225257   1.510   5.654   2.199
 8120SOL     OW25258   4.756   4.099   1.763
 8120SOL    HW125259   4.670   4.131   1.803
 8120SOL    HW225260   4.745   4.005   1.731
 8121SOL     OW25261   6.586   6.768   3.272
 8121SOL    HW125262   6.618   6.862   3.259
 8121SOL    HW225263   6.649   6.719   3.333
 8122SOL     OW25264   0.660   5.884   1.565
 8122SOL    HW125265   0.597   5.916   1.494
 8122SOL    HW225266   0.734   5.950   1.576
 8123SOL     OW25267   0.430   5.839   0.317
 8123SOL    HW125268   0.434   5.939   0.315
 8123SOL    HW225269   0.408   5.808   0.409
 8124SOL     OW25270   0.626   6.029   2.794
 8124SOL    HW125271   0.714   5.983   2.789
 8124SOL    HW225272   0.626   6.094   2.871
 8125SOL     OW25273   5.950   5.422   2.914
 8125SOL    HW125274   6.001   5.501   2.947
 8125SOL    HW225275   5.853   5.435   2.935
 8126SOL     OW25276   5.886   5.044   2.466
 8126SOL    HW125277   5.843   4.994   2.391
 8126SOL    HW225278   5.878   4.991   2.551
 8127SOL     OW25279   3.793   4.435   1.081
 8127SOL    HW125280   3.744   4.415   0.996
 8127SOL    HW225281   3.735   4.410   1.159
 8128SOL     OW25282   3.886   2.455   5.353
 8128SOL    HW125283   3.860   2.375   5.299
 8128SOL    HW225284   3.968   2.497   5.313
 8129SOL     OW25285   4.919   6.582   0.052
 8129SOL    HW125286   4.986   6.512   0.028
 8129SOL    HW225287   4.826   6.546   0.037
 8130SOL     OW25288   0.988   6.916   0.599
 8130SOL    HW125289   1.068   6.944   0.546
 8130SOL    HW225290   1.019   6.871   0.683
 8131SOL     OW25291   1.493   1.618   0.237
 8131SOL    HW125292   1.530   1.711   0.230
 8131SOL    HW225293   1.515   1.580   0.327
 8132SOL     OW25294   6.002   4.441   2.995
 8132SOL    HW125295   5.994   4.476   3.089
 8132SOL    HW225296   6.091   4.397   2.984
 8133SOL     OW25297   0.872   5.717   1.998
 8133SOL    HW125298   0.779   5.724   1.962
 8133SOL    HW225299   0.917   5.638   1.957
 8134SOL     OW25300   2.000   2.493   2.008
 8134SOL    HW125301   1.959   2.418   1.957
 8134SOL    HW225302   2.063   2.457   2.076
 8135SOL     OW25303   3.688   5.865   2.473
 8135SOL    HW125304   3.668   5.957   2.440
 8135SOL    HW225305   3.785   5.844   2.457
 8136SOL     OW25306   3.289   6.162   1.599
 8136SOL    HW125307   3.371   6.206   1.636
 8136SOL    HW225308   3.208   6.208   1.634
 8137SOL     OW25309   3.246   3.660   4.896
 8137SOL    HW125310   3.287   3.577   4.857
 8137SOL    HW225311   3.147   3.655   4.888
 8138SOL     OW25312   5.222   0.614   3.959
 8138SOL    HW125313   5.131   0.656   3.956
 8138SOL    HW225314   5.246   0.596   4.054
 8139SOL     OW25315   1.700   2.968   4.647
 8139SOL    HW125316   1.798   2.945   4.645
 8139SOL    HW225317   1.661   2.934   4.733
 8140SOL     OW25318   4.646   0.954   0.945
 8140SOL    HW125319   4.627   0.965   1.042
 8140SOL    HW225320   4.570   0.907   0.901
 8141SOL     OW25321   5.849   0.554   5.255
 8141SOL    HW125322   5.797   0.617   5.197
 8141SOL    HW225323   5.929   0.520   5.205
 8142SOL     OW25324   2.500   5.216   1.255
 8142SOL    HW125325   2.599   5.221   1.259
 8142SOL    HW225326   2.466   5.274   1.180
 8143SOL     OW25327   5.659   5.003   0.712
 8143SOL    HW125328   5.586   5.008   0.780
 8143SOL    HW225329   5.636   4.936   0.642
 8144SOL     OW25330   0.485   5.028   0.254
 8144SOL    HW125331   0.577   5.058   0.228
 8144SOL    HW225332   0.490   4.978   0.340
 8145SOL     OW25333   5.535   5.887   6.950
 8145SOL    HW125334   5.577   5.798   6.933
 8145SOL    HW225335   5.583   5.957   6.897
 8146SOL     OW25336   6.091   0.030   4.768
 8146SOL    HW125337   6.019   0.056   4.704
 8146SOL    HW225338   6.180   0.054   4.729
 8147SOL     OW25339   1.585   0.614   6.174
 8147SOL    HW125340   1.509   0.653   6.226
 8147SOL    HW225341   1.671   0.635   6.220
 8148SOL     OW25342   4.613   4.000   0.481
 8148SOL    HW125343   4.705   4.029   0.455
 8148SOL    HW225344   4.590   4.039   0.570
 8149SOL     OW25345   0.742   0.358   5.371
 8149SOL    HW125346   0.647   0.372   5.398
 8149SOL    HW225347   0.782   0.444   5.342
 8150SOL     OW25348   0.505   3.998   0.649
 8150SOL    HW125349   0.518   4.088   0.691
 8150SOL    HW225350   0.409   3.971   0.655
 8151SOL     OW25351   6.530   5.845   2.952
 8151SOL    HW125352   6.511   5.932   2.996
 8151SOL    HW225353   6.611   5.854   2.893
 8152SOL     OW25354   4.901   1.333   2.945
 8152SOL    HW125355   4.917   1.237   2.966
 8152SOL    HW225356   4.918   1.349   2.848
 8153SOL     OW25357   0.057   1.659   2.027
 8153SOL    HW125358   0.124   1.601   1.981
 8153SOL    HW225359   0.104   1.735   2.071
 8154SOL     OW25360   1.923   1.368   2.700
 8154SOL    HW125361   1.836   1.370   2.749
 8154SOL    HW225362   1.976   1.289   2.730
 8155SOL     OW25363   1.535   5.195   3.538
 8155SOL    HW125364   1.621   5.235   3.506
 8155SOL    HW225365   1.474   5.268   3.570
 8156SOL     OW25366   0.891   4.726   0.710
 8156SOL    HW125367   0.875   4.780   0.627
 8156SOL    HW225368   0.833   4.644   0.709
 8157SOL     OW25369   6.611   4.341   4.739
 8157SOL    HW125370   6.684   4.370   4.676
 8157SOL    HW225371   6.577   4.421   4.789
 8158SOL     OW25372   6.025   5.618   6.610
 8158SOL    HW125373   6.097   5.682   6.634
 8158SOL    HW225374   6.031   5.537   6.669
 8159SOL     OW25375   2.703   6.892   4.826
 8159SOL    HW125376   2.667   6.839   4.750
 8159SOL    HW225377   2.765   6.962   4.792
 8160SOL     OW25378   5.872   1.643   2.063
 8160SOL    HW125379   5.953   1.697   2.043
 8160SOL    HW225380   5.843   1.659   2.157
 8161SOL     OW25381   5.676   2.864   1.743
 8161SOL    HW125382   5.761   2.862   1.795
 8161SOL    HW225383   5.669   2.781   1.687
 8162SOL     OW25384   0.525   5.578   5.064
 8162SOL    HW125385   0.427   5.598   5.069
 8162SOL    HW225386   0.548   5.507   5.131
 8163SOL     OW25387   4.312   4.561   5.608
 8163SOL    HW125388   4.214   4.543   5.620
 8163SOL    HW225389   4.362   4.530   5.689
 8164SOL     OW25390   5.592   1.523   0.488
 8164SOL    HW125391   5.525   1.527   0.563
 8164SOL    HW225392   5.631   1.431   0.484
 8165SOL     OW25393   0.460   1.590   6.763
 8165SOL    HW125394   0.484   1.683   6.790
 8165SOL    HW225395   0.466   1.529   6.842
 8166SOL     OW25396   1.221   1.672   5.704
 8166SOL    HW125397   1.204   1.632   5.795
 8166SOL    HW225398   1.258   1.764   5.715
 8167SOL     OW25399   1.894   3.603   3.823
 8167SOL    HW125400   1.797   3.592   3.801
 8167SOL    HW225401   1.903   3.662   3.903
 8168SOL     OW25402   1.616   0.320   2.192
 8168SOL    HW125403   1.661   0.370   2.266
 8168SOL    HW225404   1.525   0.292   2.222
 8169SOL     OW25405   4.975   2.898   0.709
 8169SOL    HW125406   5.035   2.914   0.787
 8169SOL    HW225407   4.919   2.817   0.726
 8170SOL     OW25408   0.002   4.929   2.174
 8170SOL    HW125409   6.929   4.966   2.157
 8170SOL    HW225410   0.001   4.878   2.260
 8171SOL     OW25411   2.438   1.508   0.593
 8171SOL    HW125412   2.456   1.577   0.664
 8171SOL    HW225413   2.415   1.554   0.507
 8172SOL     OW25414   1.354   2.658   0.367
 8172SOL    HW125415   1.337   2.689   0.460
 8172SOL    HW225416   1.286   2.590   0.340
 8173SOL     OW25417   6.039   0.979   1.705
 8173SOL    HW125418   5.961   0.946   1.652
 8173SOL    HW225419   6.074   0.906   1.763
 8174SOL     OW25420   2.643   5.772   3.411
 8174SOL    HW125421   2.716   5.815   3.359
 8174SOL    HW225422   2.682   5.704   3.474
 8175SOL     OW25423   0.411   1.911   5.819
 8175SOL    HW125424   0.331   1.970   5.828
 8175SOL    HW225425   0.484   1.962   5.773
 8176SOL     OW25426   2.469   4.522   0.413
 8176SOL    HW125427   2.468   4.517   0.513
 8176SOL    HW225428   2.558   4.491   0.379
 8177SOL     OW25429   3.415   1.240   4.005
 8177SOL    HW125430   3.496   1.195   3.967
 8177SOL    HW225431   3.371   1.295   3.935
 8178SOL     OW25432   2.915   6.410   1.087
 8178SOL    HW125433   2.898   6.496   1.134
 8178SOL    HW225434   2.924   6.427   0.988
 8179SOL     OW25435   5.726   0.700   3.524
 8179SOL    HW125436   5.819   0.669   3.543
 8179SOL    HW225437   5.665   0.620   3.519
 8180SOL     OW25438   5.021   6.590   0.553
 8180SOL    HW125439   5.097   6.639   0.509
 8180SOL    HW225440   4.997   6.510   0.498
 8181SOL     OW25441   6.870   0.351   6.912
 8181SOL    HW125442   6.855   0.352   6.813
 8181SOL    HW225443   6.796   0.402   6.957
 8182SOL     OW25444   3.234   3.324   4.135
 8182SOL    HW125445   3.325   3.285   4.149
 8182SOL    HW225446   3.203   3.304   4.042
 8183SOL     OW25447   6.896   0.686   5.695
 8183SOL    HW125448   6.897   0.597   5.650
 8183SOL    HW225449   6.824   0.743   5.656
 8184SOL     OW25450   0.145   5.889   6.197
 8184SOL    HW125451   0.112   5.965   6.254
 8184SOL    HW225452   0.090   5.807   6.217
 8185SOL     OW25453   0.256   6.331   6.085
 8185SOL    HW125454   0.328   6.395   6.113
 8185SOL    HW225455   0.293   6.238   6.085
 8186SOL     OW25456   1.940   5.422   6.895
 8186SOL    HW125457   1.969   5.371   6.814
 8186SOL    HW225458   2.014   5.423   6.962
 8187SOL     OW25459   1.358   0.379   5.655
 8187SOL    HW125460   1.400   0.293   5.684
 8187SOL    HW225461   1.361   0.445   5.730
 8188SOL     OW25462   1.511   2.892   2.843
 8188SOL    HW125463   1.523   2.925   2.750
 8188SOL    HW225464   1.413   2.884   2.863
 8189SOL     OW25465   5.599   4.898   4.046
 8189SOL    HW125466   5.647   4.985   4.040
 8189SOL    HW225467   5.662   4.827   4.079
 8190SOL     OW25468   6.496   3.859   2.834
 8190SOL    HW125469   6.556   3.843   2.912
 8190SOL    HW225470   6.466   3.771   2.796
 8191SOL     OW25471   4.042   5.241   0.996
 8191SOL    HW125472   3.995   5.224   1.083
 8191SOL    HW225473   3.982   5.219   0.920
 8192SOL     OW25474   0.789   6.369   3.409
 8192SOL    HW125475   0.735   6.323   3.338
 8192SOL    HW225476   0.741   6.451   3.438
 8193SOL     OW25477   1.077   4.987   4.114
 8193SOL    HW125478   1.084   4.920   4.188
 8193SOL    HW225479   1.166   4.998   4.071
 8194SOL     OW25480   4.430   6.775   1.755
 8194SOL    HW125481   4.420   6.813   1.847
 8194SOL    HW225482   4.387   6.836   1.689
 8195SOL     OW25483   6.153   6.806   4.038
 8195SOL    HW125484   6.059   6.840   4.039
 8195SOL    HW225485   6.176   6.772   4.129
 8196SOL     OW25486   4.910   1.191   1.730
 8196SOL    HW125487   4.949   1.248   1.658
 8196SOL    HW225488   4.810   1.197   1.727
 8197SOL     OW25489   3.729   2.014   2.869
 8197SOL    HW125490   3.740   1.915   2.881
 8197SOL    HW225491   3.642   2.032   2.824
 8198SOL     OW25492   1.525   5.883   1.637
 8198SOL    HW125493   1.527   5.896   1.736
 8198SOL    HW225494   1.457   5.814   1.614
 8199SOL     OW25495   5.487   3.080   0.149
 8199SOL    HW125496   5.566   3.020   0.162
 8199SOL    HW225497   5.514   3.158   0.093
 8200SOL     OW25498   4.240   3.173   0.855
 8200SOL    HW125499   4.312   3.126   0.905
 8200SOL    HW225500   4.194   3.237   0.915
 8201SOL     OW25501   6.305   0.062   5.334
 8201SOL    HW125502   6.356   7.002   5.369
 8201SOL    HW225503   6.223   0.029   5.286
 8202SOL     OW25504   0.673   6.425   2.111
 8202SOL    HW125505   0.715   6.341   2.146
 8202SOL    HW225506   0.577   6.407   2.089
 8203SOL     OW25507   1.723   3.325   1.242
 8203SOL    HW125508   1.771   3.295   1.325
 8203SOL    HW225509   1.786   3.380   1.186
 8204SOL     OW25510   3.000   2.802   0.944
 8204SOL    HW125511   2.980   2.704   0.948
 8204SOL    HW225512   2.956   2.841   0.863
 8205SOL     OW25513   1.263   3.660   6.853
 8205SOL    HW125514   1.307   3.704   6.775
 8205SOL    HW225515   1.185   3.606   6.820
 8206SOL     OW25516   2.927   0.588   0.807
 8206SOL    HW125517   2.835   0.573   0.844
 8206SOL    HW225518   2.953   0.684   0.819
 8207SOL     OW25519   3.980   4.023   4.708
 8207SOL    HW125520   4.007   3.941   4.658
 8207SOL    HW225521   4.046   4.041   4.781
 8208SOL     OW25522   1.988   0.831   0.349
 8208SOL    HW125523   2.054   0.900   0.319
 8208SOL    HW225524   1.964   0.773   0.271
 8209SOL     OW25525   6.350   1.428   4.780
 8209SOL    HW125526   6.374   1.343   4.734
 8209SOL    HW225527   6.349   1.413   4.879
 8210SOL     OW25528   1.820   2.736   6.269
 8210SOL    HW125529   1.919   2.743   6.254
 8210SOL    HW225530   1.803   2.679   6.349
 8211SOL     OW25531   3.663   4.813   1.623
 8211SOL    HW125532   3.612   4.763   1.693
 8211SOL    HW225533   3.761   4.794   1.633
 8212SOL     OW25534   1.723   3.002   3.334
 8212SOL    HW125535   1.748   2.942   3.258
 8212SOL    HW225536   1.758   2.964   3.419
 8213SOL     OW25537   6.503   4.968   1.351
 8213SOL    HW125538   6.465   4.910   1.424
 8213SOL    HW225539   6.591   5.006   1.382
 8214SOL     OW25540   5.686   3.814   3.738
 8214SOL    HW125541   5.598   3.839   3.778
 8214SOL    HW225542   5.678   3.725   3.694
 8215SOL     OW25543   3.402   5.051   2.940
 8215SOL    HW125544   3.374   5.122   3.005
 8215SOL    HW225545   3.342   5.054   2.861
 8216SOL     OW25546   5.426   3.871   3.801
 8216SOL    HW125547   5.342   3.843   3.754
 8216SOL    HW225548   5.419   3.847   3.898
 8217SOL     OW25549   1.994   5.756   0.227
 8217SOL    HW125550   1.989   5.716   0.318
 8217SOL    HW225551   2.068   5.713   0.175
 8218SOL     OW25552   6.205   2.486   6.720
 8218SOL    HW125553   6.278   2.452   6.778
 8218SOL    HW225554   6.244   2.525   6.636
 8219SOL     OW25555   5.468   1.846   6.977
 8219SOL    HW125556   5.501   1.755   7.001
 8219SOL    HW225557   5.540   1.913   6.995
 8220SOL     OW25558   4.135   3.559   1.921
 8220SOL    HW125559   4.193   3.612   1.859
 8220SOL    HW225560   4.164   3.463   1.920
 8221SOL     OW25561   5.309   6.129   3.471
 8221SOL    HW125562   5.310   6.201   3.403
 8221SOL    HW225563   5.402   6.098   3.488
 8222SOL     OW25564   6.605   2.361   1.988
 8222SOL    HW125565   6.632   2.402   1.901
 8222SOL    HW225566   6.688   2.330   2.036
 8223SOL     OW25567   0.748   5.355   5.752
 8223SOL    HW125568   0.751   5.440   5.806
 8223SOL    HW225569   0.790   5.281   5.804
 8224SOL     OW25570   1.525   3.301   3.871
 8224SOL    HW125571   1.441   3.294   3.925
 8224SOL    HW225572   1.604   3.292   3.931
 8225SOL     OW25573   4.916   1.654   0.417
 8225SOL    HW125574   4.869   1.719   0.476
 8225SOL    HW225575   5.004   1.629   0.458
 8226SOL     OW25576   4.346   0.529   0.338
 8226SOL    HW125577   4.301   0.556   0.423
 8226SOL    HW225578   4.420   0.592   0.317
 8227SOL     OW25579   6.124   3.360   2.756
 8227SOL    HW125580   6.089   3.287   2.697
 8227SOL    HW225581   6.169   3.320   2.836
 8228SOL     OW25582   6.611   2.572   4.835
 8228SOL    HW125583   6.704   2.580   4.871
 8228SOL    HW225584   6.545   2.602   4.905
 8229SOL     OW25585   3.682   5.256   0.701
 8229SOL    HW125586   3.726   5.344   0.716
 8229SOL    HW225587   3.598   5.251   0.755
 8230SOL     OW25588   5.000   6.915   3.968
 8230SOL    HW125589   5.096   6.893   3.984
 8230SOL    HW225590   4.963   6.855   3.898
 8231SOL     OW25591   4.275   6.199   0.513
 8231SOL    HW125592   4.207   6.210   0.440
 8231SOL    HW225593   4.240   6.242   0.596
 8232SOL     OW25594   2.806   2.328   6.262
 8232SOL    HW125595   2.830   2.341   6.358
 8232SOL    HW225596   2.742   2.399   6.235
 8233SOL     OW25597   0.241   5.253   6.729
 8233SOL    HW125598   0.320   5.196   6.752
 8233SOL    HW225599   0.272   5.342   6.697
 8234SOL     OW25600   3.664   2.135   6.735
 8234SOL    HW125601   3.744   2.151   6.794
 8234SOL    HW225602   3.602   2.212   6.741
 8235SOL     OW25603   4.702   2.204   0.480
 8235SOL    HW125604   4.724   2.264   0.403
 8235SOL    HW225605   4.771   2.214   0.551
 8236SOL     OW25606   5.485   2.893   1.011
 8236SOL    HW125607   5.492   2.992   1.029
 8236SOL    HW225608   5.549   2.868   0.939
 8237SOL     OW25609   4.271   6.411   5.275
 8237SOL    HW125610   4.238   6.362   5.356
 8237SOL    HW225611   4.363   6.446   5.293
 8238SOL     OW25612   1.655   1.440   6.390
 8238SOL    HW125613   1.707   1.407   6.469
 8238SOL    HW225614   1.708   1.508   6.340
 8239SOL     OW25615   6.895   1.830   6.289
 8239SOL    HW125616   6.869   1.898   6.357
 8239SOL    HW225617   6.994   1.817   6.290
 8240SOL     OW25618   3.588   4.140   3.786
 8240SOL    HW125619   3.608   4.166   3.692
 8240SOL    HW225620   3.515   4.072   3.788
 8241SOL     OW25621   4.599   6.742   0.882
 8241SOL    HW125622   4.596   6.736   0.782
 8241SOL    HW225623   4.691   6.719   0.913
 8242SOL     OW25624   0.794   4.120   5.734
 8242SOL    HW125625   0.883   4.164   5.747
 8242SOL    HW225626   0.771   4.118   5.637
 8243SOL     OW25627   0.907   3.247   4.776
 8243SOL    HW125628   0.930   3.165   4.723
 8243SOL    HW225629   0.814   3.276   4.755
 8244SOL     OW25630   0.950   6.392   4.529
 8244SOL    HW125631   0.944   6.339   4.445
 8244SOL    HW225632   0.983   6.334   4.604
 8245SOL     OW25633   3.658   2.827   0.637
 8245SOL    HW125634   3.583   2.831   0.704
 8245SOL    HW225635   3.653   2.740   0.588
 8246SOL     OW25636   5.040   3.926   5.612
 8246SOL    HW125637   5.123   3.917   5.557
 8246SOL    HW225638   4.996   3.837   5.621
 8247SOL     OW25639   1.126   0.152   1.576
 8247SOL    HW125640   1.109   0.196   1.487
 8247SOL    HW225641   1.136   0.222   1.646
 8248SOL     OW25642   6.556   4.110   3.356
 8248SOL    HW125643   6.650   4.076   3.350
 8248SOL    HW225644   6.502   4.048   3.412
 8249SOL     OW25645   1.972   5.020   3.250
 8249SOL    HW125646   1.915   4.970   3.184
 8249SOL    HW225647   2.040   5.075   3.201
 8250SOL     OW25648   4.008   3.872   2.378
 8250SOL    HW125649   4.043   3.812   2.305
 8250SOL    HW225650   4.054   3.849   2.464
 8251SOL     OW25651   5.597   1.640   4.891
 8251SOL    HW125652   5.547   1.726   4.892
 8251SOL    HW225653   5.639   1.627   4.801
 8252SOL     OW25654   1.697   3.555   4.536
 8252SOL    HW125655   1.601   3.538   4.513
 8252SOL    HW225656   1.719   3.651   4.520
 8253SOL     OW25657   3.326   2.883   5.506
 8253SOL    HW125658   3.395   2.912   5.572
 8253SOL    HW225659   3.293   2.963   5.455
 8254SOL     OW25660   3.630   5.748   3.718
 8254SOL    HW125661   3.679   5.676   3.669
 8254SOL    HW225662   3.681   5.774   3.800
 8255SOL     OW25663   4.600   5.019   3.967
 8255SOL    HW125664   4.648   5.085   3.908
 8255SOL    HW225665   4.609   4.927   3.928
 8256SOL     OW25666   6.839   1.784   3.787
 8256SOL    HW125667   6.879   1.869   3.753
 8256SOL    HW225668   6.757   1.804   3.840
 8257SOL     OW25669   6.907   4.314   3.692
 8257SOL    HW125670   6.931   4.313   3.595
 8257SOL    HW225671   6.822   4.366   3.705
 8258SOL     OW25672   4.705   1.869   0.219
 8258SOL    HW125673   4.667   1.827   0.137
 8258SOL    HW225674   4.631   1.913   0.270
 8259SOL     OW25675   3.747   1.624   1.958
 8259SOL    HW125676   3.771   1.676   2.040
 8259SOL    HW225677   3.732   1.687   1.882
 8260SOL     OW25678   2.702   6.076   0.476
 8260SOL    HW125679   2.746   6.024   0.550
 8260SOL    HW225680   2.629   6.133   0.515
 8261SOL     OW25681   5.872   1.509   1.491
 8261SOL    HW125682   5.780   1.510   1.454
 8261SOL    HW225683   5.898   1.415   1.514
 8262SOL     OW25684   1.077   2.673   0.934
 8262SOL    HW125685   1.070   2.596   0.870
 8262SOL    HW225686   1.025   2.750   0.899
 8263SOL     OW25687   6.510   1.197   0.681
 8263SOL    HW125688   6.564   1.249   0.747
 8263SOL    HW225689   6.480   1.111   0.723
 8264SOL     OW25690   1.742   4.815   2.795
 8264SOL    HW125691   1.827   4.765   2.780
 8264SOL    HW225692   1.670   4.778   2.736
 8265SOL     OW25693   2.028   0.747   1.629
 8265SOL    HW125694   1.959   0.687   1.668
 8265SOL    HW225695   2.111   0.694   1.608
 8266SOL     OW25696   3.242   0.314   3.198
 8266SOL    HW125697   3.265   0.399   3.151
 8266SOL    HW225698   3.292   0.238   3.156
 8267SOL     OW25699   0.511   3.411   0.957
 8267SOL    HW125700   0.592   3.465   0.979
 8267SOL    HW225701   0.532   3.349   0.881
 8268SOL     OW25702   3.028   6.405   5.594
 8268SOL    HW125703   3.111   6.460   5.593
 8268SOL    HW225704   3.052   6.308   5.588
 8269SOL     OW25705   5.978   1.743   1.604
 8269SOL    HW125706   5.920   1.816   1.640
 8269SOL    HW225707   5.922   1.663   1.585
 8270SOL     OW25708   3.599   6.080   3.714
 8270SOL    HW125709   3.544   6.010   3.668
 8270SOL    HW225710   3.543   6.160   3.733
 8271SOL     OW25711   0.069   2.176   2.243
 8271SOL    HW125712   0.134   2.138   2.177
 8271SOL    HW225713   7.016   2.224   2.194
 8272SOL     OW25714   3.562   1.557   3.750
 8272SOL    HW125715   3.654   1.522   3.735
 8272SOL    HW225716   3.565   1.633   3.816
 8273SOL     OW25717   2.261   6.363   0.647
 8273SOL    HW125718   2.217   6.298   0.709
 8273SOL    HW225719   2.267   6.452   0.690
 8274SOL     OW25720   5.604   5.253   3.380
 8274SOL    HW125721   5.519   5.220   3.420
 8274SOL    HW225722   5.681   5.206   3.423
 8275SOL     OW25723   5.080   2.675   6.002
 8275SOL    HW125724   5.133   2.608   6.053
 8275SOL    HW225725   5.060   2.641   5.910
 8276SOL     OW25726   0.537   2.199   3.087
 8276SOL    HW125727   0.546   2.149   3.173
 8276SOL    HW225728   0.627   2.209   3.045
 8277SOL     OW25729   6.249   0.181   6.436
 8277SOL    HW125730   6.191   0.240   6.493
 8277SOL    HW225731   6.202   0.095   6.419
 8278SOL     OW25732   2.020   2.510   0.237
 8278SOL    HW125733   2.028   2.493   0.336
 8278SOL    HW225734   2.062   2.597   0.215
 8279SOL     OW25735   6.994   6.253   3.852
 8279SOL    HW125736   6.919   6.295   3.903
 8279SOL    HW225737   0.062   6.293   3.880
 8280SOL     OW25738   2.581   2.930   6.014
 8280SOL    HW125739   2.511   2.979   5.963
 8280SOL    HW225740   2.667   2.934   5.964
 8281SOL     OW25741   6.283   5.742   1.929
 8281SOL    HW125742   6.220   5.771   2.001
 8281SOL    HW225743   6.305   5.645   1.942
 8282SOL     OW25744   5.278   2.433   5.547
 8282SOL    HW125745   5.372   2.435   5.581
 8282SOL    HW225746   5.218   2.399   5.619
 8283SOL     OW25747   1.818   4.313   5.714
 8283SOL    HW125748   1.779   4.364   5.791
 8283SOL    HW225749   1.750   4.250   5.678
 8284SOL     OW25750   6.730   4.738   2.203
 8284SOL    HW125751   6.828   4.726   2.184
 8284SOL    HW225752   6.691   4.651   2.232
 8285SOL     OW25753   3.628   3.596   4.736
 8285SOL    HW125754   3.686   3.675   4.752
 8285SOL    HW225755   3.642   3.563   4.642
 8286SOL     OW25756   6.130   2.029   6.009
 8286SOL    HW125757   6.079   2.113   6.028
 8286SOL    HW225758   6.126   1.969   6.089
 8287SOL     OW25759   1.140   5.667   4.740
 8287SOL    HW125760   1.077   5.589   4.749
 8287SOL    HW225761   1.106   5.728   4.668
 8288SOL     OW25762   2.636   2.409   2.862
 8288SOL    HW125763   2.621   2.325   2.810
 8288SOL    HW225764   2.600   2.487   2.809
 8289SOL     OW25765   0.374   6.227   6.947
 8289SOL    HW125766   0.429   6.300   6.986
 8289SOL    HW225767   0.301   6.202   7.010
 8290SOL     OW25768   6.641   2.864   0.895
 8290SOL    HW125769   6.698   2.791   0.933
 8290SOL    HW225770   6.547   2.855   0.930
 8291SOL     OW25771   4.456   0.392   0.572
 8291SOL    HW125772   4.424   0.447   0.496
 8291SOL    HW225773   4.396   0.312   0.583
 8292SOL     OW25774   3.103   0.146   6.476
 8292SOL    HW125775   3.101   0.094   6.562
 8292SOL    HW225776   3.013   0.185   6.459
 8293SOL     OW25777   5.543   5.821   5.487
 8293SOL    HW125778   5.603   5.766   5.428
 8293SOL    HW225779   5.565   5.803   5.583
 8294SOL     OW25780   5.553   2.323   0.415
 8294SOL    HW125781   5.522   2.326   0.510
 8294SOL    HW225782   5.608   2.241   0.400
 8295SOL     OW25783   5.433   3.279   0.960
 8295SOL    HW125784   5.520   3.296   0.916
 8295SOL    HW225785   5.408   3.357   1.017
 8296SOL     OW25786   1.641   5.403   0.083
 8296SOL    HW125787   1.598   5.466   0.148
 8296SOL    HW225788   1.626   5.309   0.113
 8297SOL     OW25789   0.616   2.739   2.991
 8297SOL    HW125790   0.697   2.798   2.985
 8297SOL    HW225791   0.568   2.741   2.904
 8298SOL     OW25792   4.400   1.350   1.456
 8298SOL    HW125793   4.354   1.265   1.480
 8298SOL    HW225794   4.478   1.364   1.518
 8299SOL     OW25795   6.467   2.399   1.652
 8299SOL    HW125796   6.392   2.348   1.611
 8299SOL    HW225797   6.552   2.347   1.642
 8300SOL     OW25798   0.856   5.130   3.795
 8300SOL    HW125799   0.950   5.165   3.796
 8300SOL    HW225800   0.852   5.046   3.850
 8301SOL     OW25801   3.765   3.099   6.560
 8301SOL    HW125802   3.852   3.090   6.609
 8301SOL    HW225803   3.783   3.116   6.463
 8302SOL     OW25804   5.860   5.890   6.424
 8302SOL    HW125805   5.858   5.836   6.340
 8302SOL    HW225806   5.775   5.876   6.475
 8303SOL     OW25807   0.306   0.804   5.157
 8303SOL    HW125808   0.316   0.877   5.225
 8303SOL    HW225809   0.225   0.821   5.101
 8304SOL     OW25810   1.012   3.548   6.818
 8304SOL    HW125811   0.984   3.605   6.741
 8304SOL    HW225812   1.037   3.457   6.785
 8305SOL     OW25813   3.616   5.706   3.202
 8305SOL    HW125814   3.529   5.680   3.244
 8305SOL    HW225815   3.601   5.777   3.134
 8306SOL     OW25816   0.852   3.225   4.194
 8306SOL    HW125817   0.889   3.238   4.103
 8306SOL    HW225818   0.809   3.309   4.226
 8307SOL     OW25819   3.604   5.957   1.378
 8307SOL    HW125820   3.622   5.860   1.392
 8307SOL    HW225821   3.672   5.996   1.316
 8308SOL     OW25822   3.778   6.170   2.420
 8308SOL    HW125823   3.680   6.170   2.442
 8308SOL    HW225824   3.826   6.233   2.482
 8309SOL     OW25825   5.006   5.897   2.226
 8309SOL    HW125826   4.994   5.835   2.149
 8309SOL    HW225827   5.018   5.844   2.310
 8310SOL     OW25828   0.235   4.605   0.498
 8310SOL    HW125829   0.178   4.688   0.501
 8310SOL    HW225830   0.176   4.525   0.482
 8311SOL     OW25831   6.502   0.597   0.220
 8311SOL    HW125832   6.505   0.519   0.283
 8311SOL    HW225833   6.473   0.566   0.129
 8312SOL     OW25834   5.792   6.686   1.473
 8312SOL    HW125835   5.752   6.607   1.429
 8312SOL    HW225836   5.815   6.664   1.568
 8313SOL     OW25837   3.395   1.136   2.312
 8313SOL    HW125838   3.471   1.073   2.297
 8313SOL    HW225839   3.430   1.227   2.331
 8314SOL     OW25840   6.323   0.201   2.885
 8314SOL    HW125841   6.354   0.291   2.915
 8314SOL    HW225842   6.365   0.131   2.941
 8315SOL     OW25843   5.240   3.954   6.520
 8315SOL    HW125844   5.169   3.946   6.590
 8315SOL    HW225845   5.288   3.867   6.510
 8316SOL     OW25846   2.177   4.514   6.572
 8316SOL    HW125847   2.086   4.476   6.559
 8316SOL    HW225848   2.169   4.607   6.608
 8317SOL     OW25849   2.093   4.344   2.017
 8317SOL    HW125850   2.077   4.442   2.009
 8317SOL    HW225851   2.010   4.300   2.052
 8318SOL     OW25852   3.641   1.681   4.839
 8318SOL    HW125853   3.605   1.641   4.755
 8318SOL    HW225854   3.592   1.642   4.918
 8319SOL     OW25855   3.453   1.042   4.814
 8319SOL    HW125856   3.477   1.018   4.908
 8319SOL    HW225857   3.525   1.013   4.752
 8320SOL     OW25858   3.333   4.537   1.686
 8320SOL    HW125859   3.370   4.445   1.697
 8320SOL    HW225860   3.387   4.602   1.739
 8321SOL     OW25861   0.648   0.779   1.561
 8321SOL    HW125862   0.631   0.685   1.592
 8321SOL    HW225863   0.719   0.779   1.491
 8322SOL     OW25864   6.424   6.609   0.034
 8322SOL    HW125865   6.330   6.590   0.006
 8322SOL    HW225866   6.438   6.577   0.128
 8323SOL     OW25867   1.416   1.649   1.590
 8323SOL    HW125868   1.371   1.569   1.551
 8323SOL    HW225869   1.445   1.628   1.684
 8324SOL     OW25870   6.723   1.031   1.898
 8324SOL    HW125871   6.822   1.020   1.912
 8324SOL    HW225872   6.674   0.970   1.960
 8325SOL     OW25873   3.487   3.188   3.747
 8325SOL    HW125874   3.525   3.225   3.663
 8325SOL    HW225875   3.420   3.253   3.784
 8326SOL     OW25876   3.828   3.562   5.761
 8326SOL    HW125877   3.899   3.585   5.827
 8326SOL    HW225878   3.816   3.462   5.758
 8327SOL     OW25879   5.259   2.110   5.644
 8327SOL    HW125880   5.291   2.178   5.710
 8327SOL    HW225881   5.248   2.153   5.555
 8328SOL     OW25882   2.655   2.233   5.224
 8328SOL    HW125883   2.741   2.231   5.275
 8328SOL    HW225884   2.617   2.141   5.218
 8329SOL     OW25885   6.817   3.342   5.174
 8329SOL    HW125886   6.835   3.377   5.082
 8329SOL    HW225887   6.805   3.418   5.238
 8330SOL     OW25888   2.822   6.609   6.913
 8330SOL    HW125889   2.880   6.653   6.981
 8330SOL    HW225890   2.786   6.677   6.849
 8331SOL     OW25891   2.454   6.939   0.458
 8331SOL    HW125892   2.526   6.924   0.527
 8331SOL    HW225893   2.414   6.851   0.431
 8332SOL     OW25894   5.078   5.606   2.485
 8332SOL    HW125895   5.117   5.527   2.534
 8332SOL    HW225896   5.039   5.670   2.551
 8333SOL     OW25897   0.632   5.651   6.242
 8333SOL    HW125898   0.671   5.743   6.239
 8333SOL    HW225899   0.532   5.658   6.247
 8334SOL     OW25900   6.377   1.706   3.727
 8334SOL    HW125901   6.350   1.633   3.664
 8334SOL    HW225902   6.434   1.772   3.678
 8335SOL     OW25903   5.326   6.660   5.789
 8335SOL    HW125904   5.356   6.619   5.875
 8335SOL    HW225905   5.236   6.701   5.801
 8336SOL     OW25906   0.180   1.853   2.152
 8336SOL    HW125907   0.244   1.919   2.112
 8336SOL    HW225908   0.226   1.801   2.223
 8337SOL     OW25909   0.517   6.294   2.613
 8337SOL    HW125910   0.530   6.344   2.698
 8337SOL    HW225911   0.603   6.250   2.587
 8338SOL     OW25912   1.568   4.812   1.082
 8338SOL    HW125913   1.606   4.723   1.056
 8338SOL    HW225914   1.639   4.867   1.126
 8339SOL     OW25915   5.706   1.346   2.838
 8339SOL    HW125916   5.735   1.311   2.749
 8339SOL    HW225917   5.700   1.446   2.835
 8340SOL     OW25918   5.069   3.500   0.567
 8340SOL    HW125919   5.019   3.581   0.537
 8340SOL    HW225920   5.091   3.443   0.488
 8341SOL     OW25921   2.514   6.250   0.587
 8341SOL    HW125922   2.522   6.207   0.677
 8341SOL    HW225923   2.432   6.308   0.585
 8342SOL     OW25924   4.167   0.812   0.448
 8342SOL    HW125925   4.209   0.739   0.503
 8342SOL    HW225926   4.109   0.868   0.507
 8343SOL     OW25927   1.337   5.623   6.318
 8343SOL    HW125928   1.432   5.635   6.348
 8343SOL    HW225929   1.317   5.688   6.245
 8344SOL     OW25930   4.092   6.264   5.491
 8344SOL    HW125931   4.036   6.236   5.413
 8344SOL    HW225932   4.043   6.335   5.543
 8345SOL     OW25933   6.511   1.164   2.263
 8345SOL    HW125934   6.428   1.197   2.308
 8345SOL    HW225935   6.583   1.234   2.270
 8346SOL     OW25936   3.342   5.652   1.377
 8346SOL    HW125937   3.328   5.750   1.387
 8346SOL    HW225938   3.323   5.606   1.464
 8347SOL     OW25939   3.362   5.985   5.013
 8347SOL    HW125940   3.442   5.967   5.070
 8347SOL    HW225941   3.366   6.078   4.977
 8348SOL     OW25942   1.520   0.506   0.318
 8348SOL    HW125943   1.486   0.431   0.261
 8348SOL    HW225944   1.482   0.593   0.285
 8349SOL     OW25945   5.189   4.939   1.580
 8349SOL    HW125946   5.142   5.025   1.598
 8349SOL    HW225947   5.286   4.948   1.603
 8350SOL     OW25948   6.197   0.712   4.669
 8350SOL    HW125949   6.126   0.716   4.598
 8350SOL    HW225950   6.287   0.703   4.626
 8351SOL     OW25951   3.490   6.281   2.955
 8351SOL    HW125952   3.589   6.271   2.941
 8351SOL    HW225953   3.441   6.225   2.888
 8352SOL     OW25954   0.225   5.845   2.015
 8352SOL    HW125955   0.286   5.771   1.989
 8352SOL    HW225956   0.264   5.932   1.984
 8353SOL     OW25957   0.065   3.636   2.129
 8353SOL    HW125958   0.156   3.659   2.162
 8353SOL    HW225959   7.016   3.661   2.198
 8354SOL     OW25960   2.598   1.412   6.828
 8354SOL    HW125961   2.535   1.478   6.786
 8354SOL    HW225962   2.692   1.439   6.807
 8355SOL     OW25963   2.682   0.810   0.197
 8355SOL    HW125964   2.592   0.768   0.215
 8355SOL    HW225965   2.677   0.863   0.113
 8356SOL     OW25966   2.209   5.357   6.966
 8356SOL    HW125967   2.294   5.320   6.929
 8356SOL    HW225968   2.155   5.283   7.007
 8357SOL     OW25969   4.726   5.555   4.667
 8357SOL    HW125970   4.692   5.649   4.672
 8357SOL    HW225971   4.752   5.534   4.573
 8358SOL     OW25972   2.291   2.784   5.702
 8358SOL    HW125973   2.389   2.767   5.717
 8358SOL    HW225974   2.277   2.815   5.608
 8359SOL     OW25975   4.512   5.299   4.375
 8359SOL    HW125976   4.550   5.287   4.467
 8359SOL    HW225977   4.581   5.337   4.315
 8360SOL     OW25978   4.613   0.521   3.273
 8360SOL    HW125979   4.553   0.568   3.338
 8360SOL    HW225980   4.558   0.459   3.217
 8361SOL     OW25981   1.793   0.467   2.700
 8361SOL    HW125982   1.704   0.479   2.744
 8361SOL    HW225983   1.840   0.389   2.742
 8362SOL     OW25984   2.752   2.318   0.191
 8362SOL    HW125985   2.695   2.381   0.244
 8362SOL    HW225986   2.847   2.350   0.192
 8363SOL     OW25987   0.063   3.155   0.640
 8363SOL    HW125988   7.004   3.171   0.580
 8363SOL    HW225989   0.077   3.235   0.699
 8364SOL     OW25990   6.639   3.814   4.081
 8364SOL    HW125991   6.627   3.749   4.005
 8364SOL    HW225992   6.579   3.893   4.067
 8365SOL     OW25993   2.452   3.434   5.944
 8365SOL    HW125994   2.392   3.354   5.937
 8365SOL    HW225995   2.406   3.514   5.906
 8366SOL     OW25996   2.936   6.220   2.950
 8366SOL    HW125997   2.860   6.180   2.899
 8366SOL    HW225998   2.987   6.147   2.995
 8367SOL     OW25999   5.769   5.691   3.890
 8367SOL    HW126000   5.756   5.788   3.907
 8367SOL    HW226001   5.817   5.650   3.968
 8368SOL     OW26002   3.155   5.102   6.279
 8368SOL    HW126003   3.086   5.156   6.230
 8368SOL    HW226004   3.237   5.158   6.294
 8369SOL     OW26005   2.015   1.071   0.892
 8369SOL    HW126006   1.972   1.056   0.803
 8369SOL    HW226007   2.098   1.015   0.898
 8370SOL     OW26008   1.282   1.886   6.358
 8370SOL    HW126009   1.209   1.952   6.338
 8370SOL    HW226010   1.340   1.876   6.277
 8371SOL     OW26011   1.915   3.240   0.426
 8371SOL    HW126012   1.916   3.142   0.446
 8371SOL    HW226013   1.992   3.263   0.366
 8372SOL     OW26014   0.359   0.985   2.437
 8372SOL    HW126015   0.456   0.989   2.413
 8372SOL    HW226016   0.318   1.076   2.427
 8373SOL     OW26017   1.746   6.558   5.056
 8373SOL    HW126018   1.711   6.509   4.976
 8373SOL    HW226019   1.834   6.600   5.033
 8374SOL     OW26020   6.602   6.900   6.754
 8374SOL    HW126021   6.694   6.894   6.715
 8374SOL    HW226022   6.546   6.825   6.717
 8375SOL     OW26023   3.457   0.470   6.996
 8375SOL    HW126024   3.524   0.395   6.997
 8375SOL    HW226025   3.498   0.552   0.016
 8376SOL     OW26026   3.154   0.704   4.391
 8376SOL    HW126027   3.174   0.610   4.418
 8376SOL    HW226028   3.086   0.743   4.453
 8377SOL     OW26029   5.613   4.421   1.035
 8377SOL    HW126030   5.534   4.378   1.079
 8377SOL    HW226031   5.585   4.508   0.995
 8378SOL     OW26032   4.531   2.514   3.216
 8378SOL    HW126033   4.525   2.603   3.170
 8378SOL    HW226034   4.560   2.445   3.150
 8379SOL     OW26035   6.216   2.404   2.674
 8379SOL    HW126036   6.148   2.444   2.736
 8379SOL    HW226037   6.174   2.388   2.585
 8380SOL     OW26038   4.583   1.264   3.403
 8380SOL    HW126039   4.484   1.274   3.397
 8380SOL    HW226040   4.612   1.276   3.498
 8381SOL     OW26041   1.944   5.839   4.741
 8381SOL    HW126042   1.991   5.760   4.701
 8381SOL    HW226043   1.999   5.876   4.815
 8382SOL     OW26044   1.442   2.628   2.198
 8382SOL    HW126045   1.354   2.621   2.246
 8382SOL    HW226046   1.426   2.636   2.100
 8383SOL     OW26047   2.620   2.530   6.211
 8383SOL    HW126048   2.613   2.521   6.311
 8383SOL    HW226049   2.541   2.582   6.177
 8384SOL     OW26050   0.622   0.045   2.192
 8384SOL    HW126051   0.695   7.014   2.147
 8384SOL    HW226052   0.533   0.015   2.156
 8385SOL     OW26053   5.058   2.061   1.218
 8385SOL    HW126054   5.118   1.989   1.252
 8385SOL    HW226055   4.983   2.020   1.166
 8386SOL     OW26056   1.010   4.468   2.543
 8386SOL    HW126057   0.926   4.429   2.581
 8386SOL    HW226058   0.993   4.562   2.513
 8387SOL     OW26059   0.473   2.415   1.225
 8387SOL    HW126060   0.385   2.422   1.271
 8387SOL    HW226061   0.498   2.319   1.217
 8388SOL     OW26062   1.913   6.901   2.451
 8388SOL    HW126063   1.837   6.851   2.492
 8388SOL    HW226064   1.950   6.848   2.375
 8389SOL     OW26065   4.998   2.709   2.412
 8389SOL    HW126066   5.013   2.615   2.382
 8389SOL    HW226067   5.019   2.772   2.338
 8390SOL     OW26068   5.414   1.162   5.871
 8390SOL    HW126069   5.498   1.210   5.848
 8390SOL    HW226070   5.394   1.174   5.968
 8391SOL     OW26071   6.687   6.925   1.331
 8391SOL    HW126072   6.611   6.870   1.366
 8391SOL    HW226073   6.710   6.896   1.238
 8392SOL     OW26074   5.387   3.074   4.920
 8392SOL    HW126075   5.421   3.143   4.856
 8392SOL    HW226076   5.295   3.047   4.892
 8393SOL     OW26077   5.369   0.470   1.348
 8393SOL    HW126078   5.325   0.554   1.380
 8393SOL    HW226079   5.328   0.442   1.261
 8394SOL     OW26080   5.561   3.254   1.939
 8394SOL    HW126081   5.577   3.199   1.857
 8394SOL    HW226082   5.517   3.340   1.913
 8395SOL     OW26083   1.819   1.406   4.997
 8395SOL    HW126084   1.820   1.494   5.044
 8395SOL    HW226085   1.775   1.338   5.055
 8396SOL     OW26086   3.839   5.504   4.626
 8396SOL    HW126087   3.774   5.487   4.700
 8396SOL    HW226088   3.893   5.422   4.609
 8397SOL     OW26089   6.244   1.200   2.401
 8397SOL    HW126090   6.246   1.188   2.500
 8397SOL    HW226091   6.213   1.116   2.357
 8398SOL     OW26092   4.477   2.114   6.110
 8398SOL    HW126093   4.504   2.060   6.030
 8398SOL    HW226094   4.543   2.099   6.184
 8399SOL     OW26095   6.556   5.238   0.840
 8399SOL    HW126096   6.516   5.239   0.932
 8399SOL    HW226097   6.486   5.263   0.774
 8400SOL     OW26098   1.568   2.530   4.447
 8400SOL    HW126099   1.629   2.609   4.451
 8400SOL    HW226100   1.478   2.557   4.481
 8401SOL     OW26101   2.967   0.069   6.062
 8401SOL    HW126102   2.989   0.165   6.078
 8401SOL    HW226103   3.046   0.013   6.087
 8402SOL     OW26104   3.633   0.601   6.226
 8402SOL    HW126105   3.588   0.532   6.283
 8402SOL    HW226106   3.592   0.691   6.243
 8403SOL     OW26107   6.060   4.621   4.314
 8403SOL    HW126108   6.014   4.667   4.238
 8403SOL    HW226109   6.117   4.547   4.278
 8404SOL     OW26110   1.057   2.071   6.267
 8404SOL    HW126111   1.124   2.114   6.206
 8404SOL    HW226112   0.977   2.044   6.215
 8405SOL     OW26113   3.723   0.643   5.979
 8405SOL    HW126114   3.818   0.623   6.003
 8405SOL    HW226115   3.671   0.662   6.062
 8406SOL     OW26116   4.820   0.190   5.779
 8406SOL    HW126117   4.810   0.267   5.843
 8406SOL    HW226118   4.878   0.217   5.703
 8407SOL     OW26119   3.721   6.859   3.956
 8407SOL    HW126120   3.690   6.936   3.900
 8407SOL    HW226121   3.667   6.778   3.934
 8408SOL     OW26122   3.726   1.440   1.712
 8408SOL    HW126123   3.789   1.496   1.765
 8408SOL    HW226124   3.635   1.482   1.713
 8409SOL     OW26125   4.340   2.315   2.324
 8409SOL    HW126126   4.432   2.329   2.358
 8409SOL    HW226127   4.276   2.309   2.400
 8410SOL     OW26128   6.624   2.075   1.270
 8410SOL    HW126129   6.556   2.096   1.340
 8410SOL    HW226130   6.628   1.975   1.257
 8411SOL     OW26131   1.986   5.458   0.826
 8411SOL    HW126132   1.986   5.456   0.926
 8411SOL    HW226133   2.037   5.379   0.791
 8412SOL     OW26134   2.203   2.522   6.333
 8412SOL    HW126135   2.244   2.442   6.290
 8412SOL    HW226136   2.171   2.585   6.262
 8413SOL     OW26137   4.367   5.866   5.004
 8413SOL    HW126138   4.348   5.769   4.988
 8413SOL    HW226139   4.465   5.878   5.022
 8414SOL     OW26140   1.451   0.812   1.482
 8414SOL    HW126141   1.534   0.762   1.455
 8414SOL    HW226142   1.396   0.754   1.542
 8415SOL     OW26143   2.387   1.076   5.347
 8415SOL    HW126144   2.479   1.049   5.373
 8415SOL    HW226145   2.321   1.008   5.380
 8416SOL     OW26146   6.836   1.639   5.119
 8416SOL    HW126147   6.795   1.550   5.136
 8416SOL    HW226148   6.785   1.710   5.167
 8417SOL     OW26149   1.540   3.562   5.354
 8417SOL    HW126150   1.512   3.467   5.366
 8417SOL    HW226151   1.611   3.567   5.283
 8418SOL     OW26152   0.528   5.940   2.532
 8418SOL    HW126153   0.576   5.926   2.618
 8418SOL    HW226154   0.431   5.917   2.544
 8419SOL     OW26155   4.046   1.844   4.390
 8419SOL    HW126156   4.006   1.926   4.431
 8419SOL    HW226157   3.975   1.791   4.345
 8420SOL     OW26158   3.650   0.205   2.272
 8420SOL    HW126159   3.576   0.223   2.337
 8420SOL    HW226160   3.636   0.261   2.190
 8421SOL     OW26161   4.682   6.659   6.305
 8421SOL    HW126162   4.724   6.641   6.216
 8421SOL    HW226163   4.601   6.601   6.315
 8422SOL     OW26164   4.783   2.214   3.435
 8422SOL    HW126165   4.736   2.173   3.356
 8422SOL    HW226166   4.725   2.204   3.517
 8423SOL     OW26167   6.719   5.490   6.314
 8423SOL    HW126168   6.814   5.483   6.283
 8423SOL    HW226169   6.707   5.436   6.397
 8424SOL     OW26170   2.614   0.142   4.155
 8424SOL    HW126171   2.557   0.221   4.177
 8424SOL    HW226172   2.557   0.060   4.149
 8425SOL     OW26173   3.648   4.142   2.683
 8425SOL    HW126174   3.686   4.065   2.633
 8425SOL    HW226175   3.717   4.178   2.747
 8426SOL     OW26176   3.940   3.021   2.026
 8426SOL    HW126177   3.952   3.099   2.087
 8426SOL    HW226178   3.847   2.986   2.035
 8427SOL     OW26179   3.445   3.704   3.907
 8427SOL    HW126180   3.464   3.638   3.979
 8427SOL    HW226181   3.439   3.656   3.819
 8428SOL     OW26182   6.537   6.828   0.963
 8428SOL    HW126183   6.510   6.732   0.955
 8428SOL    HW226184   6.634   6.834   0.986
 8429SOL     OW26185   2.539   5.771   5.699
 8429SOL    HW126186   2.460   5.820   5.735
 8429SOL    HW226187   2.514   5.726   5.613
 8430SOL     OW26188   4.289   6.689   4.897
 8430SOL    HW126189   4.198   6.732   4.900
 8430SOL    HW226190   4.359   6.760   4.883
 8431SOL     OW26191   2.670   3.630   6.330
 8431SOL    HW126192   2.610   3.558   6.295
 8431SOL    HW226193   2.638   3.659   6.420
 8432SOL     OW26194   6.629   4.763   6.285
 8432SOL    HW126195   6.668   4.820   6.357
 8432SOL    HW226196   6.587   4.821   6.216
 8433SOL     OW26197   5.499   2.683   1.227
 8433SOL    HW126198   5.443   2.742   1.169
 8433SOL    HW226199   5.533   2.606   1.173
 8434SOL     OW26200   2.320   5.957   5.548
 8434SOL    HW126201   2.336   5.971   5.646
 8434SOL    HW226202   2.223   5.939   5.532
 8435SOL     OW26203   4.972   1.103   3.297
 8435SOL    HW126204   4.907   1.110   3.373
 8435SOL    HW226205   5.063   1.128   3.328
 8436SOL     OW26206   2.301   5.787   2.317
 8436SOL    HW126207   2.215   5.746   2.345
 8436SOL    HW226208   2.308   5.879   2.355
 8437SOL     OW26209   1.366   4.405   2.205
 8437SOL    HW126210   1.268   4.424   2.197
 8437SOL    HW226211   1.403   4.381   2.115
 8438SOL     OW26212   0.961   4.227   2.197
 8438SOL    HW126213   0.946   4.182   2.285
 8438SOL    HW226214   0.934   4.166   2.123
 8439SOL     OW26215   5.977   5.118   3.348
 8439SOL    HW126216   5.918   5.141   3.271
 8439SOL    HW226217   6.017   5.201   3.386
 8440SOL     OW26218   2.400   1.200   3.246
 8440SOL    HW126219   2.353   1.226   3.330
 8440SOL    HW226220   2.477   1.140   3.269
 8441SOL     OW26221   6.124   1.270   4.669
 8441SOL    HW126222   6.195   1.294   4.735
 8441SOL    HW226223   6.157   1.285   4.576
 8442SOL     OW26224   3.428   1.447   6.472
 8442SOL    HW126225   3.361   1.505   6.519
 8442SOL    HW226226   3.381   1.384   6.411
 8443SOL     OW26227   0.966   3.979   3.325
 8443SOL    HW126228   0.980   3.881   3.312
 8443SOL    HW226229   0.889   3.994   3.386
 8444SOL     OW26230   5.432   5.113   4.624
 8444SOL    HW126231   5.461   5.073   4.537
 8444SOL    HW226232   5.477   5.066   4.699
 8445SOL     OW26233   4.849   6.032   6.894
 8445SOL    HW126234   4.773   6.034   6.829
 8445SOL    HW226235   4.846   6.113   6.952
 8446SOL     OW26236   0.019   5.441   4.925
 8446SOL    HW126237   6.977   5.369   4.892
 8446SOL    HW226238   0.021   5.516   4.858
 8447SOL     OW26239   4.128   2.158   3.303
 8447SOL    HW126240   4.092   2.112   3.384
 8447SOL    HW226241   4.219   2.194   3.323
 8448SOL     OW26242   3.655   6.538   3.204
 8448SOL    HW126243   3.586   6.466   3.213
 8448SOL    HW226244   3.705   6.547   3.290
 8449SOL     OW26245   2.244   2.159   2.953
 8449SOL    HW126246   2.277   2.079   3.003
 8449SOL    HW226247   2.244   2.138   2.855
 8450SOL     OW26248   0.017   1.232   0.215
 8450SOL    HW126249   6.981   1.167   0.162
 8450SOL    HW226250   6.995   1.323   0.210
 8451SOL     OW26251   4.577   2.525   1.125
 8451SOL    HW126252   4.479   2.507   1.123
 8451SOL    HW226253   4.597   2.595   1.194
 8452SOL     OW26254   5.142   2.135   5.407
 8452SOL    HW126255   5.044   2.146   5.426
 8452SOL    HW226256   5.159   2.044   5.372
 8453SOL     OW26257   0.307   6.210   0.928
 8453SOL    HW126258   0.259   6.202   1.015
 8453SOL    HW226259   0.292   6.127   0.874
 8454SOL     OW26260   6.723   4.331   6.808
 8454SOL    HW126261   6.780   4.412   6.823
 8454SOL    HW226262   6.762   4.254   6.858
 8455SOL     OW26263   0.124   0.812   2.958
 8455SOL    HW126264   0.102   0.786   2.864
 8455SOL    HW226265   0.169   0.901   2.958
 8456SOL     OW26266   6.339   0.747   3.447
 8456SOL    HW126267   6.425   0.798   3.447
 8456SOL    HW226268   6.269   0.799   3.494
 8457SOL     OW26269   6.852   0.015   5.187
 8457SOL    HW126270   6.949   0.041   5.182
 8457SOL    HW226271   6.813   0.052   5.271
 8458SOL     OW26272   0.109   6.544   6.935
 8458SOL    HW126273   0.024   6.592   6.959
 8458SOL    HW226274   0.185   6.608   6.944
 8459SOL     OW26275   1.407   5.394   3.685
 8459SOL    HW126276   1.485   5.457   3.679
 8459SOL    HW226277   1.322   5.446   3.686
 8460SOL     OW26278   3.309   4.156   3.550
 8460SOL    HW126279   3.321   4.244   3.595
 8460SOL    HW226280   3.256   4.095   3.610
 8461SOL     OW26281   6.561   3.716   3.811
 8461SOL    HW126282   6.512   3.635   3.844
 8461SOL    HW226283   6.498   3.793   3.806
 8462SOL     OW26284   2.242   2.961   1.953
 8462SOL    HW126285   2.255   2.935   2.049
 8462SOL    HW226286   2.186   3.043   1.948
 8463SOL     OW26287   5.194   1.007   2.177
 8463SOL    HW126288   5.164   1.025   2.083
 8463SOL    HW226289   5.227   1.093   2.217
 8464SOL     OW26290   6.605   1.773   4.547
 8464SOL    HW126291   6.531   1.714   4.513
 8464SOL    HW226292   6.612   1.854   4.489
 8465SOL     OW26293   1.422   2.315   0.128
 8465SOL    HW126294   1.495   2.305   0.195
 8465SOL    HW226295   1.363   2.391   0.156
 8466SOL     OW26296   0.475   0.192   3.994
 8466SOL    HW126297   0.458   0.249   3.913
 8466SOL    HW226298   0.390   0.151   4.024
 8467SOL     OW26299   3.034   5.364   0.802
 8467SOL    HW126300   2.983   5.404   0.726
 8467SOL    HW226301   3.043   5.431   0.875
 8468SOL     OW26302   5.001   1.872   0.778
 8468SOL    HW126303   4.915   1.850   0.731
 8468SOL    HW226304   5.060   1.925   0.717
 8469SOL     OW26305   3.861   2.429   6.730
 8469SOL    HW126306   3.920   2.352   6.756
 8469SOL    HW226307   3.834   2.479   6.812
 8470SOL     OW26308   1.664   2.739   6.815
 8470SOL    HW126309   1.598   2.808   6.786
 8470SOL    HW226310   1.640   2.706   6.907
 8471SOL     OW26311   4.017   1.080   3.738
 8471SOL    HW126312   4.001   1.108   3.832
 8471SOL    HW226313   4.105   1.116   3.707
 8472SOL     OW26314   1.426   6.145   3.532
 8472SOL    HW126315   1.348   6.204   3.552
 8472SOL    HW226316   1.448   6.152   3.434
 8473SOL     OW26317   6.370   5.505   0.159
 8473SOL    HW126318   6.399   5.597   0.132
 8473SOL    HW226319   6.333   5.507   0.251
 8474SOL     OW26320   4.255   5.082   0.651
 8474SOL    HW126321   4.279   4.988   0.630
 8474SOL    HW226322   4.242   5.093   0.750
 8475SOL     OW26323   4.469   1.028   3.133
 8475SOL    HW126324   4.556   0.982   3.152
 8475SOL    HW226325   4.480   1.127   3.145
 8476SOL     OW26326   4.871   0.522   2.797
 8476SOL    HW126327   4.873   0.435   2.749
 8476SOL    HW226328   4.868   0.597   2.731
 8477SOL     OW26329   2.805   1.290   2.192
 8477SOL    HW126330   2.722   1.260   2.145
 8477SOL    HW226331   2.784   1.303   2.289
 8478SOL     OW26332   1.984   0.348   5.724
 8478SOL    HW126333   2.082   0.364   5.733
 8478SOL    HW226334   1.943   0.420   5.667
 8479SOL     OW26335   4.699   0.812   2.220
 8479SOL    HW126336   4.657   0.899   2.193
 8479SOL    HW226337   4.796   0.814   2.196
 8480SOL     OW26338   1.196   1.311   1.364
 8480SOL    HW126339   1.249   1.331   1.281
 8480SOL    HW226340   1.105   1.352   1.355
 8481SOL     OW26341   3.868   6.988   4.291
 8481SOL    HW126342   3.913   6.944   4.213
 8481SOL    HW226343   3.935   7.006   4.362
 8482SOL     OW26344   0.937   0.420   2.139
 8482SOL    HW126345   0.915   0.349   2.073
 8482SOL    HW226346   0.931   0.510   2.095
 8483SOL     OW26347   4.568   5.790   2.127
 8483SOL    HW126348   4.618   5.864   2.171
 8483SOL    HW226349   4.488   5.826   2.080
 8484SOL     OW26350   0.770   4.737   4.694
 8484SOL    HW126351   0.839   4.667   4.677
 8484SOL    HW226352   0.779   4.770   4.788
 8485SOL     OW26353   2.905   3.195   5.833
 8485SOL    HW126354   2.849   3.232   5.759
 8485SOL    HW226355   3.000   3.225   5.820
 8486SOL     OW26356   4.555   0.629   2.338
 8486SOL    HW126357   4.553   0.643   2.437
 8486SOL    HW226358   4.613   0.700   2.296
 8487SOL     OW26359   4.372   6.915   0.936
 8487SOL    HW126360   4.447   6.854   0.913
 8487SOL    HW226361   4.347   6.903   1.032
 8488SOL     OW26362   5.120   3.098   4.447
 8488SOL    HW126363   5.178   3.137   4.376
 8488SOL    HW226364   5.177   3.050   4.514
 8489SOL     OW26365   4.352   4.947   2.998
 8489SOL    HW126366   4.404   5.019   2.952
 8489SOL    HW226367   4.301   4.987   3.074
 8490SOL     OW26368   3.957   5.601   2.576
 8490SOL    HW126369   3.951   5.606   2.477
 8490SOL    HW226370   3.867   5.619   2.616
 8491SOL     OW26371   1.778   1.000   2.250
 8491SOL    HW126372   1.683   1.023   2.275
 8491SOL    HW226373   1.840   1.069   2.287
 8492SOL     OW26374   5.701   3.698   4.456
 8492SOL    HW126375   5.710   3.606   4.493
 8492SOL    HW226376   5.732   3.764   4.525
 8493SOL     OW26377   3.550   2.076   0.806
 8493SOL    HW126378   3.472   2.133   0.831
 8493SOL    HW226379   3.623   2.088   0.873
 8494SOL     OW26380   3.617   5.841   0.128
 8494SOL    HW126381   3.550   5.915   0.139
 8494SOL    HW226382   3.634   5.824   0.031
 8495SOL     OW26383   0.406   2.760   0.016
 8495SOL    HW126384   0.453   2.847   0.033
 8495SOL    HW226385   0.461   2.685   0.052
 8496SOL     OW26386   6.641   2.867   3.164
 8496SOL    HW126387   6.708   2.920   3.111
 8496SOL    HW226388   6.673   2.773   3.172
 8497SOL     OW26389   6.058   5.377   3.467
 8497SOL    HW126390   5.961   5.365   3.489
 8497SOL    HW226391   6.066   5.441   3.390
 8498SOL     OW26392   0.024   1.068   0.693
 8498SOL    HW126393   0.079   1.091   0.774
 8498SOL    HW226394   0.076   1.088   0.610
 8499SOL     OW26395   3.263   4.040   6.463
 8499SOL    HW126396   3.186   4.028   6.526
 8499SOL    HW226397   3.247   4.120   6.405
 8500SOL     OW26398   3.172   1.035   6.273
 8500SOL    HW126399   3.253   1.053   6.216
 8500SOL    HW226400   3.131   1.121   6.301
 8501SOL     OW26401   2.363   4.437   5.861
 8501SOL    HW126402   2.281   4.400   5.904
 8501SOL    HW226403   2.380   4.389   5.775
 8502SOL     OW26404   0.105   0.360   2.307
 8502SOL    HW126405   0.027   0.342   2.246
 8502SOL    HW226406   0.185   0.385   2.252
 8503SOL     OW26407   3.043   5.311   3.385
 8503SOL    HW126408   3.139   5.315   3.360
 8503SOL    HW226409   3.007   5.404   3.395
 8504SOL     OW26410   0.852   5.588   2.933
 8504SOL    HW126411   0.927   5.579   2.999
 8504SOL    HW226412   0.769   5.548   2.972
 8505SOL     OW26413   4.844   2.911   3.829
 8505SOL    HW126414   4.812   2.846   3.899
 8505SOL    HW226415   4.811   2.881   3.739
 8506SOL     OW26416   0.989   6.552   0.537
 8506SOL    HW126417   1.038   6.566   0.451
 8506SOL    HW226418   0.917   6.621   0.547
 8507SOL     OW26419   2.318   1.098   4.861
 8507SOL    HW126420   2.265   1.070   4.941
 8507SOL    HW226421   2.265   1.080   4.778
 8508SOL     OW26422   1.185   2.854   5.923
 8508SOL    HW126423   1.192   2.890   6.015
 8508SOL    HW226424   1.261   2.889   5.867
 8509SOL     OW26425   5.969   1.905   4.571
 8509SOL    HW126426   5.917   1.958   4.638
 8509SOL    HW226427   6.066   1.906   4.595
 8510SOL     OW26428   4.955   0.355   3.038
 8510SOL    HW126429   4.940   0.451   3.064
 8510SOL    HW226430   4.866   0.312   3.021
 8511SOL     OW26431   6.823   4.844   1.762
 8511SOL    HW126432   6.857   4.759   1.802
 8511SOL    HW226433   6.725   4.836   1.746
 8512SOL     OW26434   4.565   1.976   0.655
 8512SOL    HW126435   4.536   1.996   0.562
 8512SOL    HW226436   4.549   2.056   0.713
 8513SOL     OW26437   0.017   4.490   1.154
 8513SOL    HW126438   0.019   4.394   1.184
 8513SOL    HW226439   0.092   4.540   1.197
 8514SOL     OW26440   2.557   2.532   5.810
 8514SOL    HW126441   2.474   2.476   5.805
 8514SOL    HW226442   2.554   2.603   5.740
 8515SOL     OW26443   1.336   0.143   0.978
 8515SOL    HW126444   1.301   0.211   0.913
 8515SOL    HW226445   1.259   0.092   1.017
 8516SOL     OW26446   5.299   2.245   3.741
 8516SOL    HW126447   5.261   2.185   3.670
 8516SOL    HW226448   5.282   2.340   3.716
 8517SOL     OW26449   1.668   2.049   5.538
 8517SOL    HW126450   1.693   2.042   5.441
 8517SOL    HW226451   1.739   2.006   5.594
 8518SOL     OW26452   4.943   4.535   0.321
 8518SOL    HW126453   4.880   4.582   0.382
 8518SOL    HW226454   4.986   4.458   0.369
 8519SOL     OW26455   1.517   3.477   1.144
 8519SOL    HW126456   1.587   3.420   1.187
 8519SOL    HW226457   1.441   3.488   1.208
 8520SOL     OW26458   3.903   3.955   5.888
 8520SOL    HW126459   3.838   4.025   5.859
 8520SOL    HW226460   3.986   4.000   5.923
 8521SOL     OW26461   1.749   6.413   5.687
 8521SOL    HW126462   1.682   6.383   5.620
 8521SOL    HW226463   1.788   6.501   5.659
 8522SOL     OW26464   0.732   0.038   0.550
 8522SOL    HW126465   0.825   0.003   0.552
 8522SOL    HW226466   0.732   0.136   0.572
 8523SOL     OW26467   3.209   1.492   0.133
 8523SOL    HW126468   3.279   1.562   0.119
 8523SOL    HW226469   3.253   1.405   0.156
 8524SOL     OW26470   2.282   5.898   4.404
 8524SOL    HW126471   2.226   5.822   4.437
 8524SOL    HW226472   2.358   5.862   4.350
 8525SOL     OW26473   6.190   4.841   1.379
 8525SOL    HW126474   6.230   4.866   1.467
 8525SOL    HW226475   6.116   4.776   1.393
 8526SOL     OW26476   0.957   5.593   0.651
 8526SOL    HW126477   0.895   5.561   0.579
 8526SOL    HW226478   1.033   5.643   0.609
 8527SOL     OW26479   3.053   0.841   5.314
 8527SOL    HW126480   3.099   0.774   5.255
 8527SOL    HW226481   3.011   0.794   5.391
 8528SOL     OW26482   5.168   1.567   0.500
 8528SOL    HW126483   5.240   1.613   0.553
 8528SOL    HW226484   5.210   1.519   0.423
 8529SOL     OW26485   0.948   6.220   6.436
 8529SOL    HW126486   0.879   6.260   6.497
 8529SOL    HW226487   0.918   6.129   6.407
 8530SOL     OW26488   2.914   3.767   4.055
 8530SOL    HW126489   3.010   3.796   4.060
 8530SOL    HW226490   2.905   3.676   4.096
 8531SOL     OW26491   6.702   5.202   4.226
 8531SOL    HW126492   6.746   5.234   4.310
 8531SOL    HW226493   6.739   5.112   4.202
 8532SOL     OW26494   2.425   5.065   5.547
 8532SOL    HW126495   2.402   5.003   5.623
 8532SOL    HW226496   2.353   5.134   5.538
 8533SOL     OW26497   2.470   6.377   5.866
 8533SOL    HW126498   2.552   6.356   5.919
 8533SOL    HW226499   2.413   6.295   5.860
 8534SOL     OW26500   2.534   2.204   3.763
 8534SOL    HW126501   2.480   2.121   3.747
 8534SOL    HW226502   2.546   2.254   3.677
 8535SOL     OW26503   6.261   0.651   2.826
 8535SOL    HW126504   6.290   0.681   2.917
 8535SOL    HW226505   6.279   0.725   2.760
 8536SOL     OW26506   0.669   1.285   5.012
 8536SOL    HW126507   0.766   1.302   5.031
 8536SOL    HW226508   0.635   1.354   4.949
 8537SOL     OW26509   6.983   1.267   2.561
 8537SOL    HW126510   0.019   1.285   2.479
 8537SOL    HW226511   7.014   1.325   2.636
 8538SOL     OW26512   1.179   2.441   0.110
 8538SOL    HW126513   1.216   2.520   0.061
 8538SOL    HW226514   1.090   2.416   0.071
 8539SOL     OW26515   5.896   2.263   3.090
 8539SOL    HW126516   5.859   2.172   3.109
 8539SOL    HW226517   5.828   2.316   3.040
 8540SOL     OW26518   3.856   0.086   0.777
 8540SOL    HW126519   3.858   0.186   0.781
 8540SOL    HW226520   3.804   0.051   0.855
 8541SOL     OW26521   1.975   2.947   4.661
 8541SOL    HW126522   2.060   2.894   4.665
 8541SOL    HW226523   1.971   3.010   4.738
 8542SOL     OW26524   3.671   4.889   0.706
 8542SOL    HW126525   3.698   4.799   0.671
 8542SOL    HW226526   3.615   4.936   0.638
 8543SOL     OW26527   2.295   2.290   6.223
 8543SOL    HW126528   2.336   2.215   6.275
 8543SOL    HW226529   2.242   2.254   6.147
 8544SOL     OW26530   6.711   3.044   3.440
 8544SOL    HW126531   6.688   3.050   3.343
 8544SOL    HW226532   6.635   3.003   3.489
 8545SOL     OW26533   5.103   6.602   5.017
 8545SOL    HW126534   5.110   6.520   4.960
 8545SOL    HW226535   5.009   6.636   5.016
 8546SOL     OW26536   4.581   1.666   6.067
 8546SOL    HW126537   4.484   1.643   6.073
 8546SOL    HW226538   4.623   1.659   6.157
 8547SOL     OW26539   0.644   4.409   3.059
 8547SOL    HW126540   0.588   4.410   3.142
 8547SOL    HW226541   0.702   4.328   3.058
 8548SOL     OW26542   5.980   1.368   5.468
 8548SOL    HW126543   5.902   1.429   5.455
 8548SOL    HW226544   5.982   1.336   5.563
 8549SOL     OW26545   5.527   3.380   5.001
 8549SOL    HW126546   5.490   3.362   4.910
 8549SOL    HW226547   5.623   3.351   5.004
 8550SOL     OW26548   0.959   4.002   6.687
 8550SOL    HW126549   0.936   3.921   6.633
 8550SOL    HW226550   0.890   4.016   6.758
 8551SOL     OW26551   3.169   4.033   0.632
 8551SOL    HW126552   3.209   3.950   0.595
 8551SOL    HW226553   3.191   4.111   0.573
 8552SOL     OW26554   3.244   6.488   4.095
 8552SOL    HW126555   3.221   6.406   4.042
 8552SOL    HW226556   3.282   6.462   4.183
 8553SOL     OW26557   5.678   5.904   0.341
 8553SOL    HW126558   5.747   5.919   0.270
 8553SOL    HW226559   5.706   5.951   0.424
 8554SOL     OW26560   6.473   4.435   6.749
 8554SOL    HW126561   6.564   4.406   6.780
 8554SOL    HW226562   6.405   4.373   6.788
 8555SOL     OW26563   0.969   6.832   4.241
 8555SOL    HW126564   1.054   6.884   4.244
 8555SOL    HW226565   0.926   6.831   4.331
 8556SOL     OW26566   6.469   0.235   3.854
 8556SOL    HW126567   6.461   0.283   3.941
 8556SOL    HW226568   6.382   0.237   3.805
 8557SOL     OW26569   0.281   0.899   0.466
 8557SOL    HW126570   0.181   0.900   0.456
 8557SOL    HW226571   0.312   0.986   0.504
 8558SOL     OW26572   1.009   5.481   1.889
 8558SOL    HW126573   1.097   5.487   1.937
 8558SOL    HW226574   0.949   5.417   1.937
 8559SOL     OW26575   0.547   1.378   6.241
 8559SOL    HW126576   0.521   1.397   6.336
 8559SOL    HW226577   0.612   1.447   6.209
 8560SOL     OW26578   6.576   2.568   6.343
 8560SOL    HW126579   6.648   2.637   6.355
 8560SOL    HW226580   6.585   2.498   6.413
 8561SOL     OW26581   4.986   6.586   4.637
 8561SOL    HW126582   4.989   6.515   4.566
 8561SOL    HW226583   5.073   6.634   4.639
 8562SOL     OW26584   3.595   6.943   4.258
 8562SOL    HW126585   3.573   6.848   4.280
 8562SOL    HW226586   3.685   6.966   4.295
 8563SOL     OW26587   2.422   2.710   6.144
 8563SOL    HW126588   2.323   2.718   6.130
 8563SOL    HW226589   2.469   2.769   6.079
 8564SOL     OW26590   0.318   6.910   3.677
 8564SOL    HW126591   0.221   6.931   3.689
 8564SOL    HW226592   0.367   6.930   3.762
 8565SOL     OW26593   4.547   0.363   1.744
 8565SOL    HW126594   4.499   0.347   1.830
 8565SOL    HW226595   4.627   0.421   1.760
 8566SOL     OW26596   2.100   3.605   3.143
 8566SOL    HW126597   2.125   3.550   3.064
 8566SOL    HW226598   2.001   3.624   3.140
 8567SOL     OW26599   5.232   6.718   1.009
 8567SOL    HW126600   5.196   6.671   1.089
 8567SOL    HW226601   5.160   6.773   0.967
 8568SOL     OW26602   5.495   1.240   0.245
 8568SOL    HW126603   5.516   1.145   0.266
 8568SOL    HW226604   5.580   1.292   0.238
 8569SOL     OW26605   4.214   1.671   5.307
 8569SOL    HW126606   4.273   1.622   5.244
 8569SOL    HW226607   4.135   1.708   5.257
 8570SOL     OW26608   1.106   4.483   0.023
 8570SOL    HW126609   1.114   4.409   0.090
 8570SOL    HW226610   1.079   4.445   6.954
 8571SOL     OW26611   6.949   4.553   4.904
 8571SOL    HW126612   6.883   4.523   4.974
 8571SOL    HW226613   6.899   4.587   4.824
 8572SOL     OW26614   3.059   4.991   5.325
 8572SOL    HW126615   2.987   4.931   5.290
 8572SOL    HW226616   3.148   4.952   5.303
 8573SOL     OW26617   4.393   5.602   4.937
 8573SOL    HW126618   4.339   5.550   4.871
 8573SOL    HW226619   4.488   5.606   4.906
 8574SOL     OW26620   0.584   3.686   4.538
 8574SOL    HW126621   0.601   3.630   4.620
 8574SOL    HW226622   0.672   3.720   4.503
 8575SOL     OW26623   3.194   3.196   6.755
 8575SOL    HW126624   3.173   3.211   6.659
 8575SOL    HW226625   3.225   3.102   6.769
 8576SOL     OW26626   1.787   6.925   1.583
 8576SOL    HW126627   1.801   6.923   1.681
 8576SOL    HW226628   1.754   6.836   1.551
 8577SOL     OW26629   6.705   5.194   3.333
 8577SOL    HW126630   6.782   5.229   3.279
 8577SOL    HW226631   6.665   5.269   3.385
 8578SOL     OW26632   4.472   6.405   3.719
 8578SOL    HW126633   4.373   6.406   3.734
 8578SOL    HW226634   4.491   6.384   3.623
 8579SOL     OW26635   0.517   5.815   2.940
 8579SOL    HW126636   0.566   5.814   3.028
 8579SOL    HW226637   0.564   5.876   2.877
 8580SOL     OW26638   2.986   4.244   6.005
 8580SOL    HW126639   3.022   4.309   6.073
 8580SOL    HW226640   2.887   4.258   5.995
 8581SOL     OW26641   3.312   2.611   0.935
 8581SOL    HW126642   3.275   2.643   1.022
 8581SOL    HW226643   3.237   2.583   0.875
 8582SOL     OW26644   4.597   4.130   1.203
 8582SOL    HW126645   4.689   4.092   1.191
 8582SOL    HW226646   4.593   4.184   1.286
 8583SOL     OW26647   5.512   6.951   6.032
 8583SOL    HW126648   5.467   6.873   6.074
 8583SOL    HW226649   5.451   6.994   5.966
 8584SOL     OW26650   0.277   5.413   6.257
 8584SOL    HW126651   0.361   5.360   6.264
 8584SOL    HW226652   0.227   5.407   6.344
 8585SOL     OW26653   1.027   1.211   0.883
 8585SOL    HW126654   1.024   1.288   0.818
 8585SOL    HW226655   1.024   1.246   0.976
 8586SOL     OW26656   4.252   5.399   4.100
 8586SOL    HW126657   4.274   5.319   4.156
 8586SOL    HW226658   4.157   5.393   4.070
 8587SOL     OW26659   0.155   1.696   1.367
 8587SOL    HW126660   0.103   1.735   1.444
 8587SOL    HW226661   0.122   1.604   1.348
 8588SOL     OW26662   4.533   2.021   0.364
 8588SOL    HW126663   4.500   2.052   0.275
 8588SOL    HW226664   4.569   2.099   0.415
 8589SOL     OW26665   2.911   1.485   4.758
 8589SOL    HW126666   2.970   1.564   4.740
 8589SOL    HW226667   2.910   1.466   4.857
 8590SOL     OW26668   6.372   5.116   5.798
 8590SOL    HW126669   6.418   5.167   5.725
 8590SOL    HW226670   6.291   5.165   5.828
 8591SOL     OW26671   1.102   2.784   6.871
 8591SOL    HW126672   1.021   2.820   6.917
 8591SOL    HW226673   1.075   2.708   6.812
 8592SOL     OW26674   6.531   5.602   6.158
 8592SOL    HW126675   6.584   5.545   6.220
 8592SOL    HW226676   6.434   5.592   6.179
 8593SOL     OW26677   0.619   0.238   3.046
 8593SOL    HW126678   0.657   0.283   2.965
 8593SOL    HW226679   0.601   0.306   3.117
 8594SOL     OW26680   3.372   3.588   3.496
 8594SOL    HW126681   3.453   3.629   3.456
 8594SOL    HW226682   3.303   3.574   3.425
 8595SOL     OW26683   1.867   2.624   1.765
 8595SOL    HW126684   1.880   2.556   1.693
 8595SOL    HW226685   1.947   2.683   1.770
 8596SOL     OW26686   6.065   4.653   2.303
 8596SOL    HW126687   6.002   4.716   2.259
 8596SOL    HW226688   6.066   4.566   2.253
 8597SOL     OW26689   2.159   1.764   0.658
 8597SOL    HW126690   2.258   1.771   0.668
 8597SOL    HW226691   2.117   1.747   0.747
 8598SOL     OW26692   5.178   4.200   0.775
 8598SOL    HW126693   5.228   4.163   0.697
 8598SOL    HW226694   5.209   4.156   0.859
 8599SOL     OW26695   1.582   3.174   2.411
 8599SOL    HW126696   1.628   3.257   2.443
 8599SOL    HW226697   1.505   3.200   2.353
 8600SOL     OW26698   6.301   3.768   6.361
 8600SOL    HW126699   6.309   3.676   6.401
 8600SOL    HW226700   6.384   3.820   6.382
 8601SOL     OW26701   0.280   0.604   4.562
 8601SOL    HW126702   0.349   0.617   4.634
 8601SOL    HW226703   0.276   0.508   4.536
 8602SOL     OW26704   2.769   6.191   2.365
 8602SOL    HW126705   2.725   6.275   2.331
 8602SOL    HW226706   2.702   6.117   2.365
 8603SOL     OW26707   4.378   3.657   0.924
 8603SOL    HW126708   4.375   3.720   0.847
 8603SOL    HW226709   4.472   3.651   0.959
 8604SOL     OW26710   5.403   2.353   3.091
 8604SOL    HW126711   5.373   2.271   3.139
 8604SOL    HW226712   5.364   2.355   2.999
 8605SOL     OW26713   3.039   6.934   2.429
 8605SOL    HW126714   3.031   0.014   2.439
 8605SOL    HW226715   3.087   6.913   2.344
 8606SOL     OW26716   4.091   5.123   5.651
 8606SOL    HW126717   4.008   5.180   5.644
 8606SOL    HW226718   4.157   5.153   5.583
 8607SOL     OW26719   3.843   6.428   1.552
 8607SOL    HW126720   3.800   6.518   1.543
 8607SOL    HW226721   3.937   6.440   1.586
 8608SOL     OW26722   5.371   6.226   2.592
 8608SOL    HW126723   5.285   6.174   2.594
 8608SOL    HW226724   5.447   6.166   2.617
 8609SOL     OW26725   4.010   0.574   5.978
 8609SOL    HW126726   4.080   0.582   6.050
 8609SOL    HW226727   4.050   0.600   5.890
 8610SOL     OW26728   0.076   6.792   4.525
 8610SOL    HW126729   0.175   6.781   4.520
 8610SOL    HW226730   0.051   6.885   4.498
 8611SOL     OW26731   1.583   1.780   3.208
 8611SOL    HW126732   1.584   1.879   3.222
 8611SOL    HW226733   1.650   1.736   3.267
 8612SOL     OW26734   4.494   2.893   5.287
 8612SOL    HW126735   4.565   2.877   5.218
 8612SOL    HW226736   4.415   2.836   5.267
 8613SOL     OW26737   1.088   1.364   0.120
 8613SOL    HW126738   1.169   1.423   0.117
 8613SOL    HW226739   1.008   1.417   0.146
 8614SOL     OW26740   0.980   1.447   3.493
 8614SOL    HW126741   1.005   1.351   3.495
 8614SOL    HW226742   1.063   1.503   3.501
 8615SOL     OW26743   4.575   2.380   5.376
 8615SOL    HW126744   4.525   2.421   5.299
 8615SOL    HW226745   4.580   2.281   5.363
 8616SOL     OW26746   1.660   3.423   6.650
 8616SOL    HW126747   1.585   3.396   6.709
 8616SOL    HW226748   1.683   3.519   6.666
 8617SOL     OW26749   6.039   3.396   1.286
 8617SOL    HW126750   6.042   3.331   1.211
 8617SOL    HW226751   5.945   3.409   1.317
 8618SOL     OW26752   4.806   0.673   3.557
 8618SOL    HW126753   4.821   0.592   3.500
 8618SOL    HW226754   4.756   0.742   3.505
 8619SOL     OW26755   4.240   5.714   0.365
 8619SOL    HW126756   4.187   5.694   0.448
 8619SOL    HW226757   4.287   5.801   0.377
 8620SOL     OW26758   6.072   6.624   3.408
 8620SOL    HW126759   5.991   6.674   3.378
 8620SOL    HW226760   6.146   6.689   3.425
 8621SOL     OW26761   5.960   0.893   3.224
 8621SOL    HW126762   5.885   0.858   3.168
 8621SOL    HW226763   5.925   0.965   3.284
 8622SOL     OW26764   5.329   5.724   6.897
 8622SOL    HW126765   5.393   5.797   6.923
 8622SOL    HW226766   5.381   5.641   6.875
 8623SOL     OW26767   6.436   2.983   2.882
 8623SOL    HW126768   6.429   3.076   2.847
 8623SOL    HW226769   6.524   2.943   2.854
 8624SOL     OW26770   0.448   5.187   3.695
 8624SOL    HW126771   0.374   5.187   3.762
 8624SOL    HW226772   0.452   5.276   3.651
 8625SOL     OW26773   3.719   0.667   5.698
 8625SOL    HW126774   3.706   0.584   5.644
 8625SOL    HW226775   3.720   0.644   5.795
 8626SOL     OW26776   3.023   3.071   2.241
 8626SOL    HW126777   2.980   3.034   2.159
 8626SOL    HW226778   3.094   3.136   2.215
 8627SOL     OW26779   2.273   0.155   6.439
 8627SOL    HW126780   2.250   0.185   6.532
 8627SOL    HW226781   2.190   0.150   6.384
 8628SOL     OW26782   5.847   1.274   0.057
 8628SOL    HW126783   5.805   1.207   7.015
 8628SOL    HW226784   5.946   1.277   0.042
 8629SOL     OW26785   1.107   5.246   3.824
 8629SOL    HW126786   1.132   5.342   3.813
 8629SOL    HW226787   1.168   5.189   3.770
 8630SOL     OW26788   5.276   4.483   3.954
 8630SOL    HW126789   5.241   4.576   3.940
 8630SOL    HW226790   5.364   4.474   3.908
 8631SOL     OW26791   3.503   5.732   4.028
 8631SOL    HW126792   3.482   5.635   4.011
 8631SOL    HW226793   3.465   5.759   4.116
 8632SOL     OW26794   4.850   0.465   3.398
 8632SOL    HW126795   4.846   0.368   3.420
 8632SOL    HW226796   4.786   0.485   3.324
 8633SOL     OW26797   6.499   0.700   3.922
 8633SOL    HW126798   6.527   0.627   3.985
 8633SOL    HW226799   6.474   0.661   3.834
 8634SOL     OW26800   6.373   5.479   1.908
 8634SOL    HW126801   6.373   5.379   1.914
 8634SOL    HW226802   6.348   5.506   1.815
 8635SOL     OW26803   6.390   3.941   5.283
 8635SOL    HW126804   6.326   3.991   5.226
 8635SOL    HW226805   6.483   3.968   5.260
 8636SOL     OW26806   5.218   5.754   0.155
 8636SOL    HW126807   5.257   5.741   0.064
 8636SOL    HW226808   5.289   5.786   0.218
 8637SOL     OW26809   1.442   0.395   1.448
 8637SOL    HW126810   1.432   0.346   1.362
 8637SOL    HW226811   1.532   0.439   1.451
 8638SOL     OW26812   4.147   5.259   0.208
 8638SOL    HW126813   4.197   5.341   0.236
 8638SOL    HW226814   4.090   5.281   0.129
 8639SOL     OW26815   6.861   2.999   1.775
 8639SOL    HW126816   6.842   2.912   1.820
 8639SOL    HW226817   6.854   2.988   1.676
 8640SOL     OW26818   5.180   6.463   1.252
 8640SOL    HW126819   5.100   6.524   1.254
 8640SOL    HW226820   5.152   6.371   1.280
 8641SOL     OW26821   5.350   4.888   3.905
 8641SOL    HW126822   5.276   4.822   3.919
 8641SOL    HW226823   5.422   4.872   3.973
 8642SOL     OW26824   4.893   1.701   1.996
 8642SOL    HW126825   4.846   1.789   1.997
 8642SOL    HW226826   4.992   1.715   2.006
 8643SOL     OW26827   4.691   1.258   6.132
 8643SOL    HW126828   4.724   1.172   6.171
 8643SOL    HW226829   4.610   1.240   6.076
 8644SOL     OW26830   6.478   3.484   5.399
 8644SOL    HW126831   6.522   3.573   5.408
 8644SOL    HW226832   6.453   3.450   5.490
 8645SOL     OW26833   5.814   4.372   1.432
 8645SOL    HW126834   5.767   4.458   1.415
 8645SOL    HW226835   5.758   4.316   1.494
 8646SOL     OW26836   5.410   0.717   0.494
 8646SOL    HW126837   5.472   0.705   0.571
 8646SOL    HW226838   5.316   0.722   0.527
 8647SOL     OW26839   4.369   5.108   1.802
 8647SOL    HW126840   4.405   5.028   1.753
 8647SOL    HW226841   4.271   5.098   1.816
 8648SOL     OW26842   5.153   1.873   4.424
 8648SOL    HW126843   5.130   1.826   4.339
 8648SOL    HW226844   5.068   1.899   4.471
 8649SOL     OW26845   0.248   4.549   5.472
 8649SOL    HW126846   0.243   4.469   5.532
 8649SOL    HW226847   0.285   4.522   5.384
 8650SOL     OW26848   1.267   4.681   2.210
 8650SOL    HW126849   1.205   4.616   2.255
 8650SOL    HW226850   1.307   4.638   2.129
 8651SOL     OW26851   2.972   2.033   1.313
 8651SOL    HW126852   3.013   1.965   1.374
 8651SOL    HW226853   3.044   2.078   1.259
 8652SOL     OW26854   1.664   3.959   3.982
 8652SOL    HW126855   1.646   3.992   4.075
 8652SOL    HW226856   1.623   3.869   3.970
 8653SOL     OW26857   6.257   3.243   6.466
 8653SOL    HW126858   6.171   3.288   6.489
 8653SOL    HW226859   6.333   3.290   6.512
 8654SOL     OW26860   0.160   6.892   3.109
 8654SOL    HW126861   0.180   6.814   3.050
 8654SOL    HW226862   0.137   6.971   3.053
 8655SOL     OW26863   5.764   6.098   4.124
 8655SOL    HW126864   5.684   6.156   4.142
 8655SOL    HW226865   5.848   6.150   4.142
 8656SOL     OW26866   6.149   2.255   1.470
 8656SOL    HW126867   6.218   2.185   1.453
 8656SOL    HW226868   6.165   2.333   1.410
 8657SOL     OW26869   3.272   4.194   0.442
 8657SOL    HW126870   3.338   4.125   0.414
 8657SOL    HW226871   3.310   4.285   0.425
 8658SOL     OW26872   0.180   5.112   0.225
 8658SOL    HW126873   0.126   5.158   0.155
 8658SOL    HW226874   0.154   5.016   0.230
 8659SOL     OW26875   4.953   0.413   4.098
 8659SOL    HW126876   4.868   0.424   4.045
 8659SOL    HW226877   4.949   0.327   4.148
 8660SOL     OW26878   5.534   4.666   0.945
 8660SOL    HW126879   5.441   4.697   0.925
 8660SOL    HW226880   5.584   4.740   0.992
 8661SOL     OW26881   6.178   3.691   1.922
 8661SOL    HW126882   6.232   3.682   2.006
 8661SOL    HW226883   6.183   3.607   1.870
 8662SOL     OW26884   0.186   0.506   0.635
 8662SOL    HW126885   0.284   0.525   0.638
 8662SOL    HW226886   0.138   0.568   0.697
 8663SOL     OW26887   2.583   5.809   0.432
 8663SOL    HW126888   2.568   5.710   0.422
 8663SOL    HW226889   2.495   5.856   0.434
 8664SOL     OW26890   4.105   5.158   1.572
 8664SOL    HW126891   4.018   5.164   1.523
 8664SOL    HW226892   4.113   5.234   1.637
 8665SOL     OW26893   4.864   5.300   5.607
 8665SOL    HW126894   4.905   5.243   5.678
 8665SOL    HW226895   4.930   5.317   5.535
 8666SOL     OW26896   5.340   3.754   4.262
 8666SOL    HW126897   5.384   3.707   4.185
 8666SOL    HW226898   5.402   3.824   4.298
 8667SOL     OW26899   5.260   1.518   3.211
 8667SOL    HW126900   5.309   1.442   3.254
 8667SOL    HW226901   5.263   1.598   3.271
 8668SOL     OW26902   3.532   1.857   4.355
 8668SOL    HW126903   3.557   1.943   4.310
 8668SOL    HW226904   3.550   1.864   4.453
 8669SOL     OW26905   3.925   0.629   6.291
 8669SOL    HW126906   3.831   0.596   6.296
 8669SOL    HW226907   3.982   0.559   6.248
 8670SOL     OW26908   4.057   4.855   4.466
 8670SOL    HW126909   3.963   4.858   4.499
 8670SOL    HW226910   4.119   4.851   4.545
 8671SOL     OW26911   5.833   6.609   2.879
 8671SOL    HW126912   5.740   6.616   2.916
 8671SOL    HW226913   5.841   6.670   2.800
 8672SOL     OW26914   3.143   4.809   5.093
 8672SOL    HW126915   3.230   4.795   5.141
 8672SOL    HW226916   3.088   4.726   5.100
 8673SOL     OW26917   5.938   1.986   0.970
 8673SOL    HW126918   5.964   1.994   1.066
 8673SOL    HW226919   5.970   1.898   0.934
 8674SOL     OW26920   0.681   0.277   2.754
 8674SOL    HW126921   0.694   0.182   2.726
 8674SOL    HW226922   0.614   0.321   2.694
 8675SOL     OW26923   2.121   1.586   2.641
 8675SOL    HW126924   2.097   1.625   2.552
 8675SOL    HW226925   2.065   1.505   2.658
 8676SOL     OW26926   4.528   6.656   3.755
 8676SOL    HW126927   4.519   6.556   3.752
 8676SOL    HW226928   4.448   6.694   3.802
 8677SOL     OW26929   2.172   4.274   5.041
 8677SOL    HW126930   2.187   4.205   4.969
 8677SOL    HW226931   2.152   4.227   5.127
 8678SOL     OW26932   1.072   0.557   6.435
 8678SOL    HW126933   1.090   0.631   6.498
 8678SOL    HW226934   1.156   0.505   6.420
 8679SOL     OW26935   6.597   2.340   4.700
 8679SOL    HW126936   6.614   2.427   4.747
 8679SOL    HW226937   6.543   2.356   4.618
 8680SOL     OW26938   1.507   3.225   0.305
 8680SOL    HW126939   1.535   3.245   0.211
 8680SOL    HW226940   1.579   3.172   0.350
 8681SOL     OW26941   4.340   3.798   0.696
 8681SOL    HW126942   4.342   3.768   0.601
 8681SOL    HW226943   4.281   3.878   0.705
 8682SOL     OW26944   1.980   6.000   2.479
 8682SOL    HW126945   1.890   6.036   2.502
 8682SOL    HW226946   1.994   5.913   2.526
 8683SOL     OW26947   6.536   3.497   6.356
 8683SOL    HW126948   6.587   3.433   6.298
 8683SOL    HW226949   6.493   3.447   6.431
 8684SOL     OW26950   6.430   2.621   4.133
 8684SOL    HW126951   6.471   2.710   4.116
 8684SOL    HW226952   6.336   2.633   4.164
 8685SOL     OW26953   0.749   2.046   5.370
 8685SOL    HW126954   0.694   1.962   5.379
 8685SOL    HW226955   0.689   2.122   5.343
 8686SOL     OW26956   6.344   2.386   3.212
 8686SOL    HW126957   6.246   2.402   3.221
 8686SOL    HW226958   6.385   2.459   3.157
 8687SOL     OW26959   4.469   0.292   2.545
 8687SOL    HW126960   4.493   0.236   2.625
 8687SOL    HW226961   4.374   0.274   2.519
 8688SOL     OW26962   2.142   0.101   2.187
 8688SOL    HW126963   2.051   0.062   2.201
 8688SOL    HW226964   2.211   0.042   2.228
 8689SOL     OW26965   4.309   5.726   0.771
 8689SOL    HW126966   4.352   5.659   0.710
 8689SOL    HW226967   4.244   5.680   0.831
 8690SOL     OW26968   0.695   1.338   2.993
 8690SOL    HW126969   0.760   1.334   3.069
 8690SOL    HW226970   0.736   1.295   2.912
 8691SOL     OW26971   5.687   1.814   0.822
 8691SOL    HW126972   5.723   1.907   0.808
 8691SOL    HW226973   5.612   1.798   0.758
 8692SOL     OW26974   1.691   1.401   4.451
 8692SOL    HW126975   1.607   1.368   4.409
 8692SOL    HW226976   1.698   1.500   4.439
 8693SOL     OW26977   5.555   2.054   0.699
 8693SOL    HW126978   5.473   2.039   0.754
 8693SOL    HW226979   5.535   2.033   0.604
 8694SOL     OW26980   4.489   6.710   5.880
 8694SOL    HW126981   4.442   6.661   5.953
 8694SOL    HW226982   4.425   6.730   5.806
 8695SOL     OW26983   4.230   4.308   5.830
 8695SOL    HW126984   4.296   4.279   5.761
 8695SOL    HW226985   4.145   4.335   5.785
 8696SOL     OW26986   2.131   5.192   1.101
 8696SOL    HW126987   2.129   5.111   1.160
 8696SOL    HW226988   2.176   5.267   1.149
 8697SOL     OW26989   5.909   4.432   1.026
 8697SOL    HW126990   5.815   4.405   1.049
 8697SOL    HW226991   5.971   4.403   1.098
 8698SOL     OW26992   5.685   5.693   4.475
 8698SOL    HW126993   5.665   5.690   4.377
 8698SOL    HW226994   5.661   5.606   4.517
 8699SOL     OW26995   1.138   1.292   5.414
 8699SOL    HW126996   1.184   1.300   5.326
 8699SOL    HW226997   1.135   1.197   5.442
 8700SOL     OW26998   2.689   1.266   5.644
 8700SOL    HW126999   2.695   1.225   5.735
 8700SOL    HW227000   2.735   1.355   5.645
 8701SOL     OW27001   1.303   1.893   4.611
 8701SOL    HW127002   1.243   1.960   4.655
 8701SOL    HW227003   1.398   1.920   4.624
 8702SOL     OW27004   4.810   6.239   0.027
 8702SOL    HW127005   4.894   6.268   0.072
 8702SOL    HW227006   4.772   6.315   6.994
 8703SOL     OW27007   2.721   5.498   0.908
 8703SOL    HW127008   2.751   5.575   0.963
 8703SOL    HW227009   2.768   5.499   0.819
 8704SOL     OW27010   0.346   4.111   1.363
 8704SOL    HW127011   0.390   4.044   1.424
 8704SOL    HW227012   0.270   4.154   1.411
 8705SOL     OW27013   4.593   0.093   5.631
 8705SOL    HW127014   4.682   0.139   5.632
 8705SOL    HW227015   4.606   7.015   5.648
 8706SOL     OW27016   5.404   1.847   0.306
 8706SOL    HW127017   5.358   1.787   0.241
 8706SOL    HW227018   5.336   1.894   0.362
 8707SOL     OW27019   4.583   2.635   5.822
 8707SOL    HW127020   4.613   2.587   5.905
 8707SOL    HW227021   4.642   2.715   5.807
 8708SOL     OW27022   4.105   1.606   1.013
 8708SOL    HW127023   4.031   1.673   1.023
 8708SOL    HW227024   4.094   1.533   1.079
 8709SOL     OW27025   6.995   3.815   0.868
 8709SOL    HW127026   6.917   3.833   0.808
 8709SOL    HW227027   6.962   3.780   0.955
 8710SOL     OW27028   1.303   3.195   3.179
 8710SOL    HW127029   1.402   3.205   3.175
 8710SOL    HW227030   1.270   3.222   3.269
 8711SOL     OW27031   0.637   1.465   4.112
 8711SOL    HW127032   0.684   1.432   4.031
 8711SOL    HW227033   0.703   1.480   4.186
 8712SOL     OW27034   3.490   1.531   5.538
 8712SOL    HW127035   3.506   1.577   5.626
 8712SOL    HW227036   3.412   1.573   5.492
 8713SOL     OW27037   0.003   4.705   3.455
 8713SOL    HW127038   0.083   4.653   3.485
 8713SOL    HW227039   0.018   4.802   3.473
 8714SOL     OW27040   1.573   1.694   5.021
 8714SOL    HW127041   1.481   1.690   4.981
 8714SOL    HW227042   1.641   1.706   4.948
 8715SOL     OW27043   6.317   1.780   1.464
 8715SOL    HW127044   6.241   1.757   1.403
 8715SOL    HW227045   6.298   1.746   1.556
 8716SOL     OW27046   1.524   1.880   1.456
 8716SOL    HW127047   1.506   1.791   1.497
 8716SOL    HW227048   1.467   1.950   1.501
 8717SOL     OW27049   3.303   3.391   0.862
 8717SOL    HW127050   3.296   3.294   0.838
 8717SOL    HW227051   3.398   3.421   0.855
 8718SOL     OW27052   6.140   3.103   5.561
 8718SOL    HW127053   6.087   3.146   5.488
 8718SOL    HW227054   6.236   3.097   5.533
 8719SOL     OW27055   6.680   0.741   6.336
 8719SOL    HW127056   6.596   0.775   6.293
 8719SOL    HW227057   6.759   0.789   6.298
 8720SOL     OW27058   5.014   4.051   5.942
 8720SOL    HW127059   4.972   3.995   5.871
 8720SOL    HW227060   4.970   4.141   5.944
 8721SOL     OW27061   0.089   2.540   4.305
 8721SOL    HW127062   0.090   2.601   4.225
 8721SOL    HW227063   0.158   2.469   4.294
 8722SOL     OW27064   3.459   2.652   0.456
 8722SOL    HW127065   3.456   2.661   0.357
 8722SOL    HW227066   3.366   2.650   0.493
 8723SOL     OW27067   0.007   4.494   0.877
 8723SOL    HW127068   6.993   4.565   0.815
 8723SOL    HW227069   0.029   4.534   0.966
 8724SOL     OW27070   5.011   6.839   6.704
 8724SOL    HW127071   5.031   6.873   6.612
 8724SOL    HW227072   4.994   6.740   6.700
 8725SOL     OW27073   2.694   5.798   0.676
 8725SOL    HW127074   2.652   5.795   0.585
 8725SOL    HW227075   2.628   5.768   0.745
 8726SOL     OW27076   5.677   0.319   1.685
 8726SOL    HW127077   5.747   0.388   1.669
 8726SOL    HW227078   5.692   0.242   1.623
 8727SOL     OW27079   6.032   5.730   1.146
 8727SOL    HW127080   6.001   5.654   1.088
 8727SOL    HW227081   6.131   5.724   1.159
 8728SOL     OW27082   2.574   0.043   5.392
 8728SOL    HW127083   2.621   6.974   5.384
 8728SOL    HW227084   2.477   0.030   5.371
 8729SOL     OW27085   6.118   6.084   4.639
 8729SOL    HW127086   6.089   6.119   4.729
 8729SOL    HW227087   6.045   6.100   4.572
 8730SOL     OW27088   0.138   6.154   1.529
 8730SOL    HW127089   0.212   6.185   1.468
 8730SOL    HW227090   0.127   6.219   1.604
 8731SOL     OW27091   1.030   1.653   2.874
 8731SOL    HW127092   0.931   1.641   2.883
 8731SOL    HW227093   1.065   1.697   2.957
 8732SOL     OW27094   5.202   4.786   1.347
 8732SOL    HW127095   5.195   4.865   1.409
 8732SOL    HW227096   5.115   4.774   1.299
 8733SOL     OW27097   0.659   6.370   1.606
 8733SOL    HW127098   0.704   6.333   1.525
 8733SOL    HW227099   0.723   6.371   1.683
 8734SOL     OW27100   6.001   5.090   0.945
 8734SOL    HW127101   6.000   5.103   1.044
 8734SOL    HW227102   6.089   5.050   0.918
 8735SOL     OW27103   6.534   2.359   6.521
 8735SOL    HW127104   6.527   2.436   6.585
 8735SOL    HW227105   6.449   2.306   6.523
 8736SOL     OW27106   0.666   4.797   6.608
 8736SOL    HW127107   0.578   4.753   6.626
 8736SOL    HW227108   0.740   4.731   6.622
 8737SOL     OW27109   3.547   5.851   6.317
 8737SOL    HW127110   3.472   5.879   6.257
 8737SOL    HW227111   3.609   5.928   6.331
 8738SOL     OW27112   1.438   3.511   4.456
 8738SOL    HW127113   1.376   3.589   4.448
 8738SOL    HW227114   1.406   3.451   4.530
 8739SOL     OW27115   1.068   2.996   4.949
 8739SOL    HW127116   1.055   3.086   4.909
 8739SOL    HW227117   0.984   2.967   4.994
 8740SOL     OW27118   2.085   6.232   1.222
 8740SOL    HW127119   2.015   6.166   1.195
 8740SOL    HW227120   2.112   6.215   1.317
 8741SOL     OW27121   1.401   3.526   2.027
 8741SOL    HW127122   1.427   3.587   2.102
 8741SOL    HW227123   1.479   3.510   1.968
 8742SOL     OW27124   4.553   0.084   1.964
 8742SOL    HW127125   4.551   0.028   1.881
 8742SOL    HW227126   4.486   0.158   1.956
 8743SOL     OW27127   2.499   4.536   3.037
 8743SOL    HW127128   2.483   4.478   2.957
 8743SOL    HW227129   2.412   4.559   3.081
 8744SOL     OW27130   3.274   2.722   5.880
 8744SOL    HW127131   3.293   2.792   5.948
 8744SOL    HW227132   3.198   2.752   5.822
 8745SOL     OW27133   6.431   2.316   6.210
 8745SOL    HW127134   6.431   2.375   6.130
 8745SOL    HW227135   6.477   2.362   6.286
 8746SOL     OW27136   5.194   4.528   5.477
 8746SOL    HW127137   5.141   4.590   5.420
 8746SOL    HW227138   5.155   4.525   5.569
 8747SOL     OW27139   1.839   2.573   4.149
 8747SOL    HW127140   1.917   2.519   4.117
 8747SOL    HW227141   1.754   2.522   4.132
 8748SOL     OW27142   2.097   0.343   6.591
 8748SOL    HW127143   2.045   0.263   6.563
 8748SOL    HW227144   2.123   0.396   6.510
 8749SOL     OW27145   4.381   0.926   3.404
 8749SOL    HW127146   4.287   0.945   3.433
 8749SOL    HW227147   4.391   0.946   3.307
 8750SOL     OW27148   2.548   1.199   5.167
 8750SOL    HW127149   2.481   1.159   5.230
 8750SOL    HW227150   2.553   1.298   5.183
 8751SOL     OW27151   1.976   0.003   2.688
 8751SOL    HW127152   2.023   6.959   2.749
 8751SOL    HW227153   1.962   6.978   2.599
 8752SOL     OW27154   1.541   2.363   6.176
 8752SOL    HW127155   1.517   2.419   6.097
 8752SOL    HW227156   1.462   2.357   6.238
 8753SOL     OW27157   5.118   1.323   5.136
 8753SOL    HW127158   5.137   1.308   5.233
 8753SOL    HW227159   5.133   1.419   5.113
 8754SOL     OW27160   1.407   1.037   5.835
 8754SOL    HW127161   1.471   0.960   5.838
 8754SOL    HW227162   1.364   1.041   5.745
 8755SOL     OW27163   2.088   1.967   0.895
 8755SOL    HW127164   2.103   1.981   0.797
 8755SOL    HW227165   2.024   2.036   0.929
 8756SOL     OW27166   2.201   3.107   4.350
 8756SOL    HW127167   2.211   3.096   4.449
 8756SOL    HW227168   2.225   3.021   4.304
 8757SOL     OW27169   5.304   6.072   4.559
 8757SOL    HW127170   5.361   6.039   4.634
 8757SOL    HW227171   5.362   6.094   4.480
 8758SOL     OW27172   6.188   6.362   1.868
 8758SOL    HW127173   6.229   6.282   1.824
 8758SOL    HW227174   6.088   6.352   1.868
 8759SOL     OW27175   5.098   1.242   6.107
 8759SOL    HW127176   5.176   1.265   6.165
 8759SOL    HW227177   5.033   1.318   6.108
 8760SOL     OW27178   1.856   2.988   3.600
 8760SOL    HW127179   1.927   2.963   3.666
 8760SOL    HW227180   1.767   2.979   3.644
 8761SOL     OW27181   4.841   6.617   0.976
 8761SOL    HW127182   4.810   6.524   0.958
 8761SOL    HW227183   4.919   6.638   0.917
 8762SOL     OW27184   0.626   3.743   0.675
 8762SOL    HW127185   0.684   3.743   0.757
 8762SOL    HW227186   0.603   3.837   0.650
 8763SOL     OW27187   0.014   6.425   6.023
 8763SOL    HW127188   7.001   6.437   6.116
 8763SOL    HW227189   0.111   6.398   6.024
 8764SOL     OW27190   3.525   1.945   4.932
 8764SOL    HW127191   3.525   1.851   4.966
 8764SOL    HW227192   3.512   1.944   4.833
 8765SOL     OW27193   0.115   0.529   4.802
 8765SOL    HW127194   0.150   0.622   4.787
 8765SOL    HW227195   0.026   0.535   4.847
 8766SOL     OW27196   2.437   4.472   2.604
 8766SOL    HW127197   2.418   4.437   2.696
 8766SOL    HW227198   2.367   4.438   2.541
 8767SOL     OW27199   4.858   1.690   4.503
 8767SOL    HW127200   4.928   1.719   4.568
 8767SOL    HW227201   4.775   1.744   4.516
 8768SOL     OW27202   1.450   3.373   6.822
 8768SOL    HW127203   1.417   3.279   6.834
 8768SOL    HW227204   1.403   3.432   6.888
 8769SOL     OW27205   1.942   0.550   5.302
 8769SOL    HW127206   2.023   0.594   5.340
 8769SOL    HW227207   1.926   0.584   5.210
 8770SOL     OW27208   5.471   2.288   2.220
 8770SOL    HW127209   5.399   2.343   2.262
 8770SOL    HW227210   5.560   2.314   2.259
 8771SOL     OW27211   1.314   2.371   6.322
 8771SOL    HW127212   1.288   2.365   6.418
 8771SOL    HW227213   1.272   2.452   6.282
 8772SOL     OW27214   5.248   6.992   6.975
 8772SOL    HW127215   5.171   6.973   6.914
 8772SOL    HW227216   5.329   7.014   6.921
 8773SOL     OW27217   2.761   2.232   3.038
 8773SOL    HW127218   2.739   2.307   2.975
 8773SOL    HW227219   2.690   2.162   3.031
 8774SOL     OW27220   1.188   0.918   6.860
 8774SOL    HW127221   1.168   1.002   6.910
 8774SOL    HW227222   1.287   0.904   6.855
 8775SOL     OW27223   6.305   0.075   4.348
 8775SOL    HW127224   6.348   0.002   4.295
 8775SOL    HW227225   6.370   0.149   4.363
 8776SOL     OW27226   3.505   3.162   4.823
 8776SOL    HW127227   3.506   3.121   4.732
 8776SOL    HW227228   3.469   3.096   4.889
 8777SOL     OW27229   6.336   5.666   1.631
 8777SOL    HW127230   6.411   5.711   1.680
 8777SOL    HW227231   6.258   5.728   1.625
 8778SOL     OW27232   0.805   2.219   3.101
 8778SOL    HW127233   0.766   2.247   3.188
 8778SOL    HW227234   0.865   2.291   3.066
 8779SOL     OW27235   1.998   4.175   0.407
 8779SOL    HW127236   2.098   4.176   0.396
 8779SOL    HW227237   1.956   4.133   0.327
 8780SOL     OW27238   1.885   5.733   4.076
 8780SOL    HW127239   1.958   5.794   4.044
 8780SOL    HW227240   1.892   5.722   4.175
 8781SOL     OW27241   0.746   1.995   2.499
 8781SOL    HW127242   0.685   1.993   2.420
 8781SOL    HW227243   0.694   2.021   2.581
 8782SOL     OW27244   4.585   1.727   2.638
 8782SOL    HW127245   4.524   1.746   2.560
 8782SOL    HW227246   4.535   1.742   2.723
 8783SOL     OW27247   5.316   3.315   5.208
 8783SOL    HW127248   5.260   3.232   5.206
 8783SOL    HW227249   5.356   3.330   5.118
 8784SOL     OW27250   5.398   4.171   5.529
 8784SOL    HW127251   5.425   4.146   5.436
 8784SOL    HW227252   5.416   4.096   5.592
 8785SOL     OW27253   5.544   4.936   6.766
 8785SOL    HW127254   5.571   5.030   6.785
 8785SOL    HW227255   5.614   4.892   6.709
 8786SOL     OW27256   1.126   6.018   0.492
 8786SOL    HW127257   1.210   6.028   0.545
 8786SOL    HW227258   1.139   5.948   0.421
 8787SOL     OW27259   1.113   2.950   0.541
 8787SOL    HW127260   1.166   2.962   0.625
 8787SOL    HW227261   1.065   2.862   0.545
 8788SOL     OW27262   1.042   1.884   5.653
 8788SOL    HW127263   1.106   1.807   5.649
 8788SOL    HW227264   1.053   1.932   5.740
 8789SOL     OW27265   0.081   0.146   6.825
 8789SOL    HW127266   0.137   0.207   6.882
 8789SOL    HW227267   7.007   0.145   6.861
 8790SOL     OW27268   5.202   1.858   7.005
 8790SOL    HW127269   5.299   1.860   6.979
 8790SOL    HW227270   5.192   1.809   0.072
 8791SOL     OW27271   4.966   6.657   5.543
 8791SOL    HW127272   5.011   6.674   5.456
 8791SOL    HW227273   4.944   6.744   5.587
 8792SOL     OW27274   4.802   0.250   2.677
 8792SOL    HW127275   4.807   0.233   2.776
 8792SOL    HW227276   4.826   0.167   2.628
 8793SOL     OW27277   1.142   5.234   4.468
 8793SOL    HW127278   1.100   5.325   4.462
 8793SOL    HW227279   1.090   5.177   4.530
 8794SOL     OW27280   3.049   6.884   2.815
 8794SOL    HW127281   3.020   6.973   2.851
 8794SOL    HW227282   3.004   6.867   2.727
 8795SOL     OW27283   1.708   6.447   5.317
 8795SOL    HW127284   1.737   6.480   5.227
 8795SOL    HW227285   1.785   6.403   5.363
 8796SOL     OW27286   5.330   2.805   5.246
 8796SOL    HW127287   5.377   2.827   5.332
 8796SOL    HW227288   5.291   2.889   5.207
 8797SOL     OW27289   0.461   6.467   0.006
 8797SOL    HW127290   0.437   6.533   6.955
 8797SOL    HW227291   0.537   6.502   0.060
 8798SOL     OW27292   4.320   3.404   6.052
 8798SOL    HW127293   4.240   3.373   6.001
 8798SOL    HW227294   4.374   3.466   5.996
 8799SOL     OW27295   3.764   6.275   2.896
 8799SOL    HW127296   3.781   6.284   2.798
 8799SOL    HW227297   3.799   6.356   2.943
 8800SOL     OW27298   4.329   5.248   6.758
 8800SOL    HW127299   4.286   5.309   6.692
 8800SOL    HW227300   4.267   5.173   6.780
 8801SOL     OW27301   3.048   0.383   4.913
 8801SOL    HW127302   3.109   0.454   4.877
 8801SOL    HW227303   2.998   0.419   4.992
 8802SOL     OW27304   2.793   0.336   2.283
 8802SOL    HW127305   2.891   0.323   2.268
 8802SOL    HW227306   2.750   0.367   2.198
 8803SOL     OW27307   3.511   6.006   0.750
 8803SOL    HW127308   3.441   5.976   0.815
 8803SOL    HW227309   3.531   5.932   0.686
 8804SOL     OW27310   4.130   0.376   0.752
 8804SOL    HW127311   4.194   0.392   0.827
 8804SOL    HW227312   4.173   0.316   0.684
 8805SOL     OW27313   0.114   0.113   2.991
 8805SOL    HW127314   0.082   0.208   2.993
 8805SOL    HW227315   0.213   0.112   2.976
 8806SOL     OW27316   2.055   5.034   6.822
 8806SOL    HW127317   2.088   4.952   6.869
 8806SOL    HW227318   2.127   5.069   6.762
 8807SOL     OW27319   1.503   6.253   6.383
 8807SOL    HW127320   1.457   6.316   6.446
 8807SOL    HW227321   1.434   6.204   6.329
 8808SOL     OW27322   6.187   1.462   1.107
 8808SOL    HW127323   6.185   1.462   1.007
 8808SOL    HW227324   6.173   1.369   1.140
 8809SOL     OW27325   6.274   3.827   1.295
 8809SOL    HW127326   6.212   3.759   1.255
 8809SOL    HW227327   6.353   3.839   1.235
 8810SOL     OW27328   5.074   1.281   3.905
 8810SOL    HW127329   5.102   1.213   3.838
 8810SOL    HW227330   4.978   1.306   3.889
 8811SOL     OW27331   1.303   1.471   4.058
 8811SOL    HW127332   1.285   1.379   4.026
 8811SOL    HW227333   1.371   1.515   3.999
 8812SOL     OW27334   1.583   0.616   0.850
 8812SOL    HW127335   1.583   0.571   0.939
 8812SOL    HW227336   1.536   0.704   0.857
 8813SOL     OW27337   1.605   4.761   1.388
 8813SOL    HW127338   1.568   4.689   1.330
 8813SOL    HW227339   1.538   4.786   1.457
 8814SOL     OW27340   5.428   7.017   0.238
 8814SOL    HW127341   5.361   6.987   0.171
 8814SOL    HW227342   5.464   6.937   0.287
 8815SOL     OW27343   0.065   6.364   3.137
 8815SOL    HW127344   0.050   6.299   3.212
 8815SOL    HW227345   0.020   6.331   3.054
 8816SOL     OW27346   1.085   5.872   1.871
 8816SOL    HW127347   1.021   5.818   1.926
 8816SOL    HW227348   1.136   5.933   1.931
 8817SOL     OW27349   2.535   4.744   5.383
 8817SOL    HW127350   2.560   4.680   5.310
 8817SOL    HW227351   2.573   4.834   5.362
 8818SOL     OW27352   0.013   5.130   4.550
 8818SOL    HW127353   0.033   5.119   4.453
 8818SOL    HW227354   0.064   5.062   4.602
 8819SOL     OW27355   5.491   0.231   4.544
 8819SOL    HW127356   5.523   0.196   4.456
 8819SOL    HW227357   5.545   0.310   4.570
 8820SOL     OW27358   1.931   2.840   4.083
 8820SOL    HW127359   1.984   2.849   4.168
 8820SOL    HW227360   1.874   2.758   4.088
 8821SOL     OW27361   1.842   0.623   6.318
 8821SOL    HW127362   1.821   0.542   6.374
 8821SOL    HW227363   1.939   0.647   6.328
 8822SOL     OW27364   7.012   2.048   3.879
 8822SOL    HW127365   0.049   1.983   3.828
 8822SOL    HW227366   0.050   2.120   3.917
 8823SOL     OW27367   2.263   5.591   1.937
 8823SOL    HW127368   2.181   5.541   1.965
 8823SOL    HW227369   2.343   5.531   1.945
 8824SOL     OW27370   4.143   3.537   0.714
 8824SOL    HW127371   4.188   3.623   0.692
 8824SOL    HW227372   4.046   3.543   0.688
 8825SOL     OW27373   1.682   2.153   1.553
 8825SOL    HW127374   1.658   2.238   1.599
 8825SOL    HW227375   1.738   2.096   1.614
 8826SOL     OW27376   5.781   1.090   6.902
 8826SOL    HW127377   5.818   1.019   6.962
 8826SOL    HW227378   5.787   1.060   6.807
 8827SOL     OW27379   1.211   1.223   3.933
 8827SOL    HW127380   1.132   1.207   3.991
 8827SOL    HW227381   1.260   1.137   3.917
 8828SOL     OW27382   1.716   6.100   2.608
 8828SOL    HW127383   1.694   6.002   2.603
 8828SOL    HW227384   1.653   6.152   2.550
 8829SOL     OW27385   0.469   1.464   6.993
 8829SOL    HW127386   0.513   1.541   0.022
 8829SOL    HW227387   0.388   1.435   0.026
 8830SOL     OW27388   0.589   2.339   0.700
 8830SOL    HW127389   0.517   2.270   0.696
 8830SOL    HW227390   0.623   2.347   0.794
 8831SOL     OW27391   6.898   0.970   2.563
 8831SOL    HW127392   6.803   0.955   2.535
 8831SOL    HW227393   6.911   1.066   2.589
 8832SOL     OW27394   0.461   0.698   2.375
 8832SOL    HW127395   0.495   0.643   2.451
 8832SOL    HW227396   0.433   0.788   2.409
 8833SOL     OW27397   1.979   4.640   3.367
 8833SOL    HW127398   1.935   4.581   3.300
 8833SOL    HW227399   1.910   4.676   3.430
 8834SOL     OW27400   5.765   4.074   4.899
 8834SOL    HW127401   5.777   3.976   4.914
 8834SOL    HW227402   5.687   4.108   4.951
 8835SOL     OW27403   0.457   0.090   6.677
 8835SOL    HW127404   0.397   0.031   6.731
 8835SOL    HW227405   0.481   0.045   6.591
 8836SOL     OW27406   4.855   1.957   1.010
 8836SOL    HW127407   4.783   1.888   1.012
 8836SOL    HW227408   4.915   1.941   0.932
 8837SOL     OW27409   1.176   1.599   2.439
 8837SOL    HW127410   1.124   1.684   2.429
 8837SOL    HW227411   1.152   1.537   2.363
 8838SOL     OW27412   2.313   5.914   3.690
 8838SOL    HW127413   2.220   5.939   3.717
 8838SOL    HW227414   2.371   5.907   3.771
 8839SOL     OW27415   6.278   6.467   4.042
 8839SOL    HW127416   6.178   6.479   4.040
 8839SOL    HW227417   6.319   6.519   3.968
 8840SOL     OW27418   5.526   1.700   2.161
 8840SOL    HW127419   5.494   1.647   2.082
 8840SOL    HW227420   5.570   1.639   2.227
 8841SOL     OW27421   2.104   0.698   4.407
 8841SOL    HW127422   2.203   0.697   4.417
 8841SOL    HW227423   2.079   0.733   4.316
 8842SOL     OW27424   1.926   2.949   2.386
 8842SOL    HW127425   1.939   2.855   2.354
 8842SOL    HW227426   1.890   3.005   2.311
 8843SOL     OW27427   0.433   3.233   4.469
 8843SOL    HW127428   0.346   3.273   4.440
 8843SOL    HW227429   0.423   3.133   4.476
 8844SOL     OW27430   5.875   1.499   6.243
 8844SOL    HW127431   5.919   1.583   6.274
 8844SOL    HW227432   5.931   1.420   6.268
 8845SOL     OW27433   6.022   4.250   0.176
 8845SOL    HW127434   5.981   4.282   0.091
 8845SOL    HW227435   6.059   4.158   0.163
 8846SOL     OW27436   2.098   4.697   3.004
 8846SOL    HW127437   2.068   4.649   2.922
 8846SOL    HW227438   2.148   4.780   2.977
 8847SOL     OW27439   2.321   0.799   2.724
 8847SOL    HW127440   2.348   0.717   2.675
 8847SOL    HW227441   2.402   0.845   2.760
 8848SOL     OW27442   1.600   0.157   2.842
 8848SOL    HW127443   1.669   0.148   2.913
 8848SOL    HW227444   1.645   0.175   2.754
 8849SOL     OW27445   2.826   6.683   1.195
 8849SOL    HW127446   2.755   6.700   1.126
 8849SOL    HW227447   2.902   6.746   1.181
 8850SOL     OW27448   2.817   2.537   6.990
 8850SOL    HW127449   2.750   2.607   7.012
 8850SOL    HW227450   2.860   2.557   6.903
 8851SOL     OW27451   1.657   3.389   2.564
 8851SOL    HW127452   1.558   3.405   2.562
 8851SOL    HW227453   1.687   3.381   2.659
 8852SOL     OW27454   1.246   2.297   5.891
 8852SOL    HW127455   1.296   2.365   5.838
 8852SOL    HW227456   1.151   2.324   5.901
 8853SOL     OW27457   5.699   1.047   1.328
 8853SOL    HW127458   5.681   0.978   1.258
 8853SOL    HW227459   5.613   1.087   1.358
 8854SOL     OW27460   0.754   1.953   4.995
 8854SOL    HW127461   0.808   2.036   5.009
 8854SOL    HW227462   0.695   1.964   4.915
 8855SOL     OW27463   5.102   5.206   1.321
 8855SOL    HW127464   5.187   5.235   1.277
 8855SOL    HW227465   5.119   5.189   1.418
 8856SOL     OW27466   6.638   0.811   5.670
 8856SOL    HW127467   6.598   0.838   5.582
 8856SOL    HW227468   6.665   0.893   5.721
 8857SOL     OW27469   6.174   2.253   6.265
 8857SOL    HW127470   6.270   2.278   6.248
 8857SOL    HW227471   6.118   2.336   6.267
 8858SOL     OW27472   6.604   6.408   4.807
 8858SOL    HW127473   6.517   6.360   4.798
 8858SOL    HW227474   6.641   6.394   4.899
 8859SOL     OW27475   0.569   6.519   3.516
 8859SOL    HW127476   0.521   6.590   3.464
 8859SOL    HW227477   0.613   6.561   3.595
 8860SOL     OW27478   0.162   3.974   2.883
 8860SOL    HW127479   0.119   3.884   2.880
 8860SOL    HW227480   0.120   4.033   2.814
 8861SOL     OW27481   3.894   2.963   1.024
 8861SOL    HW127482   3.961   3.020   1.073
 8861SOL    HW227483   3.808   2.962   1.075
 8862SOL     OW27484   4.642   4.822   4.904
 8862SOL    HW127485   4.679   4.912   4.924
 8862SOL    HW227486   4.715   4.754   4.911
 8863SOL     OW27487   2.129   3.891   3.140
 8863SOL    HW127488   2.105   3.795   3.155
 8863SOL    HW227489   2.148   3.904   3.042
 8864SOL     OW27490   6.494   2.103   5.212
 8864SOL    HW127491   6.405   2.097   5.166
 8864SOL    HW227492   6.518   2.199   5.225
 8865SOL     OW27493   2.951   1.280   0.726
 8865SOL    HW127494   2.999   1.211   0.672
 8865SOL    HW227495   2.895   1.236   0.795
 8866SOL     OW27496   5.989   6.608   2.016
 8866SOL    HW127497   5.919   6.543   1.985
 8866SOL    HW227498   5.959   6.652   2.101
 8867SOL     OW27499   6.440   3.429   2.375
 8867SOL    HW127500   6.515   3.391   2.429
 8867SOL    HW227501   6.365   3.456   2.435
 8868SOL     OW27502   0.121   3.231   3.508
 8868SOL    HW127503   0.025   3.256   3.519
 8868SOL    HW227504   0.163   3.219   3.598
 8869SOL     OW27505   3.924   0.065   3.337
 8869SOL    HW127506   4.010   0.026   3.371
 8869SOL    HW227507   3.932   0.164   3.332
 8870SOL     OW27508   1.615   0.525   2.908
 8870SOL    HW127509   1.524   0.487   2.890
 8870SOL    HW227510   1.622   0.616   2.867
 8871SOL     OW27511   6.729   0.124   2.150
 8871SOL    HW127512   6.763   0.093   2.061
 8871SOL    HW227513   6.630   0.112   2.154
 8872SOL     OW27514   6.695   4.027   3.672
 8872SOL    HW127515   6.666   4.114   3.712
 8872SOL    HW227516   6.783   4.039   3.626
 8873SOL     OW27517   2.214   1.969   2.479
 8873SOL    HW127518   2.270   1.887   2.494
 8873SOL    HW227519   2.157   1.955   2.398
 8874SOL     OW27520   2.561   6.663   0.367
 8874SOL    HW127521   2.592   6.643   0.460
 8874SOL    HW227522   2.640   6.679   0.308
 8875SOL     OW27523   6.756   3.257   4.151
 8875SOL    HW127524   6.669   3.295   4.183
 8875SOL    HW227525   6.794   3.316   4.080
 8876SOL     OW27526   4.440   0.038   6.803
 8876SOL    HW127527   4.384   0.068   6.727
 8876SOL    HW227528   4.383   7.014   6.872
 8877SOL     OW27529   0.891   4.720   1.118
 8877SOL    HW127530   0.901   4.671   1.032
 8877SOL    HW227531   0.948   4.803   1.115
 8878SOL     OW27532   4.866   4.081   1.195
 8878SOL    HW127533   4.919   4.166   1.200
 8878SOL    HW227534   4.909   4.019   1.129
 8879SOL     OW27535   6.723   4.387   2.645
 8879SOL    HW127536   6.694   4.472   2.687
 8879SOL    HW227537   6.645   4.325   2.638
 8880SOL     OW27538   4.292   1.431   3.069
 8880SOL    HW127539   4.373   1.373   3.078
 8880SOL    HW227540   4.272   1.447   2.973
 8881SOL     OW27541   3.843   4.840   4.101
 8881SOL    HW127542   3.924   4.807   4.150
 8881SOL    HW227543   3.856   4.825   4.003
 8882SOL     OW27544   4.153   0.855   0.184
 8882SOL    HW127545   4.168   0.813   0.273
 8882SOL    HW227546   4.062   0.897   0.181
 8883SOL     OW27547   7.002   6.471   4.266
 8883SOL    HW127548   7.003   6.515   4.176
 8883SOL    HW227549   0.069   6.490   4.313
 8884SOL     OW27550   4.905   3.684   5.558
 8884SOL    HW127551   4.825   3.630   5.531
 8884SOL    HW227552   4.982   3.623   5.575
 8885SOL     OW27553   5.709   5.970   0.891
 8885SOL    HW127554   5.789   5.954   0.949
 8885SOL    HW227555   5.626   5.971   0.947
 8886SOL     OW27556   3.825   6.075   6.852
 8886SOL    HW127557   3.844   6.038   6.761
 8886SOL    HW227558   3.907   6.067   6.909
 8887SOL     OW27559   4.693   0.246   1.526
 8887SOL    HW127560   4.631   0.246   1.605
 8887SOL    HW227561   4.784   0.275   1.555
 8888SOL     OW27562   3.374   2.114   2.496
 8888SOL    HW127563   3.284   2.101   2.456
 8888SOL    HW227564   3.433   2.161   2.430
 8889SOL     OW27565   1.455   5.195   6.687
 8889SOL    HW127566   1.489   5.158   6.601
 8889SOL    HW227567   1.363   5.232   6.673
 8890SOL     OW27568   0.640   6.534   0.200
 8890SOL    HW127569   0.696   6.456   0.174
 8890SOL    HW227570   0.698   6.615   0.208
 8891SOL     OW27571   6.333   4.145   5.673
 8891SOL    HW127572   6.366   4.226   5.625
 8891SOL    HW227573   6.341   4.065   5.613
 8892SOL     OW27574   2.712   5.694   4.750
 8892SOL    HW127575   2.783   5.627   4.730
 8892SOL    HW227576   2.627   5.667   4.705
 8893SOL     OW27577   1.268   4.995   5.217
 8893SOL    HW127578   1.267   5.081   5.166
 8893SOL    HW227579   1.338   4.935   5.180
 8894SOL     OW27580   4.505   1.751   1.287
 8894SOL    HW127581   4.566   1.774   1.363
 8894SOL    HW227582   4.415   1.790   1.303
 8895SOL     OW27583   6.723   3.800   0.814
 8895SOL    HW127584   6.697   3.733   0.883
 8895SOL    HW227585   6.715   3.759   0.723
 8896SOL     OW27586   0.390   2.195   3.894
 8896SOL    HW127587   0.432   2.216   3.982
 8896SOL    HW227588   0.385   2.096   3.882
 8897SOL     OW27589   1.669   4.880   4.037
 8897SOL    HW127590   1.629   4.934   4.112
 8897SOL    HW227591   1.612   4.799   4.020
 8898SOL     OW27592   4.855   3.897   2.416
 8898SOL    HW127593   4.865   3.810   2.368
 8898SOL    HW227594   4.859   3.881   2.514
 8899SOL     OW27595   1.538   3.844   3.589
 8899SOL    HW127596   1.592   3.918   3.549
 8899SOL    HW227597   1.484   3.879   3.666
 8900SOL     OW27598   4.627   2.292   4.314
 8900SOL    HW127599   4.642   2.216   4.251
 8900SOL    HW227600   4.588   2.370   4.264
 8901SOL     OW27601   1.410   4.874   4.275
 8901SOL    HW127602   1.360   4.843   4.195
 8901SOL    HW227603   1.349   4.876   4.354
 8902SOL     OW27604   0.582   4.819   0.441
 8902SOL    HW127605   0.668   4.834   0.393
 8902SOL    HW227606   0.542   4.731   0.413
 8903SOL     OW27607   0.860   0.174   5.518
 8903SOL    HW127608   0.953   0.203   5.541
 8903SOL    HW227609   0.819   0.239   5.455
 8904SOL     OW27610   0.463   0.990   3.377
 8904SOL    HW127611   0.452   1.084   3.409
 8904SOL    HW227612   0.403   0.930   3.429
 8905SOL     OW27613   1.203   3.595   2.600
 8905SOL    HW127614   1.252   3.648   2.531
 8905SOL    HW227615   1.209   3.641   2.688
 8906SOL     OW27616   5.931   0.081   0.082
 8906SOL    HW127617   5.857   0.118   0.139
 8906SOL    HW227618   6.019   0.109   0.119
 8907SOL     OW27619   2.908   3.502   4.905
 8907SOL    HW127620   2.896   3.416   4.855
 8907SOL    HW227621   2.899   3.485   5.003
 8908SOL     OW27622   1.599   4.207   6.838
 8908SOL    HW127623   1.543   4.130   6.868
 8908SOL    HW227624   1.540   4.283   6.811
 8909SOL     OW27625   1.235   6.249   1.451
 8909SOL    HW127626   1.168   6.312   1.489
 8909SOL    HW227627   1.295   6.216   1.524
 8910SOL     OW27628   1.624   0.308   3.429
 8910SOL    HW127629   1.662   0.399   3.448
 8910SOL    HW227630   1.699   0.242   3.421
 8911SOL     OW27631   4.388   2.342   4.907
 8911SOL    HW127632   4.334   2.395   4.972
 8911SOL    HW227633   4.337   2.261   4.880
 8912SOL     OW27634   3.747   3.411   4.032
 8912SOL    HW127635   3.765   3.451   3.942
 8912SOL    HW227636   3.807   3.333   4.046
 8913SOL     OW27637   5.335   6.343   0.137
 8913SOL    HW127638   5.311   6.248   0.155
 8913SOL    HW227639   5.335   6.394   0.223
 8914SOL     OW27640   4.909   5.128   6.176
 8914SOL    HW127641   4.928   5.035   6.142
 8914SOL    HW227642   4.883   5.187   6.100
 8915SOL     OW27643   1.414   1.021   3.074
 8915SOL    HW127644   1.343   1.088   3.096
 8915SOL    HW227645   1.470   1.054   2.999
 8916SOL     OW27646   5.026   1.069   0.842
 8916SOL    HW127647   5.055   1.163   0.861
 8916SOL    HW227648   5.056   1.009   0.916
 8917SOL     OW27649   5.903   1.833   0.430
 8917SOL    HW127650   5.811   1.819   0.393
 8917SOL    HW227651   5.966   1.852   0.355
 8918SOL     OW27652   0.763   3.691   2.476
 8918SOL    HW127653   0.769   3.719   2.380
 8918SOL    HW227654   0.811   3.605   2.489
 8919SOL     OW27655   6.243   3.138   1.579
 8919SOL    HW127656   6.268   3.134   1.676
 8919SOL    HW227657   6.148   3.108   1.569
 8920SOL     OW27658   6.603   0.925   6.934
 8920SOL    HW127659   6.547   0.991   6.984
 8920SOL    HW227660   6.601   0.945   6.836
 8921SOL     OW27661   2.126   3.355   2.424
 8921SOL    HW127662   2.124   3.440   2.371
 8921SOL    HW227663   2.068   3.367   2.505
 8922SOL     OW27664   4.357   5.716   4.306
 8922SOL    HW127665   4.372   5.617   4.308
 8922SOL    HW227666   4.259   5.735   4.302
 8923SOL     OW27667   2.334   1.614   4.659
 8923SOL    HW127668   2.333   1.642   4.755
 8923SOL    HW227669   2.240   1.596   4.629
 8924SOL     OW27670   6.572   4.987   5.549
 8924SOL    HW127671   6.566   4.916   5.620
 8924SOL    HW227672   6.576   5.077   5.593
 8925SOL     OW27673   0.804   6.229   2.484
 8925SOL    HW127674   0.833   6.321   2.458
 8925SOL    HW227675   0.880   6.166   2.474
 8926SOL     OW27676   5.944   1.053   6.422
 8926SOL    HW127677   5.989   1.122   6.367
 8926SOL    HW227678   5.860   1.090   6.462
 8927SOL     OW27679   1.627   0.748   5.917
 8927SOL    HW127680   1.565   0.724   5.842
 8927SOL    HW227681   1.584   0.729   6.004
 8928SOL     OW27682   0.391   6.846   5.277
 8928SOL    HW127683   0.328   6.835   5.353
 8928SOL    HW227684   0.379   6.938   5.237
 8929SOL     OW27685   0.432   1.641   3.784
 8929SOL    HW127686   0.503   1.571   3.798
 8929SOL    HW227687   0.348   1.613   3.829
 8930SOL     OW27688   2.196   4.835   3.350
 8930SOL    HW127689   2.157   4.927   3.345
 8930SOL    HW227690   2.123   4.767   3.345
 8931SOL     OW27691   4.377   2.839   0.347
 8931SOL    HW127692   4.308   2.880   0.287
 8931SOL    HW227693   4.343   2.752   0.382
 8932SOL     OW27694   0.953   3.497   3.620
 8932SOL    HW127695   0.890   3.419   3.627
 8932SOL    HW227696   1.009   3.486   3.538
 8933SOL     OW27697   3.822   2.231   5.173
 8933SOL    HW127698   3.770   2.155   5.212
 8933SOL    HW227699   3.901   2.195   5.123
 8934SOL     OW27700   2.364   5.820   2.959
 8934SOL    HW127701   2.423   5.813   3.039
 8934SOL    HW227702   2.385   5.745   2.896
 8935SOL     OW27703   6.905   4.675   0.709
 8935SOL    HW127704   6.976   4.725   0.660
 8935SOL    HW227705   6.846   4.628   0.643
 8936SOL     OW27706   3.515   2.844   0.861
 8936SOL    HW127707   3.437   2.786   0.881
 8936SOL    HW227708   3.537   2.900   0.942
 8937SOL     OW27709   0.454   6.351   6.343
 8937SOL    HW127710   0.378   6.396   6.390
 8937SOL    HW227711   0.473   6.263   6.386
 8938SOL     OW27712   5.236   6.319   1.691
 8938SOL    HW127713   5.160   6.311   1.755
 8938SOL    HW227714   5.289   6.235   1.691
 8939SOL     OW27715   4.289   2.099   4.814
 8939SOL    HW127716   4.302   2.047   4.898
 8939SOL    HW227717   4.192   2.121   4.802
 8940SOL     OW27718   5.773   0.635   2.839
 8940SOL    HW127719   5.778   0.545   2.797
 8940SOL    HW227720   5.681   0.672   2.827
 8941SOL     OW27721   5.074   1.852   6.043
 8941SOL    HW127722   5.166   1.820   6.065
 8941SOL    HW227723   5.027   1.783   5.988
 8942SOL     OW27724   1.120   3.079   5.282
 8942SOL    HW127725   1.126   2.980   5.268
 8942SOL    HW227726   1.104   3.098   5.379
 8943SOL     OW27727   5.364   3.529   1.088
 8943SOL    HW127728   5.311   3.611   1.110
 8943SOL    HW227729   5.386   3.480   1.172
 8944SOL     OW27730   4.060   5.487   1.125
 8944SOL    HW127731   4.069   5.463   1.222
 8944SOL    HW227732   4.058   5.403   1.070
 8945SOL     OW27733   2.147   1.017   4.370
 8945SOL    HW127734   2.203   0.959   4.312
 8945SOL    HW227735   2.058   1.031   4.328
 8946SOL     OW27736   3.927   1.441   4.337
 8946SOL    HW127737   3.856   1.388   4.384
 8946SOL    HW227738   4.015   1.426   4.381
 8947SOL     OW27739   3.960   3.971   5.041
 8947SOL    HW127740   4.016   3.978   5.124
 8947SOL    HW227741   3.999   3.903   4.980
 8948SOL     OW27742   6.367   5.044   2.653
 8948SOL    HW127743   6.426   5.054   2.572
 8948SOL    HW227744   6.274   5.073   2.629
 8949SOL     OW27745   2.393   5.770   0.021
 8949SOL    HW127746   2.352   5.837   6.978
 8949SOL    HW227747   2.434   5.696   6.986
 8950SOL     OW27748   4.733   2.521   4.622
 8950SOL    HW127749   4.634   2.538   4.622
 8950SOL    HW227750   4.751   2.429   4.588
 8951SOL     OW27751   2.547   2.305   6.041
 8951SOL    HW127752   2.576   2.382   6.098
 8951SOL    HW227753   2.538   2.335   5.946
 8952SOL     OW27754   6.483   0.382   3.241
 8952SOL    HW127755   6.485   0.386   3.141
 8952SOL    HW227756   6.400   0.427   3.275
 8953SOL     OW27757   1.878   4.214   6.838
 8953SOL    HW127758   1.859   4.268   6.919
 8953SOL    HW227759   1.793   4.173   6.804
 8954SOL     OW27760   1.596   5.975   6.105
 8954SOL    HW127761   1.630   6.060   6.065
 8954SOL    HW227762   1.498   5.964   6.083
 8955SOL     OW27763   5.984   3.632   3.631
 8955SOL    HW127764   5.955   3.680   3.713
 8955SOL    HW227765   5.910   3.575   3.597
 8956SOL     OW27766   0.952   0.967   5.566
 8956SOL    HW127767   0.890   0.898   5.528
 8956SOL    HW227768   1.019   0.993   5.497
 8957SOL     OW27769   2.839   5.218   2.004
 8957SOL    HW127770   2.835   5.203   2.103
 8957SOL    HW227771   2.931   5.251   1.979
 8958SOL     OW27772   2.402   0.541   3.951
 8958SOL    HW127773   2.456   0.599   3.890
 8958SOL    HW227774   2.451   0.529   4.037
 8959SOL     OW27775   2.820   4.655   1.511
 8959SOL    HW127776   2.894   4.603   1.554
 8959SOL    HW227777   2.833   4.655   1.412
 8960SOL     OW27778   3.912   6.191   1.355
 8960SOL    HW127779   3.995   6.140   1.373
 8960SOL    HW227780   3.855   6.142   1.289
 8961SOL     OW27781   1.443   2.514   3.840
 8961SOL    HW127782   1.397   2.452   3.904
 8961SOL    HW227783   1.444   2.607   3.877
 8962SOL     OW27784   5.010   0.425   3.712
 8962SOL    HW127785   5.103   0.430   3.676
 8962SOL    HW227786   4.945   0.433   3.636
 8963SOL     OW27787   0.153   0.715   3.775
 8963SOL    HW127788   0.152   0.634   3.833
 8963SOL    HW227789   0.059   0.747   3.761
 8964SOL     OW27790   6.393   4.707   2.897
 8964SOL    HW127791   6.404   4.804   2.920
 8964SOL    HW227792   6.390   4.653   2.981
 8965SOL     OW27793   1.269   5.563   1.296
 8965SOL    HW127794   1.181   5.609   1.280
 8965SOL    HW227795   1.261   5.466   1.271
 8966SOL     OW27796   2.980   3.072   5.238
 8966SOL    HW127797   3.024   3.114   5.159
 8966SOL    HW227798   3.042   3.006   5.280
 8967SOL     OW27799   4.241   0.220   0.557
 8967SOL    HW127800   4.217   0.132   0.597
 8967SOL    HW227801   4.223   0.218   0.458
 8968SOL     OW27802   5.481   5.444   2.822
 8968SOL    HW127803   5.493   5.515   2.892
 8968SOL    HW227804   5.556   5.449   2.756
 8969SOL     OW27805   6.199   1.296   4.411
 8969SOL    HW127806   6.134   1.220   4.407
 8969SOL    HW227807   6.228   1.321   4.319
 8970SOL     OW27808   3.846   2.114   1.600
 8970SOL    HW127809   3.793   2.168   1.534
 8970SOL    HW227810   3.877   2.173   1.674
 8971SOL     OW27811   4.392   5.562   2.795
 8971SOL    HW127812   4.338   5.607   2.865
 8971SOL    HW227813   4.489   5.581   2.810
 8972SOL     OW27814   5.245   0.833   4.868
 8972SOL    HW127815   5.207   0.912   4.819
 8972SOL    HW227816   5.245   0.753   4.808
 8973SOL     OW27817   1.395   4.763   0.326
 8973SOL    HW127818   1.376   4.676   0.280
 8973SOL    HW227819   1.361   4.759   0.420
 8974SOL     OW27820   0.537   2.764   4.184
 8974SOL    HW127821   0.445   2.778   4.218
 8974SOL    HW227822   0.591   2.847   4.197
 8975SOL     OW27823   2.828   0.148   0.202
 8975SOL    HW127824   2.879   0.069   0.237
 8975SOL    HW227825   2.732   0.139   0.228
 8976SOL     OW27826   0.239   5.306   4.970
 8976SOL    HW127827   0.315   5.355   4.927
 8976SOL    HW227828   0.158   5.365   4.970
 8977SOL     OW27829   5.892   1.210   5.971
 8977SOL    HW127830   5.898   1.111   5.978
 8977SOL    HW227831   5.982   1.251   5.986
 8978SOL     OW27832   5.420   5.993   0.550
 8978SOL    HW127833   5.392   5.933   0.625
 8978SOL    HW227834   5.498   6.048   0.578
 8979SOL     OW27835   1.717   4.813   5.027
 8979SOL    HW127836   1.794   4.852   5.077
 8979SOL    HW227837   1.706   4.859   4.939
 8980SOL     OW27838   4.100   3.259   3.984
 8980SOL    HW127839   4.181   3.200   3.987
 8980SOL    HW227840   4.099   3.320   4.063
 8981SOL     OW27841   3.353   1.189   5.199
 8981SOL    HW127842   3.414   1.211   5.275
 8981SOL    HW227843   3.261   1.172   5.234
 8982SOL     OW27844   3.936   4.480   0.345
 8982SOL    HW127845   3.909   4.547   0.414
 8982SOL    HW227846   3.855   4.446   0.298
 8983SOL     OW27847   4.799   5.019   0.422
 8983SOL    HW127848   4.703   4.996   0.408
 8983SOL    HW227849   4.848   5.014   0.335
 8984SOL     OW27850   1.827   5.853   3.340
 8984SOL    HW127851   1.824   5.946   3.376
 8984SOL    HW227852   1.812   5.855   3.241
 8985SOL     OW27853   3.671   3.116   5.836
 8985SOL    HW127854   3.706   3.151   5.749
 8985SOL    HW227855   3.629   3.190   5.887
 8986SOL     OW27856   3.573   5.883   2.725
 8986SOL    HW127857   3.604   5.848   2.637
 8986SOL    HW227858   3.502   5.953   2.710
 8987SOL     OW27859   5.401   6.492   1.893
 8987SOL    HW127860   5.334   6.458   1.827
 8987SOL    HW227861   5.364   6.482   1.986
 8988SOL     OW27862   0.496   5.365   5.248
 8988SOL    HW127863   0.486   5.285   5.188
 8988SOL    HW227864   0.548   5.340   5.329
 8989SOL     OW27865   3.622   3.153   6.868
 8989SOL    HW127866   3.661   3.088   6.802
 8989SOL    HW227867   3.687   3.227   6.883
 8990SOL     OW27868   0.434   6.423   3.863
 8990SOL    HW127869   0.459   6.382   3.776
 8990SOL    HW227870   0.503   6.491   3.889
 8991SOL     OW27871   1.019   2.004   5.404
 8991SOL    HW127872   0.924   2.002   5.372
 8991SOL    HW227873   1.022   1.974   5.500
 8992SOL     OW27874   6.221   2.718   0.037
 8992SOL    HW127875   6.315   2.746   0.021
 8992SOL    HW227876   6.161   2.765   6.992
 8993SOL     OW27877   4.960   2.439   0.226
 8993SOL    HW127878   5.035   2.409   0.167
 8993SOL    HW227879   4.997   2.462   0.316
 8994SOL     OW27880   2.122   5.544   4.116
 8994SOL    HW127881   2.028   5.509   4.111
 8994SOL    HW227882   2.177   5.502   4.044
 8995SOL     OW27883   7.012   1.439   0.535
 8995SOL    HW127884   7.001   1.522   0.482
 8995SOL    HW227885   0.087   1.432   0.567
 8996SOL     OW27886   4.517   5.314   6.226
 8996SOL    HW127887   4.554   5.340   6.137
 8996SOL    HW227888   4.519   5.394   6.287
 8997SOL     OW27889   6.251   0.795   4.943
 8997SOL    HW127890   6.201   0.758   4.865
 8997SOL    HW227891   6.346   0.812   4.918
 8998SOL     OW27892   6.091   2.849   4.293
 8998SOL    HW127893   6.071   2.905   4.213
 8998SOL    HW227894   6.016   2.856   4.358
 8999SOL     OW27895   3.868   0.285   6.158
 8999SOL    HW127896   3.896   0.344   6.082
 8999SOL    HW227897   3.894   0.191   6.139
 9000SOL     OW27898   1.549   3.998   1.309
 9000SOL    HW127899   1.498   4.082   1.293
 9000SOL    HW227900   1.608   4.009   1.389
 9001SOL     OW27901   1.007   5.208   2.930
 9001SOL    HW127902   1.025   5.257   3.015
 9001SOL    HW227903   1.060   5.248   2.856
 9002SOL     OW27904   1.200   4.357   0.349
 9002SOL    HW127905   1.241   4.266   0.355
 9002SOL    HW227906   1.127   4.365   0.417
 9003SOL     OW27907   5.851   0.283   1.168
 9003SOL    HW127908   5.898   0.357   1.120
 9003SOL    HW227909   5.754   0.306   1.179
 9004SOL     OW27910   3.874   4.531   6.961
 9004SOL    HW127911   3.810   4.606   6.943
 9004SOL    HW227912   3.945   4.562   0.005
 9005SOL     OW27913   4.882   1.236   4.806
 9005SOL    HW127914   4.934   1.156   4.836
 9005SOL    HW227915   4.926   1.319   4.840
 9006SOL     OW27916   3.559   5.873   0.513
 9006SOL    HW127917   3.638   5.934   0.523
 9006SOL    HW227918   3.582   5.782   0.546
 9007SOL     OW27919   2.666   0.770   2.729
 9007SOL    HW127920   2.688   0.867   2.718
 9007SOL    HW227921   2.750   0.717   2.734
 9008SOL     OW27922   0.400   5.586   2.863
 9008SOL    HW127923   0.453   5.570   2.780
 9008SOL    HW227924   0.426   5.674   2.903
 9009SOL     OW27925   3.828   5.988   1.181
 9009SOL    HW127926   3.914   5.937   1.183
 9009SOL    HW227927   3.787   5.981   1.090
 9010SOL     OW27928   1.799   6.288   4.125
 9010SOL    HW127929   1.708   6.323   4.149
 9010SOL    HW227930   1.832   6.229   4.199
 9011SOL     OW27931   2.828   1.871   2.153
 9011SOL    HW127932   2.886   1.931   2.099
 9011SOL    HW227933   2.746   1.920   2.183
 9012SOL     OW27934   1.760   6.365   6.325
 9012SOL    HW127935   1.780   6.351   6.228
 9012SOL    HW227936   1.677   6.314   6.349
 9013SOL     OW27937   1.778   6.544   4.008
 9013SOL    HW127938   1.821   6.478   3.945
 9013SOL    HW227939   1.808   6.524   4.101
 9014SOL     OW27940   5.422   2.968   3.418
 9014SOL    HW127941   5.501   2.909   3.401
 9014SOL    HW227942   5.372   2.935   3.498
 9015SOL     OW27943   5.311   1.552   6.878
 9015SOL    HW127944   5.375   1.527   6.805
 9015SOL    HW227945   5.217   1.541   6.846
 9016SOL     OW27946   5.766   5.655   6.598
 9016SOL    HW127947   5.719   5.617   6.518
 9016SOL    HW227948   5.865   5.648   6.584
 9017SOL     OW27949   4.022   0.419   4.612
 9017SOL    HW127950   4.068   0.464   4.689
 9017SOL    HW227951   4.050   0.323   4.607
 9018SOL     OW27952   4.014   3.939   6.459
 9018SOL    HW127953   4.067   3.951   6.375
 9018SOL    HW227954   3.923   3.979   6.447
 9019SOL     OW27955   0.620   3.597   3.755
 9019SOL    HW127956   0.692   3.594   3.825
 9019SOL    HW227957   0.630   3.518   3.694
 9020SOL     OW27958   5.629   6.106   2.298
 9020SOL    HW127959   5.582   6.054   2.370
 9020SOL    HW227960   5.727   6.106   2.316
 9021SOL     OW27961   0.681   0.833   4.549
 9021SOL    HW127962   0.595   0.808   4.503
 9021SOL    HW227963   0.676   0.808   4.645
 9022SOL     OW27964   4.166   3.009   6.242
 9022SOL    HW127965   4.220   3.002   6.158
 9022SOL    HW227966   4.200   2.944   6.309
 9023SOL     OW27967   6.073   3.927   0.869
 9023SOL    HW127968   6.055   4.025   0.865
 9023SOL    HW227969   6.172   3.911   0.873
 9024SOL     OW27970   1.566   5.387   6.268
 9024SOL    HW127971   1.551   5.378   6.169
 9024SOL    HW227972   1.559   5.483   6.294
 9025SOL     OW27973   0.981   5.661   1.329
 9025SOL    HW127974   0.968   5.761   1.330
 9025SOL    HW227975   1.001   5.629   1.422
 9026SOL     OW27976   4.847   1.616   0.112
 9026SOL    HW127977   4.850   1.672   0.195
 9026SOL    HW227978   4.830   1.674   0.033
 9027SOL     OW27979   1.000   4.020   3.036
 9027SOL    HW127980   1.016   4.009   3.134
 9027SOL    HW227981   0.951   3.940   3.002
 9028SOL     OW27982   3.220   4.652   5.844
 9028SOL    HW127983   3.281   4.644   5.765
 9028SOL    HW227984   3.185   4.561   5.869
 9029SOL     OW27985   4.003   6.480   4.693
 9029SOL    HW127986   4.032   6.555   4.634
 9029SOL    HW227987   3.976   6.516   4.783
 9030SOL     OW27988   2.505   1.623   2.738
 9030SOL    HW127989   2.436   1.670   2.793
 9030SOL    HW227990   2.569   1.689   2.699
 9031SOL     OW27991   4.287   6.861   4.517
 9031SOL    HW127992   4.339   6.905   4.444
 9031SOL    HW227993   4.345   6.795   4.565
 9032SOL     OW27994   4.858   3.774   1.903
 9032SOL    HW127995   4.777   3.796   1.848
 9032SOL    HW227996   4.873   3.845   1.971
 9033SOL     OW27997   0.819   6.759   2.982
 9033SOL    HW127998   0.846   6.791   3.073
 9033SOL    HW227999   0.764   6.829   2.937
 9034SOL     OW28000   4.225   6.097   4.010
 9034SOL    HW128001   4.138   6.146   4.020
 9034SOL    HW228002   4.289   6.125   4.081
 9035SOL     OW28003   1.926   4.769   6.436
 9035SOL    HW128004   1.895   4.793   6.528
 9035SOL    HW228005   1.894   4.837   6.371
 9036SOL     OW28006   1.347   4.125   5.257
 9036SOL    HW128007   1.440   4.109   5.223
 9036SOL    HW228008   1.331   4.067   5.337
 9037SOL     OW28009   1.363   2.133   2.763
 9037SOL    HW128010   1.428   2.088   2.824
 9037SOL    HW228011   1.280   2.078   2.756
 9038SOL     OW28012   4.396   3.312   5.305
 9038SOL    HW128013   4.315   3.306   5.247
 9038SOL    HW228014   4.404   3.230   5.360
 9039SOL     OW28015   3.822   5.910   6.611
 9039SOL    HW128016   3.748   5.886   6.549
 9039SOL    HW228017   3.903   5.856   6.589
 9040SOL     OW28018   2.678   1.522   1.312
 9040SOL    HW128019   2.631   1.551   1.228
 9040SOL    HW228020   2.649   1.579   1.388
 9041SOL     OW28021   6.813   2.419   1.808
 9041SOL    HW128022   6.769   2.380   1.727
 9041SOL    HW228023   6.901   2.375   1.822
 9042SOL     OW28024   3.735   6.232   0.142
 9042SOL    HW128025   3.710   6.261   0.050
 9042SOL    HW228026   3.776   6.140   0.138
 9043SOL     OW28027   3.123   2.038   0.547
 9043SOL    HW128028   3.108   1.968   0.477
 9043SOL    HW228029   3.180   2.000   0.620
 9044SOL     OW28030   0.982   1.137   0.199
 9044SOL    HW128031   1.000   1.232   0.175
 9044SOL    HW228032   1.068   1.090   0.217
 9045SOL     OW28033   4.095   1.430   3.692
 9045SOL    HW128034   4.060   1.426   3.598
 9045SOL    HW228035   4.019   1.425   3.756
 9046SOL     OW28036   3.366   3.843   2.326
 9046SOL    HW128037   3.329   3.930   2.294
 9046SOL    HW228038   3.342   3.830   2.422
 9047SOL     OW28039   1.206   3.667   5.888
 9047SOL    HW128040   1.126   3.710   5.848
 9047SOL    HW228041   1.266   3.633   5.816
 9048SOL     OW28042   6.483   1.979   6.048
 9048SOL    HW128043   6.541   2.028   5.984
 9048SOL    HW228044   6.388   1.984   6.018
 9049SOL     OW28045   3.238   0.048   6.239
 9049SOL    HW128046   3.212   6.974   6.214
 9049SOL    HW228047   3.179   0.079   6.314
 9050SOL     OW28048   0.739   5.072   0.214
 9050SOL    HW128049   0.808   5.092   0.284
 9050SOL    HW228050   0.784   5.032   0.134
 9051SOL     OW28051   2.465   0.940   1.512
 9051SOL    HW128052   2.473   1.028   1.560
 9051SOL    HW228053   2.370   0.926   1.485
 9052SOL     OW28054   1.238   2.368   5.389
 9052SOL    HW128055   1.311   2.305   5.413
 9052SOL    HW228056   1.274   2.461   5.381
 9053SOL     OW28057   1.701   0.928   6.944
 9053SOL    HW128058   1.681   0.843   6.994
 9053SOL    HW228059   1.622   0.953   6.889
 9054SOL     OW28060   2.269   6.042   2.449
 9054SOL    HW128061   2.171   6.060   2.456
 9054SOL    HW228062   2.311   6.050   2.540
 9055SOL     OW28063   0.175   3.975   4.485
 9055SOL    HW128064   0.079   3.955   4.505
 9055SOL    HW228065   0.184   4.069   4.455
 9056SOL     OW28066   6.149   3.001   2.785
 9056SOL    HW128067   6.090   3.045   2.718
 9056SOL    HW228068   6.244   3.003   2.752
 9057SOL     OW28069   4.060   2.197   4.195
 9057SOL    HW128070   3.978   2.162   4.150
 9057SOL    HW228071   4.041   2.215   4.291
 9058SOL     OW28072   2.158   0.701   5.368
 9058SOL    HW128073   2.168   0.772   5.438
 9058SOL    HW228074   2.240   0.700   5.310
 9059SOL     OW28075   0.976   2.009   3.200
 9059SOL    HW128076   1.059   2.061   3.224
 9059SOL    HW228077   0.906   2.072   3.167
 9060SOL     OW28078   5.422   2.995   5.424
 9060SOL    HW128079   5.504   3.030   5.468
 9060SOL    HW228080   5.341   3.025   5.475
 9061SOL     OW28081   3.106   5.873   2.779
 9061SOL    HW128082   3.162   5.932   2.721
 9061SOL    HW228083   3.165   5.831   2.848
 9062SOL     OW28084   1.651   5.435   1.042
 9062SOL    HW128085   1.607   5.499   1.106
 9062SOL    HW228086   1.749   5.452   1.041
 9063SOL     OW28087   3.066   1.399   2.134
 9063SOL    HW128088   3.073   1.439   2.042
 9063SOL    HW228089   2.972   1.368   2.149
 9064SOL     OW28090   5.644   3.805   0.283
 9064SOL    HW128091   5.663   3.719   0.236
 9064SOL    HW228092   5.696   3.807   0.369
 9065SOL     OW28093   2.330   1.235   6.892
 9065SOL    HW128094   2.253   1.263   6.834
 9065SOL    HW228095   2.414   1.274   6.855
 9066SOL     OW28096   5.275   6.445   0.381
 9066SOL    HW128097   5.255   6.389   0.462
 9066SOL    HW228098   5.252   6.540   0.400
 9067SOL     OW28099   1.135   6.446   2.608
 9067SOL    HW128100   1.049   6.455   2.558
 9067SOL    HW228101   1.127   6.494   2.696
 9068SOL     OW28102   1.445   5.972   6.967
 9068SOL    HW128103   1.376   5.907   7.001
 9068SOL    HW228104   1.405   6.028   6.894
 9069SOL     OW28105   1.238   2.731   6.349
 9069SOL    HW128106   1.315   2.721   6.286
 9069SOL    HW228107   1.196   2.821   6.337
 9070SOL     OW28108   1.136   4.164   3.600
 9070SOL    HW128109   1.135   4.189   3.503
 9070SOL    HW228110   1.216   4.204   3.644
 9071SOL     OW28111   4.900   6.090   0.594
 9071SOL    HW128112   4.967   6.130   0.532
 9071SOL    HW228113   4.810   6.130   0.576
 9072SOL     OW28114   5.135   5.360   6.928
 9072SOL    HW128115   5.101   5.444   6.885
 9072SOL    HW228116   5.123   5.283   6.866
 9073SOL     OW28117   1.858   0.310   1.712
 9073SOL    HW128118   1.948   0.288   1.751
 9073SOL    HW228119   1.787   0.292   1.779
 9074SOL     OW28120   0.893   0.300   3.660
 9074SOL    HW128121   0.862   0.385   3.617
 9074SOL    HW228122   0.989   0.309   3.686
 9075SOL     OW28123   1.026   0.984   2.685
 9075SOL    HW128124   1.083   0.913   2.644
 9075SOL    HW228125   0.935   0.982   2.644
 9076SOL     OW28126   6.687   1.813   5.249
 9076SOL    HW128127   6.611   1.875   5.229
 9076SOL    HW228128   6.739   1.850   5.326
 9077SOL     OW28129   5.856   6.386   1.891
 9077SOL    HW128130   5.818   6.305   1.936
 9077SOL    HW228131   5.820   6.393   1.798
 9078SOL     OW28132   3.717   2.877   4.940
 9078SOL    HW128133   3.711   2.882   4.841
 9078SOL    HW228134   3.766   2.957   4.975
 9079SOL     OW28135   3.308   0.721   5.907
 9079SOL    HW128136   3.270   0.742   5.997
 9079SOL    HW228137   3.350   0.630   5.909
 9080SOL     OW28138   5.276   1.281   0.562
 9080SOL    HW128139   5.276   1.286   0.462
 9080SOL    HW228140   5.266   1.373   0.600
 9081SOL     OW28141   5.332   6.988   2.375
 9081SOL    HW128142   5.250   6.991   2.432
 9081SOL    HW228143   5.307   6.982   2.279
 9082SOL     OW28144   3.312   0.729   3.203
 9082SOL    HW128145   3.361   0.805   3.245
 9082SOL    HW228146   3.360   0.698   3.121
 9083SOL     OW28147   4.559   4.976   4.393
 9083SOL    HW128148   4.529   5.071   4.408
 9083SOL    HW228149   4.575   4.932   4.481
 9084SOL     OW28150   3.906   3.290   2.784
 9084SOL    HW128151   3.905   3.196   2.818
 9084SOL    HW228152   3.832   3.341   2.827
 9085SOL     OW28153   1.029   2.273   0.803
 9085SOL    HW128154   1.088   2.304   0.729
 9085SOL    HW228155   1.044   2.329   0.884
 9086SOL     OW28156   0.469   3.611   0.278
 9086SOL    HW128157   0.409   3.565   0.212
 9086SOL    HW228158   0.446   3.709   0.281
 9087SOL     OW28159   4.914   3.504   2.059
 9087SOL    HW128160   4.886   3.418   2.017
 9087SOL    HW228161   4.921   3.575   1.988
 9088SOL     OW28162   5.285   6.770   1.420
 9088SOL    HW128163   5.282   6.701   1.491
 9088SOL    HW228164   5.198   6.771   1.370
 9089SOL     OW28165   4.000   0.101   5.769
 9089SOL    HW128166   3.916   0.145   5.738
 9089SOL    HW228167   4.079   0.152   5.735
 9090SOL     OW28168   5.700   1.527   3.137
 9090SOL    HW128169   5.740   1.581   3.062
 9090SOL    HW228170   5.772   1.477   3.184
 9091SOL     OW28171   3.287   2.517   6.449
 9091SOL    HW128172   3.238   2.603   6.460
 9091SOL    HW228173   3.383   2.530   6.471
 9092SOL     OW28174   6.893   2.967   6.071
 9092SOL    HW128175   6.918   3.005   6.160
 9092SOL    HW228176   6.951   2.889   6.050
 9093SOL     OW28177   2.028   6.153   5.198
 9093SOL    HW128178   2.124   6.146   5.174
 9093SOL    HW228179   1.986   6.062   5.195
 9094SOL     OW28180   0.999   3.818   1.361
 9094SOL    HW128181   0.926   3.887   1.356
 9094SOL    HW228182   1.049   3.829   1.447
 9095SOL     OW28183   6.676   6.645   5.491
 9095SOL    HW128184   6.641   6.591   5.568
 9095SOL    HW228185   6.693   6.584   5.413
 9096SOL     OW28186   6.842   5.042   3.991
 9096SOL    HW128187   6.885   5.046   3.901
 9096SOL    HW228188   6.751   5.001   3.982
 9097SOL     OW28189   0.977   2.415   5.879
 9097SOL    HW128190   0.947   2.458   5.794
 9097SOL    HW228191   0.899   2.371   5.923
 9098SOL     OW28192   2.193   4.486   3.651
 9098SOL    HW128193   2.232   4.503   3.742
 9098SOL    HW228194   2.264   4.495   3.582
 9099SOL     OW28195   2.248   1.990   6.959
 9099SOL    HW128196   2.339   1.955   6.933
 9099SOL    HW228197   2.256   2.085   6.989
 9100SOL     OW28198   1.313   4.406   3.551
 9100SOL    HW128199   1.374   4.327   3.559
 9100SOL    HW228200   1.348   4.481   3.606
 9101SOL     OW28201   0.670   2.812   0.466
 9101SOL    HW128202   0.754   2.866   0.474
 9101SOL    HW228203   0.609   2.835   0.541
 9102SOL     OW28204   4.287   6.772   2.840
 9102SOL    HW128205   4.355   6.844   2.856
 9102SOL    HW228206   4.322   6.706   2.773
 9103SOL     OW28207   6.393   0.741   1.142
 9103SOL    HW128208   6.349   0.785   1.064
 9103SOL    HW228209   6.492   0.754   1.135
 9104SOL     OW28210   6.192   1.812   6.196
 9104SOL    HW128211   6.244   1.838   6.277
 9104SOL    HW228212   6.242   1.740   6.147
 9105SOL     OW28213   2.168   1.145   5.607
 9105SOL    HW128214   2.140   1.233   5.568
 9105SOL    HW228215   2.267   1.143   5.618
 9106SOL     OW28216   1.393   3.536   0.054
 9106SOL    HW128217   1.322   3.566   7.009
 9106SOL    HW228218   1.357   3.544   0.147
 9107SOL     OW28219   3.400   1.756   0.341
 9107SOL    HW128220   3.302   1.774   0.349
 9107SOL    HW228221   3.421   1.726   0.248
 9108SOL     OW28222   6.617   5.475   5.879
 9108SOL    HW128223   6.596   5.524   5.963
 9108SOL    HW228224   6.623   5.539   5.803
 9109SOL     OW28225   5.810   3.976   2.701
 9109SOL    HW128226   5.842   4.005   2.611
 9109SOL    HW228227   5.857   4.029   2.772
 9110SOL     OW28228   1.265   5.946   3.243
 9110SOL    HW128229   1.193   5.968   3.309
 9110SOL    HW228230   1.313   5.864   3.272
 9111SOL     OW28231   4.377   2.213   6.466
 9111SOL    HW128232   4.428   2.137   6.508
 9111SOL    HW228233   4.422   2.299   6.487
 9112SOL     OW28234   1.281   5.382   1.567
 9112SOL    HW128235   1.337   5.414   1.643
 9112SOL    HW228236   1.184   5.393   1.590
 9113SOL     OW28237   5.611   0.478   4.537
 9113SOL    HW128238   5.646   0.562   4.577
 9113SOL    HW228239   5.587   0.494   4.441
 9114SOL     OW28240   1.016   6.449   6.037
 9114SOL    HW128241   1.030   6.400   5.951
 9114SOL    HW228242   0.990   6.544   6.018
 9115SOL     OW28243   4.824   4.140   4.968
 9115SOL    HW128244   4.742   4.150   5.025
 9115SOL    HW228245   4.822   4.052   4.922
 9116SOL     OW28246   1.828   0.365   3.035
 9116SOL    HW128247   1.751   0.416   2.998
 9116SOL    HW228248   1.876   0.318   2.961
 9117SOL     OW28249   2.534   6.334   0.197
 9117SOL    HW128250   2.540   6.415   0.255
 9117SOL    HW228251   2.605   6.269   0.223
 9118SOL     OW28252   6.677   3.862   2.178
 9118SOL    HW128253   6.632   3.895   2.261
 9118SOL    HW228254   6.768   3.901   2.172
 9119SOL     OW28255   3.051   0.556   0.051
 9119SOL    HW128256   3.104   0.484   0.096
 9119SOL    HW228257   3.012   0.617   0.121
 9120SOL     OW28258   6.190   3.929   4.871
 9120SOL    HW128259   6.139   3.994   4.814
 9120SOL    HW228260   6.128   3.857   4.902
 9121SOL     OW28261   4.015   0.735   4.610
 9121SOL    HW128262   4.035   0.792   4.531
 9121SOL    HW228263   4.026   0.639   4.586
 9122SOL     OW28264   0.991   3.273   1.325
 9122SOL    HW128265   1.054   3.335   1.279
 9122SOL    HW228266   0.941   3.219   1.257
 9123SOL     OW28267   6.998   6.152   4.247
 9123SOL    HW128268   0.065   6.105   4.262
 9123SOL    HW228269   7.015   6.250   4.238
 9124SOL     OW28270   3.011   5.077   0.320
 9124SOL    HW128271   3.031   5.172   0.297
 9124SOL    HW228272   2.923   5.072   0.366
 9125SOL     OW28273   5.629   6.547   1.716
 9125SOL    HW128274   5.570   6.513   1.789
 9125SOL    HW228275   5.577   6.553   1.631
 9126SOL     OW28276   4.203   4.860   0.459
 9126SOL    HW128277   4.146   4.880   0.380
 9126SOL    HW228278   4.262   4.782   0.440
 9127SOL     OW28279   6.646   4.825   5.136
 9127SOL    HW128280   6.631   4.909   5.189
 9127SOL    HW228281   6.675   4.752   5.197
 9128SOL     OW28282   5.818   4.262   5.631
 9128SOL    HW128283   5.863   4.351   5.632
 9128SOL    HW228284   5.756   4.255   5.709
 9129SOL     OW28285   1.014   2.704   0.589
 9129SOL    HW128286   1.099   2.655   0.609
 9129SOL    HW228287   0.937   2.640   0.590
 9130SOL     OW28288   3.190   3.231   4.758
 9130SOL    HW128289   3.118   3.207   4.693
 9130SOL    HW228290   3.236   3.314   4.728
 9131SOL     OW28291   5.414   2.336   0.666
 9131SOL    HW128292   5.350   2.281   0.613
 9131SOL    HW228293   5.368   2.416   0.702
 9132SOL     OW28294   0.820   3.892   3.952
 9132SOL    HW128295   0.735   3.946   3.954
 9132SOL    HW228296   0.877   3.923   3.877
 9133SOL     OW28297   6.063   6.973   1.199
 9133SOL    HW128298   6.132   6.966   1.270
 9133SOL    HW228299   6.090   0.024   1.133
 9134SOL     OW28300   4.952   4.774   0.672
 9134SOL    HW128301   4.909   4.857   0.708
 9134SOL    HW228302   4.881   4.711   0.640
 9135SOL     OW28303   6.471   6.090   3.037
 9135SOL    HW128304   6.383   6.106   3.083
 9135SOL    HW228305   6.494   6.169   2.981
 9136SOL     OW28306   6.753   4.945   0.207
 9136SOL    HW128307   6.712   4.914   0.293
 9136SOL    HW228308   6.680   4.963   0.140
 9137SOL     OW28309   5.426   6.574   5.173
 9137SOL    HW128310   5.520   6.594   5.146
 9137SOL    HW228311   5.389   6.650   5.227
 9138SOL     OW28312   2.080   3.978   6.605
 9138SOL    HW128313   2.064   4.071   6.573
 9138SOL    HW228314   2.151   3.979   6.676
 9139SOL     OW28315   6.719   0.177   1.535
 9139SOL    HW128316   6.736   0.086   1.497
 9139SOL    HW228317   6.643   0.220   1.486
 9140SOL     OW28318   1.774   3.685   2.637
 9140SOL    HW128319   1.757   3.613   2.569
 9140SOL    HW228320   1.836   3.650   2.707
 9141SOL     OW28321   0.206   5.653   4.817
 9141SOL    HW128322   0.158   5.644   4.730
 9141SOL    HW228323   0.146   5.696   4.884
 9142SOL     OW28324   0.880   4.874   3.933
 9142SOL    HW128325   0.932   4.790   3.916
 9142SOL    HW228326   0.940   4.942   3.976
 9143SOL     OW28327   6.256   4.178   3.219
 9143SOL    HW128328   6.300   4.092   3.194
 9143SOL    HW228329   6.259   4.189   3.319
 9144SOL     OW28330   2.932   4.171   5.271
 9144SOL    HW128331   2.985   4.165   5.186
 9144SOL    HW228332   2.911   4.079   5.303
 9145SOL     OW28333   1.352   5.936   5.926
 9145SOL    HW128334   1.429   5.983   5.882
 9145SOL    HW228335   1.319   5.863   5.867
 9146SOL     OW28336   6.029   2.842   3.372
 9146SOL    HW128337   5.933   2.816   3.376
 9146SOL    HW228338   6.078   2.803   3.449
 9147SOL     OW28339   3.771   0.290   5.504
 9147SOL    HW128340   3.724   0.297   5.592
 9147SOL    HW228341   3.806   0.197   5.491
 9148SOL     OW28342   5.106   5.859   1.404
 9148SOL    HW128343   5.071   5.887   1.493
 9148SOL    HW228344   5.091   5.761   1.392
 9149SOL     OW28345   0.348   3.642   0.671
 9149SOL    HW128346   0.310   3.733   0.654
 9149SOL    HW228347   0.447   3.645   0.663
 9150SOL     OW28348   2.578   3.290   7.002
 9150SOL    HW128349   2.665   3.257   0.019
 9150SOL    HW228350   2.515   3.214   6.991
 9151SOL     OW28351   1.911   3.365   3.673
 9151SOL    HW128352   1.883   3.459   3.692
 9151SOL    HW228353   1.929   3.318   3.760
 9152SOL     OW28354   2.145   3.947   2.889
 9152SOL    HW128355   2.222   3.893   2.856
 9152SOL    HW228356   2.079   3.960   2.816
 9153SOL     OW28357   0.207   3.098   5.942
 9153SOL    HW128358   0.147   3.105   5.862
 9153SOL    HW228359   0.187   3.173   6.005
 9154SOL     OW28360   5.239   4.947   3.428
 9154SOL    HW128361   5.273   5.014   3.495
 9154SOL    HW228362   5.242   4.856   3.469
 9155SOL     OW28363   1.032   6.070   2.506
 9155SOL    HW128364   1.100   6.098   2.574
 9155SOL    HW228365   1.057   5.982   2.467
 9156SOL     OW28366   6.830   4.119   5.716
 9156SOL    HW128367   6.774   4.172   5.779
 9156SOL    HW228368   6.908   4.174   5.686
 9157SOL     OW28369   1.262   4.246   5.612
 9157SOL    HW128370   1.166   4.272   5.626
 9157SOL    HW228371   1.266   4.164   5.555
 9158SOL     OW28372   6.740   3.663   4.661
 9158SOL    HW128373   6.765   3.759   4.678
 9158SOL    HW228374   6.670   3.635   4.726
 9159SOL     OW28375   2.196   1.591   3.589
 9159SOL    HW128376   2.178   1.494   3.609
 9159SOL    HW228377   2.281   1.599   3.537
 9160SOL     OW28378   1.131   3.148   6.961
 9160SOL    HW128379   1.215   3.104   6.930
 9160SOL    HW228380   1.083   3.088   0.006
 9161SOL     OW28381   6.268   3.530   2.608
 9161SOL    HW128382   6.203   3.466   2.649
 9161SOL    HW228383   6.225   3.619   2.598
 9162SOL     OW28384   3.930   2.281   1.812
 9162SOL    HW128385   3.968   2.252   1.899
 9162SOL    HW228386   3.830   2.285   1.819
 9163SOL     OW28387   2.477   2.378   4.216
 9163SOL    HW128388   2.424   2.298   4.245
 9163SOL    HW228389   2.548   2.397   4.284
 9164SOL     OW28390   1.973   6.903   6.230
 9164SOL    HW128391   2.030   6.872   6.154
 9164SOL    HW228392   2.013   6.870   6.316
 9165SOL     OW28393   5.437   1.637   6.225
 9165SOL    HW128394   5.447   1.617   6.323
 9165SOL    HW228395   5.524   1.619   6.179
 9166SOL     OW28396   4.661   6.237   2.148
 9166SOL    HW128397   4.639   6.250   2.052
 9166SOL    HW228398   4.745   6.286   2.171
 9167SOL     OW28399   2.040   1.648   4.602
 9167SOL    HW128400   2.029   1.552   4.577
 9167SOL    HW228401   2.024   1.706   4.522
 9168SOL     OW28402   6.813   6.041   4.911
 9168SOL    HW128403   6.803   6.106   4.835
 9168SOL    HW228404   6.736   6.051   4.973
 9169SOL     OW28405   6.730   5.831   0.582
 9169SOL    HW128406   6.758   5.739   0.608
 9169SOL    HW228407   6.803   5.896   0.603
 9170SOL     OW28408   1.796   0.890   5.495
 9170SOL    HW128409   1.766   0.864   5.587
 9170SOL    HW228410   1.746   0.836   5.427
 9171SOL     OW28411   3.584   5.542   6.701
 9171SOL    HW128412   3.603   5.557   6.604
 9171SOL    HW228413   3.605   5.447   6.725
 9172SOL     OW28414   4.397   1.884   5.342
 9172SOL    HW128415   4.348   1.800   5.321
 9172SOL    HW228416   4.355   1.928   5.421
 9173SOL     OW28417   5.478   3.783   5.247
 9173SOL    HW128418   5.548   3.730   5.200
 9173SOL    HW228419   5.514   3.875   5.268
 9174SOL     OW28420   6.323   4.560   1.271
 9174SOL    HW128421   6.296   4.656   1.277
 9174SOL    HW228422   6.266   4.505   1.332
 9175SOL     OW28423   2.027   6.949   1.392
 9175SOL    HW128424   2.041   0.027   1.376
 9175SOL    HW228425   1.951   6.936   1.455
 9176SOL     OW28426   1.779   0.577   1.705
 9176SOL    HW128427   1.692   0.596   1.751
 9176SOL    HW228428   1.800   0.480   1.715
 9177SOL     OW28429   0.660   6.618   4.001
 9177SOL    HW128430   0.625   6.677   4.074
 9177SOL    HW228431   0.662   6.523   4.033
 9178SOL     OW28432   1.318   4.555   0.890
 9178SOL    HW128433   1.260   4.488   0.844
 9178SOL    HW228434   1.414   4.532   0.876
 9179SOL     OW28435   3.698   5.329   4.066
 9179SOL    HW128436   3.740   5.294   4.149
 9179SOL    HW228437   3.691   5.256   3.998
 9180SOL     OW28438   0.283   1.040   5.308
 9180SOL    HW128439   0.297   1.095   5.226
 9180SOL    HW228440   0.233   1.093   5.376
 9181SOL     OW28441   2.892   2.245   3.714
 9181SOL    HW128442   2.982   2.202   3.708
 9181SOL    HW228443   2.847   2.215   3.798
 9182SOL     OW28444   0.253   1.887   2.546
 9182SOL    HW128445   0.207   1.912   2.631
 9182SOL    HW228446   0.238   1.957   2.477
 9183SOL     OW28447   1.799   1.590   5.962
 9183SOL    HW128448   1.748   1.640   6.032
 9183SOL    HW228449   1.878   1.644   5.933
 9184SOL     OW28450   3.061   4.190   0.957
 9184SOL    HW128451   3.106   4.204   1.045
 9184SOL    HW228452   3.061   4.093   0.935
 9185SOL     OW28453   1.415   0.150   5.961
 9185SOL    HW128454   1.427   0.096   6.044
 9185SOL    HW228455   1.464   0.237   5.970
 9186SOL     OW28456   4.946   0.043   6.855
 9186SOL    HW128457   4.946   6.976   6.806
 9186SOL    HW228458   4.878   0.039   6.929
 9187SOL     OW28459   5.548   2.618   0.629
 9187SOL    HW128460   5.459   2.635   0.585
 9187SOL    HW228461   5.539   2.541   0.692
 9188SOL     OW28462   1.713   0.159   1.178
 9188SOL    HW128463   1.693   0.061   1.188
 9188SOL    HW228464   1.736   0.198   1.267
 9189SOL     OW28465   3.198   0.388   5.779
 9189SOL    HW128466   3.212   0.289   5.783
 9189SOL    HW228467   3.104   0.409   5.807
 9190SOL     OW28468   4.330   0.935   5.102
 9190SOL    HW128469   4.247   0.881   5.087
 9190SOL    HW228470   4.400   0.877   5.145
 9191SOL     OW28471   5.834   0.058   1.588
 9191SOL    HW128472   5.917   0.054   1.644
 9191SOL    HW228473   5.848   0.121   1.512
 9192SOL     OW28474   4.881   3.657   4.543
 9192SOL    HW128475   4.892   3.573   4.490
 9192SOL    HW228476   4.903   3.639   4.639
 9193SOL     OW28477   4.016   3.593   3.323
 9193SOL    HW128478   3.922   3.563   3.337
 9193SOL    HW228479   4.066   3.524   3.270
 9194SOL     OW28480   3.723   4.922   3.110
 9194SOL    HW128481   3.664   4.900   3.032
 9194SOL    HW228482   3.815   4.887   3.092
 9195SOL     OW28483   0.445   2.707   2.755
 9195SOL    HW128484   0.361   2.750   2.722
 9195SOL    HW228485   0.429   2.609   2.769
 9196SOL     OW28486   5.194   6.402   4.496
 9196SOL    HW128487   5.160   6.337   4.563
 9196SOL    HW228488   5.291   6.419   4.512
 9197SOL     OW28489   4.791   1.731   6.615
 9197SOL    HW128490   4.885   1.699   6.601
 9197SOL    HW228491   4.793   1.828   6.642
 9198SOL     OW28492   5.985   2.350   5.555
 9198SOL    HW128493   6.040   2.386   5.480
 9198SOL    HW228494   5.974   2.421   5.625
 9199SOL     OW28495   1.370   3.340   6.281
 9199SOL    HW128496   1.457   3.338   6.329
 9199SOL    HW228497   1.364   3.423   6.225
 9200SOL     OW28498   5.012   5.725   0.884
 9200SOL    HW128499   4.928   5.673   0.869
 9200SOL    HW228500   5.060   5.688   0.964
 9201SOL     OW28501   0.729   3.768   2.212
 9201SOL    HW128502   0.662   3.814   2.155
 9201SOL    HW228503   0.750   3.678   2.174
 9202SOL     OW28504   2.229   6.187   4.006
 9202SOL    HW128505   2.225   6.222   3.912
 9202SOL    HW228506   2.289   6.246   4.061
 9203SOL     OW28507   4.999   0.726   0.373
 9203SOL    HW128508   5.003   0.734   0.274
 9203SOL    HW228509   4.945   0.645   0.397
 9204SOL     OW28510   5.359   4.554   3.169
 9204SOL    HW128511   5.392   4.521   3.080
 9204SOL    HW228512   5.334   4.650   3.161
 9205SOL     OW28513   4.542   2.517   1.553
 9205SOL    HW128514   4.523   2.521   1.651
 9205SOL    HW228515   4.639   2.498   1.538
 9206SOL     OW28516   6.365   6.187   4.547
 9206SOL    HW128517   6.282   6.132   4.552
 9206SOL    HW228518   6.343   6.283   4.562
 9207SOL     OW28519   3.721   6.319   6.877
 9207SOL    HW128520   3.774   6.236   6.856
 9207SOL    HW228521   3.645   6.326   6.813
 9208SOL     OW28522   4.413   3.986   1.681
 9208SOL    HW128523   4.453   4.049   1.747
 9208SOL    HW228524   4.396   4.033   1.595
 9209SOL     OW28525   3.897   0.067   2.694
 9209SOL    HW128526   3.884   6.999   2.648
 9209SOL    HW228527   3.961   0.056   2.770
 9210SOL     OW28528   0.763   6.751   0.301
 9210SOL    HW128529   0.726   6.728   0.390
 9210SOL    HW228530   0.800   6.844   0.302
 9211SOL     OW28531   4.871   1.459   6.153
 9211SOL    HW128532   4.793   1.398   6.164
 9211SOL    HW228533   4.839   1.554   6.146
 9212SOL     OW28534   5.854   4.021   5.493
 9212SOL    HW128535   5.861   4.108   5.540
 9212SOL    HW228536   5.913   4.021   5.412
 9213SOL     OW28537   6.473   6.099   2.014
 9213SOL    HW128538   6.540   6.025   2.012
 9213SOL    HW228539   6.388   6.068   1.972
 9214SOL     OW28540   2.107   1.500   5.485
 9214SOL    HW128541   2.121   1.492   5.583
 9214SOL    HW228542   2.112   1.596   5.458
 9215SOL     OW28543   0.338   3.720   3.354
 9215SOL    HW128544   0.302   3.714   3.261
 9215SOL    HW228545   0.287   3.657   3.413
 9216SOL     OW28546   2.492   6.195   3.016
 9216SOL    HW128547   2.564   6.194   2.947
 9216SOL    HW228548   2.403   6.189   2.972
 9217SOL     OW28549   4.540   1.814   0.009
 9217SOL    HW128550   4.571   1.749   6.959
 9217SOL    HW228551   4.477   1.880   6.986
 9218SOL     OW28552   5.465   5.408   6.545
 9218SOL    HW128553   5.369   5.423   6.520
 9218SOL    HW228554   5.523   5.475   6.499
 9219SOL     OW28555   3.164   2.474   5.542
 9219SOL    HW128556   3.168   2.561   5.493
 9219SOL    HW228557   3.135   2.490   5.636
 9220SOL     OW28558   0.487   6.765   3.261
 9220SOL    HW128559   0.556   6.833   3.281
 9220SOL    HW228560   0.509   6.717   3.176
 9221SOL     OW28561   2.894   1.372   1.154
 9221SOL    HW128562   2.967   1.439   1.146
 9221SOL    HW228563   2.815   1.414   1.199
 9222SOL     OW28564   1.357   5.037   4.053
 9222SOL    HW128565   1.358   5.119   3.996
 9222SOL    HW228566   1.431   5.041   4.120
 9223SOL     OW28567   6.233   3.322   4.387
 9223SOL    HW128568   6.298   3.327   4.311
 9223SOL    HW228569   6.281   3.295   4.470
 9224SOL     OW28570   1.953   4.589   2.771
 9224SOL    HW128571   1.950   4.555   2.678
 9224SOL    HW228572   1.929   4.516   2.835
 9225SOL     OW28573   6.651   5.235   5.999
 9225SOL    HW128574   6.695   5.156   5.956
 9225SOL    HW228575   6.647   5.311   5.934
 9226SOL     OW28576   0.963   0.646   5.935
 9226SOL    HW128577   0.949   0.725   5.994
 9226SOL    HW228578   0.926   0.665   5.844
 9227SOL     OW28579   3.409   4.078   0.993
 9227SOL    HW128580   3.322   4.032   0.976
 9227SOL    HW228581   3.449   4.106   0.906
 9228SOL     OW28582   3.980   3.111   4.829
 9228SOL    HW128583   4.049   3.181   4.811
 9228SOL    HW228584   3.987   3.080   4.924
 9229SOL     OW28585   6.628   5.248   0.165
 9229SOL    HW128586   6.678   5.304   0.231
 9229SOL    HW228587   6.690   5.218   0.092
 9230SOL     OW28588   4.537   0.772   5.239
 9230SOL    HW128589   4.612   0.785   5.303
 9230SOL    HW228590   4.545   0.682   5.196
 9231SOL     OW28591   6.131   5.807   1.462
 9231SOL    HW128592   6.095   5.803   1.369
 9231SOL    HW228593   6.058   5.829   1.526
 9232SOL     OW28594   1.236   5.504   2.082
 9232SOL    HW128595   1.314   5.548   2.126
 9232SOL    HW228596   1.257   5.408   2.065
 9233SOL     OW28597   0.956   6.706   5.959
 9233SOL    HW128598   0.894   6.727   6.034
 9233SOL    HW228599   1.024   6.779   5.951
 9234SOL     OW28600   2.869   4.133   5.791
 9234SOL    HW128601   2.915   4.044   5.789
 9234SOL    HW228602   2.932   4.203   5.825
 9235SOL     OW28603   2.240   1.742   2.824
 9235SOL    HW128604   2.200   1.676   2.760
 9235SOL    HW228605   2.167   1.784   2.878
 9236SOL     OW28606   1.519   3.402   5.618
 9236SOL    HW128607   1.612   3.370   5.633
 9236SOL    HW228608   1.485   3.365   5.531
 9237SOL     OW28609   6.350   5.417   2.844
 9237SOL    HW128610   6.295   5.340   2.813
 9237SOL    HW228611   6.310   5.502   2.809
 9238SOL     OW28612   1.743   2.621   4.690
 9238SOL    HW128613   1.690   2.537   4.700
 9238SOL    HW228614   1.758   2.641   4.593
 9239SOL     OW28615   1.158   4.889   5.997
 9239SOL    HW128616   1.202   4.874   5.908
 9239SOL    HW228617   1.228   4.885   6.069
 9240SOL     OW28618   3.916   1.827   3.736
 9240SOL    HW128619   3.863   1.912   3.731
 9240SOL    HW228620   3.907   1.787   3.827
 9241SOL     OW28621   5.925   6.561   6.984
 9241SOL    HW128622   5.850   6.514   0.012
 9241SOL    HW228623   5.934   6.654   7.019
 9242SOL     OW28624   1.799   2.534   0.840
 9242SOL    HW128625   1.731   2.472   0.879
 9242SOL    HW228626   1.863   2.563   0.911
 9243SOL     OW28627   1.586   0.070   0.118
 9243SOL    HW128628   1.611   0.064   0.215
 9243SOL    HW228629   1.556   0.163   0.097
 9244SOL     OW28630   2.310   6.276   6.425
 9244SOL    HW128631   2.365   6.288   6.507
 9244SOL    HW228632   2.243   6.349   6.418
 9245SOL     OW28633   0.924   4.818   3.235
 9245SOL    HW128634   0.859   4.887   3.268
 9245SOL    HW228635   0.975   4.781   3.313
 9246SOL     OW28636   4.967   6.582   6.599
 9246SOL    HW128637   5.019   6.499   6.619
 9246SOL    HW228638   4.963   6.595   6.500
 9247SOL     OW28639   3.858   6.516   3.017
 9247SOL    HW128640   3.915   6.597   3.025
 9247SOL    HW228641   3.781   6.523   3.081
 9248SOL     OW28642   2.601   0.843   6.630
 9248SOL    HW128643   2.673   0.856   6.562
 9248SOL    HW228644   2.565   0.932   6.658
 9249SOL     OW28645   2.579   6.823   0.028
 9249SOL    HW128646   2.657   6.862   6.997
 9249SOL    HW228647   2.496   6.872   0.003
 9250SOL     OW28648   0.658   3.386   3.369
 9250SOL    HW128649   0.663   3.482   3.340
 9250SOL    HW228650   0.589   3.377   3.441
 9251SOL     OW28651   2.998   1.778   1.492
 9251SOL    HW128652   3.078   1.782   1.432
 9251SOL    HW228653   2.952   1.690   1.481
 9252SOL     OW28654   5.893   1.388   4.760
 9252SOL    HW128655   5.854   1.384   4.852
 9252SOL    HW228656   5.982   1.342   4.759
 9253SOL     OW28657   1.747   5.620   4.657
 9253SOL    HW128658   1.774   5.716   4.664
 9253SOL    HW228659   1.789   5.580   4.575
 9254SOL     OW28660   0.540   5.257   2.334
 9254SOL    HW128661   0.492   5.342   2.310
 9254SOL    HW228662   0.609   5.277   2.403
 9255SOL     OW28663   6.293   4.162   0.990
 9255SOL    HW128664   6.350   4.220   1.048
 9255SOL    HW228665   6.349   4.121   0.919
 9256SOL     OW28666   2.682   6.912   0.658
 9256SOL    HW128667   2.729   6.824   0.667
 9256SOL    HW228668   2.732   6.971   0.594
 9257SOL     OW28669   5.950   5.842   4.432
 9257SOL    HW128670   5.873   5.779   4.430
 9257SOL    HW228671   6.019   5.813   4.366
 9258SOL     OW28672   4.314   5.404   2.017
 9258SOL    HW128673   4.214   5.407   2.013
 9258SOL    HW228674   4.352   5.425   1.927
 9259SOL     OW28675   0.492   2.443   6.759
 9259SOL    HW128676   0.501   2.541   6.743
 9259SOL    HW228677   0.419   2.407   6.701
 9260SOL     OW28678   4.853   3.891   4.856
 9260SOL    HW128679   4.917   3.832   4.906
 9260SOL    HW228680   4.778   3.835   4.820
 9261SOL     OW28681   1.693   2.614   1.975
 9261SOL    HW128682   1.613   2.642   1.922
 9261SOL    HW228683   1.767   2.589   1.913
 9262SOL     OW28684   6.600   6.270   6.260
 9262SOL    HW128685   6.639   6.202   6.197
 9262SOL    HW228686   6.505   6.289   6.233
 9263SOL     OW28687   2.273   4.586   3.186
 9263SOL    HW128688   2.227   4.599   3.098
 9263SOL    HW228689   2.249   4.661   3.248
 9264SOL     OW28690   5.332   3.689   6.505
 9264SOL    HW128691   5.268   3.639   6.446
 9264SOL    HW228692   5.365   3.629   6.578
 9265SOL     OW28693   5.121   0.931   1.380
 9265SOL    HW128694   5.035   0.977   1.356
 9265SOL    HW228695   5.198   0.986   1.348
 9266SOL     OW28696   2.124   4.329   1.001
 9266SOL    HW128697   2.151   4.305   1.094
 9266SOL    HW228698   2.093   4.247   0.954
 9267SOL     OW28699   0.871   1.416   3.941
 9267SOL    HW128700   0.922   1.500   3.924
 9267SOL    HW228701   0.843   1.375   3.854
 9268SOL     OW28702   1.048   0.890   1.865
 9268SOL    HW128703   0.982   0.936   1.925
 9268SOL    HW228704   1.127   0.949   1.850
 9269SOL     OW28705   4.268   1.106   0.204
 9269SOL    HW128706   4.207   1.182   0.185
 9269SOL    HW228707   4.224   1.020   0.178
 9270SOL     OW28708   2.998   0.962   5.972
 9270SOL    HW128709   2.900   0.979   5.963
 9270SOL    HW228710   3.042   1.041   6.014
 9271SOL     OW28711   1.291   4.524   5.578
 9271SOL    HW128712   1.380   4.565   5.556
 9271SOL    HW228713   1.304   4.432   5.614
 9272SOL     OW28714   6.401   6.185   5.699
 9272SOL    HW128715   6.431   6.091   5.715
 9272SOL    HW228716   6.373   6.226   5.786
 9273SOL     OW28717   5.484   3.429   3.822
 9273SOL    HW128718   5.522   3.379   3.899
 9273SOL    HW228719   5.511   3.384   3.736
 9274SOL     OW28720   0.565   3.254   0.669
 9274SOL    HW128721   0.646   3.198   0.686
 9274SOL    HW228722   0.523   3.226   0.582
 9275SOL     OW28723   5.802   0.937   0.797
 9275SOL    HW128724   5.752   1.022   0.817
 9275SOL    HW228725   5.821   0.889   0.883
 9276SOL     OW28726   2.651   4.874   6.734
 9276SOL    HW128727   2.717   4.897   6.663
 9276SOL    HW228728   2.627   4.957   6.785
 9277SOL     OW28729   4.541   5.205   2.408
 9277SOL    HW128730   4.629   5.189   2.363
 9277SOL    HW228731   4.467   5.189   2.343
 9278SOL     OW28732   0.200   0.113   6.130
 9278SOL    HW128733   0.186   0.020   6.161
 9278SOL    HW228734   0.121   0.142   6.075
 9279SOL     OW28735   2.915   6.060   1.737
 9279SOL    HW128736   2.889   6.011   1.653
 9279SOL    HW228737   2.833   6.081   1.790
 9280SOL     OW28738   1.041   5.754   2.663
 9280SOL    HW128739   0.946   5.759   2.694
 9280SOL    HW228740   1.050   5.683   2.594
 9281SOL     OW28741   1.800   4.917   0.756
 9281SOL    HW128742   1.702   4.917   0.733
 9281SOL    HW228743   1.824   5.002   0.802
 9282SOL     OW28744   2.868   6.666   4.826
 9282SOL    HW128745   2.929   6.685   4.903
 9282SOL    HW228746   2.812   6.747   4.808
 9283SOL     OW28747   4.762   6.363   0.889
 9283SOL    HW128748   4.691   6.296   0.908
 9283SOL    HW228749   4.847   6.316   0.864
 9284SOL     OW28750   4.042   5.151   6.742
 9284SOL    HW128751   4.019   5.202   6.825
 9284SOL    HW228752   4.031   5.053   6.759
 9285SOL     OW28753   0.212   6.469   3.578
 9285SOL    HW128754   0.271   6.390   3.592
 9285SOL    HW228755   0.223   6.502   3.484
 9286SOL     OW28756   4.736   6.823   1.493
 9286SOL    HW128757   4.743   6.828   1.593
 9286SOL    HW228758   4.654   6.773   1.467
 9287SOL     OW28759   4.278   3.568   6.308
 9287SOL    HW128760   4.296   3.524   6.220
 9287SOL    HW228761   4.189   3.614   6.304
 9288SOL     OW28762   3.764   1.785   2.184
 9288SOL    HW128763   3.789   1.882   2.185
 9288SOL    HW228764   3.821   1.735   2.249
 9289SOL     OW28765   4.747   6.349   1.242
 9289SOL    HW128766   4.737   6.317   1.336
 9289SOL    HW228767   4.840   6.328   1.210
 9290SOL     OW28768   6.550   1.292   3.768
 9290SOL    HW128769   6.484   1.341   3.711
 9290SOL    HW228770   6.625   1.259   3.711
 9291SOL     OW28771   0.374   3.952   6.001
 9291SOL    HW128772   0.351   3.860   6.034
 9291SOL    HW228773   0.425   4.000   6.072
 9292SOL     OW28774   0.210   1.632   6.696
 9292SOL    HW128775   0.309   1.617   6.699
 9292SOL    HW228776   0.166   1.553   6.653
 9293SOL     OW28777   4.360   1.745   4.837
 9293SOL    HW128778   4.271   1.731   4.793
 9293SOL    HW228779   4.355   1.823   4.899
 9294SOL     OW28780   4.682   6.953   6.717
 9294SOL    HW128781   4.709   6.896   6.795
 9294SOL    HW228782   4.606   7.012   6.744
 9295SOL     OW28783   5.886   1.269   4.193
 9295SOL    HW128784   5.826   1.267   4.274
 9295SOL    HW228785   5.948   1.191   4.196
 9296SOL     OW28786   2.271   4.674   5.760
 9296SOL    HW128787   2.310   4.589   5.795
 9296SOL    HW228788   2.175   4.680   5.785
 9297SOL     OW28789   6.756   5.092   2.149
 9297SOL    HW128790   6.677   5.053   2.101
 9297SOL    HW228791   6.726   5.163   2.212
 9298SOL     OW28792   1.189   3.918   6.517
 9298SOL    HW128793   1.158   3.984   6.585
 9298SOL    HW228794   1.206   3.966   6.430
 9299SOL     OW28795   2.804   2.246   4.674
 9299SOL    HW128796   2.793   2.248   4.773
 9299SOL    HW228797   2.749   2.172   4.635
 9300SOL     OW28798   2.041   6.645   4.592
 9300SOL    HW128799   2.071   6.569   4.536
 9300SOL    HW228800   2.104   6.722   4.580
 9301SOL     OW28801   0.736   4.225   4.233
 9301SOL    HW128802   0.832   4.218   4.262
 9301SOL    HW228803   0.712   4.321   4.219
 9302SOL     OW28804   2.249   5.129   4.528
 9302SOL    HW128805   2.307   5.203   4.494
 9302SOL    HW228806   2.301   5.044   4.527
 9303SOL     OW28807   2.537   4.332   0.061
 9303SOL    HW128808   2.517   4.235   0.074
 9303SOL    HW228809   2.582   4.344   6.991
 9304SOL     OW28810   5.184   5.472   6.540
 9304SOL    HW128811   5.169   5.389   6.594
 9304SOL    HW228812   5.096   5.518   6.526
 9305SOL     OW28813   1.561   1.530   1.254
 9305SOL    HW128814   1.488   1.545   1.186
 9305SOL    HW228815   1.598   1.618   1.283
 9306SOL     OW28816   6.848   6.440   4.677
 9306SOL    HW128817   6.882   6.353   4.642
 9306SOL    HW228818   6.772   6.423   4.740
 9307SOL     OW28819   1.912   3.959   1.424
 9307SOL    HW128820   2.009   3.981   1.433
 9307SOL    HW228821   1.859   4.016   1.487
 9308SOL     OW28822   2.117   3.410   1.727
 9308SOL    HW128823   2.171   3.456   1.797
 9308SOL    HW228824   2.170   3.405   1.642
 9309SOL     OW28825   4.902   5.495   6.487
 9309SOL    HW128826   4.852   5.578   6.511
 9309SOL    HW228827   4.864   5.418   6.539
 9310SOL     OW28828   5.884   5.673   5.659
 9310SOL    HW128829   5.973   5.664   5.704
 9310SOL    HW228830   5.847   5.583   5.638
 9311SOL     OW28831   4.904   3.868   0.662
 9311SOL    HW128832   5.003   3.863   0.675
 9311SOL    HW228833   4.858   3.825   0.739
 9312SOL     OW28834   0.179   2.938   3.725
 9312SOL    HW128835   0.097   2.989   3.700
 9312SOL    HW228836   0.173   2.845   3.688
 9313SOL     OW28837   0.762   0.664   2.473
 9313SOL    HW128838   0.688   0.610   2.514
 9313SOL    HW228839   0.850   0.620   2.492
 9314SOL     OW28840   5.365   4.973   1.152
 9314SOL    HW128841   5.279   4.952   1.105
 9314SOL    HW228842   5.346   5.029   1.233
 9315SOL     OW28843   5.452   6.155   5.739
 9315SOL    HW128844   5.539   6.124   5.777
 9315SOL    HW228845   5.446   6.126   5.643
 9316SOL     OW28846   5.118   7.002   1.034
 9316SOL    HW128847   5.050   0.053   1.055
 9316SOL    HW228848   5.124   6.937   1.110
 9317SOL     OW28849   2.554   5.997   3.540
 9317SOL    HW128850   2.581   5.914   3.491
 9317SOL    HW228851   2.469   5.981   3.590
 9318SOL     OW28852   3.846   0.006   2.237
 9318SOL    HW128853   3.796   0.093   2.240
 9318SOL    HW228854   3.815   6.966   2.312
 9319SOL     OW28855   4.394   2.075   0.137
 9319SOL    HW128856   4.303   2.059   0.176
 9319SOL    HW228857   4.387   2.139   0.061
 9320SOL     OW28858   6.889   6.685   6.903
 9320SOL    HW128859   6.805   6.637   6.932
 9320SOL    HW228860   6.898   6.678   6.803
 9321SOL     OW28861   0.910   3.469   4.521
 9321SOL    HW128862   0.840   3.447   4.589
 9321SOL    HW228863   1.000   3.443   4.556
 9322SOL     OW28864   5.087   3.154   6.842
 9322SOL    HW128865   5.089   3.055   6.829
 9322SOL    HW228866   5.169   3.183   6.892
 9323SOL     OW28867   0.754   2.434   6.080
 9323SOL    HW128868   0.682   2.369   6.055
 9323SOL    HW228869   0.741   2.463   6.175
 9324SOL     OW28870   0.170   4.474   1.520
 9324SOL    HW128871   0.153   4.550   1.457
 9324SOL    HW228872   0.263   4.480   1.556
 9325SOL     OW28873   0.772   4.686   3.464
 9325SOL    HW128874   0.738   4.627   3.538
 9325SOL    HW228875   0.869   4.705   3.477
 9326SOL     OW28876   4.551   4.599   0.730
 9326SOL    HW128877   4.465   4.563   0.694
 9326SOL    HW228878   4.569   4.688   0.690
 9327SOL     OW28879   3.197   1.386   3.405
 9327SOL    HW128880   3.231   1.321   3.473
 9327SOL    HW228881   3.098   1.377   3.397
 9328SOL     OW28882   1.706   0.605   3.502
 9328SOL    HW128883   1.776   0.654   3.451
 9328SOL    HW228884   1.637   0.669   3.535
 9329SOL     OW28885   1.093   4.972   6.592
 9329SOL    HW128886   1.126   4.936   6.505
 9329SOL    HW228887   1.121   5.068   6.602
 9330SOL     OW28888   1.122   6.617   0.320
 9330SOL    HW128889   1.155   6.544   0.260
 9330SOL    HW228890   1.077   6.687   0.266
 9331SOL     OW28891   2.226   4.022   4.156
 9331SOL    HW128892   2.230   4.120   4.137
 9331SOL    HW228893   2.229   3.971   4.070
 9332SOL     OW28894   6.251   5.240   0.387
 9332SOL    HW128895   6.191   5.306   0.433
 9332SOL    HW228896   6.216   5.148   0.402
 9333SOL     OW28897   2.969   3.923   1.559
 9333SOL    HW128898   3.002   3.846   1.613
 9333SOL    HW228899   3.046   3.964   1.510
 9334SOL     OW28900   6.724   5.798   6.168
 9334SOL    HW128901   6.646   5.738   6.150
 9334SOL    HW228902   6.782   5.756   6.238
 9335SOL     OW28903   0.448   3.735   1.694
 9335SOL    HW128904   0.360   3.703   1.657
 9335SOL    HW228905   0.482   3.669   1.761
 9336SOL     OW28906   5.292   6.789   6.123
 9336SOL    HW128907   5.223   6.860   6.137
 9336SOL    HW228908   5.321   6.753   6.211
 9337SOL     OW28909   2.458   1.440   5.630
 9337SOL    HW128910   2.516   1.359   5.622
 9337SOL    HW228911   2.415   1.460   5.542
 9338SOL     OW28912   5.606   6.164   0.654
 9338SOL    HW128913   5.642   6.243   0.604
 9338SOL    HW228914   5.671   6.088   0.646
 9339SOL     OW28915   0.174   4.272   4.987
 9339SOL    HW128916   0.210   4.323   4.909
 9339SOL    HW228917   0.100   4.325   5.029
 9340SOL     OW28918   2.450   4.852   1.902
 9340SOL    HW128919   2.456   4.765   1.953
 9340SOL    HW228920   2.526   4.911   1.928
 9341SOL     OW28921   5.789   5.324   6.609
 9341SOL    HW128922   5.695   5.298   6.631
 9341SOL    HW228923   5.792   5.419   6.577
 9342SOL     OW28924   3.264   0.205   4.987
 9342SOL    HW128925   3.273   0.155   4.901
 9342SOL    HW228926   3.178   0.256   4.988
 9343SOL     OW28927   4.683   3.617   0.614
 9343SOL    HW128928   4.655   3.673   0.536
 9343SOL    HW228929   4.607   3.559   0.642
 9344SOL     OW28930   5.688   0.763   5.165
 9344SOL    HW128931   5.739   0.848   5.151
 9344SOL    HW228932   5.611   0.759   5.101
 9345SOL     OW28933   0.667   4.797   6.957
 9345SOL    HW128934   0.578   4.838   6.976
 9345SOL    HW228935   0.739   4.866   6.970
 9346SOL     OW28936   5.197   0.160   2.107
 9346SOL    HW128937   5.243   0.074   2.088
 9346SOL    HW228938   5.263   0.235   2.103
 9347SOL     OW28939   4.139   6.407   0.930
 9347SOL    HW128940   4.109   6.379   0.839
 9347SOL    HW228941   4.234   6.438   0.926
 9348SOL     OW28942   2.258   5.363   1.320
 9348SOL    HW128943   2.329   5.293   1.316
 9348SOL    HW228944   2.301   5.454   1.325
 9349SOL     OW28945   6.938   6.253   1.103
 9349SOL    HW128946   0.002   6.210   1.138
 9349SOL    HW228947   6.956   6.349   1.082
 9350SOL     OW28948   6.743   0.970   0.310
 9350SOL    HW128949   6.753   1.009   0.401
 9350SOL    HW228950   6.656   0.920   0.304
 9351SOL     OW28951   4.035   3.321   5.921
 9351SOL    HW128952   3.983   3.239   5.945
 9351SOL    HW228953   4.100   3.299   5.847
 9352SOL     OW28954   2.693   2.421   6.704
 9352SOL    HW128955   2.767   2.357   6.683
 9352SOL    HW228956   2.731   2.510   6.727
 9353SOL     OW28957   0.401   3.107   1.571
 9353SOL    HW128958   0.379   3.184   1.511
 9353SOL    HW228959   0.316   3.063   1.600
 9354SOL     OW28960   5.304   1.625   1.785
 9354SOL    HW128961   5.223   1.684   1.784
 9354SOL    HW228962   5.384   1.677   1.756
 9355SOL     OW28963   6.993   1.363   2.097
 9355SOL    HW128964   0.014   1.400   2.013
 9355SOL    HW228965   0.047   1.346   2.164
 9356SOL     OW28966   5.349   3.460   2.733
 9356SOL    HW128967   5.339   3.556   2.707
 9356SOL    HW228968   5.281   3.405   2.684
 9357SOL     OW28969   3.166   3.951   0.907
 9357SOL    HW128970   3.169   3.962   0.808
 9357SOL    HW228971   3.153   3.854   0.929
 9358SOL     OW28972   5.138   4.250   2.135
 9358SOL    HW128973   5.138   4.158   2.176
 9358SOL    HW228974   5.050   4.268   2.092
 9359SOL     OW28975   5.362   4.515   6.174
 9359SOL    HW128976   5.451   4.511   6.130
 9359SOL    HW228977   5.340   4.426   6.214
 9360SOL     OW28978   1.289   0.780   5.337
 9360SOL    HW128979   1.345   0.711   5.384
 9360SOL    HW228980   1.266   0.748   5.246
 9361SOL     OW28981   2.257   1.225   2.149
 9361SOL    HW128982   2.170   1.274   2.146
 9361SOL    HW228983   2.257   1.162   2.227
 9362SOL     OW28984   1.479   1.594   3.023
 9362SOL    HW128985   1.514   1.666   3.083
 9362SOL    HW228986   1.542   1.581   2.946
 9363SOL     OW28987   1.702   6.502   2.058
 9363SOL    HW128988   1.773   6.547   2.004
 9363SOL    HW228989   1.621   6.489   2.001
 9364SOL     OW28990   5.769   4.913   1.081
 9364SOL    HW128991   5.822   4.996   1.103
 9364SOL    HW228992   5.831   4.842   1.049
 9365SOL     OW28993   2.214   1.352   4.911
 9365SOL    HW128994   2.277   1.282   4.880
 9365SOL    HW228995   2.151   1.314   4.979
 9366SOL     OW28996   3.447   1.213   1.845
 9366SOL    HW128997   3.351   1.186   1.838
 9366SOL    HW228998   3.505   1.132   1.829
 9367SOL     OW28999   6.600   6.122   4.080
 9367SOL    HW129000   6.566   6.104   4.172
 9367SOL    HW229001   6.574   6.214   4.052
 9368SOL     OW29002   4.790   2.638   1.389
 9368SOL    HW129003   4.778   2.548   1.431
 9368SOL    HW229004   4.701   2.683   1.381
 9369SOL     OW29005   6.510   2.274   5.796
 9369SOL    HW129006   6.578   2.207   5.824
 9369SOL    HW229007   6.550   2.337   5.729
 9370SOL     OW29008   6.303   6.756   3.477
 9370SOL    HW129009   6.263   6.840   3.513
 9370SOL    HW229010   6.399   6.751   3.505
 9371SOL     OW29011   1.277   6.749   0.515
 9371SOL    HW129012   1.307   6.691   0.590
 9371SOL    HW229013   1.236   6.693   0.443
 9372SOL     OW29014   5.962   6.067   6.819
 9372SOL    HW129015   6.040   6.079   6.882
 9372SOL    HW229016   5.981   6.116   6.734
 9373SOL     OW29017   4.483   2.580   3.980
 9373SOL    HW129018   4.582   2.591   3.970
 9373SOL    HW229019   4.436   2.645   3.920
 9374SOL     OW29020   5.259   4.278   0.395
 9374SOL    HW129021   5.293   4.187   0.421
 9374SOL    HW229022   5.298   4.305   0.307
 9375SOL     OW29023   0.935   1.432   4.492
 9375SOL    HW129024   1.001   1.370   4.532
 9375SOL    HW229025   0.843   1.406   4.520
 9376SOL     OW29026   1.750   2.947   2.128
 9376SOL    HW129027   1.795   2.932   2.040
 9376SOL    HW229028   1.730   2.859   2.171
 9377SOL     OW29029   6.114   5.223   2.844
 9377SOL    HW129030   6.149   5.170   2.921
 9377SOL    HW229031   6.058   5.299   2.877
 9378SOL     OW29032   3.681   6.400   1.318
 9378SOL    HW129033   3.589   6.393   1.357
 9378SOL    HW229034   3.747   6.364   1.384
 9379SOL     OW29035   5.445   4.864   5.585
 9379SOL    HW129036   5.393   4.950   5.590
 9379SOL    HW229037   5.415   4.811   5.506
 9380SOL     OW29038   6.144   5.858   6.430
 9380SOL    HW129039   6.044   5.869   6.432
 9380SOL    HW229040   6.176   5.834   6.521
 9381SOL     OW29041   2.249   0.992   6.988
 9381SOL    HW129042   2.292   1.082   6.978
 9381SOL    HW229043   2.320   0.922   6.996
 9382SOL     OW29044   5.675   2.264   2.483
 9382SOL    HW129045   5.614   2.310   2.548
 9382SOL    HW229046   5.710   2.331   2.418
 9383SOL     OW29047   5.540   5.810   5.764
 9383SOL    HW129048   5.584   5.813   5.854
 9383SOL    HW229049   5.441   5.809   5.777
 9384SOL     OW29050   4.307   6.349   1.980
 9384SOL    HW129051   4.252   6.328   1.899
 9384SOL    HW229052   4.264   6.309   2.061
 9385SOL     OW29053   3.707   0.839   4.264
 9385SOL    HW129054   3.683   0.793   4.350
 9385SOL    HW229055   3.798   0.810   4.236
 9386SOL     OW29056   4.104   0.143   4.939
 9386SOL    HW129057   4.162   0.103   4.867
 9386SOL    HW229058   4.084   0.238   4.916
 9387SOL     OW29059   3.779   6.489   0.457
 9387SOL    HW129060   3.841   6.552   0.504
 9387SOL    HW229061   3.698   6.473   0.514
 9388SOL     OW29062   6.557   6.618   2.616
 9388SOL    HW129063   6.627   6.637   2.548
 9388SOL    HW229064   6.471   6.661   2.589
 9389SOL     OW29065   3.347   1.305   6.897
 9389SOL    HW129066   3.415   1.353   6.843
 9389SOL    HW229067   3.361   1.323   6.994
 9390SOL     OW29068   2.760   6.891   1.909
 9390SOL    HW129069   2.788   6.965   1.969
 9390SOL    HW229070   2.790   6.803   1.948
 9391SOL     OW29071   0.591   1.190   5.538
 9391SOL    HW129072   0.626   1.110   5.587
 9391SOL    HW229073   0.563   1.164   5.446
 9392SOL     OW29074   1.511   6.514   3.961
 9392SOL    HW129075   1.470   6.596   3.921
 9392SOL    HW229076   1.610   6.523   3.963
 9393SOL     OW29077   4.014   2.255   5.505
 9393SOL    HW129078   3.928   2.306   5.502
 9393SOL    HW229079   4.088   2.313   5.471
 9394SOL     OW29080   5.755   2.603   2.120
 9394SOL    HW129081   5.729   2.681   2.176
 9394SOL    HW229082   5.737   2.518   2.170
 9395SOL     OW29083   1.756   2.380   6.339
 9395SOL    HW129084   1.705   2.377   6.425
 9395SOL    HW229085   1.693   2.384   6.262
 9396SOL     OW29086   6.362   0.322   6.971
 9396SOL    HW129087   6.372   0.267   6.888
 9396SOL    HW229088   6.430   0.294   0.019
 9397SOL     OW29089   2.764   1.140   0.881
 9397SOL    HW129090   2.664   1.137   0.887
 9397SOL    HW229091   2.803   1.124   0.972
 9398SOL     OW29092   2.067   1.692   0.382
 9398SOL    HW129093   2.071   1.725   0.476
 9398SOL    HW229094   1.972   1.677   0.355
 9399SOL     OW29095   6.806   0.737   5.287
 9399SOL    HW129096   6.894   0.781   5.301
 9399SOL    HW229097   6.813   0.639   5.308
 9400SOL     OW29098   4.335   1.845   3.863
 9400SOL    HW129099   4.277   1.849   3.945
 9400SOL    HW229100   4.277   1.848   3.781
 9401SOL     OW29101   4.208   0.484   2.962
 9401SOL    HW129102   4.232   0.388   2.947
 9401SOL    HW229103   4.180   0.525   2.876
 9402SOL     OW29104   1.763   5.108   6.946
 9402SOL    HW129105   1.850   5.077   6.907
 9402SOL    HW229106   1.728   5.185   6.893
 9403SOL     OW29107   5.722   1.271   4.393
 9403SOL    HW129108   5.688   1.202   4.458
 9403SOL    HW229109   5.661   1.350   4.394
 9404SOL     OW29110   0.743   3.938   5.392
 9404SOL    HW129111   0.644   3.927   5.380
 9404SOL    HW229112   0.765   4.034   5.406
 9405SOL     OW29113   6.470   0.133   1.010
 9405SOL    HW129114   6.486   0.099   0.918
 9405SOL    HW229115   6.394   0.083   1.051
 9406SOL     OW29116   0.094   1.116   5.918
 9406SOL    HW129117   0.180   1.163   5.901
 9406SOL    HW229118   0.031   1.133   5.842
 9407SOL     OW29119   3.718   5.673   2.841
 9407SOL    HW129120   3.780   5.688   2.919
 9407SOL    HW229121   3.714   5.756   2.785
 9408SOL     OW29122   3.784   1.718   6.601
 9408SOL    HW129123   3.722   1.780   6.650
 9408SOL    HW229124   3.869   1.709   6.653
 9409SOL     OW29125   5.558   3.835   3.344
 9409SOL    HW129126   5.597   3.810   3.433
 9409SOL    HW229127   5.461   3.858   3.356
 9410SOL     OW29128   5.059   6.162   2.325
 9410SOL    HW129129   5.062   6.064   2.306
 9410SOL    HW229130   5.146   6.204   2.298
 9411SOL     OW29131   4.593   5.316   1.126
 9411SOL    HW129132   4.532   5.392   1.152
 9411SOL    HW229133   4.682   5.353   1.101
 9412SOL     OW29134   6.382   3.141   1.359
 9412SOL    HW129135   6.330   3.139   1.445
 9412SOL    HW229136   6.322   3.175   1.286
 9413SOL     OW29137   3.518   5.674   4.862
 9413SOL    HW129138   3.536   5.668   4.960
 9413SOL    HW229139   3.436   5.728   4.846
 9414SOL     OW29140   2.542   1.503   2.146
 9414SOL    HW129141   2.543   1.404   2.162
 9414SOL    HW229142   2.615   1.527   2.081
 9415SOL     OW29143   3.050   0.715   2.042
 9415SOL    HW129144   3.064   0.772   1.961
 9415SOL    HW229145   3.077   0.765   2.124
 9416SOL     OW29146   0.948   1.950   1.294
 9416SOL    HW129147   1.017   1.998   1.348
 9416SOL    HW229148   0.992   1.883   1.235
 9417SOL     OW29149   2.613   6.804   4.581
 9417SOL    HW129150   2.588   6.712   4.553
 9417SOL    HW229151   2.692   6.835   4.527
 9418SOL     OW29152   4.028   4.297   0.843
 9418SOL    HW129153   4.094   4.239   0.891
 9418SOL    HW229154   4.036   4.391   0.875
 9419SOL     OW29155   3.822   5.725   5.420
 9419SOL    HW129156   3.903   5.675   5.388
 9419SOL    HW229157   3.847   5.778   5.501
 9420SOL     OW29158   0.940   1.492   4.831
 9420SOL    HW129159   0.928   1.485   4.732
 9420SOL    HW229160   0.853   1.518   4.873
 9421SOL     OW29161   1.929   5.331   4.919
 9421SOL    HW129162   1.853   5.383   4.880
 9421SOL    HW229163   2.010   5.341   4.860
 9422SOL     OW29164   3.957   1.445   1.974
 9422SOL    HW129165   3.937   1.385   2.053
 9422SOL    HW229166   3.882   1.509   1.961
 9423SOL     OW29167   4.779   0.862   4.972
 9423SOL    HW129168   4.844   0.896   4.905
 9423SOL    HW229169   4.694   0.915   4.966
 9424SOL     OW29170   3.328   6.435   4.341
 9424SOL    HW129171   3.371   6.351   4.310
 9424SOL    HW229172   3.307   6.429   4.438
 9425SOL     OW29173   1.199   4.390   3.938
 9425SOL    HW129174   1.276   4.361   3.995
 9425SOL    HW229175   1.192   4.331   3.858
 9426SOL     OW29176   3.901   6.424   0.209
 9426SOL    HW129177   3.834   6.356   0.179
 9426SOL    HW229178   3.877   6.458   0.299
 9427SOL     OW29179   2.952   4.846   4.242
 9427SOL    HW129180   3.036   4.891   4.274
 9427SOL    HW229181   2.926   4.775   4.308
 9428SOL     OW29182   4.350   6.018   2.599
 9428SOL    HW129183   4.362   5.919   2.604
 9428SOL    HW229184   4.269   6.039   2.544
 9429SOL     OW29185   6.843   3.522   2.585
 9429SOL    HW129186   6.791   3.600   2.620
 9429SOL    HW229187   6.927   3.511   2.639
 9430SOL     OW29188   6.635   6.829   2.194
 9430SOL    HW129189   6.645   6.830   2.094
 9430SOL    HW229190   6.542   6.804   2.218
 9431SOL     OW29191   6.573   4.554   1.709
 9431SOL    HW129192   6.488   4.504   1.692
 9431SOL    HW229193   6.649   4.506   1.667
 9432SOL     OW29194   6.678   6.727   4.253
 9432SOL    HW129195   6.710   6.639   4.288
 9432SOL    HW229196   6.736   6.800   4.290
 9433SOL     OW29197   2.650   4.724   4.765
 9433SOL    HW129198   2.701   4.678   4.838
 9433SOL    HW229199   2.695   4.810   4.743
 9434SOL     OW29200   5.361   5.225   3.005
 9434SOL    HW129201   5.264   5.247   3.017
 9434SOL    HW229202   5.411   5.308   2.979
 9435SOL     OW29203   1.429   1.126   4.900
 9435SOL    HW129204   1.524   1.100   4.887
 9435SOL    HW229205   1.408   1.206   4.844
 9436SOL     OW29206   1.698   2.767   6.028
 9436SOL    HW129207   1.741   2.758   6.118
 9436SOL    HW229208   1.745   2.838   5.976
 9437SOL     OW29209   0.449   5.333   3.955
 9437SOL    HW129210   0.463   5.251   4.011
 9437SOL    HW229211   0.353   5.361   3.961
 9438SOL     OW29212   1.199   6.567   2.111
 9438SOL    HW129213   1.158   6.487   2.154
 9438SOL    HW229214   1.276   6.599   2.166
 9439SOL     OW29215   0.835   2.609   1.541
 9439SOL    HW129216   0.796   2.653   1.623
 9439SOL    HW229217   0.777   2.630   1.462
 9440SOL     OW29218   4.400   6.042   5.280
 9440SOL    HW129219   4.415   5.975   5.353
 9440SOL    HW229220   4.487   6.085   5.255
 9441SOL     OW29221   1.743   4.962   4.786
 9441SOL    HW129222   1.840   4.940   4.790
 9441SOL    HW229223   1.724   5.016   4.704
 9442SOL     OW29224   0.716   3.668   1.198
 9442SOL    HW129225   0.770   3.662   1.282
 9442SOL    HW229226   0.755   3.607   1.129
 9443SOL     OW29227   1.868   3.268   1.476
 9443SOL    HW129228   1.800   3.203   1.511
 9443SOL    HW229229   1.881   3.342   1.543
 9444SOL     OW29230   0.315   3.674   6.068
 9444SOL    HW129231   0.397   3.658   6.122
 9444SOL    HW229232   0.234   3.658   6.125
 9445SOL     OW29233   5.792   3.521   1.371
 9445SOL    HW129234   5.724   3.501   1.442
 9445SOL    HW229235   5.802   3.620   1.363
 9446SOL     OW29236   5.947   5.126   1.251
 9446SOL    HW129237   5.974   5.073   1.331
 9446SOL    HW229238   5.994   5.214   1.252
 9447SOL     OW29239   6.132   2.771   1.527
 9447SOL    HW129240   6.127   2.723   1.615
 9447SOL    HW229241   6.218   2.822   1.522
 9448SOL     OW29242   5.993   6.089   0.460
 9448SOL    HW129243   6.000   6.082   0.361
 9448SOL    HW229244   6.070   6.041   0.502
 9449SOL     OW29245   0.071   5.192   5.272
 9449SOL    HW129246   0.048   5.153   5.182
 9449SOL    HW229247   0.010   5.153   5.341
 9450SOL     OW29248   2.761   5.113   4.603
 9450SOL    HW129249   2.679   5.137   4.655
 9450SOL    HW229250   2.780   5.184   4.535
 9451SOL     OW29251   4.114   4.113   5.990
 9451SOL    HW129252   4.065   4.195   6.018
 9451SOL    HW229253   4.172   4.135   5.910
 9452SOL     OW29254   3.162   4.186   1.227
 9452SOL    HW129255   3.174   4.239   1.311
 9452SOL    HW229256   3.065   4.169   1.211
 9453SOL     OW29257   3.155   4.948   2.267
 9453SOL    HW129258   3.179   4.947   2.170
 9453SOL    HW229259   3.106   4.864   2.291
 9454SOL     OW29260   2.514   2.581   5.261
 9454SOL    HW129261   2.568   2.569   5.344
 9454SOL    HW229262   2.548   2.520   5.190
 9455SOL     OW29263   3.191   1.624   2.252
 9455SOL    HW129264   3.261   1.651   2.186
 9455SOL    HW229265   3.142   1.544   2.217
 9456SOL     OW29266   1.960   2.997   1.271
 9456SOL    HW129267   1.938   2.972   1.365
 9456SOL    HW229268   1.875   3.016   1.221
 9457SOL     OW29269   6.838   3.212   0.482
 9457SOL    HW129270   6.789   3.236   0.566
 9457SOL    HW229271   6.843   3.292   0.422
 9458SOL     OW29272   0.307   5.809   4.593
 9458SOL    HW129273   0.385   5.843   4.540
 9458SOL    HW229274   0.339   5.775   4.681
 9459SOL     OW29275   4.289   6.028   1.765
 9459SOL    HW129276   4.384   6.033   1.733
 9459SOL    HW229277   4.241   6.112   1.740
 9460SOL     OW29278   0.828   2.207   5.054
 9460SOL    HW129279   0.730   2.205   5.071
 9460SOL    HW229280   0.877   2.221   5.140
 9461SOL     OW29281   1.529   0.617   3.214
 9461SOL    HW129282   1.606   0.656   3.164
 9461SOL    HW229283   1.532   0.649   3.309
 9462SOL     OW29284   0.623   3.676   2.696
 9462SOL    HW129285   0.554   3.748   2.704
 9462SOL    HW229286   0.660   3.676   2.603
 9463SOL     OW29287   5.276   1.386   0.288
 9463SOL    HW129288   5.353   1.329   0.260
 9463SOL    HW229289   5.205   1.383   0.218
 9464SOL     OW29290   4.536   7.017   6.060
 9464SOL    HW129291   4.503   6.936   6.109
 9464SOL    HW229292   4.479   0.013   5.980
 9465SOL     OW29293   5.863   0.371   4.481
 9465SOL    HW129294   5.777   0.421   4.494
 9465SOL    HW229295   5.882   0.365   4.383
 9466SOL     OW29296   2.310   2.276   0.000
 9466SOL    HW129297   2.304   2.342   6.945
 9466SOL    HW229298   2.405   2.273   0.034
 9467SOL     OW29299   1.983   3.375   2.003
 9467SOL    HW129300   2.073   3.412   1.981
 9467SOL    HW229301   1.994   3.286   2.047
 9468SOL     OW29302   6.801   2.586   6.114
 9468SOL    HW129303   6.744   2.608   6.035
 9468SOL    HW229304   6.783   2.492   6.143
 9469SOL     OW29305   6.408   4.322   2.341
 9469SOL    HW129306   6.311   4.344   2.344
 9469SOL    HW229307   6.421   4.232   2.299
 9470SOL     OW29308   5.044   3.605   1.149
 9470SOL    HW129309   5.044   3.587   1.247
 9470SOL    HW229310   4.973   3.550   1.105
 9471SOL     OW29311   6.803   2.311   6.143
 9471SOL    HW129312   6.815   2.254   6.225
 9471SOL    HW229313   6.772   2.254   6.067
 9472SOL     OW29314   6.741   3.427   4.536
 9472SOL    HW129315   6.755   3.512   4.587
 9472SOL    HW229316   6.828   3.396   4.497
 9473SOL     OW29317   3.747   5.361   4.896
 9473SOL    HW129318   3.706   5.343   4.986
 9473SOL    HW229319   3.700   5.308   4.826
 9474SOL     OW29320   3.908   5.203   2.461
 9474SOL    HW129321   4.003   5.218   2.434
 9474SOL    HW229322   3.897   5.110   2.496
 9475SOL     OW29323   1.419   3.755   1.239
 9475SOL    HW129324   1.453   3.681   1.297
 9475SOL    HW229325   1.459   3.842   1.269
 9476SOL     OW29326   4.027   3.615   5.574
 9476SOL    HW129327   3.951   3.608   5.639
 9476SOL    HW229328   4.019   3.699   5.521
 9477SOL     OW29329   1.338   3.291   0.970
 9477SOL    HW129330   1.408   3.331   1.028
 9477SOL    HW229331   1.379   3.260   0.884
 9478SOL     OW29332   5.504   4.676   5.355
 9478SOL    HW129333   5.512   4.584   5.395
 9478SOL    HW229334   5.480   4.667   5.259
 9479SOL     OW29335   6.836   5.765   5.650
 9479SOL    HW129336   6.812   5.836   5.584
 9479SOL    HW229337   6.869   5.808   5.734
 9480SOL     OW29338   5.966   4.654   0.138
 9480SOL    HW129339   5.912   4.619   0.215
 9480SOL    HW229340   5.959   4.754   0.136
 9481SOL     OW29341   6.547   3.596   2.077
 9481SOL    HW129342   6.488   3.551   2.144
 9481SOL    HW229343   6.584   3.680   2.116
 9482SOL     OW29344   3.851   0.536   2.701
 9482SOL    HW129345   3.821   0.513   2.794
 9482SOL    HW229346   3.773   0.570   2.649
 9483SOL     OW29347   1.774   1.689   0.367
 9483SOL    HW129348   1.687   1.739   0.362
 9483SOL    HW229349   1.758   1.599   0.409
 9484SOL     OW29350   6.510   1.239   2.590
 9484SOL    HW129351   6.596   1.258   2.543
 9484SOL    HW229352   6.452   1.320   2.586
 9485SOL     OW29353   1.105   0.734   3.031
 9485SOL    HW129354   1.098   0.665   3.102
 9485SOL    HW229355   1.201   0.751   3.009
 9486SOL     OW29356   3.124   6.021   2.078
 9486SOL    HW129357   3.171   6.086   2.137
 9486SOL    HW229358   3.173   6.012   1.991
 9487SOL     OW29359   3.050   3.068   3.691
 9487SOL    HW129360   3.142   3.051   3.658
 9487SOL    HW229361   2.986   3.004   3.648
 9488SOL     OW29362   1.439   0.287   1.197
 9488SOL    HW129363   1.363   0.243   1.150
 9488SOL    HW229364   1.524   0.239   1.174
 9489SOL     OW29365   3.500   4.065   0.342
 9489SOL    HW129366   3.536   3.971   0.339
 9489SOL    HW229367   3.493   4.100   0.248
 9490SOL     OW29368   5.253   1.012   0.307
 9490SOL    HW129369   5.226   1.020   0.403
 9490SOL    HW229370   5.353   1.008   0.300
 9491SOL     OW29371   6.471   5.307   6.453
 9491SOL    HW129372   6.405   5.341   6.520
 9491SOL    HW229373   6.446   5.341   6.362
 9492SOL     OW29374   3.121   4.062   2.091
 9492SOL    HW129375   3.197   4.078   2.155
 9492SOL    HW229376   3.039   4.108   2.123
 9493SOL     OW29377   5.138   6.519   3.122
 9493SOL    HW129378   5.157   6.428   3.159
 9493SOL    HW229379   5.198   6.537   3.044
 9494SOL     OW29380   4.230   3.279   5.718
 9494SOL    HW129381   4.223   3.353   5.650
 9494SOL    HW229382   4.326   3.258   5.735
 9495SOL     OW29383   5.728   2.972   5.473
 9495SOL    HW129384   5.761   2.993   5.565
 9495SOL    HW229385   5.780   3.025   5.406
 9496SOL     OW29386   5.686   4.239   0.345
 9496SOL    HW129387   5.616   4.256   0.414
 9496SOL    HW229388   5.768   4.201   0.388
 9497SOL     OW29389   6.960   6.386   5.548
 9497SOL    HW129390   6.926   6.428   5.632
 9497SOL    HW229391   0.019   6.438   5.515
 9498SOL     OW29392   4.221   0.264   5.702
 9498SOL    HW129393   4.249   0.299   5.612
 9498SOL    HW229394   4.246   0.330   5.773
 9499SOL     OW29395   4.557   4.314   6.063
 9499SOL    HW129396   4.644   4.279   6.097
 9499SOL    HW229397   4.532   4.266   5.979
 9500SOL     OW29398   4.925   5.708   1.692
 9500SOL    HW129399   4.886   5.734   1.780
 9500SOL    HW229400   5.025   5.715   1.697
 9501SOL     OW29401   3.159   1.670   4.941
 9501SOL    HW129402   3.104   1.594   4.974
 9501SOL    HW229403   3.254   1.640   4.929
 9502SOL     OW29404   5.510   3.355   5.421
 9502SOL    HW129405   5.495   3.372   5.518
 9502SOL    HW229406   5.423   3.336   5.376
 9503SOL     OW29407   1.785   6.315   1.163
 9503SOL    HW129408   1.690   6.338   1.143
 9503SOL    HW229409   1.823   6.262   1.087
 9504SOL     OW29410   0.821   2.971   6.594
 9504SOL    HW129411   0.744   2.953   6.533
 9504SOL    HW229412   0.873   3.049   6.560
 9505SOL     OW29413   5.676   3.463   2.855
 9505SOL    HW129414   5.737   3.512   2.916
 9505SOL    HW229415   5.590   3.442   2.903
 9506SOL     OW29416   6.210   3.289   0.393
 9506SOL    HW129417   6.166   3.274   0.481
 9506SOL    HW229418   6.309   3.293   0.406
 9507SOL     OW29419   0.760   2.377   3.967
 9507SOL    HW129420   0.728   2.444   3.900
 9507SOL    HW229421   0.798   2.298   3.920
 9508SOL     OW29422   5.154   1.920   0.454
 9508SOL    HW129423   5.065   1.898   0.415
 9508SOL    HW229424   5.158   2.018   0.474
 9509SOL     OW29425   2.585   6.802   5.201
 9509SOL    HW129426   2.642   6.751   5.266
 9509SOL    HW229427   2.641   6.871   5.155
 9510SOL     OW29428   6.306   4.545   3.080
 9510SOL    HW129429   6.315   4.452   3.043
 9510SOL    HW229430   6.274   4.541   3.174
 9511SOL     OW29431   1.197   1.597   0.821
 9511SOL    HW129432   1.149   1.684   0.805
 9511SOL    HW229433   1.138   1.521   0.794
 9512SOL     OW29434   1.387   2.363   4.102
 9512SOL    HW129435   1.366   2.303   4.179
 9512SOL    HW229436   1.364   2.457   4.126
 9513SOL     OW29437   2.446   4.411   3.790
 9513SOL    HW129438   2.459   4.449   3.882
 9513SOL    HW229439   2.411   4.317   3.798
 9514SOL     OW29440   2.091   2.943   6.218
 9514SOL    HW129441   2.032   3.019   6.248
 9514SOL    HW229442   2.129   2.897   6.297
 9515SOL     OW29443   2.630   5.781   5.949
 9515SOL    HW129444   2.566   5.774   5.872
 9515SOL    HW229445   2.711   5.831   5.920
 9516SOL     OW29446   5.437   3.634   4.586
 9516SOL    HW129447   5.487   3.710   4.544
 9516SOL    HW229448   5.380   3.589   4.517
 9517SOL     OW29449   0.628   5.891   1.965
 9517SOL    HW129450   0.630   5.828   1.887
 9517SOL    HW229451   0.559   5.962   1.949
 9518SOL     OW29452   0.680   2.760   5.500
 9518SOL    HW129453   0.606   2.693   5.494
 9518SOL    HW229454   0.668   2.816   5.582
 9519SOL     OW29455   3.682   3.243   3.062
 9519SOL    HW129456   3.662   3.200   2.974
 9519SOL    HW229457   3.764   3.201   3.101
 9520SOL     OW29458   5.151   0.321   6.198
 9520SOL    HW129459   5.237   0.370   6.186
 9520SOL    HW229460   5.168   0.223   6.207
 9521SOL     OW29461   3.202   0.733   0.962
 9521SOL    HW129462   3.105   0.756   0.955
 9521SOL    HW229463   3.219   0.647   0.914
 9522SOL     OW29464   3.267   6.637   2.328
 9522SOL    HW129465   3.336   6.593   2.270
 9522SOL    HW229466   3.279   6.606   2.423
 9523SOL     OW29467   3.005   4.812   3.954
 9523SOL    HW129468   3.086   4.868   3.941
 9523SOL    HW229469   2.986   4.802   4.052
 9524SOL     OW29470   2.689   4.011   1.112
 9524SOL    HW129471   2.638   3.996   1.197
 9524SOL    HW229472   2.727   3.924   1.081
 9525SOL     OW29473   2.273   3.177   5.297
 9525SOL    HW129474   2.333   3.107   5.259
 9525SOL    HW229475   2.328   3.255   5.327
 9526SOL     OW29476   5.426   5.418   0.207
 9526SOL    HW129477   5.345   5.449   0.255
 9526SOL    HW229478   5.502   5.410   0.271
 9527SOL     OW29479   4.307   0.284   3.475
 9527SOL    HW129480   4.401   0.268   3.507
 9527SOL    HW229481   4.257   0.198   3.475
 9528SOL     OW29482   5.706   2.119   0.965
 9528SOL    HW129483   5.765   2.038   0.971
 9528SOL    HW229484   5.644   2.109   0.887
 9529SOL     OW29485   6.136   0.959   1.448
 9529SOL    HW129486   6.235   0.962   1.437
 9529SOL    HW229487   6.112   0.984   1.541
 9530SOL     OW29488   1.385   5.293   3.960
 9530SOL    HW129489   1.434   5.367   4.007
 9530SOL    HW229490   1.378   5.316   3.863
 9531SOL     OW29491   3.468   5.245   2.418
 9531SOL    HW129492   3.534   5.246   2.493
 9531SOL    HW229493   3.398   5.176   2.436
 9532SOL     OW29494   6.709   4.949   2.943
 9532SOL    HW129495   6.756   4.865   2.970
 9532SOL    HW229496   6.611   4.939   2.957
 9533SOL     OW29497   1.934   4.194   3.422
 9533SOL    HW129498   2.022   4.191   3.469
 9533SOL    HW229499   1.949   4.204   3.324
 9534SOL     OW29500   5.629   4.787   4.457
 9534SOL    HW129501   5.702   4.835   4.506
 9534SOL    HW229502   5.575   4.854   4.405
 9535SOL     OW29503   0.584   1.471   5.563
 9535SOL    HW129504   0.586   1.373   5.543
 9535SOL    HW229505   0.490   1.500   5.581
 9536SOL     OW29506   3.764   4.130   5.045
 9536SOL    HW129507   3.848   4.078   5.032
 9536SOL    HW229508   3.686   4.077   5.010
 9537SOL     OW29509   0.456   1.641   3.521
 9537SOL    HW129510   0.440   1.620   3.617
 9537SOL    HW229511   0.553   1.632   3.500
 9538SOL     OW29512   4.398   0.745   5.501
 9538SOL    HW129513   4.441   0.776   5.416
 9538SOL    HW229514   4.465   0.698   5.557
 9539SOL     OW29515   3.415   3.722   2.012
 9539SOL    HW129516   3.450   3.755   2.099
 9539SOL    HW229517   3.448   3.629   1.996
 9540SOL     OW29518   4.225   4.667   3.559
 9540SOL    HW129519   4.269   4.654   3.649
 9540SOL    HW229520   4.142   4.720   3.570
 9541SOL     OW29521   2.175   5.657   5.845
 9541SOL    HW129522   2.195   5.563   5.817
 9541SOL    HW229523   2.076   5.670   5.852
 9542SOL     OW29524   6.182   3.764   4.033
 9542SOL    HW129525   6.114   3.746   4.104
 9542SOL    HW229526   6.136   3.776   3.945
 9543SOL     OW29527   2.542   0.080   5.667
 9543SOL    HW129528   2.574   0.093   5.573
 9543SOL    HW229529   2.589   0.001   5.707
 9544SOL     OW29530   5.696   3.430   4.065
 9544SOL    HW129531   5.699   3.334   4.094
 9544SOL    HW229532   5.784   3.456   4.026
 9545SOL     OW29533   0.785   4.566   1.830
 9545SOL    HW129534   0.754   4.566   1.735
 9545SOL    HW229535   0.833   4.652   1.850
 9546SOL     OW29536   2.377   2.718   0.011
 9546SOL    HW129537   2.366   2.634   6.977
 9546SOL    HW229538   2.466   2.716   0.058
 9547SOL     OW29539   4.171   6.445   4.110
 9547SOL    HW129540   4.206   6.499   4.187
 9547SOL    HW229541   4.242   6.382   4.079
 9548SOL     OW29542   1.379   4.379   6.954
 9548SOL    HW129543   1.351   4.448   6.888
 9548SOL    HW229544   1.455   4.413   7.008
 9549SOL     OW29545   4.921   2.321   1.101
 9549SOL    HW129546   4.906   2.333   1.199
 9549SOL    HW229547   4.845   2.271   1.061
 9550SOL     OW29548   5.252   2.979   1.553
 9550SOL    HW129549   5.180   2.999   1.620
 9550SOL    HW229550   5.308   3.061   1.540
 9551SOL     OW29551   6.423   3.402   6.586
 9551SOL    HW129552   6.490   3.398   6.660
 9551SOL    HW229553   6.360   3.478   6.602
 9552SOL     OW29554   2.915   1.786   0.180
 9552SOL    HW129555   2.821   1.820   0.175
 9552SOL    HW229556   2.916   1.696   0.224
 9553SOL     OW29557   5.400   1.393   6.443
 9553SOL    HW129558   5.466   1.468   6.450
 9553SOL    HW229559   5.311   1.429   6.417
 9554SOL     OW29560   2.781   6.978   3.999
 9554SOL    HW129561   2.714   0.025   4.032
 9554SOL    HW229562   2.862   6.981   4.058
 9555SOL     OW29563   6.590   0.318   3.619
 9555SOL    HW129564   6.510   0.377   3.604
 9555SOL    HW229565   6.586   0.279   3.710
 9556SOL     OW29566   1.943   4.395   6.618
 9556SOL    HW129567   1.877   4.470   6.606
 9556SOL    HW229568   1.925   4.348   6.704
 9557SOL     OW29569   4.957   0.829   1.881
 9557SOL    HW129570   4.968   0.839   1.782
 9557SOL    HW229571   4.999   0.908   1.927
 9558SOL     OW29572   4.733   6.901   6.442
 9558SOL    HW129573   4.715   6.886   6.539
 9558SOL    HW229574   4.709   6.818   6.391
 9559SOL     OW29575   1.666   4.232   0.179
 9559SOL    HW129576   1.702   4.144   0.207
 9559SOL    HW229577   1.569   4.224   0.156
 9560SOL     OW29578   3.217   6.910   2.236
 9560SOL    HW129579   3.229   6.821   2.281
 9560SOL    HW229580   3.307   6.944   2.207
 9561SOL     OW29581   0.813   0.245   0.891
 9561SOL    HW129582   0.884   0.260   0.823
 9561SOL    HW229583   0.814   0.320   0.957
 9562SOL     OW29584   3.248   5.748   3.021
 9562SOL    HW129585   3.301   5.665   3.004
 9562SOL    HW229586   3.292   5.801   3.093
 9563SOL     OW29587   0.580   6.392   1.223
 9563SOL    HW129588   0.671   6.350   1.235
 9563SOL    HW229589   0.588   6.491   1.229
 9564SOL     OW29590   1.152   0.691   6.981
 9564SOL    HW129591   1.143   0.602   6.936
 9564SOL    HW229592   1.132   0.764   6.915
 9565SOL     OW29593   3.322   1.691   3.630
 9565SOL    HW129594   3.396   1.640   3.674
 9565SOL    HW229595   3.349   1.715   3.536
 9566SOL     OW29596   3.468   0.580   0.269
 9566SOL    HW129597   3.558   0.624   0.266
 9566SOL    HW229598   3.408   0.633   0.329
 9567SOL     OW29599   6.697   3.642   1.324
 9567SOL    HW129600   6.762   3.646   1.400
 9567SOL    HW229601   6.625   3.576   1.346
 9568SOL     OW29602   4.949   1.264   6.892
 9568SOL    HW129603   5.021   1.207   6.852
 9568SOL    HW229604   4.966   1.275   6.990
 9569SOL     OW29605   5.752   0.915   1.831
 9569SOL    HW129606   5.804   0.956   1.756
 9569SOL    HW229607   5.707   0.832   1.799
 9570SOL     OW29608   0.277   3.296   1.421
 9570SOL    HW129609   0.263   3.392   1.446
 9570SOL    HW229610   0.339   3.290   1.343
 9571SOL     OW29611   2.334   2.527   6.557
 9571SOL    HW129612   2.262   2.532   6.626
 9571SOL    HW229613   2.293   2.530   6.466
 9572SOL     OW29614   2.282   4.138   3.807
 9572SOL    HW129615   2.294   4.039   3.799
 9572SOL    HW229616   2.276   4.163   3.904
 9573SOL     OW29617   6.299   1.029   4.583
 9573SOL    HW129618   6.359   1.091   4.532
 9573SOL    HW229619   6.274   1.072   4.670
 9574SOL     OW29620   3.488   3.083   1.067
 9574SOL    HW129621   3.557   3.044   1.128
 9574SOL    HW229622   3.425   3.140   1.121
 9575SOL     OW29623   6.348   6.318   1.358
 9575SOL    HW129624   6.317   6.339   1.265
 9575SOL    HW229625   6.441   6.353   1.370
 9576SOL     OW29626   1.061   6.781   0.102
 9576SOL    HW129627   1.131   6.848   0.075
 9576SOL    HW229628   0.972   6.811   0.069
 9577SOL     OW29629   6.241   5.204   2.348
 9577SOL    HW129630   6.323   5.261   2.346
 9577SOL    HW229631   6.209   5.194   2.442
 9578SOL     OW29632   2.202   3.043   3.075
 9578SOL    HW129633   2.184   3.124   3.131
 9578SOL    HW229634   2.179   3.063   2.980
 9579SOL     OW29635   5.892   5.907   1.918
 9579SOL    HW129636   5.819   5.957   1.965
 9579SOL    HW229637   5.957   5.872   1.985
 9580SOL     OW29638   5.256   4.873   2.873
 9580SOL    HW129639   5.201   4.854   2.791
 9580SOL    HW229640   5.344   4.827   2.865
 9581SOL     OW29641   6.269   1.185   0.253
 9581SOL    HW129642   6.339   1.235   0.304
 9581SOL    HW229643   6.227   1.116   0.312
 9582SOL     OW29644   4.927   5.973   4.301
 9582SOL    HW129645   4.860   5.988   4.373
 9582SOL    HW229646   4.921   6.046   4.233
 9583SOL     OW29647   3.707   4.465   1.706
 9583SOL    HW129648   3.636   4.534   1.718
 9583SOL    HW229649   3.702   4.399   1.781
 9584SOL     OW29650   2.110   5.900   4.994
 9584SOL    HW129651   2.149   5.814   5.024
 9584SOL    HW229652   2.181   5.955   4.949
 9585SOL     OW29653   4.048   5.783   1.151
 9585SOL    HW129654   4.076   5.687   1.157
 9585SOL    HW229655   4.096   5.827   1.076
 9586SOL     OW29656   4.382   5.076   2.215
 9586SOL    HW129657   4.295   5.101   2.173
 9586SOL    HW229658   4.396   4.978   2.205
 9587SOL     OW29659   3.164   5.952   1.738
 9587SOL    HW129660   3.072   5.988   1.753
 9587SOL    HW229661   3.221   6.021   1.694
 9588SOL     OW29662   6.088   5.459   0.494
 9588SOL    HW129663   6.057   5.408   0.574
 9588SOL    HW229664   6.012   5.514   0.458
 9589SOL     OW29665   1.491   4.000   6.200
 9589SOL    HW129666   1.532   4.046   6.121
 9589SOL    HW229667   1.440   4.067   6.254
 9590SOL     OW29668   5.809   1.538   1.203
 9590SOL    HW129669   5.856   1.468   1.150
 9590SOL    HW229670   5.745   1.494   1.266
 9591SOL     OW29671   3.629   0.692   6.986
 9591SOL    HW129672   3.697   0.639   0.017
 9591SOL    HW229673   3.643   0.680   6.888
 9592SOL     OW29674   2.344   5.917   5.832
 9592SOL    HW129675   2.344   5.985   5.906
 9592SOL    HW229676   2.258   5.865   5.835
 9593SOL     OW29677   2.013   1.775   4.876
 9593SOL    HW129678   2.091   1.825   4.914
 9593SOL    HW229679   2.039   1.736   4.788
 9594SOL     OW29680   0.350   6.795   3.963
 9594SOL    HW129681   0.280   6.770   3.896
 9594SOL    HW229682   0.423   6.845   3.918
 9595SOL     OW29683   0.617   3.693   3.352
 9595SOL    HW129684   0.521   3.692   3.324
 9595SOL    HW229685   0.627   3.745   3.437
 9596SOL     OW29686   0.503   0.007   1.559
 9596SOL    HW129687   0.557   0.090   1.549
 9596SOL    HW229688   0.520   6.966   1.481
 9597SOL     OW29689   0.792   3.505   2.121
 9597SOL    HW129690   0.780   3.473   2.028
 9597SOL    HW229691   0.823   3.429   2.179
 9598SOL     OW29692   1.318   3.876   3.774
 9598SOL    HW129693   1.287   3.856   3.681
 9598SOL    HW229694   1.239   3.877   3.835
 9599SOL     OW29695   4.343   6.775   3.920
 9599SOL    HW129696   4.349   6.857   3.977
 9599SOL    HW229697   4.247   6.750   3.907
 9600SOL     OW29698   3.032   0.614   1.259
 9600SOL    HW129699   3.005   0.617   1.355
 9600SOL    HW229700   3.129   0.638   1.251
 9601SOL     OW29701   6.954   4.227   1.258
 9601SOL    HW129702   6.932   4.212   1.354
 9601SOL    HW229703   6.870   4.242   1.206
 9602SOL     OW29704   4.445   4.827   5.870
 9602SOL    HW129705   4.456   4.901   5.804
 9602SOL    HW229706   4.535   4.794   5.899
 9603SOL     OW29707   5.308   5.581   5.391
 9603SOL    HW129708   5.354   5.506   5.438
 9603SOL    HW229709   5.262   5.639   5.458
 9604SOL     OW29710   5.212   6.710   0.371
 9604SOL    HW129711   5.205   6.793   0.426
 9604SOL    HW229712   5.194   6.732   0.275
 9605SOL     OW29713   6.269   6.402   3.114
 9605SOL    HW129714   6.203   6.470   3.082
 9605SOL    HW229715   6.311   6.433   3.199
 9606SOL     OW29716   1.523   1.818   6.492
 9606SOL    HW129717   1.580   1.892   6.529
 9606SOL    HW229718   1.442   1.857   6.449
 9607SOL     OW29719   3.365   2.942   6.056
 9607SOL    HW129720   3.280   2.994   6.065
 9607SOL    HW229721   3.412   2.939   6.144
 9608SOL     OW29722   6.678   3.705   3.552
 9608SOL    HW129723   6.654   3.733   3.645
 9608SOL    HW229724   6.776   3.689   3.545
 9609SOL     OW29725   4.268   2.584   6.151
 9609SOL    HW129726   4.195   2.556   6.214
 9609SOL    HW229727   4.313   2.503   6.113
 9610SOL     OW29728   1.324   4.022   3.044
 9610SOL    HW129729   1.254   4.093   3.050
 9610SOL    HW229730   1.406   4.052   3.091
 9611SOL     OW29731   1.238   0.419   0.505
 9611SOL    HW129732   1.325   0.467   0.493
 9611SOL    HW229733   1.177   0.442   0.429
 9612SOL     OW29734   0.569   3.115   3.340
 9612SOL    HW129735   0.469   3.123   3.334
 9612SOL    HW229736   0.609   3.207   3.347
 9613SOL     OW29737   5.925   5.740   3.628
 9613SOL    HW129738   5.932   5.721   3.726
 9613SOL    HW229739   5.829   5.749   3.603
 9614SOL     OW29740   4.967   2.276   3.198
 9614SOL    HW129741   4.876   2.237   3.211
 9614SOL    HW229742   4.962   2.375   3.211
 9615SOL     OW29743   2.428   2.695   1.128
 9615SOL    HW129744   2.513   2.714   1.079
 9615SOL    HW229745   2.438   2.609   1.179
 9616SOL     OW29746   3.957   2.528   0.120
 9616SOL    HW129747   4.024   2.482   0.177
 9616SOL    HW229748   3.866   2.493   0.140
 9617SOL     OW29749   2.264   2.224   3.880
 9617SOL    HW129750   2.352   2.252   3.842
 9617SOL    HW229751   2.279   2.163   3.957
 9618SOL     OW29752   2.727   0.939   0.687
 9618SOL    HW129753   2.731   1.030   0.729
 9618SOL    HW229754   2.698   0.948   0.592
 9619SOL     OW29755   2.654   1.114   4.651
 9619SOL    HW129756   2.606   1.097   4.565
 9619SOL    HW229757   2.719   1.189   4.639
 9620SOL     OW29758   5.716   0.131   5.503
 9620SOL    HW129759   5.766   0.210   5.537
 9620SOL    HW229760   5.698   0.142   5.406
 9621SOL     OW29761   1.867   2.890   3.130
 9621SOL    HW129762   1.966   2.880   3.131
 9621SOL    HW229763   1.827   2.823   3.067
 9622SOL     OW29764   5.979   0.281   1.445
 9622SOL    HW129765   6.046   0.213   1.476
 9622SOL    HW229766   5.999   0.308   1.351
 9623SOL     OW29767   3.225   3.641   6.326
 9623SOL    HW129768   3.245   3.695   6.408
 9623SOL    HW229769   3.284   3.561   6.325
 9624SOL     OW29770   6.074   3.397   3.461
 9624SOL    HW129771   6.118   3.486   3.476
 9624SOL    HW229772   6.090   3.338   3.540
 9625SOL     OW29773   5.910   5.919   0.170
 9625SOL    HW129774   5.910   5.879   0.079
 9625SOL    HW229775   5.994   5.972   0.183
 9626SOL     OW29776   3.328   6.492   6.786
 9626SOL    HW129777   3.261   6.549   6.834
 9626SOL    HW229778   3.281   6.421   6.734
 9627SOL     OW29779   1.433   6.577   6.833
 9627SOL    HW129780   1.345   6.536   6.856
 9627SOL    HW229781   1.419   6.648   6.763
 9628SOL     OW29782   4.157   6.205   2.163
 9628SOL    HW129783   4.123   6.128   2.110
 9628SOL    HW229784   4.084   6.273   2.174
 9629SOL     OW29785   2.619   6.750   1.014
 9629SOL    HW129786   2.588   6.837   0.976
 9629SOL    HW229787   2.557   6.720   1.087
 9630SOL     OW29788   6.254   1.047   5.857
 9630SOL    HW129789   6.312   1.102   5.798
 9630SOL    HW229790   6.249   0.953   5.823
 9631SOL     OW29791   5.904   5.810   6.929
 9631SOL    HW129792   5.846   5.736   6.893
 9631SOL    HW229793   5.908   5.883   6.861
 9632SOL     OW29794   1.553   6.194   1.884
 9632SOL    HW129795   1.495   6.144   1.949
 9632SOL    HW229796   1.641   6.147   1.875
 9633SOL     OW29797   6.825   5.346   6.602
 9633SOL    HW129798   6.793   5.440   6.594
 9633SOL    HW229799   6.748   5.287   6.629
 9634SOL     OW29800   1.007   6.127   4.702
 9634SOL    HW129801   0.949   6.125   4.783
 9634SOL    HW229802   1.100   6.153   4.728
 9635SOL     OW29803   1.885   5.273   5.450
 9635SOL    HW129804   1.884   5.373   5.450
 9635SOL    HW229805   1.902   5.240   5.357
 9636SOL     OW29806   4.398   1.419   6.350
 9636SOL    HW129807   4.454   1.338   6.332
 9636SOL    HW229808   4.384   1.470   6.265
 9637SOL     OW29809   2.199   1.665   6.974
 9637SOL    HW129810   2.220   1.733   0.025
 9637SOL    HW229811   2.109   1.625   6.991
 9638SOL     OW29812   6.559   2.342   5.500
 9638SOL    HW129813   6.552   2.242   5.496
 9638SOL    HW229814   6.492   2.381   5.437
 9639SOL     OW29815   4.294   1.198   2.469
 9639SOL    HW129816   4.252   1.108   2.468
 9639SOL    HW229817   4.316   1.223   2.563
 9640SOL     OW29818   2.127   2.187   1.952
 9640SOL    HW129819   2.209   2.243   1.955
 9640SOL    HW229820   2.057   2.232   1.896
 9641SOL     OW29821   6.199   5.726   0.309
 9641SOL    HW129822   6.160   5.691   0.395
 9641SOL    HW229823   6.129   5.723   0.238
 9642SOL     OW29824   3.499   0.263   4.233
 9642SOL    HW129825   3.507   0.362   4.242
 9642SOL    HW229826   3.434   0.241   4.161
 9643SOL     OW29827   4.404   4.567   3.360
 9643SOL    HW129828   4.395   4.658   3.319
 9643SOL    HW229829   4.327   4.551   3.422
 9644SOL     OW29830   2.027   1.684   6.175
 9644SOL    HW129831   2.106   1.721   6.223
 9644SOL    HW229832   1.948   1.743   6.190
 9645SOL     OW29833   3.108   5.172   5.089
 9645SOL    HW129834   3.080   5.099   5.152
 9645SOL    HW229835   3.062   5.257   5.114
 9646SOL     OW29836   4.249   4.781   3.256
 9646SOL    HW129837   4.177   4.728   3.301
 9646SOL    HW229838   4.209   4.858   3.207
 9647SOL     OW29839   6.439   2.925   0.306
 9647SOL    HW129840   6.350   2.943   0.264
 9647SOL    HW229841   6.447   2.827   0.325
 9648SOL     OW29842   4.493   2.993   1.102
 9648SOL    HW129843   4.481   3.091   1.114
 9648SOL    HW229844   4.404   2.949   1.091
 9649SOL     OW29845   2.303   5.678   0.563
 9649SOL    HW129846   2.213   5.640   0.585
 9649SOL    HW229847   2.297   5.735   0.482
 9650SOL     OW29848   6.919   6.726   1.841
 9650SOL    HW129849   6.822   6.750   1.837
 9650SOL    HW229850   6.933   6.638   1.795
 9651SOL     OW29851   0.395   2.033   5.426
 9651SOL    HW129852   0.475   2.003   5.479
 9651SOL    HW229853   0.413   2.124   5.389
 9652SOL     OW29854   0.820   5.863   2.847
 9652SOL    HW129855   0.894   5.917   2.887
 9652SOL    HW229856   0.819   5.772   2.889
 9653SOL     OW29857   6.287   4.880   4.354
 9653SOL    HW129858   6.218   4.857   4.285
 9653SOL    HW229859   6.276   4.819   4.433
 9654SOL     OW29860   2.235   2.804   2.188
 9654SOL    HW129861   2.301   2.741   2.149
 9654SOL    HW229862   2.169   2.753   2.243
 9655SOL     OW29863   6.023   2.791   6.539
 9655SOL    HW129864   5.998   2.878   6.495
 9655SOL    HW229865   6.064   2.730   6.471
 9656SOL     OW29866   3.242   0.823   2.595
 9656SOL    HW129867   3.300   0.876   2.533
 9656SOL    HW229868   3.223   0.877   2.677
 9657SOL     OW29869   0.243   0.280   4.775
 9657SOL    HW129870   0.316   0.270   4.843
 9657SOL    HW229871   0.202   0.371   4.782
 9658SOL     OW29872   6.309   2.173   2.771
 9658SOL    HW129873   6.270   2.263   2.748
 9658SOL    HW229874   6.244   2.122   2.827
 9659SOL     OW29875   0.888   5.164   6.849
 9659SOL    HW129876   0.796   5.134   6.826
 9659SOL    HW229877   0.907   5.251   6.805
 9660SOL     OW29878   0.607   5.405   0.270
 9660SOL    HW129879   0.619   5.453   0.183
 9660SOL    HW229880   0.528   5.344   0.264
 9661SOL     OW29881   4.152   6.650   1.118
 9661SOL    HW129882   4.220   6.607   1.178
 9661SOL    HW229883   4.106   6.579   1.065
 9662SOL     OW29884   5.008   0.846   4.132
 9662SOL    HW129885   5.051   0.803   4.211
 9662SOL    HW229886   5.043   0.939   4.121
 9663SOL     OW29887   2.597   5.273   2.829
 9663SOL    HW129888   2.624   5.252   2.923
 9663SOL    HW229889   2.638   5.206   2.767
 9664SOL     OW29890   2.884   5.893   1.393
 9664SOL    HW129891   2.936   5.976   1.371
 9664SOL    HW229892   2.933   5.840   1.462
 9665SOL     OW29893   4.891   4.065   4.642
 9665SOL    HW129894   4.929   4.147   4.685
 9665SOL    HW229895   4.888   3.990   4.708
 9666SOL     OW29896   5.919   4.750   4.082
 9666SOL    HW129897   5.835   4.717   4.126
 9666SOL    HW229898   5.916   4.728   3.985
 9667SOL     OW29899   4.076   3.668   3.686
 9667SOL    HW129900   4.050   3.724   3.607
 9667SOL    HW229901   4.157   3.614   3.664
 9668SOL     OW29902   0.351   1.474   5.257
 9668SOL    HW129903   0.368   1.572   5.269
 9668SOL    HW229904   0.255   1.454   5.277
 9669SOL     OW29905   2.039   5.621   0.587
 9669SOL    HW129906   2.071   5.570   0.507
 9669SOL    HW229907   1.977   5.564   0.641
 9670SOL     OW29908   5.649   4.816   0.505
 9670SOL    HW129909   5.628   4.723   0.537
 9670SOL    HW229910   5.673   4.813   0.408
 9671SOL     OW29911   0.001   0.321   6.484
 9671SOL    HW129912   0.091   0.304   6.525
 9671SOL    HW229913   6.959   0.360   6.553
 9672SOL     OW29914   0.880   6.777   4.795
 9672SOL    HW129915   0.925   6.843   4.855
 9672SOL    HW229916   0.938   6.696   4.784
 9673SOL     OW29917   2.657   3.098   6.232
 9673SOL    HW129918   2.610   3.055   6.308
 9673SOL    HW229919   2.641   3.045   6.148
 9674SOL     OW29920   2.830   0.059   2.068
 9674SOL    HW129921   2.919   0.105   2.071
 9674SOL    HW229922   2.799   0.040   2.162
 9675SOL     OW29923   0.017   2.504   2.233
 9675SOL    HW129924   0.075   2.476   2.309
 9675SOL    HW229925   0.071   2.556   2.167
 9676SOL     OW29926   0.452   3.906   4.451
 9676SOL    HW129927   0.352   3.910   4.453
 9676SOL    HW229928   0.483   3.821   4.492
 9677SOL     OW29929   2.067   3.564   5.001
 9677SOL    HW129930   2.069   3.488   5.065
 9677SOL    HW229931   2.007   3.542   4.924
 9678SOL     OW29932   3.103   3.082   3.215
 9678SOL    HW129933   3.043   3.049   3.287
 9678SOL    HW229934   3.182   3.021   3.208
 9679SOL     OW29935   0.834   3.252   1.563
 9679SOL    HW129936   0.864   3.253   1.467
 9679SOL    HW229937   0.911   3.225   1.621
 9680SOL     OW29938   5.924   5.049   3.756
 9680SOL    HW129939   5.843   5.092   3.717
 9680SOL    HW229940   6.000   5.057   3.692
 9681SOL     OW29941   1.431   1.350   3.670
 9681SOL    HW129942   1.335   1.369   3.691
 9681SOL    HW229943   1.436   1.295   3.586
 9682SOL     OW29944   6.643   4.626   2.797
 9682SOL    HW129945   6.568   4.691   2.799
 9682SOL    HW229946   6.653   4.582   2.887
 9683SOL     OW29947   4.469   6.514   6.498
 9683SOL    HW129948   4.514   6.554   6.578
 9683SOL    HW229949   4.425   6.428   6.524
 9684SOL     OW29950   1.358   4.130   3.938
 9684SOL    HW129951   1.410   4.051   3.905
 9684SOL    HW229952   1.404   4.169   4.019
 9685SOL     OW29953   1.883   2.117   0.235
 9685SOL    HW129954   1.888   2.116   0.335
 9685SOL    HW229955   1.969   2.153   0.198
 9686SOL     OW29956   5.561   0.719   1.668
 9686SOL    HW129957   5.528   0.625   1.658
 9686SOL    HW229958   5.492   0.774   1.716
 9687SOL     OW29959   3.601   0.003   3.687
 9687SOL    HW129960   3.592   6.945   3.625
 9687SOL    HW229961   3.670   0.066   3.652
 9688SOL     OW29962   0.160   1.725   3.087
 9688SOL    HW129963   0.066   1.690   3.091
 9688SOL    HW229964   0.212   1.692   3.165
 9689SOL     OW29965   2.096   6.137   6.191
 9689SOL    HW129966   2.176   6.153   6.133
 9689SOL    HW229967   2.074   6.220   6.241
 9690SOL     OW29968   6.333   4.320   1.391
 9690SOL    HW129969   6.283   4.240   1.357
 9690SOL    HW229970   6.398   4.351   1.321
 9691SOL     OW29971   1.371   4.259   1.361
 9691SOL    HW129972   1.325   4.342   1.330
 9691SOL    HW229973   1.438   4.281   1.431
 9692SOL     OW29974   2.784   5.706   1.098
 9692SOL    HW129975   2.825   5.654   1.173
 9692SOL    HW229976   2.836   5.790   1.084
 9693SOL     OW29977   5.418   5.815   1.677
 9693SOL    HW129978   5.509   5.783   1.705
 9693SOL    HW229979   5.409   5.806   1.578
 9694SOL     OW29980   2.083   2.252   0.139
 9694SOL    HW129981   2.145   2.273   0.064
 9694SOL    HW229982   2.052   2.337   0.181
 9695SOL     OW29983   6.237   4.086   1.267
 9695SOL    HW129984   6.233   3.988   1.283
 9695SOL    HW229985   6.244   4.103   1.168
 9696SOL     OW29986   4.223   3.353   1.314
 9696SOL    HW129987   4.179   3.354   1.404
 9696SOL    HW229988   4.230   3.447   1.280
 9697SOL     OW29989   0.690   6.033   0.143
 9697SOL    HW129990   0.672   6.000   0.236
 9697SOL    HW229991   0.702   5.955   0.082
 9698SOL     OW29992   5.498   1.683   5.185
 9698SOL    HW129993   5.419   1.731   5.224
 9698SOL    HW229994   5.580   1.740   5.197
 9699SOL     OW29995   1.670   3.212   0.569
 9699SOL    HW129996   1.619   3.130   0.542
 9699SOL    HW229997   1.746   3.227   0.505
 9700SOL     OW29998   3.425   4.089   4.205
 9700SOL    HW129999   3.505   4.093   4.145
 9700SOL    HW230000   3.454   4.105   4.300
 9701SOL     OW30001   5.552   4.394   4.820
 9701SOL    HW130002   5.635   4.448   4.804
 9701SOL    HW230003   5.509   4.373   4.732
 9702SOL     OW30004   4.386   0.757   0.872
 9702SOL    HW130005   4.347   0.785   0.960
 9702SOL    HW230006   4.429   0.667   0.882
 9703SOL     OW30007   2.742   6.516   3.930
 9703SOL    HW130008   2.775   6.591   3.874
 9703SOL    HW230009   2.658   6.479   3.891
 9704SOL     OW30010   2.761   0.493   3.255
 9704SOL    HW130011   2.680   0.532   3.212
 9704SOL    HW230012   2.839   0.503   3.194
 9705SOL     OW30013   3.633   3.934   0.640
 9705SOL    HW130014   3.601   3.884   0.559
 9705SOL    HW230015   3.691   3.873   0.695
 9706SOL     OW30016   5.500   2.539   2.921
 9706SOL    HW130017   5.597   2.528   2.901
 9706SOL    HW230018   5.481   2.506   3.013
 9707SOL     OW30019   2.559   4.929   3.064
 9707SOL    HW130020   2.627   4.858   3.079
 9707SOL    HW230021   2.534   4.932   2.967
 9708SOL     OW30022   2.851   1.352   2.739
 9708SOL    HW130023   2.834   1.450   2.754
 9708SOL    HW230024   2.949   1.335   2.738
 9709SOL     OW30025   1.800   5.066   2.666
 9709SOL    HW130026   1.895   5.097   2.657
 9709SOL    HW230027   1.797   4.987   2.728
 9710SOL     OW30028   0.160   0.428   3.412
 9710SOL    HW130029   0.102   0.359   3.368
 9710SOL    HW230030   0.202   0.389   3.494
 9711SOL     OW30031   0.745   4.196   5.096
 9711SOL    HW130032   0.708   4.132   5.028
 9711SOL    HW230033   0.843   4.178   5.108
 9712SOL     OW30034   4.332   2.366   4.475
 9712SOL    HW130035   4.377   2.406   4.396
 9712SOL    HW230036   4.380   2.284   4.504
 9713SOL     OW30037   6.741   4.918   2.436
 9713SOL    HW130038   6.777   4.852   2.502
 9713SOL    HW230039   6.755   4.882   2.343
 9714SOL     OW30040   1.934   1.773   1.528
 9714SOL    HW130041   1.858   1.795   1.467
 9714SOL    HW230042   1.905   1.783   1.623
 9715SOL     OW30043   5.341   4.976   5.008
 9715SOL    HW130044   5.375   4.922   5.085
 9715SOL    HW230045   5.417   5.001   4.948
 9716SOL     OW30046   4.461   1.464   6.612
 9716SOL    HW130047   4.452   1.474   6.513
 9716SOL    HW230048   4.520   1.386   6.632
 9717SOL     OW30049   5.698   4.685   3.594
 9717SOL    HW130050   5.671   4.752   3.665
 9717SOL    HW230051   5.616   4.655   3.545
 9718SOL     OW30052   4.636   3.249   1.678
 9718SOL    HW130053   4.617   3.171   1.738
 9718SOL    HW230054   4.724   3.236   1.633
 9719SOL     OW30055   0.323   1.880   0.238
 9719SOL    HW130056   0.261   1.838   0.171
 9719SOL    HW230057   0.313   1.834   0.326
 9720SOL     OW30058   0.202   0.298   1.957
 9720SOL    HW130059   0.171   0.386   1.922
 9720SOL    HW230060   0.264   0.313   2.035
 9721SOL     OW30061   6.646   3.736   2.572
 9721SOL    HW130062   6.640   3.814   2.511
 9721SOL    HW230063   6.568   3.736   2.634
 9722SOL     OW30064   0.046   0.228   4.245
 9722SOL    HW130065   0.081   0.154   4.186
 9722SOL    HW230066   0.060   0.202   4.341
 9723SOL     OW30067   0.180   1.459   3.772
 9723SOL    HW130068   0.197   1.402   3.852
 9723SOL    HW230069   0.098   1.515   3.787
 9724SOL     OW30070   3.924   2.795   1.377
 9724SOL    HW130071   3.987   2.785   1.301
 9724SOL    HW230072   3.967   2.849   1.449
 9725SOL     OW30073   4.338   2.969   5.680
 9725SOL    HW130074   4.362   2.979   5.776
 9725SOL    HW230075   4.253   2.917   5.672
 9726SOL     OW30076   5.738   6.476   4.997
 9726SOL    HW130077   5.701   6.555   5.046
 9726SOL    HW230078   5.722   6.393   5.051
 9727SOL     OW30079   1.650   2.090   6.244
 9727SOL    HW130080   1.688   2.062   6.332
 9727SOL    HW230081   1.557   2.124   6.257
 9728SOL     OW30082   3.390   5.077   6.975
 9728SOL    HW130083   3.332   5.024   0.018
 9728SOL    HW230084   3.411   5.166   7.017
 9729SOL     OW30085   3.157   5.379   2.495
 9729SOL    HW130086   3.234   5.408   2.439
 9729SOL    HW230087   3.114   5.299   2.453
 9730SOL     OW30088   6.466   3.536   3.198
 9730SOL    HW130089   6.443   3.563   3.292
 9730SOL    HW230090   6.391   3.562   3.137
 9731SOL     OW30091   4.554   5.082   0.646
 9731SOL    HW130092   4.614   5.141   0.591
 9731SOL    HW230093   4.459   5.100   0.622
 9732SOL     OW30094   6.565   5.613   3.146
 9732SOL    HW130095   6.570   5.518   3.115
 9732SOL    HW230096   6.557   5.674   3.067
 9733SOL     OW30097   5.442   4.458   6.685
 9733SOL    HW130098   5.504   4.397   6.735
 9733SOL    HW230099   5.389   4.405   6.618
 9734SOL     OW30100   5.115   2.654   5.052
 9734SOL    HW130101   5.171   2.603   5.118
 9734SOL    HW230102   5.117   2.608   4.963
 9735SOL     OW30103   1.528   3.918   0.550
 9735SOL    HW130104   1.479   4.004   0.557
 9735SOL    HW230105   1.523   3.869   0.638
 9736SOL     OW30106   3.432   1.341   0.906
 9736SOL    HW130107   3.353   1.302   0.953
 9736SOL    HW230108   3.501   1.270   0.892
 9737SOL     OW30109   4.118   2.244   5.055
 9737SOL    HW130110   4.165   2.183   5.118
 9737SOL    HW230111   4.154   2.337   5.065
 9738SOL     OW30112   1.733   0.473   2.413
 9738SOL    HW130113   1.750   0.571   2.419
 9738SOL    HW230114   1.737   0.433   2.505
 9739SOL     OW30115   5.318   5.098   1.955
 9739SOL    HW130116   5.282   5.191   1.967
 9739SOL    HW230117   5.321   5.076   1.858
 9740SOL     OW30118   6.850   4.042   2.906
 9740SOL    HW130119   6.838   3.967   2.972
 9740SOL    HW230120   6.832   4.129   2.952
 9741SOL     OW30121   4.215   2.195   1.595
 9741SOL    HW130122   4.128   2.206   1.643
 9741SOL    HW230123   4.282   2.153   1.656
 9742SOL     OW30124   4.527   1.816   4.529
 9742SOL    HW130125   4.574   1.904   4.534
 9742SOL    HW230126   4.433   1.830   4.499
 9743SOL     OW30127   1.916   2.606   5.594
 9743SOL    HW130128   1.898   2.701   5.567
 9743SOL    HW230129   1.885   2.544   5.522
 9744SOL     OW30130   1.685   0.334   1.923
 9744SOL    HW130131   1.675   0.326   2.022
 9744SOL    HW230132   1.615   0.397   1.888
 9745SOL     OW30133   0.224   2.079   4.595
 9745SOL    HW130134   0.302   2.049   4.649
 9745SOL    HW230135   0.217   2.023   4.512
 9746SOL     OW30136   5.745   1.621   4.651
 9746SOL    HW130137   5.752   1.622   4.551
 9746SOL    HW230138   5.822   1.570   4.689
 9747SOL     OW30139   0.558   6.984   6.972
 9747SOL    HW130140   0.552   0.020   6.889
 9747SOL    HW230141   0.484   7.008   0.015
 9748SOL     OW30142   0.060   5.797   3.819
 9748SOL    HW130143   0.090   5.705   3.845
 9748SOL    HW230144   0.064   5.857   3.898
 9749SOL     OW30145   0.855   4.159   4.496
 9749SOL    HW130146   0.778   4.196   4.548
 9749SOL    HW230147   0.837   4.065   4.471
 9750SOL     OW30148   4.034   4.861   3.565
 9750SOL    HW130149   3.977   4.860   3.483
 9750SOL    HW230150   4.090   4.944   3.565
 9751SOL     OW30151   2.022   2.420   0.480
 9751SOL    HW130152   1.960   2.342   0.479
 9751SOL    HW230153   2.099   2.400   0.541
 9752SOL     OW30154   3.466   1.596   6.238
 9752SOL    HW130155   3.508   1.539   6.168
 9752SOL    HW230156   3.460   1.545   6.324
 9753SOL     OW30157   7.002   6.205   5.140
 9753SOL    HW130158   6.995   6.133   5.071
 9753SOL    HW230159   0.009   6.291   5.097
 9754SOL     OW30160   6.996   2.243   6.454
 9754SOL    HW130161   0.055   2.238   6.392
 9754SOL    HW230162   6.927   2.176   6.425
 9755SOL     OW30163   4.148   4.828   5.125
 9755SOL    HW130164   4.173   4.748   5.070
 9755SOL    HW230165   4.144   4.803   5.222
 9756SOL     OW30166   6.031   2.300   5.964
 9756SOL    HW130167   6.111   2.359   5.969
 9756SOL    HW230168   5.960   2.335   6.026
 9757SOL     OW30169   6.019   2.260   3.819
 9757SOL    HW130170   5.959   2.334   3.788
 9757SOL    HW230171   5.970   2.202   3.883
 9758SOL     OW30172   2.529   0.540   0.004
 9758SOL    HW130173   2.552   0.552   6.926
 9758SOL    HW230174   2.582   0.464   0.042
 9759SOL     OW30175   3.410   6.409   1.415
 9759SOL    HW130176   3.335   6.355   1.377
 9759SOL    HW230177   3.376   6.499   1.443
 9760SOL     OW30178   5.260   4.365   6.499
 9760SOL    HW130179   5.176   4.317   6.523
 9760SOL    HW230180   5.294   4.329   6.412
 9761SOL     OW30181   5.554   6.026   2.671
 9761SOL    HW130182   5.626   6.077   2.623
 9761SOL    HW230183   5.561   5.929   2.648
 9762SOL     OW30184   2.425   1.580   3.416
 9762SOL    HW130185   2.417   1.522   3.335
 9762SOL    HW230186   2.406   1.675   3.391
 9763SOL     OW30187   2.183   1.614   1.470
 9763SOL    HW130188   2.238   1.697   1.460
 9763SOL    HW230189   2.087   1.638   1.476
 9764SOL     OW30190   1.402   2.642   1.912
 9764SOL    HW130191   1.308   2.664   1.884
 9764SOL    HW230192   1.451   2.600   1.836
 9765SOL     OW30193   0.126   1.698   5.672
 9765SOL    HW130194   0.057   1.704   5.743
 9765SOL    HW230195   0.145   1.790   5.636
 9766SOL     OW30196   2.971   0.460   1.966
 9766SOL    HW130197   2.874   0.468   1.943
 9766SOL    HW230198   3.002   0.543   2.012
 9767SOL     OW30199   4.864   0.412   5.262
 9767SOL    HW130200   4.950   0.369   5.234
 9767SOL    HW230201   4.875   0.512   5.263
 9768SOL     OW30202   4.623   2.351   2.997
 9768SOL    HW130203   4.675   2.276   3.037
 9768SOL    HW230204   4.686   2.418   2.957
 9769SOL     OW30205   0.549   2.052   1.814
 9769SOL    HW130206   0.471   2.003   1.853
 9769SOL    HW230207   0.536   2.150   1.825
 9770SOL     OW30208   6.063   4.449   6.319
 9770SOL    HW130209   6.081   4.401   6.232
 9770SOL    HW230210   6.075   4.385   6.395
 9771SOL     OW30211   3.529   5.690   5.161
 9771SOL    HW130212   3.589   5.619   5.199
 9771SOL    HW230213   3.434   5.668   5.184
 9772SOL     OW30214   6.671   0.359   1.896
 9772SOL    HW130215   6.713   0.357   1.805
 9772SOL    HW230216   6.683   0.270   1.940
 9773SOL     OW30217   5.448   5.532   3.532
 9773SOL    HW130218   5.509   5.522   3.611
 9773SOL    HW230219   5.403   5.622   3.536
 9774SOL     OW30220   0.029   5.010   3.089
 9774SOL    HW130221   0.099   5.054   3.145
 9774SOL    HW230222   0.013   5.065   3.007
 9775SOL     OW30223   2.839   2.260   4.984
 9775SOL    HW130224   2.807   2.189   5.047
 9775SOL    HW230225   2.937   2.248   4.968
 9776SOL     OW30226   0.312   4.940   4.913
 9776SOL    HW130227   0.314   4.862   4.975
 9776SOL    HW230228   0.371   4.922   4.834
 9777SOL     OW30229   5.745   5.111   6.912
 9777SOL    HW130230   5.798   5.126   6.996
 9777SOL    HW230231   5.717   5.200   6.875
 9778SOL     OW30232   4.359   0.672   3.584
 9778SOL    HW130233   4.370   0.742   3.514
 9778SOL    HW230234   4.315   0.592   3.544
 9779SOL     OW30235   2.878   2.085   6.127
 9779SOL    HW130236   2.846   2.171   6.165
 9779SOL    HW230237   2.975   2.073   6.148
 9780SOL     OW30238   3.572   4.356   0.502
 9780SOL    HW130239   3.606   4.332   0.412
 9780SOL    HW230240   3.620   4.302   0.571
 9781SOL     OW30241   1.915   6.117   3.952
 9781SOL    HW130242   1.976   6.063   4.011
 9781SOL    HW230243   1.874   6.191   4.005
 9782SOL     OW30244   6.670   0.727   1.181
 9782SOL    HW130245   6.742   0.777   1.229
 9782SOL    HW230246   6.637   0.652   1.238
 9783SOL     OW30247   5.751   1.526   2.560
 9783SOL    HW130248   5.760   1.562   2.653
 9783SOL    HW230249   5.791   1.591   2.495
 9784SOL     OW30250   5.324   0.960   4.373
 9784SOL    HW130251   5.335   1.052   4.336
 9784SOL    HW230252   5.362   0.893   4.309
 9785SOL     OW30253   1.083   3.177   0.950
 9785SOL    HW130254   1.162   3.233   0.972
 9785SOL    HW230255   1.104   3.080   0.966
 9786SOL     OW30256   2.507   0.078   5.062
 9786SOL    HW130257   2.427   0.020   5.045
 9786SOL    HW230258   2.560   0.041   5.138
 9787SOL     OW30259   5.628   4.789   1.981
 9787SOL    HW130260   5.586   4.760   2.067
 9787SOL    HW230261   5.635   4.889   1.980
 9788SOL     OW30262   0.325   1.253   5.609
 9788SOL    HW130263   0.320   1.348   5.641
 9788SOL    HW230264   0.415   1.236   5.569
 9789SOL     OW30265   1.529   5.867   4.630
 9789SOL    HW130266   1.487   5.944   4.583
 9789SOL    HW230267   1.496   5.862   4.724
 9790SOL     OW30268   6.596   1.512   4.270
 9790SOL    HW130269   6.602   1.539   4.174
 9790SOL    HW230270   6.628   1.417   4.280
 9791SOL     OW30271   1.159   2.407   1.665
 9791SOL    HW130272   1.173   2.506   1.673
 9791SOL    HW230273   1.066   2.389   1.631
 9792SOL     OW30274   4.005   6.008   2.043
 9792SOL    HW130275   3.915   6.033   2.077
 9792SOL    HW230276   3.997   5.973   1.949
 9793SOL     OW30277   5.116   6.122   2.593
 9793SOL    HW130278   5.051   6.062   2.639
 9793SOL    HW230279   5.092   6.128   2.496
 9794SOL     OW30280   3.499   3.217   6.566
 9794SOL    HW130281   3.593   3.185   6.562
 9794SOL    HW230282   3.445   3.170   6.496
 9795SOL     OW30283   2.331   4.503   4.050
 9795SOL    HW130284   2.394   4.497   4.127
 9795SOL    HW230285   2.279   4.588   4.055
 9796SOL     OW30286   3.611   4.677   0.290
 9796SOL    HW130287   3.666   4.670   0.373
 9796SOL    HW230288   3.518   4.705   0.313
 9797SOL     OW30289   4.771   2.803   4.652
 9797SOL    HW130290   4.743   2.707   4.661
 9797SOL    HW230291   4.857   2.808   4.602
 9798SOL     OW30292   2.678   1.481   1.622
 9798SOL    HW130293   2.613   1.434   1.682
 9798SOL    HW230294   2.647   1.575   1.605
 9799SOL     OW30295   3.406   4.004   2.005
 9799SOL    HW130296   3.318   4.048   1.985
 9799SOL    HW230297   3.407   3.912   1.965
 9800SOL     OW30298   3.625   4.916   0.169
 9800SOL    HW130299   3.528   4.938   0.180
 9800SOL    HW230300   3.641   4.823   0.204
 9801SOL     OW30301   4.725   5.588   6.869
 9801SOL    HW130302   4.692   5.559   6.959
 9801SOL    HW230303   4.825   5.585   6.868
 9802SOL     OW30304   0.703   4.959   1.649
 9802SOL    HW130305   0.708   4.878   1.590
 9802SOL    HW230306   0.650   4.936   1.731
 9803SOL     OW30307   5.610   0.551   6.586
 9803SOL    HW130308   5.574   0.643   6.601
 9803SOL    HW230309   5.610   0.500   6.672
 9804SOL     OW30310   5.874   5.199   4.230
 9804SOL    HW130311   5.840   5.155   4.313
 9804SOL    HW230312   5.913   5.288   4.253
 9805SOL     OW30313   3.396   4.367   1.078
 9805SOL    HW130314   3.447   4.371   1.164
 9805SOL    HW230315   3.344   4.281   1.074
 9806SOL     OW30316   6.587   2.582   2.853
 9806SOL    HW130317   6.542   2.544   2.934
 9806SOL    HW230318   6.651   2.515   2.817
 9807SOL     OW30319   3.582   2.507   0.887
 9807SOL    HW130320   3.603   2.548   0.798
 9807SOL    HW230321   3.486   2.524   0.909
 9808SOL     OW30322   1.512   2.056   5.149
 9808SOL    HW130323   1.545   1.984   5.210
 9808SOL    HW230324   1.427   2.027   5.105
 9809SOL     OW30325   0.998   0.574   4.500
 9809SOL    HW130326   1.049   0.524   4.430
 9809SOL    HW230327   1.051   0.574   4.585
 9810SOL     OW30328   4.003   1.329   3.430
 9810SOL    HW130329   3.908   1.298   3.437
 9810SOL    HW230330   4.018   1.369   3.339
 9811SOL     OW30331   1.456   7.000   2.579
 9811SOL    HW130332   1.370   0.020   2.610
 9811SOL    HW230333   1.520   0.054   2.557
 9812SOL     OW30334   5.112   2.902   4.917
 9812SOL    HW130335   5.013   2.917   4.918
 9812SOL    HW230336   5.135   2.827   4.979
 9813SOL     OW30337   6.496   4.660   0.824
 9813SOL    HW130338   6.436   4.624   0.895
 9813SOL    HW230339   6.458   4.745   0.788
 9814SOL     OW30340   6.751   1.013   5.317
 9814SOL    HW130341   6.675   1.003   5.380
 9814SOL    HW230342   6.774   0.924   5.277
 9815SOL     OW30343   6.665   4.030   2.697
 9815SOL    HW130344   6.741   4.056   2.756
 9815SOL    HW230345   6.595   3.983   2.751
 9816SOL     OW30346   6.485   0.863   6.123
 9816SOL    HW130347   6.569   0.838   6.075
 9816SOL    HW230348   6.406   0.830   6.071
 9817SOL     OW30349   1.934   0.623   0.154
 9817SOL    HW130350   1.999   0.652   0.083
 9817SOL    HW230351   1.908   0.528   0.137
 9818SOL     OW30352   0.888   6.901   3.224
 9818SOL    HW130353   0.921   6.816   3.264
 9818SOL    HW230354   0.946   6.977   3.253
 9819SOL     OW30355   0.052   2.806   4.407
 9819SOL    HW130356   6.992   2.822   4.466
 9819SOL    HW230357   0.052   2.710   4.377
 9820SOL     OW30358   3.725   2.522   6.072
 9820SOL    HW130359   3.634   2.518   6.030
 9820SOL    HW230360   3.791   2.477   6.012
 9821SOL     OW30361   3.652   2.770   1.513
 9821SOL    HW130362   3.665   2.728   1.603
 9821SOL    HW230363   3.738   2.810   1.482
 9822SOL     OW30364   3.453   6.214   4.913
 9822SOL    HW130365   3.369   6.261   4.887
 9822SOL    HW230366   3.531   6.277   4.905
 9823SOL     OW30367   3.876   6.935   3.061
 9823SOL    HW130368   3.782   6.924   3.029
 9823SOL    HW230369   3.875   6.978   3.151
 9824SOL     OW30370   0.938   6.075   5.816
 9824SOL    HW130371   0.944   6.078   5.916
 9824SOL    HW230372   0.842   6.072   5.788
 9825SOL     OW30373   6.958   6.608   5.269
 9825SOL    HW130374   6.957   6.602   5.169
 9825SOL    HW230375   6.890   6.546   5.307
 9826SOL     OW30376   2.087   5.587   5.345
 9826SOL    HW130377   2.140   5.671   5.358
 9826SOL    HW230378   2.051   5.557   5.433
 9827SOL     OW30379   1.820   4.442   1.678
 9827SOL    HW130380   1.871   4.517   1.637
 9827SOL    HW230381   1.836   4.358   1.625
 9828SOL     OW30382   4.049   1.840   5.163
 9828SOL    HW130383   4.011   1.895   5.237
 9828SOL    HW230384   3.978   1.820   5.095
 9829SOL     OW30385   5.054   4.927   5.344
 9829SOL    HW130386   5.108   4.943   5.427
 9829SOL    HW230387   5.100   4.860   5.287
 9830SOL     OW30388   5.396   1.580   3.672
 9830SOL    HW130389   5.332   1.587   3.595
 9830SOL    HW230390   5.345   1.564   3.756
 9831SOL     OW30391   0.619   4.167   2.287
 9831SOL    HW130392   0.616   4.160   2.188
 9831SOL    HW230393   0.526   4.167   2.324
 9832SOL     OW30394   4.442   5.878   4.707
 9832SOL    HW130395   4.456   5.891   4.805
 9832SOL    HW230396   4.359   5.825   4.691
 9833SOL     OW30397   3.770   3.618   3.793
 9833SOL    HW130398   3.695   3.677   3.762
 9833SOL    HW230399   3.839   3.674   3.838
 9834SOL     OW30400   2.664   6.231   5.651
 9834SOL    HW130401   2.676   6.246   5.749
 9834SOL    HW230402   2.688   6.136   5.629
 9835SOL     OW30403   3.869   3.805   4.018
 9835SOL    HW130404   3.916   3.858   4.089
 9835SOL    HW230405   3.770   3.812   4.031
 9836SOL     OW30406   6.748   3.483   5.741
 9836SOL    HW130407   6.756   3.451   5.646
 9836SOL    HW230408   6.797   3.569   5.751
 9837SOL     OW30409   5.763   1.684   3.489
 9837SOL    HW130410   5.839   1.746   3.469
 9837SOL    HW230411   5.796   1.590   3.489
 9838SOL     OW30412   1.076   6.260   1.209
 9838SOL    HW130413   1.125   6.228   1.290
 9838SOL    HW230414   1.122   6.341   1.173
 9839SOL     OW30415   5.054   6.492   4.075
 9839SOL    HW130416   5.022   6.539   3.993
 9839SOL    HW230417   5.135   6.437   4.052
 9840SOL     OW30418   6.317   1.861   6.434
 9840SOL    HW130419   6.385   1.934   6.431
 9840SOL    HW230420   6.357   1.778   6.472
 9841SOL     OW30421   6.707   6.173   3.125
 9841SOL    HW130422   6.623   6.143   3.079
 9841SOL    HW230423   6.686   6.246   3.190
 9842SOL     OW30424   3.228   0.427   0.216
 9842SOL    HW130425   3.286   0.509   0.219
 9842SOL    HW230426   3.265   0.363   0.149
 9843SOL     OW30427   0.145   0.608   1.674
 9843SOL    HW130428   0.215   0.547   1.635
 9843SOL    HW230429   0.136   0.590   1.772
 9844SOL     OW30430   4.351   0.409   4.749
 9844SOL    HW130431   4.338   0.401   4.650
 9844SOL    HW230432   4.395   0.326   4.784
 9845SOL     OW30433   1.377   4.014   2.068
 9845SOL    HW130434   1.410   4.052   2.154
 9845SOL    HW230435   1.352   3.918   2.081
 9846SOL     OW30436   5.872   2.242   1.304
 9846SOL    HW130437   5.825   2.162   1.265
 9846SOL    HW230438   5.949   2.211   1.361
 9847SOL     OW30439   3.966   3.853   6.787
 9847SOL    HW130440   3.989   3.842   6.883
 9847SOL    HW230441   3.879   3.903   6.779
 9848SOL     OW30442   3.213   3.405   5.429
 9848SOL    HW130443   3.249   3.415   5.336
 9848SOL    HW230444   3.163   3.487   5.455
 9849SOL     OW30445   1.528   2.248   4.556
 9849SOL    HW130446   1.516   2.302   4.473
 9849SOL    HW230447   1.557   2.307   4.631
 9850SOL     OW30448   1.861   6.813   3.990
 9850SOL    HW130449   1.884   6.729   4.040
 9850SOL    HW230450   1.763   6.829   3.995
 9851SOL     OW30451   3.398   5.593   3.704
 9851SOL    HW130452   3.335   5.595   3.782
 9851SOL    HW230453   3.482   5.642   3.727
 9852SOL     OW30454   1.501   6.752   0.118
 9852SOL    HW130455   1.412   6.778   0.081
 9852SOL    HW230456   1.569   6.750   0.044
 9853SOL     OW30457   0.190   4.222   3.387
 9853SOL    HW130458   0.251   4.267   3.321
 9853SOL    HW230459   0.231   4.226   3.478
 9854SOL     OW30460   0.456   3.478   6.657
 9854SOL    HW130461   0.545   3.434   6.642
 9854SOL    HW230462   0.407   3.430   6.729
 9855SOL     OW30463   0.793   5.500   0.456
 9855SOL    HW130464   0.722   5.438   0.423
 9855SOL    HW230465   0.815   5.567   0.384
 9856SOL     OW30466   5.389   3.454   2.996
 9856SOL    HW130467   5.380   3.470   2.897
 9856SOL    HW230468   5.377   3.356   3.014
 9857SOL     OW30469   4.816   0.163   5.413
 9857SOL    HW130470   4.821   0.256   5.378
 9857SOL    HW230471   4.897   0.144   5.469
 9858SOL     OW30472   6.254   6.046   1.835
 9858SOL    HW130473   6.280   6.031   1.739
 9858SOL    HW230474   6.178   5.986   1.858
 9859SOL     OW30475   0.190   5.382   2.922
 9859SOL    HW130476   0.259   5.454   2.912
 9859SOL    HW230477   0.154   5.358   2.832
 9860SOL     OW30478   1.743   3.392   4.057
 9860SOL    HW130479   1.704   3.485   4.061
 9860SOL    HW230480   1.838   3.397   4.026
 9861SOL     OW30481   3.622   2.147   3.095
 9861SOL    HW130482   3.628   2.246   3.102
 9861SOL    HW230483   3.661   2.117   3.008
 9862SOL     OW30484   1.465   3.573   6.451
 9862SOL    HW130485   1.511   3.659   6.430
 9862SOL    HW230486   1.533   3.499   6.458
 9863SOL     OW30487   4.193   0.078   2.118
 9863SOL    HW130488   4.123   0.138   2.078
 9863SOL    HW230489   4.171   0.062   2.214
 9864SOL     OW30490   2.042   5.920   6.017
 9864SOL    HW130491   1.967   5.880   6.070
 9864SOL    HW230492   2.071   6.006   6.060
 9865SOL     OW30493   1.456   5.293   5.677
 9865SOL    HW130494   1.406   5.221   5.628
 9865SOL    HW230495   1.554   5.281   5.660
 9866SOL     OW30496   6.909   5.376   5.822
 9866SOL    HW130497   6.965   5.316   5.879
 9866SOL    HW230498   6.837   5.417   5.878
 9867SOL     OW30499   4.124   1.295   1.824
 9867SOL    HW130500   4.048   1.319   1.885
 9867SOL    HW230501   4.143   1.372   1.764
 9868SOL     OW30502   2.400   4.801   3.678
 9868SOL    HW130503   2.357   4.871   3.735
 9868SOL    HW230504   2.330   4.754   3.625
 9869SOL     OW30505   0.489   2.125   1.311
 9869SOL    HW130506   0.503   2.064   1.388
 9869SOL    HW230507   0.401   2.106   1.269
 9870SOL     OW30508   2.093   2.536   2.555
 9870SOL    HW130509   2.142   2.622   2.566
 9870SOL    HW230510   2.115   2.475   2.632
 9871SOL     OW30511   5.705   5.614   3.324
 9871SOL    HW130512   5.684   5.636   3.419
 9871SOL    HW230513   5.739   5.519   3.318
 9872SOL     OW30514   0.915   4.912   5.877
 9872SOL    HW130515   1.003   4.905   5.925
 9872SOL    HW230516   0.852   4.843   5.912
 9873SOL     OW30517   0.832   1.172   5.300
 9873SOL    HW130518   0.846   1.220   5.213
 9873SOL    HW230519   0.889   1.213   5.371
 9874SOL     OW30520   0.732   1.940   4.240
 9874SOL    HW130521   0.650   1.994   4.257
 9874SOL    HW230522   0.711   1.867   4.175
 9875SOL     OW30523   6.574   6.075   0.381
 9875SOL    HW130524   6.596   6.131   0.461
 9875SOL    HW230525   6.536   5.988   0.411
 9876SOL     OW30526   0.031   6.769   3.583
 9876SOL    HW130527   6.960   6.795   3.616
 9876SOL    HW230528   0.037   6.789   3.485
 9877SOL     OW30529   1.018   6.388   5.319
 9877SOL    HW130530   1.029   6.331   5.238
 9877SOL    HW230531   1.008   6.484   5.291
 9878SOL     OW30532   3.161   2.623   6.910
 9878SOL    HW130533   3.183   2.526   6.900
 9878SOL    HW230534   3.072   2.641   6.869
 9879SOL     OW30535   6.861   5.489   5.568
 9879SOL    HW130536   6.878   5.582   5.598
 9879SOL    HW230537   6.875   5.426   5.645
 9880SOL     OW30538   2.559   0.867   1.028
 9880SOL    HW130539   2.552   0.959   0.989
 9880SOL    HW230540   2.573   0.801   0.954
 9881SOL     OW30541   6.200   1.347   3.302
 9881SOL    HW130542   6.261   1.427   3.307
 9881SOL    HW230543   6.254   1.264   3.299
 9882SOL     OW30544   3.667   3.203   4.427
 9882SOL    HW130545   3.707   3.112   4.411
 9882SOL    HW230546   3.713   3.246   4.505
 9883SOL     OW30547   1.908   6.308   2.678
 9883SOL    HW130548   1.879   6.221   2.638
 9883SOL    HW230549   1.919   6.376   2.606
 9884SOL     OW30550   3.108   2.770   5.658
 9884SOL    HW130551   3.178   2.795   5.592
 9884SOL    HW230552   3.018   2.798   5.623
 9885SOL     OW30553   4.902   2.709   5.196
 9885SOL    HW130554   4.964   2.662   5.134
 9885SOL    HW230555   4.880   2.650   5.273
 9886SOL     OW30556   3.355   6.058   1.199
 9886SOL    HW130557   3.430   6.124   1.196
 9886SOL    HW230558   3.340   6.029   1.293
 9887SOL     OW30559   3.123   1.789   0.393
 9887SOL    HW130560   3.076   1.728   0.456
 9887SOL    HW230561   3.076   1.788   0.305
 9888SOL     OW30562   6.412   6.544   3.819
 9888SOL    HW130563   6.393   6.512   3.726
 9888SOL    HW230564   6.505   6.516   3.845
 9889SOL     OW30565   6.960   5.630   2.498
 9889SOL    HW130566   6.913   5.702   2.447
 9889SOL    HW230567   0.035   5.622   2.466
 9890SOL     OW30568   0.879   3.280   2.287
 9890SOL    HW130569   0.818   3.220   2.339
 9890SOL    HW230570   0.939   3.224   2.230
 9891SOL     OW30571   4.654   6.615   1.864
 9891SOL    HW130572   4.690   6.683   1.928
 9891SOL    HW230573   4.562   6.641   1.835
 9892SOL     OW30574   1.693   5.661   3.911
 9892SOL    HW130575   1.607   5.711   3.925
 9892SOL    HW230576   1.758   5.687   3.981
 9893SOL     OW30577   5.790   4.556   4.795
 9893SOL    HW130578   5.843   4.560   4.710
 9893SOL    HW230579   5.842   4.507   4.865
 9894SOL     OW30580   4.422   3.558   5.261
 9894SOL    HW130581   4.400   3.460   5.263
 9894SOL    HW230582   4.521   3.569   5.255
 9895SOL     OW30583   5.350   1.924   6.561
 9895SOL    HW130584   5.401   1.975   6.492
 9895SOL    HW230585   5.298   1.987   6.618
 9896SOL     OW30586   3.733   3.411   6.886
 9896SOL    HW130587   3.698   3.475   6.955
 9896SOL    HW230588   3.728   3.452   6.796
 9897SOL     OW30589   6.992   1.120   3.129
 9897SOL    HW130590   0.047   1.136   3.065
 9897SOL    HW230591   6.942   1.205   3.145
 9898SOL     OW30592   1.743   4.574   6.635
 9898SOL    HW130593   1.673   4.561   6.705
 9898SOL    HW230594   1.745   4.670   6.608
 9899SOL     OW30595   4.918   5.068   2.772
 9899SOL    HW130596   4.957   5.011   2.844
 9899SOL    HW230597   4.972   5.152   2.762
 9900SOL     OW30598   1.804   4.191   4.062
 9900SOL    HW130599   1.776   4.096   4.078
 9900SOL    HW230600   1.869   4.219   4.132
 9901SOL     OW30601   2.309   1.831   6.210
 9901SOL    HW130602   2.340   1.749   6.162
 9901SOL    HW230603   2.375   1.905   6.198
 9902SOL     OW30604   4.599   3.961   6.547
 9902SOL    HW130605   4.694   3.982   6.523
 9902SOL    HW230606   4.538   4.021   6.496
 9903SOL     OW30607   3.428   1.466   1.623
 9903SOL    HW130608   3.418   1.375   1.583
 9903SOL    HW230609   3.423   1.536   1.551
 9904SOL     OW30610   0.593   0.238   1.858
 9904SOL    HW130611   0.494   0.232   1.851
 9904SOL    HW230612   0.635   0.173   1.794
 9905SOL     OW30613   1.627   6.501   5.939
 9905SOL    HW130614   1.672   6.515   5.850
 9905SOL    HW230615   1.528   6.511   5.928
 9906SOL     OW30616   3.655   3.786   5.710
 9906SOL    HW130617   3.579   3.723   5.693
 9906SOL    HW230618   3.740   3.735   5.722
 9907SOL     OW30619   1.221   6.863   2.865
 9907SOL    HW130620   1.222   6.930   2.791
 9907SOL    HW230621   1.313   6.829   2.881
 9908SOL     OW30622   6.670   3.635   4.936
 9908SOL    HW130623   6.650   3.547   4.978
 9908SOL    HW230624   6.602   3.702   4.965
 9909SOL     OW30625   3.558   7.001   2.560
 9909SOL    HW130626   3.492   6.972   2.629
 9909SOL    HW230627   3.532   0.071   2.525
 9910SOL     OW30628   0.981   4.503   0.929
 9910SOL    HW130629   1.052   4.453   0.979
 9910SOL    HW230630   0.907   4.440   0.904
 9911SOL     OW30631   3.909   4.997   2.858
 9911SOL    HW130632   3.950   5.077   2.902
 9911SOL    HW230633   3.816   5.019   2.829
 9912SOL     OW30634   4.127   6.832   0.832
 9912SOL    HW130635   4.220   6.807   0.858
 9912SOL    HW230636   4.129   6.914   0.774
 9913SOL     OW30637   4.379   2.396   2.840
 9913SOL    HW130638   4.368   2.491   2.868
 9913SOL    HW230639   4.456   2.355   2.889
 9914SOL     OW30640   2.007   5.234   5.202
 9914SOL    HW130641   1.997   5.282   5.115
 9914SOL    HW230642   2.056   5.148   5.187
 9915SOL     OW30643   5.924   3.518   3.972
 9915SOL    HW130644   5.896   3.581   3.900
 9915SOL    HW230645   5.950   3.570   4.053
 9916SOL     OW30646   2.630   3.241   0.631
 9916SOL    HW130647   2.718   3.244   0.583
 9916SOL    HW230648   2.623   3.155   0.682
 9917SOL     OW30649   2.220   2.844   4.816
 9917SOL    HW130650   2.292   2.878   4.877
 9917SOL    HW230651   2.205   2.747   4.834
 9918SOL     OW30652   2.770   0.654   4.831
 9918SOL    HW130653   2.702   0.642   4.904
 9918SOL    HW230654   2.762   0.747   4.794
 9919SOL     OW30655   0.810   5.374   2.084
 9919SOL    HW130656   0.857   5.287   2.076
 9919SOL    HW230657   0.781   5.388   2.178
 9920SOL     OW30658   4.145   6.578   2.602
 9920SOL    HW130659   4.134   6.553   2.505
 9920SOL    HW230660   4.188   6.503   2.651
 9921SOL     OW30661   4.985   6.906   3.104
 9921SOL    HW130662   4.929   6.823   3.108
 9921SOL    HW230663   5.049   6.906   3.181
 9922SOL     OW30664   5.090   2.995   1.800
 9922SOL    HW130665   4.998   2.962   1.783
 9922SOL    HW230666   5.099   3.020   1.897
 9923SOL     OW30667   6.314   0.808   6.345
 9923SOL    HW130668   6.313   0.717   6.386
 9923SOL    HW230669   6.383   0.812   6.273
 9924SOL     OW30670   4.803   1.110   3.561
 9924SOL    HW130671   4.791   1.133   3.657
 9924SOL    HW230672   4.733   1.044   3.533
 9925SOL     OW30673   3.707   2.087   4.657
 9925SOL    HW130674   3.705   2.129   4.748
 9925SOL    HW230675   3.624   2.033   4.643
 9926SOL     OW30676   1.466   0.416   6.008
 9926SOL    HW130677   1.379   0.456   5.981
 9926SOL    HW230678   1.520   0.482   6.060
 9927SOL     OW30679   1.063   3.034   2.372
 9927SOL    HW130680   1.125   2.996   2.441
 9927SOL    HW230681   0.988   2.970   2.357
 9928SOL     OW30682   0.205   3.265   2.418
 9928SOL    HW130683   0.257   3.309   2.491
 9928SOL    HW230684   0.128   3.215   2.457
 9929SOL     OW30685   0.761   4.190   5.471
 9929SOL    HW130686   0.673   4.233   5.450
 9929SOL    HW230687   0.834   4.239   5.424
 9930SOL     OW30688   7.000   5.205   6.738
 9930SOL    HW130689   6.955   5.252   6.662
 9930SOL    HW230690   0.079   5.226   6.737
 9931SOL     OW30691   2.608   5.087   6.523
 9931SOL    HW130692   2.659   5.130   6.598
 9931SOL    HW230693   2.657   5.006   6.491
 9932SOL     OW30694   2.353   2.386   1.072
 9932SOL    HW130695   2.427   2.319   1.074
 9932SOL    HW230696   2.356   2.441   1.155
 9933SOL     OW30697   0.458   1.800   2.335
 9933SOL    HW130698   0.414   1.831   2.419
 9933SOL    HW230699   0.499   1.710   2.350
 9934SOL     OW30700   5.230   0.603   6.581
 9934SOL    HW130701   5.153   0.644   6.632
 9934SOL    HW230702   5.222   0.627   6.484
 9935SOL     OW30703   2.686   2.603   0.942
 9935SOL    HW130704   2.709   2.522   0.995
 9935SOL    HW230705   2.598   2.589   0.895
 9936SOL     OW30706   5.345   6.674   6.383
 9936SOL    HW130707   5.353   6.658   6.481
 9936SOL    HW230708   5.254   6.709   6.362
 9937SOL     OW30709   1.787   6.530   3.567
 9937SOL    HW130710   1.724   6.594   3.524
 9937SOL    HW230711   1.746   6.439   3.570
 9938SOL     OW30712   0.154   1.015   3.377
 9938SOL    HW130713   0.092   1.008   3.299
 9938SOL    HW230714   0.130   1.094   3.432
 9939SOL     OW30715   2.737   4.044   1.662
 9939SOL    HW130716   2.821   4.001   1.629
 9939SOL    HW230717   2.756   4.136   1.694
 9940SOL     OW30718   6.862   1.317   3.249
 9940SOL    HW130719   6.953   1.321   3.290
 9940SOL    HW230720   6.800   1.378   3.299
 9941SOL     OW30721   5.707   3.708   0.982
 9941SOL    HW130722   5.623   3.748   1.017
 9941SOL    HW230723   5.784   3.768   1.005
 9942SOL     OW30724   6.211   6.126   3.112
 9942SOL    HW130725   6.174   6.099   3.023
 9942SOL    HW230726   6.209   6.226   3.119
 9943SOL     OW30727   1.752   3.842   5.403
 9943SOL    HW130728   1.666   3.886   5.430
 9943SOL    HW230729   1.769   3.764   5.463
 9944SOL     OW30730   1.940   5.791   6.393
 9944SOL    HW130731   1.887   5.816   6.311
 9944SOL    HW230732   1.905   5.705   6.430
 9945SOL     OW30733   6.805   3.717   6.977
 9945SOL    HW130734   6.825   3.653   6.903
 9945SOL    HW230735   6.745   3.790   6.944
 9946SOL     OW30736   4.951   2.233   1.862
 9946SOL    HW130737   4.878   2.299   1.875
 9946SOL    HW230738   5.006   2.259   1.783
 9947SOL     OW30739   1.012   1.401   2.646
 9947SOL    HW130740   1.080   1.341   2.606
 9947SOL    HW230741   1.055   1.485   2.678
 9948SOL     OW30742   6.092   0.537   5.076
 9948SOL    HW130743   6.124   0.449   5.040
 9948SOL    HW230744   6.162   0.606   5.061
 9949SOL     OW30745   6.772   3.848   3.334
 9949SOL    HW130746   6.766   3.800   3.246
 9949SOL    HW230747   6.737   3.789   3.407
 9950SOL     OW30748   4.123   4.170   5.583
 9950SOL    HW130749   4.210   4.143   5.625
 9950SOL    HW230750   4.140   4.200   5.489
 9951SOL     OW30751   0.026   2.108   2.885
 9951SOL    HW130752   0.020   2.185   2.821
 9951SOL    HW230753   6.954   2.089   2.923
 9952SOL     OW30754   1.567   4.503   1.239
 9952SOL    HW130755   1.613   4.465   1.159
 9952SOL    HW230756   1.528   4.428   1.293
 9953SOL     OW30757   6.437   3.981   3.829
 9953SOL    HW130758   6.526   3.992   3.785
 9953SOL    HW230759   6.378   4.058   3.806
 9954SOL     OW30760   3.592   1.240   1.168
 9954SOL    HW130761   3.607   1.191   1.082
 9954SOL    HW230762   3.622   1.182   1.244
 9955SOL     OW30763   5.557   5.416   1.435
 9955SOL    HW130764   5.628   5.349   1.415
 9955SOL    HW230765   5.588   5.507   1.410
 9956SOL     OW30766   1.790   3.397   3.144
 9956SOL    HW130767   1.827   3.441   3.225
 9956SOL    HW230768   1.814   3.300   3.145
 9957SOL     OW30769   5.655   0.559   0.488
 9957SOL    HW130770   5.718   0.484   0.473
 9957SOL    HW230771   5.571   0.544   0.436
 9958SOL     OW30772   6.053   5.396   6.793
 9958SOL    HW130773   5.971   5.338   6.790
 9958SOL    HW230774   6.092   5.394   6.885
 9959SOL     OW30775   5.931   4.960   0.576
 9959SOL    HW130776   5.845   4.993   0.539
 9959SOL    HW230777   5.915   4.917   0.665
 9960SOL     OW30778   6.565   0.236   0.130
 9960SOL    HW130779   6.511   0.220   0.213
 9960SOL    HW230780   6.632   0.164   0.119
 9961SOL     OW30781   3.263   5.623   0.657
 9961SOL    HW130782   3.210   5.692   0.707
 9961SOL    HW230783   3.300   5.556   0.721
 9962SOL     OW30784   3.375   0.432   1.154
 9962SOL    HW130785   3.341   0.511   1.205
 9962SOL    HW230786   3.303   0.399   1.093
 9963SOL     OW30787   0.864   0.401   6.318
 9963SOL    HW130788   0.805   0.370   6.393
 9963SOL    HW230789   0.921   0.477   6.349
 9964SOL     OW30790   4.545   5.014   5.626
 9964SOL    HW130791   4.490   5.087   5.667
 9964SOL    HW230792   4.599   5.052   5.551
 9965SOL     OW30793   2.894   5.114   4.210
 9965SOL    HW130794   2.919   5.151   4.120
 9965SOL    HW230795   2.900   5.014   4.208
 9966SOL     OW30796   3.717   5.459   3.076
 9966SOL    HW130797   3.749   5.484   2.986
 9966SOL    HW230798   3.698   5.541   3.129
 9967SOL     OW30799   0.298   0.433   3.007
 9967SOL    HW130800   0.228   0.469   3.069
 9967SOL    HW230801   0.388   0.443   3.049
 9968SOL     OW30802   4.793   6.702   0.440
 9968SOL    HW130803   4.861   6.655   0.496
 9968SOL    HW230804   4.827   6.793   0.415
 9969SOL     OW30805   0.247   6.096   3.410
 9969SOL    HW130806   0.303   6.177   3.426
 9969SOL    HW230807   0.250   6.036   3.490
 9970SOL     OW30808   6.484   3.243   2.152
 9970SOL    HW130809   6.491   3.293   2.238
 9970SOL    HW230810   6.475   3.307   2.077
 9971SOL     OW30811   0.201   5.361   4.566
 9971SOL    HW130812   0.142   5.358   4.485
 9971SOL    HW230813   0.209   5.269   4.604
 9972SOL     OW30814   2.796   4.466   5.882
 9972SOL    HW130815   2.777   4.450   5.785
 9972SOL    HW230816   2.748   4.398   5.937
 9973SOL     OW30817   2.511   2.049   3.348
 9973SOL    HW130818   2.604   2.015   3.358
 9973SOL    HW230819   2.511   2.149   3.356
 9974SOL     OW30820   1.744   2.580   3.144
 9974SOL    HW130821   1.741   2.654   3.077
 9974SOL    HW230822   1.824   2.522   3.127
 9975SOL     OW30823   2.615   4.398   6.503
 9975SOL    HW130824   2.688   4.444   6.452
 9975SOL    HW230825   2.629   4.299   6.500
 9976SOL     OW30826   4.409   5.865   5.476
 9976SOL    HW130827   4.419   5.836   5.571
 9976SOL    HW230828   4.377   5.788   5.420
 9977SOL     OW30829   4.250   0.582   5.343
 9977SOL    HW130830   4.160   0.557   5.381
 9977SOL    HW230831   4.289   0.656   5.397
 9978SOL     OW30832   0.885   2.390   0.005
 9978SOL    HW130833   0.807   2.395   0.068
 9978SOL    HW230834   0.851   2.394   6.930
 9979SOL     OW30835   3.100   4.119   5.046
 9979SOL    HW130836   3.081   4.166   4.960
 9979SOL    HW230837   3.060   4.027   5.043
 9980SOL     OW30838   1.400   1.444   0.695
 9980SOL    HW130839   1.447   1.408   0.776
 9980SOL    HW230840   1.326   1.504   0.725
 9981SOL     OW30841   5.751   1.385   0.268
 9981SOL    HW130842   5.773   1.333   0.351
 9981SOL    HW230843   5.795   1.343   0.189
 9982SOL     OW30844   2.218   2.230   4.661
 9982SOL    HW130845   2.126   2.261   4.684
 9982SOL    HW230846   2.243   2.153   4.721
 9983SOL     OW30847   1.128   4.048   2.431
 9983SOL    HW130848   1.101   3.987   2.356
 9983SOL    HW230849   1.048   4.094   2.467
 9984SOL     OW30850   0.351   5.131   0.940
 9984SOL    HW130851   0.311   5.039   0.943
 9984SOL    HW230852   0.440   5.130   0.985
 9985SOL     OW30853   4.967   4.277   6.934
 9985SOL    HW130854   4.874   4.246   6.915
 9985SOL    HW230855   4.973   4.376   6.917
 9986SOL     OW30856   5.476   5.099   0.270
 9986SOL    HW130857   5.455   5.163   0.197
 9986SOL    HW230858   5.569   5.065   0.259
 9987SOL     OW30859   5.778   1.962   1.276
 9987SOL    HW130860   5.745   1.934   1.366
 9987SOL    HW230861   5.759   1.890   1.209
 9988SOL     OW30862   6.275   0.056   3.369
 9988SOL    HW130863   6.201   0.023   3.310
 9988SOL    HW230864   6.246   0.050   3.465
 9989SOL     OW30865   6.725   5.924   2.406
 9989SOL    HW130866   6.783   5.949   2.328
 9989SOL    HW230867   6.672   5.843   2.383
 9990SOL     OW30868   6.723   0.254   3.199
 9990SOL    HW130869   6.635   0.298   3.218
 9990SOL    HW230870   6.707   0.164   3.158
 9991SOL     OW30871   1.902   4.195   2.466
 9991SOL    HW130872   1.908   4.143   2.381
 9991SOL    HW230873   1.824   4.163   2.519
 9992SOL     OW30874   2.771   5.004   0.157
 9992SOL    HW130875   2.780   5.067   0.234
 9992SOL    HW230876   2.803   4.913   0.185
 9993SOL     OW30877   3.738   0.312   5.218
 9993SOL    HW130878   3.726   0.398   5.167
 9993SOL    HW230879   3.758   0.333   5.314
 9994SOL     OW30880   6.183   4.878   5.326
 9994SOL    HW130881   6.236   4.845   5.249
 9994SOL    HW230882   6.112   4.941   5.294
 9995SOL     OW30883   3.909   1.772   6.365
 9995SOL    HW130884   3.838   1.819   6.312
 9995SOL    HW230885   3.869   1.737   6.450
 9996SOL     OW30886   3.185   4.366   0.769
 9996SOL    HW130887   3.142   4.284   0.808
 9996SOL    HW230888   3.118   4.417   0.715
 9997SOL     OW30889   6.541   2.178   3.270
 9997SOL    HW130890   6.515   2.104   3.209
 9997SOL    HW230891   6.485   2.259   3.252
 9998SOL     OW30892   5.113   4.048   2.315
 9998SOL    HW130893   5.031   4.030   2.368
 9998SOL    HW230894   5.170   3.965   2.313
 9999SOL     OW30895   0.866   6.838   4.495
 9999SOL    HW130896   0.891   6.745   4.468
 9999SOL    HW230897   0.797   6.835   4.567
10000SOL     OW30898   4.460   2.213   1.436
10000SOL    HW130899   4.467   2.310   1.461
10000SOL    HW230900   4.403   2.166   1.503
10001SOL     OW30901   3.801   6.619   1.231
10001SOL    HW130902   3.748   6.534   1.235
10001SOL    HW230903   3.749   6.689   1.182
10002SOL     OW30904   2.589   0.159   1.931
10002SOL    HW130905   2.591   0.256   1.956
10002SOL    HW230906   2.649   0.108   1.993
10003SOL     OW30907   1.050   1.033   2.980
10003SOL    HW130908   1.011   1.049   2.890
10003SOL    HW230909   1.054   0.935   2.999
10004SOL     OW30910   0.433   4.613   4.414
10004SOL    HW130911   0.516   4.561   4.395
10004SOL    HW230912   0.431   4.695   4.356
10005SOL     OW30913   2.539   5.412   3.745
10005SOL    HW130914   2.521   5.390   3.649
10005SOL    HW230915   2.568   5.330   3.793
10006SOL     OW30916   5.386   0.999   5.319
10006SOL    HW130917   5.305   1.019   5.373
10006SOL    HW230918   5.416   0.905   5.336
10007SOL     OW30919   0.680   5.344   3.789
10007SOL    HW130920   0.593   5.305   3.818
10007SOL    HW230921   0.753   5.278   3.807
10008SOL     OW30922   3.594   1.265   5.810
10008SOL    HW130923   3.682   1.273   5.763
10008SOL    HW230924   3.590   1.333   5.883
10009SOL     OW30925   0.773   4.481   2.163
10009SOL    HW130926   0.697   4.476   2.099
10009SOL    HW230927   0.819   4.392   2.167
10010SOL     OW30928   2.477   4.228   1.283
10010SOL    HW130929   2.474   4.130   1.300
10010SOL    HW230930   2.565   4.265   1.313
10011SOL     OW30931   2.187   3.163   6.601
10011SOL    HW130932   2.244   3.160   6.683
10011SOL    HW230933   2.116   3.232   6.611
10012SOL     OW30934   5.523   1.964   2.860
10012SOL    HW130935   5.457   1.927   2.796
10012SOL    HW230936   5.502   1.931   2.953
10013SOL     OW30937   0.643   6.367   4.495
10013SOL    HW130938   0.742   6.371   4.513
10013SOL    HW230939   0.627   6.311   4.414
10014SOL     OW30940   0.719   1.023   2.591
10014SOL    HW130941   0.667   0.956   2.644
10014SOL    HW230942   0.708   1.004   2.494
10015SOL     OW30943   3.776   6.246   6.026
10015SOL    HW130944   3.873   6.270   6.018
10015SOL    HW230945   3.745   6.264   6.119
10016SOL     OW30946   2.574   0.965   4.083
10016SOL    HW130947   2.579   1.058   4.045
10016SOL    HW230948   2.655   0.913   4.056
10017SOL     OW30949   2.831   2.173   2.747
10017SOL    HW130950   2.883   2.153   2.664
10017SOL    HW230951   2.894   2.206   2.818
10018SOL     OW30952   6.781   3.936   4.712
10018SOL    HW130953   6.705   3.966   4.770
10018SOL    HW230954   6.832   4.015   4.679
10019SOL     OW30955   0.668   2.391   1.539
10019SOL    HW130956   0.751   2.444   1.556
10019SOL    HW230957   0.587   2.449   1.552
10020SOL     OW30958   6.568   1.293   1.966
10020SOL    HW130959   6.640   1.228   1.988
10020SOL    HW230960   6.528   1.269   1.877
10021SOL     OW30961   0.831   2.990   2.110
10021SOL    HW130962   0.886   3.030   2.038
10021SOL    HW230963   0.735   3.014   2.098
10022SOL     OW30964   1.513   5.378   6.006
10022SOL    HW130965   1.422   5.352   5.976
10022SOL    HW230966   1.558   5.431   5.933
10023SOL     OW30967   0.756   0.727   5.754
10023SOL    HW130968   0.703   0.790   5.697
10023SOL    HW230969   0.706   0.641   5.764
10024SOL     OW30970   1.276   4.845   2.848
10024SOL    HW130971   1.262   4.764   2.791
10024SOL    HW230972   1.257   4.927   2.794
10025SOL     OW30973   1.288   3.614   0.816
10025SOL    HW130974   1.307   3.557   0.896
10025SOL    HW230975   1.354   3.688   0.812
10026SOL     OW30976   5.388   1.475   5.038
10026SOL    HW130977   5.442   1.539   5.093
10026SOL    HW230978   5.398   1.498   4.941
10027SOL     OW30979   3.122   1.885   5.587
10027SOL    HW130980   3.112   1.856   5.682
10027SOL    HW230981   3.164   1.976   5.584
10028SOL     OW30982   4.218   6.762   1.457
10028SOL    HW130983   4.187   6.764   1.362
10028SOL    HW230984   4.318   6.762   1.459
10029SOL     OW30985   0.168   4.583   4.769
10029SOL    HW130986   0.077   4.560   4.803
10029SOL    HW230987   0.160   4.644   4.690
10030SOL     OW30988   2.330   0.378   4.638
10030SOL    HW130989   2.406   0.349   4.696
10030SOL    HW230990   2.313   0.475   4.650
10031SOL     OW30991   2.710   5.690   2.802
10031SOL    HW130992   2.707   5.778   2.851
10031SOL    HW230993   2.771   5.628   2.851
10032SOL     OW30994   3.208   6.304   4.876
10032SOL    HW130995   3.164   6.297   4.787
10032SOL    HW230996   3.148   6.265   4.946
10033SOL     OW30997   3.384   1.469   4.412
10033SOL    HW130998   3.374   1.471   4.313
10033SOL    HW230999   3.345   1.384   4.448
10034SOL     OW31000   2.691   0.985   3.076
10034SOL    HW131001   2.640   1.014   3.158
10034SOL    HW231002   2.706   1.064   3.016
10035SOL     OW31003   6.380   2.801   3.080
10035SOL    HW131004   6.384   2.841   2.989
10035SOL    HW231005   6.469   2.814   3.126
10036SOL     OW31006   0.726   1.127   0.105
10036SOL    HW131007   0.814   1.114   0.150
10036SOL    HW231008   0.681   1.039   0.092
10037SOL     OW31009   5.801   6.664   6.652
10037SOL    HW131010   5.775   6.597   6.582
10037SOL    HW231011   5.773   6.755   6.623
10038SOL     OW31012   4.369   6.372   6.258
10038SOL    HW131013   4.384   6.436   6.334
10038SOL    HW231014   4.363   6.279   6.294
10039SOL     OW31015   0.196   5.790   2.646
10039SOL    HW131016   0.118   5.728   2.643
10039SOL    HW231017   0.170   5.875   2.691
10040SOL     OW31018   2.989   7.013   1.179
10040SOL    HW131019   3.004   0.081   1.227
10040SOL    HW231020   3.051   6.944   1.215
10041SOL     OW31021   6.517   5.687   4.803
10041SOL    HW131022   6.616   5.686   4.815
10041SOL    HW231023   6.494   5.651   4.712
10042SOL     OW31024   0.120   0.538   5.094
10042SOL    HW131025   0.104   0.635   5.076
10042SOL    HW231026   0.204   0.509   5.049
10043SOL     OW31027   0.633   0.832   3.643
10043SOL    HW131028   0.606   0.749   3.692
10043SOL    HW231029   0.623   0.818   3.544
10044SOL     OW31030   2.899   1.760   6.553
10044SOL    HW131031   2.880   1.855   6.529
10044SOL    HW231032   2.983   1.730   6.508
10045SOL     OW31033   4.047   6.808   5.298
10045SOL    HW131034   4.035   6.709   5.284
10045SOL    HW231035   4.054   6.853   5.209
10046SOL     OW31036   0.101   2.492   1.343
10046SOL    HW131037   0.031   2.560   1.323
10046SOL    HW231038   0.085   2.453   1.433
10047SOL     OW31039   0.305   1.637   3.286
10047SOL    HW131040   0.321   1.546   3.248
10047SOL    HW231041   0.360   1.648   3.369
10048SOL     OW31042   3.676   2.526   1.717
10048SOL    HW131043   3.642   2.612   1.755
10048SOL    HW231044   3.646   2.450   1.775
10049SOL     OW31045   1.740   0.155   4.041
10049SOL    HW131046   1.725   0.179   3.945
10049SOL    HW231047   1.837   0.140   4.057
10050SOL     OW31048   5.195   1.907   4.024
10050SOL    HW131049   5.270   1.951   4.074
10050SOL    HW231050   5.146   1.845   4.086
10051SOL     OW31051   5.866   2.753   6.213
10051SOL    HW131052   5.888   2.837   6.164
10051SOL    HW231053   5.798   2.771   6.284
10052SOL     OW31054   1.121   4.145   1.430
10052SOL    HW131055   1.141   4.156   1.527
10052SOL    HW231056   1.206   4.148   1.378
10053SOL     OW31057   3.037   6.354   3.712
10053SOL    HW131058   3.060   6.336   3.807
10053SOL    HW231059   3.119   6.344   3.655
10054SOL     OW31060   3.465   5.458   4.120
10054SOL    HW131061   3.563   5.436   4.114
10054SOL    HW231062   3.412   5.373   4.112
10055SOL     OW31063   6.543   3.159   5.846
10055SOL    HW131064   6.629   3.187   5.887
10055SOL    HW231065   6.467   3.183   5.907
10056SOL     OW31066   6.632   5.151   1.689
10056SOL    HW131067   6.674   5.115   1.605
10056SOL    HW231068   6.691   5.131   1.767
10057SOL     OW31069   2.709   2.408   3.644
10057SOL    HW131070   2.711   2.415   3.544
10057SOL    HW231071   2.794   2.366   3.676
10058SOL     OW31072   0.393   5.445   3.542
10058SOL    HW131073   0.487   5.415   3.552
10058SOL    HW231074   0.379   5.480   3.450
10059SOL     OW31075   5.377   0.070   1.019
10059SOL    HW131076   5.279   0.052   1.018
10059SOL    HW231077   5.426   7.008   0.987
10060SOL     OW31078   2.107   2.748   1.733
10060SOL    HW131079   2.146   2.828   1.687
10060SOL    HW231080   2.147   2.741   1.825
10061SOL     OW31081   6.248   2.042   5.132
10061SOL    HW131082   6.170   2.105   5.133
10061SOL    HW231083   6.239   1.979   5.055
10062SOL     OW31084   6.128   6.075   2.839
10062SOL    HW131085   6.106   6.173   2.838
10062SOL    HW231086   6.205   6.057   2.779
10063SOL     OW31087   0.734   3.179   2.525
10063SOL    HW131088   0.832   3.173   2.547
10063SOL    HW231089   0.686   3.223   2.600
10064SOL     OW31090   5.832   6.218   4.734
10064SOL    HW131091   5.874   6.155   4.800
10064SOL    HW231092   5.733   6.213   4.742
10065SOL     OW31093   1.241   6.398   3.072
10065SOL    HW131094   1.322   6.455   3.062
10065SOL    HW231095   1.207   6.405   3.166
10066SOL     OW31096   0.790   0.541   3.829
10066SOL    HW131097   0.714   0.589   3.874
10066SOL    HW231098   0.775   0.541   3.730
10067SOL     OW31099   3.755   5.133   3.357
10067SOL    HW131100   3.744   5.207   3.290
10067SOL    HW231101   3.666   5.112   3.397
10068SOL     OW31102   4.995   3.836   5.329
10068SOL    HW131103   5.094   3.851   5.332
10068SOL    HW231104   4.972   3.754   5.382
10069SOL     OW31105   3.864   0.741   3.898
10069SOL    HW131106   3.834   0.802   3.825
10069SOL    HW231107   3.791   0.675   3.918
10070SOL     OW31108   1.038   6.551   4.746
10070SOL    HW131109   1.137   6.558   4.735
10070SOL    HW231110   0.998   6.513   4.662
10071SOL     OW31111   5.594   5.653   4.904
10071SOL    HW131112   5.596   5.704   4.990
10071SOL    HW231113   5.518   5.686   4.848
10072SOL     OW31114   1.039   0.107   3.365
10072SOL    HW131115   0.988   0.159   3.433
10072SOL    HW231116   1.134   0.099   3.395
10073SOL     OW31117   0.253   5.674   6.419
10073SOL    HW131118   0.286   5.586   6.454
10073SOL    HW231119   0.319   5.711   6.354
10074SOL     OW31120   2.009   6.767   5.447
10074SOL    HW131121   1.985   6.817   5.365
10074SOL    HW231122   2.033   6.831   5.520
10075SOL     OW31123   1.459   2.087   3.960
10075SOL    HW131124   1.439   2.175   4.003
10075SOL    HW231125   1.558   2.077   3.951
10076SOL     OW31126   5.467   0.495   4.775
10076SOL    HW131127   5.376   0.457   4.764
10076SOL    HW231128   5.510   0.505   4.685
10077SOL     OW31129   3.714   1.462   6.418
10077SOL    HW131130   3.761   1.545   6.446
10077SOL    HW231131   3.663   1.425   6.496
10078SOL     OW31132   5.791   6.368   5.798
10078SOL    HW131133   5.788   6.466   5.779
10078SOL    HW231134   5.880   6.331   5.772
10079SOL     OW31135   0.137   4.320   0.262
10079SOL    HW131136   0.085   4.380   0.323
10079SOL    HW231137   0.234   4.323   0.286
10080SOL     OW31138   1.634   3.113   5.987
10080SOL    HW131139   1.609   3.198   5.941
10080SOL    HW231140   1.731   3.115   6.012
10081SOL     OW31141   0.035   0.656   6.745
10081SOL    HW131142   0.116   0.661   6.804
10081SOL    HW231143   0.001   0.748   6.727
10082SOL     OW31144   6.400   0.847   1.537
10082SOL    HW131145   6.426   0.883   1.447
10082SOL    HW231146   6.481   0.842   1.596
10083SOL     OW31147   4.920   0.945   4.444
10083SOL    HW131148   4.968   1.029   4.420
10083SOL    HW231149   4.986   0.869   4.450
10084SOL     OW31150   2.480   1.054   6.099
10084SOL    HW131151   2.561   1.046   6.158
10084SOL    HW231152   2.434   0.966   6.094
10085SOL     OW31153   0.636   5.270   2.915
10085SOL    HW131154   0.714   5.290   2.855
10085SOL    HW231155   0.623   5.346   2.979
10086SOL     OW31156   6.247   3.687   2.205
10086SOL    HW131157   6.313   3.651   2.271
10086SOL    HW231158   6.154   3.661   2.232
10087SOL     OW31159   1.325   6.879   4.042
10087SOL    HW131160   1.280   6.802   3.998
10087SOL    HW231161   1.324   6.866   4.141
10088SOL     OW31162   0.343   0.084   4.358
10088SOL    HW131163   0.256   0.057   4.318
10088SOL    HW231164   0.417   0.031   4.315
10089SOL     OW31165   1.213   3.291   1.962
10089SOL    HW131166   1.288   3.237   1.923
10089SOL    HW231167   1.239   3.388   1.964
10090SOL     OW31168   0.534   5.019   0.629
10090SOL    HW131169   0.624   5.045   0.663
10090SOL    HW231170   0.544   4.954   0.554
10091SOL     OW31171   0.518   2.492   4.109
10091SOL    HW131172   0.607   2.477   4.065
10091SOL    HW231173   0.511   2.588   4.138
10092SOL     OW31174   1.783   4.102   5.210
10092SOL    HW131175   1.876   4.077   5.184
10092SOL    HW231176   1.773   4.094   5.309
10093SOL     OW31177   6.812   4.838   6.490
10093SOL    HW131178   6.843   4.907   6.425
10093SOL    HW231179   6.873   4.759   6.487
10094SOL     OW31180   1.521   0.938   1.946
10094SOL    HW131181   1.475   0.962   1.861
10094SOL    HW231182   1.619   0.955   1.937
10095SOL     OW31183   6.758   0.833   6.013
10095SOL    HW131184   6.763   0.751   5.956
10095SOL    HW231185   6.812   0.819   6.096
10096SOL     OW31186   0.406   5.036   2.407
10096SOL    HW131187   0.421   5.018   2.505
10096SOL    HW231188   0.444   5.126   2.384
10097SOL     OW31189   1.155   1.614   6.772
10097SOL    HW131190   1.231   1.679   6.771
10097SOL    HW231191   1.087   1.644   6.840
10098SOL     OW31192   2.910   5.144   6.492
10098SOL    HW131193   2.818   5.147   6.453
10098SOL    HW231194   2.975   5.189   6.430
10099SOL     OW31195   6.903   4.797   4.774
10099SOL    HW131196   6.869   4.780   4.681
10099SOL    HW231197   6.976   4.865   4.770
10100SOL     OW31198   5.596   1.149   5.457
10100SOL    HW131199   5.599   1.235   5.406
10100SOL    HW231200   5.521   1.092   5.424
10101SOL     OW31201   0.264   4.523   1.922
10101SOL    HW131202   0.267   4.596   1.991
10101SOL    HW231203   0.287   4.562   1.833
10102SOL     OW31204   3.167   1.232   2.982
10102SOL    HW131205   3.140   1.265   3.072
10102SOL    HW231206   3.151   1.303   2.914
10103SOL     OW31207   2.606   2.087   6.761
10103SOL    HW131208   2.668   2.115   6.688
10103SOL    HW231209   2.622   2.142   6.842
10104SOL     OW31210   1.471   6.155   5.100
10104SOL    HW131211   1.530   6.132   5.177
10104SOL    HW231212   1.407   6.226   5.127
10105SOL     OW31213   2.376   0.727   6.481
10105SOL    HW131214   2.363   0.634   6.515
10105SOL    HW231215   2.450   0.771   6.531
10106SOL     OW31216   5.307   5.615   0.391
10106SOL    HW131217   5.224   5.606   0.445
10106SOL    HW231218   5.339   5.710   0.395
10107SOL     OW31219   5.651   1.287   5.835
10107SOL    HW131220   5.733   1.282   5.892
10107SOL    HW231221   5.672   1.334   5.749
10108SOL     OW31222   6.163   6.609   0.322
10108SOL    HW131223   6.192   6.695   0.281
10108SOL    HW231224   6.242   6.565   0.366
10109SOL     OW31225   5.173   5.134   3.217
10109SOL    HW131226   5.198   5.050   3.266
10109SOL    HW231227   5.190   5.213   3.276
10110SOL     OW31228   2.942   0.714   5.507
10110SOL    HW131229   2.915   0.618   5.499
10110SOL    HW231230   2.983   0.730   5.597
10111SOL     OW31231   0.286   2.257   2.978
10111SOL    HW131232   0.383   2.250   2.999
10111SOL    HW231233   0.247   2.166   2.966
10112SOL     OW31234   4.360   3.956   5.744
10112SOL    HW131235   4.333   3.869   5.784
10112SOL    HW231236   4.418   3.939   5.664
10113SOL     OW31237   3.768   6.638   6.670
10113SOL    HW131238   3.802   6.551   6.635
10113SOL    HW231239   3.673   6.650   6.641
10114SOL     OW31240   4.270   1.140   1.539
10114SOL    HW131241   4.172   1.135   1.559
10114SOL    HW231242   4.315   1.056   1.571
10115SOL     OW31243   1.386   2.126   3.678
10115SOL    HW131244   1.400   2.090   3.770
10115SOL    HW231245   1.345   2.217   3.683
10116SOL     OW31246   1.218   1.029   1.172
10116SOL    HW131247   1.161   1.056   1.250
10116SOL    HW231248   1.313   1.018   1.203
10117SOL     OW31249   4.777   0.655   5.669
10117SOL    HW131250   4.682   0.624   5.676
10117SOL    HW231251   4.804   0.659   5.573
10118SOL     OW31252   6.462   5.213   1.942
10118SOL    HW131253   6.559   5.232   1.929
10118SOL    HW231254   6.451   5.128   1.993
10119SOL     OW31255   2.401   0.845   5.823
10119SOL    HW131256   2.491   0.876   5.793
10119SOL    HW231257   2.398   0.842   5.923
10120SOL     OW31258   6.935   3.013   3.602
10120SOL    HW131259   6.916   2.992   3.698
10120SOL    HW231260   6.849   3.033   3.554
10121SOL     OW31261   6.643   4.740   4.872
10121SOL    HW131262   6.712   4.787   4.817
10121SOL    HW231263   6.656   4.764   4.968
10122SOL     OW31264   5.167   3.023   0.228
10122SOL    HW131265   5.126   2.931   0.228
10122SOL    HW231266   5.266   3.015   0.222
10123SOL     OW31267   0.297   6.823   0.119
10123SOL    HW131268   0.290   6.917   0.154
10123SOL    HW231269   0.276   6.758   0.192
10124SOL     OW31270   3.550   4.394   0.843
10124SOL    HW131271   3.506   4.399   0.932
10124SOL    HW231272   3.522   4.310   0.796
10125SOL     OW31273   1.486   7.012   1.455
10125SOL    HW131274   1.463   6.957   1.535
10125SOL    HW231275   1.564   0.051   1.476
10126SOL     OW31276   6.082   5.302   0.731
10126SOL    HW131277   6.182   5.308   0.735
10126SOL    HW231278   6.048   5.247   0.807
10127SOL     OW31279   3.762   4.974   4.964
10127SOL    HW131280   3.700   4.931   4.899
10127SOL    HW231281   3.734   5.068   4.981
10128SOL     OW31282   0.267   1.998   0.982
10128SOL    HW131283   0.241   1.996   0.885
10128SOL    HW231284   0.364   2.018   0.990
10129SOL     OW31285   5.808   1.997   3.159
10129SOL    HW131286   5.715   1.986   3.126
10129SOL    HW231287   5.807   2.011   3.258
10130SOL     OW31288   6.360   5.160   1.635
10130SOL    HW131289   6.329   5.250   1.604
10130SOL    HW231290   6.455   5.167   1.665
10131SOL     OW31291   0.354   1.049   0.789
10131SOL    HW131292   0.386   1.127   0.737
10131SOL    HW231293   0.424   0.977   0.789
10132SOL     OW31294   3.249   0.001   2.625
10132SOL    HW131295   3.246   6.926   2.660
10132SOL    HW231296   3.165   0.048   2.652
10133SOL     OW31297   5.185   5.618   3.345
10133SOL    HW131298   5.119   5.627   3.271
10133SOL    HW231299   5.263   5.678   3.327
10134SOL     OW31300   0.016   1.426   2.789
10134SOL    HW131301   0.107   1.468   2.794
10134SOL    HW231302   6.969   1.488   2.832
10135SOL     OW31303   4.346   4.951   3.484
10135SOL    HW131304   4.294   4.897   3.418
10135SOL    HW231305   4.427   4.899   3.513
10136SOL     OW31306   5.901   6.766   2.675
10136SOL    HW131307   5.823   6.829   2.679
10136SOL    HW231308   5.984   6.817   2.654
10137SOL     OW31309   6.075   4.963   4.139
10137SOL    HW131310   6.012   5.037   4.163
10137SOL    HW231311   6.022   4.882   4.111
10138SOL     OW31312   5.515   2.483   6.315
10138SOL    HW131313   5.557   2.406   6.363
10138SOL    HW231314   5.579   2.519   6.246
10139SOL     OW31315   4.040   3.319   3.228
10139SOL    HW131316   4.114   3.337   3.164
10139SOL    HW231317   4.076   3.277   3.311
10140SOL     OW31318   0.459   4.717   6.267
10140SOL    HW131319   0.360   4.722   6.254
10140SOL    HW231320   0.492   4.627   6.239
10141SOL     OW31321   1.785   1.148   3.333
10141SOL    HW131322   1.716   1.083   3.303
10141SOL    HW231323   1.872   1.100   3.346
10142SOL     OW31324   4.630   5.922   5.009
10142SOL    HW131325   4.665   5.883   4.924
10142SOL    HW231326   4.671   5.876   5.087
10143SOL     OW31327   4.468   6.950   1.253
10143SOL    HW131328   4.486   0.025   1.226
10143SOL    HW231329   4.551   6.895   1.244
10144SOL     OW31330   3.047   5.641   3.749
10144SOL    HW131331   2.949   5.664   3.743
10144SOL    HW231332   3.059   5.543   3.737
10145SOL     OW31333   2.855   6.516   5.786
10145SOL    HW131334   2.840   6.434   5.842
10145SOL    HW231335   2.943   6.509   5.740
10146SOL     OW31336   5.083   5.096   4.141
10146SOL    HW131337   5.081   5.161   4.064
10146SOL    HW231338   4.997   5.100   4.191
10147SOL     OW31339   5.020   4.870   4.757
10147SOL    HW131340   5.065   4.894   4.844
10147SOL    HW231341   4.933   4.825   4.776
10148SOL     OW31342   5.409   5.484   1.072
10148SOL    HW131343   5.333   5.549   1.076
10148SOL    HW231344   5.476   5.515   1.004
10149SOL     OW31345   4.325   2.829   0.803
10149SOL    HW131346   4.318   2.868   0.895
10149SOL    HW231347   4.381   2.888   0.746
10150SOL     OW31348   4.862   4.594   1.416
10150SOL    HW131349   4.792   4.528   1.445
10150SOL    HW231350   4.931   4.603   1.488
10151SOL     OW31351   1.640   0.284   5.489
10151SOL    HW131352   1.688   0.371   5.501
10151SOL    HW231353   1.580   0.268   5.567
10152SOL     OW31354   0.082   5.726   3.449
10152SOL    HW131355   0.129   5.799   3.500
10152SOL    HW231356   0.063   5.650   3.510
10153SOL     OW31357   5.498   6.370   4.452
10153SOL    HW131358   5.583   6.319   4.467
10153SOL    HW231359   5.520   6.468   4.445
10154SOL     OW31360   0.036   4.955   6.110
10154SOL    HW131361   6.994   4.875   6.104
10154SOL    HW231362   0.033   4.992   6.202
10155SOL     OW31363   3.587   1.277   6.218
10155SOL    HW131364   3.654   1.237   6.156
10155SOL    HW231365   3.630   1.350   6.271
10156SOL     OW31366   5.899   0.495   2.243
10156SOL    HW131367   5.854   0.488   2.332
10156SOL    HW231368   5.834   0.533   2.176
10157SOL     OW31369   5.629   0.662   6.000
10157SOL    HW131370   5.653   0.593   5.932
10157SOL    HW231371   5.693   0.658   6.077
10158SOL     OW31372   4.218   3.369   6.944
10158SOL    HW131373   4.285   3.373   7.018
10158SOL    HW231374   4.255   3.417   6.864
10159SOL     OW31375   1.380   1.581   5.979
10159SOL    HW131376   1.283   1.594   5.962
10159SOL    HW231377   1.412   1.499   5.930
10160SOL     OW31378   0.254   6.186   3.705
10160SOL    HW131379   0.240   6.227   3.796
10160SOL    HW231380   0.199   6.103   3.697
10161SOL     OW31381   2.912   5.524   5.926
10161SOL    HW131382   3.001   5.494   5.892
10161SOL    HW231383   2.853   5.445   5.940
10162SOL     OW31384   2.883   1.604   6.926
10162SOL    HW131385   2.859   1.514   6.962
10162SOL    HW231386   2.851   1.675   6.989
10163SOL     OW31387   5.762   3.550   5.692
10163SOL    HW131388   5.685   3.518   5.748
10163SOL    HW231389   5.762   3.650   5.690
10164SOL     OW31390   6.858   2.591   4.937
10164SOL    HW131391   6.868   2.678   4.985
10164SOL    HW231392   6.908   2.520   4.986
10165SOL     OW31393   0.144   1.865   3.714
10165SOL    HW131394   0.190   1.776   3.720
10165SOL    HW231395   0.081   1.864   3.636
10166SOL     OW31396   2.008   0.777   2.265
10166SOL    HW131397   1.932   0.803   2.205
10166SOL    HW231398   2.026   0.680   2.255
10167SOL     OW31399   4.959   0.267   0.181
10167SOL    HW131400   4.893   0.334   0.214
10167SOL    HW231401   5.049   0.310   0.173
10168SOL     OW31402   6.894   4.397   4.014
10168SOL    HW131403   6.871   4.312   3.965
10168SOL    HW231404   6.952   4.454   3.955
10169SOL     OW31405   6.365   3.973   4.140
10169SOL    HW131406   6.289   3.911   4.118
10169SOL    HW231407   6.334   4.068   4.131
10170SOL     OW31408   1.854   4.139   4.900
10170SOL    HW131409   1.938   4.086   4.905
10170SOL    HW231410   1.824   4.163   4.992
10171SOL     OW31411   6.355   4.062   6.105
10171SOL    HW131412   6.409   4.145   6.104
10171SOL    HW231413   6.393   3.996   6.041
10172SOL     OW31414   5.269   0.728   2.725
10172SOL    HW131415   5.221   0.663   2.784
10172SOL    HW231416   5.204   0.797   2.692
10173SOL     OW31417   2.282   1.629   1.890
10173SOL    HW131418   2.258   1.726   1.887
10173SOL    HW231419   2.272   1.595   1.984
10174SOL     OW31420   0.050   4.746   2.380
10174SOL    HW131421   0.028   4.648   2.373
10174SOL    HW231422   0.134   4.757   2.433
10175SOL     OW31423   6.138   2.768   5.637
10175SOL    HW131424   6.137   2.868   5.648
10175SOL    HW231425   6.101   2.744   5.547
10176SOL     OW31426   2.030   4.019   6.931
10176SOL    HW131427   2.122   4.045   6.961
10176SOL    HW231428   1.981   4.100   6.900
10177SOL     OW31429   2.257   6.586   6.899
10177SOL    HW131430   2.262   6.621   6.992
10177SOL    HW231431   2.167   6.546   6.883
10178SOL     OW31432   5.731   2.437   4.564
10178SOL    HW131433   5.792   2.478   4.631
10178SOL    HW231434   5.781   2.367   4.512
10179SOL     OW31435   1.262   3.020   6.306
10179SOL    HW131436   1.334   3.020   6.236
10179SOL    HW231437   1.203   3.100   6.292
10180SOL     OW31438   2.731   5.980   5.611
10180SOL    HW131439   2.697   5.902   5.663
10180SOL    HW231440   2.780   5.948   5.531
10181SOL     OW31441   5.588   3.461   1.540
10181SOL    HW131442   5.534   3.503   1.613
10181SOL    HW231443   5.528   3.420   1.472
10182SOL     OW31444   5.891   1.338   1.009
10182SOL    HW131445   5.899   1.278   1.089
10182SOL    HW231446   5.980   1.351   0.967
10183SOL     OW31447   1.786   1.696   6.447
10183SOL    HW131448   1.845   1.649   6.513
10183SOL    HW231449   1.710   1.738   6.494
10184SOL     OW31450   3.956   1.039   5.772
10184SOL    HW131451   3.888   0.986   5.722
10184SOL    HW231452   4.046   0.994   5.764
10185SOL     OW31453   4.987   6.682   1.200
10185SOL    HW131454   4.929   6.654   1.124
10185SOL    HW231455   4.952   6.768   1.238
10186SOL     OW31456   4.347   1.956   2.855
10186SOL    HW131457   4.382   1.873   2.898
10186SOL    HW231458   4.318   2.020   2.925
10187SOL     OW31459   0.847   2.162   1.567
10187SOL    HW131460   0.778   2.230   1.541
10187SOL    HW231461   0.844   2.147   1.666
10188SOL     OW31462   4.212   5.955   0.966
10188SOL    HW131463   4.147   5.973   0.892
10188SOL    HW231464   4.301   5.931   0.926
10189SOL     OW31465   1.503   6.697   5.125
10189SOL    HW131466   1.574   6.631   5.100
10189SOL    HW231467   1.500   6.706   5.224
10190SOL     OW31468   5.021   2.705   0.017
10190SOL    HW131469   4.927   2.696   0.050
10190SOL    HW231470   5.083   2.660   0.081
10191SOL     OW31471   6.404   4.342   0.255
10191SOL    HW131472   6.389   4.341   0.354
10191SOL    HW231473   6.332   4.396   0.211
10192SOL     OW31474   3.065   0.780   5.760
10192SOL    HW131475   3.056   0.870   5.802
10192SOL    HW231476   3.128   0.724   5.814
10193SOL     OW31477   4.877   3.773   0.408
10193SOL    HW131478   4.807   3.701   0.409
10193SOL    HW231479   4.884   3.813   0.499
10194SOL     OW31480   5.303   3.563   5.311
10194SOL    HW131481   5.273   3.484   5.258
10194SOL    HW231482   5.394   3.592   5.280
10195SOL     OW31483   6.880   4.191   1.939
10195SOL    HW131484   6.878   4.108   1.884
10195SOL    HW231485   6.967   4.239   1.926
10196SOL     OW31486   0.536   1.660   4.395
10196SOL    HW131487   0.628   1.629   4.369
10196SOL    HW231488   0.543   1.744   4.448
10197SOL     OW31489   5.652   0.444   5.811
10197SOL    HW131490   5.741   0.405   5.790
10197SOL    HW231491   5.580   0.385   5.773
10198SOL     OW31492   4.110   7.015   2.888
10198SOL    HW131493   4.062   7.009   2.976
10198SOL    HW231494   4.154   6.928   2.868
10199SOL     OW31495   1.387   2.593   5.327
10199SOL    HW131496   1.468   2.536   5.315
10199SOL    HW231497   1.359   2.630   5.238
10200SOL     OW31498   5.822   3.328   1.756
10200SOL    HW131499   5.754   3.277   1.703
10200SOL    HW231500   5.914   3.292   1.735
10201SOL     OW31501   1.434   3.205   0.672
10201SOL    HW131502   1.377   3.286   0.657
10201SOL    HW231503   1.519   3.215   0.622
10202SOL     OW31504   3.226   0.523   5.531
10202SOL    HW131505   3.201   0.475   5.615
10202SOL    HW231506   3.217   0.461   5.454
10203SOL     OW31507   6.490   2.461   4.464
10203SOL    HW131508   6.499   2.379   4.407
10203SOL    HW231509   6.511   2.542   4.409
10204SOL     OW31510   5.136   6.410   6.685
10204SOL    HW131511   5.218   6.456   6.653
10204SOL    HW231512   5.160   6.320   6.722
10205SOL     OW31513   0.900   0.938   6.323
10205SOL    HW131514   0.971   0.971   6.386
10205SOL    HW231515   0.935   0.937   6.230
10206SOL     OW31516   1.186   1.004   5.431
10206SOL    HW131517   1.216   0.910   5.418
10206SOL    HW231518   1.203   1.057   5.347
10207SOL     OW31519   1.236   1.699   5.241
10207SOL    HW131520   1.254   1.762   5.166
10207SOL    HW231521   1.269   1.739   5.327
10208SOL     OW31522   6.889   4.997   5.696
10208SOL    HW131523   6.982   5.030   5.713
10208SOL    HW231524   6.830   5.023   5.772
10209SOL     OW31525   6.651   6.466   6.451
10209SOL    HW131526   6.652   6.376   6.408
10209SOL    HW231527   6.561   6.483   6.491
10210SOL     OW31528   3.683   6.571   2.175
10210SOL    HW131529   3.699   6.554   2.273
10210SOL    HW231530   3.691   6.669   2.157
10211SOL     OW31531   4.791   5.966   5.413
10211SOL    HW131532   4.779   6.046   5.354
10211SOL    HW231533   4.883   5.968   5.453
10212SOL     OW31534   0.519   0.494   6.280
10212SOL    HW131535   0.449   0.463   6.344
10212SOL    HW231536   0.579   0.560   6.325
10213SOL     OW31537   5.958   1.732   0.908
10213SOL    HW131538   5.905   1.647   0.901
10213SOL    HW231539   6.042   1.723   0.856
10214SOL     OW31540   0.706   2.620   0.955
10214SOL    HW131541   0.767   2.548   0.989
10214SOL    HW231542   0.611   2.596   0.974
10215SOL     OW31543   3.210   3.394   1.898
10215SOL    HW131544   3.257   3.332   1.961
10215SOL    HW231545   3.117   3.410   1.931
10216SOL     OW31546   6.370   6.786   2.818
10216SOL    HW131547   6.414   6.842   2.749
10216SOL    HW231548   6.434   6.768   2.893
10217SOL     OW31549   3.617   0.940   4.015
10217SOL    HW131550   3.640   0.941   4.113
10217SOL    HW231551   3.670   1.010   3.968
10218SOL     OW31552   1.237   2.566   2.396
10218SOL    HW131553   1.145   2.565   2.433
10218SOL    HW231554   1.302   2.591   2.468
10219SOL     OW31555   6.714   0.230   2.845
10219SOL    HW131556   6.758   0.145   2.872
10219SOL    HW231557   6.782   0.295   2.812
10220SOL     OW31558   3.528   2.547   1.313
10220SOL    HW131559   3.615   2.525   1.357
10220SOL    HW231560   3.537   2.633   1.263
10221SOL     OW31561   0.650   5.794   3.831
10221SOL    HW131562   0.568   5.851   3.843
10221SOL    HW231563   0.727   5.852   3.805
10222SOL     OW31564   2.899   3.521   4.213
10222SOL    HW131565   2.999   3.517   4.218
10222SOL    HW231566   2.861   3.512   4.305
10223SOL     OW31567   0.381   5.986   1.821
10223SOL    HW131568   0.362   5.964   1.725
10223SOL    HW231569   0.443   6.064   1.825
10224SOL     OW31570   5.647   4.113   3.463
10224SOL    HW131571   5.592   4.057   3.401
10224SOL    HW231572   5.649   4.207   3.430
10225SOL     OW31573   2.246   3.809   5.860
10225SOL    HW131574   2.250   3.909   5.858
10225SOL    HW231575   2.251   3.777   5.955
10226SOL     OW31576   4.687   2.477   6.984
10226SOL    HW131577   4.647   2.387   7.003
10226SOL    HW231578   4.643   2.546   0.023
10227SOL     OW31579   5.296   3.750   1.264
10227SOL    HW131580   5.215   3.714   1.312
10227SOL    HW231581   5.375   3.746   1.326
10228SOL     OW31582   5.635   0.523   1.154
10228SOL    HW131583   5.578   0.441   1.162
10228SOL    HW231584   5.592   0.588   1.092
10229SOL     OW31585   6.478   3.409   4.629
10229SOL    HW131586   6.478   3.501   4.668
10229SOL    HW231587   6.569   3.389   4.593
10230SOL     OW31588   0.351   6.100   2.725
10230SOL    HW131589   0.414   6.159   2.674
10230SOL    HW231590   0.403   6.031   2.775
10231SOL     OW31591   1.300   5.098   3.019
10231SOL    HW131592   1.257   5.088   2.929
10231SOL    HW231593   1.243   5.155   3.078
10232SOL     OW31594   4.835   4.744   3.801
10232SOL    HW131595   4.849   4.837   3.767
10232SOL    HW231596   4.744   4.736   3.841
10233SOL     OW31597   3.697   4.117   6.117
10233SOL    HW131598   3.639   4.041   6.146
10233SOL    HW231599   3.661   4.203   6.153
10234SOL     OW31600   0.515   1.262   1.753
10234SOL    HW131601   0.562   1.176   1.730
10234SOL    HW231602   0.580   1.324   1.796
10235SOL     OW31603   1.633   1.049   2.847
10235SOL    HW131604   1.688   1.054   2.930
10235SOL    HW231605   1.572   1.128   2.843
10236SOL     OW31606   2.668   6.436   1.719
10236SOL    HW131607   2.663   6.493   1.637
10236SOL    HW231608   2.764   6.424   1.745
10237SOL     OW31609   0.263   3.142   5.647
10237SOL    HW131610   0.295   3.141   5.552
10237SOL    HW231611   0.325   3.199   5.701
10238SOL     OW31612   3.481   0.026   1.679
10238SOL    HW131613   3.555   0.045   1.614
10238SOL    HW231614   3.518   7.007   1.763
10239SOL     OW31615   0.990   2.431   4.160
10239SOL    HW131616   0.899   2.430   4.120
10239SOL    HW231617   1.059   2.438   4.087
10240SOL     OW31618   2.397   6.554   0.792
10240SOL    HW131619   2.382   6.652   0.806
10240SOL    HW231620   2.433   6.513   0.876
10241SOL     OW31621   3.933   2.534   1.620
10241SOL    HW131622   3.849   2.559   1.668
10241SOL    HW231623   3.968   2.448   1.657
10242SOL     OW31624   6.458   2.867   6.541
10242SOL    HW131625   6.409   2.789   6.503
10242SOL    HW231626   6.540   2.886   6.486
10243SOL     OW31627   2.774   5.200   1.264
10243SOL    HW131628   2.858   5.210   1.316
10243SOL    HW231629   2.790   5.228   1.169
10244SOL     OW31630   3.089   4.299   1.479
10244SOL    HW131631   3.079   4.379   1.538
10244SOL    HW231632   3.007   4.289   1.422
10245SOL     OW31633   4.800   3.714   0.853
10245SOL    HW131634   4.766   3.687   0.943
10245SOL    HW231635   4.777   3.643   0.786
10246SOL     OW31636   3.213   2.989   4.003
10246SOL    HW131637   3.246   3.004   4.096
10246SOL    HW231638   3.131   3.044   3.987
10247SOL     OW31639   0.312   2.736   4.372
10247SOL    HW131640   0.215   2.758   4.382
10247SOL    HW231641   0.333   2.653   4.424
10248SOL     OW31642   1.313   0.587   3.650
10248SOL    HW131643   1.372   0.635   3.585
10248SOL    HW231644   1.366   0.518   3.698
10249SOL     OW31645   2.757   5.448   6.371
10249SOL    HW131646   2.742   5.518   6.300
10249SOL    HW231647   2.855   5.440   6.390
10250SOL     OW31648   4.320   2.459   1.137
10250SOL    HW131649   4.244   2.468   1.072
10250SOL    HW231650   4.283   2.454   1.230
10251SOL     OW31651   1.813   0.458   4.380
10251SOL    HW131652   1.807   0.367   4.338
10251SOL    HW231653   1.906   0.474   4.413
10252SOL     OW31654   5.473   4.092   6.560
10252SOL    HW131655   5.543   4.024   6.538
10252SOL    HW231656   5.384   4.060   6.529
10253SOL     OW31657   3.238   6.372   6.400
10253SOL    HW131658   3.200   6.396   6.489
10253SOL    HW231659   3.261   6.274   6.398
10254SOL     OW31660   6.036   1.019   5.575
10254SOL    HW131661   6.061   0.947   5.511
10254SOL    HW231662   5.944   1.003   5.610
10255SOL     OW31663   4.142   4.476   1.533
10255SOL    HW131664   4.195   4.526   1.600
10255SOL    HW231665   4.118   4.386   1.570
10256SOL     OW31666   3.772   1.481   3.243
10256SOL    HW131667   3.808   1.393   3.276
10256SOL    HW231668   3.699   1.512   3.304
10257SOL     OW31669   4.183   5.433   3.106
10257SOL    HW131670   4.216   5.404   3.196
10257SOL    HW231671   4.231   5.381   3.035
10258SOL     OW31672   1.786   1.021   1.952
10258SOL    HW131673   1.782   0.980   2.043
10258SOL    HW231674   1.837   1.107   1.957
10259SOL     OW31675   1.634   4.383   3.909
10259SOL    HW131676   1.632   4.333   3.996
10259SOL    HW231677   1.636   4.318   3.833
10260SOL     OW31678   1.109   0.498   3.798
10260SOL    HW131679   1.175   0.532   3.731
10260SOL    HW231680   1.018   0.536   3.778
10261SOL     OW31681   6.709   3.622   1.056
10261SOL    HW131682   6.695   3.655   1.150
10261SOL    HW231683   6.793   3.568   1.052
10262SOL     OW31684   4.410   1.507   0.854
10262SOL    HW131685   4.360   1.430   0.815
10262SOL    HW231686   4.353   1.589   0.851
10263SOL     OW31687   6.045   0.687   2.145
10263SOL    HW131688   6.026   0.768   2.201
10263SOL    HW231689   5.995   0.608   2.181
10264SOL     OW31690   6.931   6.308   6.622
10264SOL    HW131691   6.832   6.290   6.620
10264SOL    HW231692   6.966   6.288   6.713
10265SOL     OW31693   2.026   1.626   0.933
10265SOL    HW131694   2.039   1.542   0.881
10265SOL    HW231695   2.070   1.617   1.023
10266SOL     OW31696   2.635   3.435   1.770
10266SOL    HW131697   2.537   3.427   1.791
10266SOL    HW231698   2.661   3.532   1.770
10267SOL     OW31699   5.824   0.937   1.537
10267SOL    HW131700   5.779   0.989   1.464
10267SOL    HW231701   5.833   0.841   1.509
10268SOL     OW31702   3.910   0.101   1.393
10268SOL    HW131703   3.998   0.106   1.439
10268SOL    HW231704   3.908   0.166   1.317
10269SOL     OW31705   3.104   2.292   0.669
10269SOL    HW131706   3.139   2.204   0.635
10269SOL    HW231707   3.084   2.284   0.767
10270SOL     OW31708   2.674   0.083   2.287
10270SOL    HW131709   2.727   0.167   2.276
10270SOL    HW231710   2.665   0.061   2.384
10271SOL     OW31711   1.378   1.792   6.742
10271SOL    HW131712   1.422   1.800   6.653
10271SOL    HW231713   1.439   1.826   6.813
10272SOL     OW31714   6.358   0.368   4.366
10272SOL    HW131715   6.427   0.356   4.438
10272SOL    HW231716   6.270   0.389   4.408
10273SOL     OW31717   2.166   5.478   3.078
10273SOL    HW131718   2.254   5.476   3.030
10273SOL    HW231719   2.151   5.570   3.116
10274SOL     OW31720   0.904   5.180   5.300
10274SOL    HW131721   0.940   5.247   5.365
10274SOL    HW231722   0.924   5.209   5.207
10275SOL     OW31723   0.177   7.001   2.431
10275SOL    HW131724   0.091   6.986   2.382
10275SOL    HW231725   0.177   0.073   2.471
10276SOL     OW31726   3.257   5.476   5.450
10276SOL    HW131727   3.259   5.394   5.392
10276SOL    HW231728   3.328   5.470   5.520
10277SOL     OW31729   0.253   6.564   4.309
10277SOL    HW131730   0.328   6.618   4.272
10277SOL    HW231731   0.280   6.527   4.398
10278SOL     OW31732   6.872   0.619   4.920
10278SOL    HW131733   6.832   0.653   5.005
10278SOL    HW231734   6.898   0.697   4.862
10279SOL     OW31735   2.166   6.148   4.337
10279SOL    HW131736   2.187   6.057   4.373
10279SOL    HW231737   2.225   6.166   4.258
10280SOL     OW31738   6.464   4.092   0.783
10280SOL    HW131739   6.461   4.084   0.684
10280SOL    HW231740   6.503   4.181   0.809
10281SOL     OW31741   6.891   1.944   3.249
10281SOL    HW131742   6.818   1.934   3.181
10281SOL    HW231743   6.953   2.016   3.220
10282SOL     OW31744   4.886   3.321   3.271
10282SOL    HW131745   4.816   3.301   3.340
10282SOL    HW231746   4.885   3.419   3.250
10283SOL     OW31747   0.749   2.977   1.213
10283SOL    HW131748   0.660   2.958   1.253
10283SOL    HW231749   0.815   2.907   1.242
10284SOL     OW31750   0.191   3.242   3.786
10284SOL    HW131751   0.191   3.339   3.813
10284SOL    HW231752   0.240   3.188   3.855
10285SOL     OW31753   5.721   5.489   5.060
10285SOL    HW131754   5.784   5.433   5.006
10285SOL    HW231755   5.676   5.556   5.000
10286SOL     OW31756   2.844   1.445   3.575
10286SOL    HW131757   2.749   1.469   3.597
10286SOL    HW231758   2.903   1.523   3.595
10287SOL     OW31759   2.490   5.571   2.895
10287SOL    HW131760   2.491   5.476   2.864
10287SOL    HW231761   2.570   5.619   2.858
10288SOL     OW31762   3.496   6.827   5.630
10288SOL    HW131763   3.484   6.773   5.547
10288SOL    HW231764   3.574   6.791   5.682
10289SOL     OW31765   3.217   5.299   6.577
10289SOL    HW131766   3.285   5.229   6.600
10289SOL    HW231767   3.187   5.345   6.661
10290SOL     OW31768   3.295   2.869   1.854
10290SOL    HW131769   3.235   2.826   1.787
10290SOL    HW231770   3.302   2.967   1.836
10291SOL     OW31771   1.964   1.668   2.389
10291SOL    HW131772   1.887   1.729   2.408
10291SOL    HW231773   1.932   1.573   2.387
10292SOL     OW31774   6.227   6.780   6.806
10292SOL    HW131775   6.250   6.809   6.898
10292SOL    HW231776   6.215   6.860   6.747
10293SOL     OW31777   1.079   3.901   4.414
10293SOL    HW131778   1.069   3.981   4.473
10293SOL    HW231779   1.175   3.874   4.411
10294SOL     OW31780   3.480   1.404   2.324
10294SOL    HW131781   3.513   1.496   2.347
10294SOL    HW231782   3.537   1.366   2.251
10295SOL     OW31783   0.665   2.247   6.864
10295SOL    HW131784   0.610   2.323   6.831
10295SOL    HW231785   0.710   2.202   6.786
10296SOL     OW31786   5.765   1.025   5.649
10296SOL    HW131787   5.714   0.987   5.725
10296SOL    HW231788   5.702   1.062   5.581
10297SOL     OW31789   3.638   1.344   6.969
10297SOL    HW131790   3.701   1.420   6.958
10297SOL    HW231791   3.597   1.348   0.041
10298SOL     OW31792   0.737   2.300   2.742
10298SOL    HW131793   0.730   2.348   2.654
10298SOL    HW231794   0.825   2.322   2.784
10299SOL     OW31795   4.345   6.034   3.128
10299SOL    HW131796   4.389   5.957   3.081
10299SOL    HW231797   4.381   6.120   3.094
10300SOL     OW31798   0.758   3.827   1.669
10300SOL    HW131799   0.816   3.909   1.665
10300SOL    HW231800   0.683   3.837   1.604
10301SOL     OW31801   4.165   0.480   6.209
10301SOL    HW131802   4.194   0.386   6.195
10301SOL    HW231803   4.242   0.534   6.245
10302SOL     OW31804   2.744   6.258   5.062
10302SOL    HW131805   2.683   6.321   5.013
10302SOL    HW231806   2.692   6.180   5.095
10303SOL     OW31807   0.541   5.945   4.721
10303SOL    HW131808   0.486   5.929   4.803
10303SOL    HW231809   0.579   6.038   4.725
10304SOL     OW31810   5.955   6.467   0.399
10304SOL    HW131811   5.964   6.384   0.344
10304SOL    HW231812   6.040   6.519   0.395
10305SOL     OW31813   2.727   4.330   6.126
10305SOL    HW131814   2.786   4.262   6.170
10305SOL    HW231815   2.634   4.294   6.117
10306SOL     OW31816   4.558   0.518   1.244
10306SOL    HW131817   4.488   0.447   1.250
10306SOL    HW231818   4.514   0.608   1.249
10307SOL     OW31819   2.156   0.178   4.618
10307SOL    HW131820   2.224   0.252   4.620
10307SOL    HW231821   2.199   0.095   4.582
10308SOL     OW31822   2.824   5.249   2.267
10308SOL    HW131823   2.889   5.221   2.338
10308SOL    HW231824   2.792   5.342   2.286
10309SOL     OW31825   6.983   1.630   4.631
10309SOL    HW131826   6.937   1.668   4.711
10309SOL    HW231827   0.062   1.639   4.641
10310SOL     OW31828   2.293   4.066   5.794
10310SOL    HW131829   2.217   4.120   5.759
10310SOL    HW231830   2.358   4.048   5.721
10311SOL     OW31831   5.012   5.557   0.543
10311SOL    HW131832   5.003   5.637   0.602
10311SOL    HW231833   5.082   5.496   0.580
10312SOL     OW31834   4.550   0.571   2.058
10312SOL    HW131835   4.554   0.574   2.158
10312SOL    HW231836   4.639   0.599   2.021
10313SOL     OW31837   4.538   6.938   3.175
10313SOL    HW131838   4.579   6.847   3.171
10313SOL    HW231839   4.439   6.930   3.179
10314SOL     OW31840   0.605   0.522   1.326
10314SOL    HW131841   0.519   0.567   1.304
10314SOL    HW231842   0.617   0.518   1.425
10315SOL     OW31843   5.636   5.501   3.749
10315SOL    HW131844   5.675   5.585   3.787
10315SOL    HW231845   5.612   5.439   3.823
10316SOL     OW31846   0.503   1.849   6.857
10316SOL    HW131847   0.512   1.881   6.763
10316SOL    HW231848   0.456   1.919   6.911
10317SOL     OW31849   3.840   5.479   5.739
10317SOL    HW131850   3.802   5.387   5.738
10317SOL    HW231851   3.769   5.544   5.711
10318SOL     OW31852   6.345   6.919   0.390
10318SOL    HW131853   6.434   6.951   0.355
10318SOL    HW231854   6.356   6.886   0.484
10319SOL     OW31855   0.552   4.506   4.116
10319SOL    HW131856   0.585   4.490   4.209
10319SOL    HW231857   0.497   4.427   4.087
10320SOL     OW31858   0.545   6.958   3.863
10320SOL    HW131859   0.641   6.947   3.836
10320SOL    HW231860   0.517   0.034   3.851
10321SOL     OW31861   5.049   2.461   2.305
10321SOL    HW131862   5.111   2.523   2.257
10321SOL    HW231863   5.024   2.385   2.245
10322SOL     OW31864   4.609   4.382   4.876
10322SOL    HW131865   4.527   4.341   4.914
10322SOL    HW231866   4.592   4.408   4.781
10323SOL     OW31867   0.280   4.095   5.175
10323SOL    HW131868   0.363   4.126   5.130
10323SOL    HW231869   0.204   4.154   5.149
10324SOL     OW31870   3.297   3.225   2.100
10324SOL    HW131871   3.311   3.200   2.196
10324SOL    HW231872   3.386   3.245   2.059
10325SOL     OW31873   6.706   5.764   3.320
10325SOL    HW131874   6.643   5.723   3.255
10325SOL    HW231875   6.751   5.843   3.278
10326SOL     OW31876   5.700   3.620   6.859
10326SOL    HW131877   5.674   3.621   6.955
10326SOL    HW231878   5.684   3.711   6.819
10327SOL     OW31879   2.728   4.340   1.372
10327SOL    HW131880   2.748   4.335   1.469
10327SOL    HW231881   2.773   4.419   1.332
10328SOL     OW31882   6.113   2.662   1.779
10328SOL    HW131883   6.113   2.648   1.879
10328SOL    HW231884   6.068   2.584   1.736
10329SOL     OW31885   3.967   1.679   2.784
10329SOL    HW131886   3.963   1.591   2.736
10329SOL    HW231887   4.032   1.739   2.738
10330SOL     OW31888   3.984   1.080   1.590
10330SOL    HW131889   4.002   1.075   1.688
10330SOL    HW231890   3.954   1.172   1.566
10331SOL     OW31891   6.330   5.346   6.680
10331SOL    HW131892   6.231   5.331   6.681
10331SOL    HW231893   6.375   5.280   6.740
10332SOL     OW31894   1.155   1.187   6.947
10332SOL    HW131895   1.098   1.207   6.867
10332SOL    HW231896   1.134   1.253   0.000
10333SOL     OW31897   0.710   5.122   4.672
10333SOL    HW131898   0.690   5.208   4.626
10333SOL    HW231899   0.674   5.046   4.618
10334SOL     OW31900   3.306   6.855   3.640
10334SOL    HW131901   3.388   6.801   3.658
10334SOL    HW231902   3.227   6.794   3.634
10335SOL     OW31903   0.539   2.263   5.382
10335SOL    HW131904   0.475   2.311   5.442
10335SOL    HW231905   0.632   2.283   5.411
10336SOL     OW31906   5.406   7.006   3.481
10336SOL    HW131907   5.316   6.978   3.446
10336SOL    HW231908   5.477   6.948   3.441
10337SOL     OW31909   6.604   5.214   6.637
10337SOL    HW131910   6.536   5.214   6.710
10337SOL    HW231911   6.560   5.236   6.550
10338SOL     OW31912   1.367   6.209   1.673
10338SOL    HW131913   1.278   6.196   1.715
10338SOL    HW231914   1.435   6.229   1.743
10339SOL     OW31915   6.048   2.061   5.579
10339SOL    HW131916   6.033   2.156   5.549
10339SOL    HW231917   6.142   2.052   5.612
10340SOL     OW31918   2.321   3.289   6.246
10340SOL    HW131919   2.406   3.333   6.216
10340SOL    HW231920   2.246   3.356   6.242
10341SOL     OW31921   2.325   2.824   2.794
10341SOL    HW131922   2.327   2.753   2.864
10341SOL    HW231923   2.330   2.914   2.837
10342SOL     OW31924   1.053   1.207   3.514
10342SOL    HW131925   1.141   1.219   3.469
10342SOL    HW231926   1.068   1.189   3.611
10343SOL     OW31927   2.812   5.258   1.545
10343SOL    HW131928   2.764   5.222   1.625
10343SOL    HW231929   2.763   5.338   1.510
10344SOL     OW31930   4.292   5.674   5.865
10344SOL    HW131931   4.202   5.663   5.907
10344SOL    HW231932   4.347   5.737   5.919
10345SOL     OW31933   1.637   3.628   4.227
10345SOL    HW131934   1.538   3.641   4.221
10345SOL    HW231935   1.671   3.671   4.311
10346SOL     OW31936   6.890   5.757   1.091
10346SOL    HW131937   6.839   5.720   1.170
10346SOL    HW231938   6.922   5.682   1.034
10347SOL     OW31939   5.006   1.522   3.764
10347SOL    HW131940   4.941   1.598   3.763
10347SOL    HW231941   4.991   1.464   3.683
10348SOL     OW31942   6.918   4.246   0.914
10348SOL    HW131943   6.997   4.191   0.888
10348SOL    HW231944   6.940   4.343   0.902
10349SOL     OW31945   0.798   6.336   6.669
10349SOL    HW131946   0.714   6.385   6.688
10349SOL    HW231947   0.867   6.399   6.635
10350SOL     OW31948   3.435   0.002   5.978
10350SOL    HW131949   3.529   6.994   5.956
10350SOL    HW231950   3.430   0.034   6.072
10351SOL     OW31951   4.490   5.067   5.995
10351SOL    HW131952   4.399   5.060   6.037
10351SOL    HW231953   4.505   4.987   5.936
10352SOL     OW31954   3.742   3.335   6.153
10352SOL    HW131955   3.765   3.341   6.250
10352SOL    HW231956   3.730   3.427   6.116
10353SOL     OW31957   0.001   2.077   4.769
10353SOL    HW131958   6.961   2.145   4.725
10353SOL    HW231959   0.072   2.049   4.706
10354SOL     OW31960   5.654   1.651   1.875
10354SOL    HW131961   5.585   1.587   1.909
10354SOL    HW231962   5.738   1.641   1.929
10355SOL     OW31963   2.078   5.464   2.175
10355SOL    HW131964   2.001   5.417   2.216
10355SOL    HW231965   2.085   5.439   2.078
10356SOL     OW31966   0.055   3.641   4.425
10356SOL    HW131967   0.045   3.740   4.437
10356SOL    HW231968   6.990   3.603   4.386
10357SOL     OW31969   2.344   1.633   0.386
10357SOL    HW131970   2.373   1.581   0.306
10357SOL    HW231971   2.253   1.671   0.369
10358SOL     OW31972   0.492   1.731   1.870
10358SOL    HW131973   0.501   1.793   1.949
10358SOL    HW231974   0.444   1.648   1.898
10359SOL     OW31975   0.742   1.383   1.180
10359SOL    HW131976   0.705   1.324   1.109
10359SOL    HW231977   0.679   1.458   1.198
10360SOL     OW31978   6.002   5.978   3.988
10360SOL    HW131979   6.095   6.015   3.985
10360SOL    HW231980   5.946   6.022   3.918
10361SOL     OW31981   1.858   4.742   1.226
10361SOL    HW131982   1.824   4.741   1.132
10361SOL    HW231983   1.781   4.754   1.289
10362SOL     OW31984   1.638   5.079   4.542
10362SOL    HW131985   1.582   5.039   4.469
10362SOL    HW231986   1.618   5.177   4.550
10363SOL     OW31987   5.381   0.785   4.174
10363SOL    HW131988   5.477   0.766   4.196
10363SOL    HW231989   5.372   0.801   4.076
10364SOL     OW31990   1.001   4.502   1.223
10364SOL    HW131991   0.946   4.422   1.200
10364SOL    HW231992   0.955   4.585   1.190
10365SOL     OW31993   4.246   6.142   6.885
10365SOL    HW131994   4.187   6.195   6.946
10365SOL    HW231995   4.334   6.188   6.874
10366SOL     OW31996   3.464   6.314   3.746
10366SOL    HW131997   3.395   6.293   3.677
10366SOL    HW231998   3.418   6.330   3.834
10367SOL     OW31999   6.786   2.213   3.376
10367SOL    HW132000   6.693   2.203   3.342
10367SOL    HW232001   6.824   2.300   3.344
10368SOL     OW32002   2.470   0.256   1.063
10368SOL    HW132003   2.489   0.245   0.965
10368SOL    HW232004   2.514   0.340   1.096
10369SOL     OW32005   3.900   2.624   0.457
10369SOL    HW132006   3.913   2.644   0.554
10369SOL    HW232007   3.876   2.708   0.408
10370SOL     OW32008   3.446   0.624   5.015
10370SOL    HW132009   3.356   0.655   5.046
10370SOL    HW232010   3.456   0.642   4.917
10371SOL     OW32011   5.002   6.636   5.971
10371SOL    HW132012   4.974   6.684   6.054
10371SOL    HW232013   4.924   6.583   5.936
10372SOL     OW32014   0.868   0.398   2.934
10372SOL    HW132015   0.816   0.359   2.859
10372SOL    HW232016   0.897   0.326   2.997
10373SOL     OW32017   1.065   5.686   5.014
10373SOL    HW132018   1.085   5.685   4.916
10373SOL    HW232019   1.099   5.771   5.054
10374SOL     OW32020   2.880   2.182   4.053
10374SOL    HW132021   2.804   2.246   4.069
10374SOL    HW232022   2.939   2.180   4.133
10375SOL     OW32023   6.165   2.425   0.115
10375SOL    HW132024   6.150   2.515   0.072
10375SOL    HW232025   6.126   2.426   0.207
10376SOL     OW32026   0.106   1.390   3.320
10376SOL    HW132027   0.189   1.382   3.375
10376SOL    HW232028   0.129   1.426   3.230
10377SOL     OW32029   1.139   6.652   4.434
10377SOL    HW132030   1.137   6.614   4.341
10377SOL    HW232031   1.192   6.593   4.494
10378SOL     OW32032   6.881   6.885   6.657
10378SOL    HW132033   6.874   6.790   6.627
10378SOL    HW232034   6.934   6.937   6.591
10379SOL     OW32035   5.219   1.469   4.539
10379SOL    HW132036   5.173   1.488   4.453
10379SOL    HW232037   5.256   1.554   4.576
10380SOL     OW32038   4.559   0.465   2.871
10380SOL    HW132039   4.529   0.403   2.944
10380SOL    HW232040   4.593   0.550   2.912
10381SOL     OW32041   4.598   5.137   4.845
10381SOL    HW132042   4.658   5.107   4.919
10381SOL    HW232043   4.502   5.124   4.873
10382SOL     OW32044   2.301   5.491   0.804
10382SOL    HW132045   2.341   5.463   0.892
10382SOL    HW232046   2.203   5.471   0.805
10383SOL     OW32047   6.636   3.061   6.130
10383SOL    HW132048   6.706   3.014   6.075
10383SOL    HW232049   6.644   3.032   6.225
10384SOL     OW32050   6.059   0.217   0.286
10384SOL    HW132051   6.009   0.254   0.364
10384SOL    HW232052   6.082   0.291   0.222
10385SOL     OW32053   5.415   2.376   7.018
10385SOL    HW132054   5.383   2.297   0.051
10385SOL    HW232055   5.343   2.406   6.955
10386SOL     OW32056   6.115   2.568   6.246
10386SOL    HW132057   6.026   2.599   6.282
10386SOL    HW232058   6.137   2.619   6.164
10387SOL     OW32059   2.109   3.294   3.174
10387SOL    HW132060   2.112   3.334   3.265
10387SOL    HW232061   2.017   3.258   3.156
10388SOL     OW32062   1.350   4.574   2.750
10388SOL    HW132063   1.393   4.530   2.829
10388SOL    HW232064   1.336   4.507   2.678
10389SOL     OW32065   0.235   5.922   3.033
10389SOL    HW132066   0.268   5.828   3.035
10389SOL    HW232067   0.136   5.923   3.043
10390SOL     OW32068   1.869   3.150   3.084
10390SOL    HW132069   1.804   3.121   3.014
10390SOL    HW232070   1.908   3.069   3.128
10391SOL     OW32071   3.355   6.306   5.247
10391SOL    HW132072   3.296   6.254   5.308
10391SOL    HW232073   3.378   6.249   5.167
10392SOL     OW32074   6.678   4.979   6.869
10392SOL    HW132075   6.658   5.042   6.794
10392SOL    HW232076   6.593   4.947   6.911
10393SOL     OW32077   1.611   0.977   3.824
10393SOL    HW132078   1.650   0.972   3.732
10393SOL    HW232079   1.515   1.003   3.819
10394SOL     OW32080   2.793   6.888   6.859
10394SOL    HW132081   2.891   6.905   6.866
10394SOL    HW232082   2.757   6.934   6.777
10395SOL     OW32083   1.281   1.371   5.176
10395SOL    HW132084   1.218   1.413   5.112
10395SOL    HW232085   1.323   1.441   5.234
10396SOL     OW32086   0.419   0.310   4.984
10396SOL    HW132087   0.510   0.280   5.012
10396SOL    HW232088   0.401   0.402   5.020
10397SOL     OW32089   4.094   1.855   2.614
10397SOL    HW132090   4.060   1.946   2.637
10397SOL    HW232091   4.142   1.858   2.527
10398SOL     OW32092   6.812   3.097   2.646
10398SOL    HW132093   6.794   3.005   2.682
10398SOL    HW232094   6.884   3.091   2.576
10399SOL     OW32095   6.521   2.047   5.528
10399SOL    HW132096   6.466   2.065   5.609
10399SOL    HW232097   6.467   1.996   5.461
10400SOL     OW32098   2.524   4.695   1.407
10400SOL    HW132099   2.618   4.664   1.395
10400SOL    HW232100   2.521   4.768   1.475
10401SOL     OW32101   1.362   5.669   1.547
10401SOL    HW132102   1.319   5.618   1.621
10401SOL    HW232103   1.326   5.638   1.459
10402SOL     OW32104   0.268   2.372   4.228
10402SOL    HW132105   0.329   2.390   4.151
10402SOL    HW232106   0.250   2.274   4.234
10403SOL     OW32107   4.984   1.460   2.333
10403SOL    HW132108   5.056   1.497   2.274
10403SOL    HW232109   4.998   1.490   2.427
10404SOL     OW32110   0.151   6.693   3.818
10404SOL    HW132111   0.123   6.728   3.729
10404SOL    HW232112   0.175   6.597   3.810
10405SOL     OW32113   1.708   6.726   6.890
10405SOL    HW132114   1.642   6.700   6.820
10405SOL    HW232115   1.779   6.656   6.898
10406SOL     OW32116   2.002   5.303   5.775
10406SOL    HW132117   1.934   5.231   5.786
10406SOL    HW232118   2.080   5.286   5.836
10407SOL     OW32119   1.142   1.090   5.962
10407SOL    HW132120   1.229   1.083   5.914
10407SOL    HW232121   1.072   1.126   5.900
10408SOL     OW32122   4.234   5.381   3.350
10408SOL    HW132123   4.308   5.422   3.404
10408SOL    HW232124   4.146   5.404   3.392
10409SOL     OW32125   5.949   4.865   2.144
10409SOL    HW132126   5.851   4.848   2.144
10409SOL    HW232127   5.966   4.964   2.140
10410SOL     OW32128   5.949   6.696   0.627
10410SOL    HW132129   5.982   6.602   0.638
10410SOL    HW232130   5.914   6.708   0.535
10411SOL     OW32131   1.683   4.270   2.629
10411SOL    HW132132   1.761   4.328   2.651
10411SOL    HW232133   1.615   4.276   2.703
10412SOL     OW32134   0.183   2.393   6.997
10412SOL    HW132135   0.267   2.438   6.968
10412SOL    HW232136   0.175   2.305   6.951
10413SOL     OW32137   0.214   2.032   6.144
10413SOL    HW132138   0.172   1.943   6.127
10413SOL    HW232139   0.314   2.024   6.137
10414SOL     OW32140   5.704   0.486   4.928
10414SOL    HW132141   5.619   0.499   4.875
10414SOL    HW232142   5.772   0.553   4.899
10415SOL     OW32143   0.605   5.527   3.051
10415SOL    HW132144   0.617   5.609   3.108
10415SOL    HW232145   0.510   5.521   3.021
10416SOL     OW32146   4.766   0.072   0.192
10416SOL    HW132147   4.823   0.147   0.160
10416SOL    HW232148   4.818   0.015   0.256
10417SOL     OW32149   4.419   4.621   4.571
10417SOL    HW132150   4.408   4.719   4.583
10417SOL    HW232151   4.361   4.572   4.635
10418SOL     OW32152   0.092   3.827   6.604
10418SOL    HW132153   0.116   3.739   6.645
10418SOL    HW232154   0.131   3.901   6.659
10419SOL     OW32155   1.987   1.751   4.041
10419SOL    HW132156   1.937   1.673   4.078
10419SOL    HW232157   1.930   1.833   4.049
10420SOL     OW32158   5.385   3.117   3.728
10420SOL    HW132159   5.366   3.033   3.677
10420SOL    HW232160   5.325   3.122   3.807
10421SOL     OW32161   1.423   4.677   3.624
10421SOL    HW132162   1.403   4.729   3.708
10421SOL    HW232163   1.402   4.733   3.545
10422SOL     OW32164   5.905   3.499   5.471
10422SOL    HW132165   5.974   3.565   5.443
10422SOL    HW232166   5.842   3.542   5.536
10423SOL     OW32167   2.143   5.318   3.670
10423SOL    HW132168   2.187   5.385   3.609
10423SOL    HW232169   2.054   5.353   3.699
10424SOL     OW32170   3.270   1.623   0.726
10424SOL    HW132171   3.188   1.606   0.780
10424SOL    HW232172   3.250   1.613   0.629
10425SOL     OW32173   2.226   3.474   0.802
10425SOL    HW132174   2.133   3.497   0.771
10425SOL    HW232175   2.289   3.482   0.725
10426SOL     OW32176   5.834   2.437   6.184
10426SOL    HW132177   5.803   2.508   6.121
10426SOL    HW232178   5.875   2.479   6.264
10427SOL     OW32179   5.502   1.060   4.046
10427SOL    HW132180   5.466   0.973   4.012
10427SOL    HW232181   5.450   1.089   4.127
10428SOL     OW32182   1.959   6.754   4.977
10428SOL    HW132183   1.953   6.833   4.917
10428SOL    HW232184   2.055   6.725   4.985
10429SOL     OW32185   1.462   3.076   1.293
10429SOL    HW132186   1.476   3.159   1.346
10429SOL    HW232187   1.365   3.054   1.290
10430SOL     OW32188   3.436   0.591   4.389
10430SOL    HW132189   3.417   0.622   4.296
10430SOL    HW232190   3.354   0.548   4.427
10431SOL     OW32191   4.093   0.947   3.500
10431SOL    HW132192   4.098   0.850   3.525
10431SOL    HW232193   4.078   1.002   3.583
10432SOL     OW32194   1.230   5.394   6.923
10432SOL    HW132195   1.230   5.427   7.018
10432SOL    HW232196   1.315   5.346   6.905
10433SOL     OW32197   3.940   6.190   3.973
10433SOL    HW132198   3.963   6.288   3.964
10433SOL    HW232199   3.917   6.153   3.883
10434SOL     OW32200   4.658   0.685   6.247
10434SOL    HW132201   4.697   0.620   6.312
10434SOL    HW232202   4.582   0.734   6.290
10435SOL     OW32203   2.334   1.319   1.013
10435SOL    HW132204   2.400   1.394   1.007
10435SOL    HW232205   2.370   1.249   1.076
10436SOL     OW32206   0.586   3.425   5.019
10436SOL    HW132207   0.647   3.402   5.095
10436SOL    HW232208   0.493   3.435   5.054
10437SOL     OW32209   6.409   6.436   5.275
10437SOL    HW132210   6.378   6.358   5.219
10437SOL    HW232211   6.332   6.499   5.288
10438SOL     OW32212   6.500   6.016   0.135
10438SOL    HW132213   6.549   6.083   0.079
10438SOL    HW232214   6.525   6.029   0.231
10439SOL     OW32215   6.562   5.296   5.184
10439SOL    HW132216   6.612   5.366   5.234
10439SOL    HW232217   6.562   5.318   5.087
10440SOL     OW32218   6.106   2.476   0.762
10440SOL    HW132219   6.087   2.382   0.791
10440SOL    HW232220   6.187   2.509   0.810
10441SOL     OW32221   4.563   2.020   6.592
10441SOL    HW132222   4.654   2.015   6.632
10441SOL    HW232223   4.512   1.937   6.615
10442SOL     OW32224   1.978   1.363   4.731
10442SOL    HW132225   2.073   1.355   4.762
10442SOL    HW232226   1.918   1.374   4.809
10443SOL     OW32227   1.153   0.697   0.894
10443SOL    HW132228   1.130   0.793   0.880
10443SOL    HW232229   1.223   0.689   0.966
10444SOL     OW32230   4.073   4.745   4.206
10444SOL    HW132231   4.122   4.658   4.215
10444SOL    HW232232   4.069   4.791   4.295
10445SOL     OW32233   1.356   2.965   3.774
10445SOL    HW132234   1.286   2.970   3.703
10445SOL    HW232235   1.323   2.907   3.848
10446SOL     OW32236   2.188   4.934   5.268
10446SOL    HW132237   2.199   4.890   5.357
10446SOL    HW232238   2.254   4.895   5.204
10447SOL     OW32239   0.743   1.624   2.878
10447SOL    HW132240   0.680   1.548   2.863
10447SOL    HW232241   0.689   1.706   2.900
10448SOL     OW32242   2.467   6.229   2.300
10448SOL    HW132243   2.473   6.188   2.209
10448SOL    HW232244   2.396   6.183   2.353
10449SOL     OW32245   4.243   5.458   4.639
10449SOL    HW132246   4.163   5.399   4.642
10449SOL    HW232247   4.320   5.407   4.600
10450SOL     OW32248   0.215   0.959   4.294
10450SOL    HW132249   0.194   0.969   4.197
10450SOL    HW232250   0.305   1.000   4.313
10451SOL     OW32251   3.147   1.822   4.087
10451SOL    HW132252   3.179   1.890   4.154
10451SOL    HW232253   3.189   1.841   3.998
10452SOL     OW32254   6.198   2.983   4.703
10452SOL    HW132255   6.221   3.076   4.731
10452SOL    HW232256   6.103   2.964   4.727
10453SOL     OW32257   3.989   5.905   4.125
10453SOL    HW132258   4.020   5.853   4.204
10453SOL    HW232259   4.023   5.999   4.132
10454SOL     OW32260   6.517   1.292   6.860
10454SOL    HW132261   6.443   1.232   6.829
10454SOL    HW232262   6.481   1.362   6.920
10455SOL     OW32263   0.631   6.195   3.291
10455SOL    HW132264   0.594   6.108   3.259
10455SOL    HW232265   0.566   6.237   3.354
10456SOL     OW32266   0.828   5.706   6.534
10456SOL    HW132267   0.890   5.692   6.457
10456SOL    HW232268   0.867   5.772   6.598
10457SOL     OW32269   4.123   1.737   6.197
10457SOL    HW132270   4.189   1.774   6.261
10457SOL    HW232271   4.036   1.720   6.244
10458SOL     OW32272   0.994   5.927   0.068
10458SOL    HW132273   0.917   5.876   0.029
10458SOL    HW232274   0.960   6.011   0.109
10459SOL     OW32275   5.856   5.630   1.579
10459SOL    HW132276   5.874   5.727   1.563
10459SOL    HW232277   5.767   5.606   1.539
10460SOL     OW32278   6.389   0.598   0.599
10460SOL    HW132279   6.443   0.571   0.679
10460SOL    HW232280   6.415   0.541   0.521
10461SOL     OW32281   6.809   4.595   6.765
10461SOL    HW132282   6.790   4.616   6.861
10461SOL    HW232283   6.800   4.679   6.711
10462SOL     OW32284   3.614   3.602   6.359
10462SOL    HW132285   3.640   3.509   6.387
10462SOL    HW232286   3.626   3.611   6.260
10463SOL     OW32287   4.959   2.751   6.571
10463SOL    HW132288   4.873   2.704   6.592
10463SOL    HW232289   4.999   2.786   6.656
10464SOL     OW32290   6.503   4.652   2.454
10464SOL    HW132291   6.585   4.670   2.509
10464SOL    HW232292   6.529   4.605   2.370
10465SOL     OW32293   5.573   4.790   1.269
10465SOL    HW132294   5.651   4.819   1.214
10465SOL    HW232295   5.502   4.861   1.266
10466SOL     OW32296   6.158   4.280   6.098
10466SOL    HW132297   6.215   4.220   6.155
10466SOL    HW232298   6.114   4.226   6.026
10467SOL     OW32299   0.313   2.784   6.782
10467SOL    HW132300   0.338   2.769   6.877
10467SOL    HW232301   0.214   2.780   6.772
10468SOL     OW32302   1.264   4.659   4.096
10468SOL    HW132303   1.353   4.674   4.053
10468SOL    HW232304   1.204   4.612   4.031
10469SOL     OW32305   1.429   1.715   4.314
10469SOL    HW132306   1.360   1.655   4.354
10469SOL    HW232307   1.387   1.770   4.242
10470SOL     OW32308   1.929   3.575   2.832
10470SOL    HW132309   1.997   3.511   2.866
10470SOL    HW232310   1.890   3.627   2.908
10471SOL     OW32311   2.455   6.003   6.515
10471SOL    HW132312   2.505   6.044   6.591
10471SOL    HW232313   2.357   6.022   6.526
10472SOL     OW32314   3.652   4.921   6.565
10472SOL    HW132315   3.682   4.880   6.479
10472SOL    HW232316   3.674   5.018   6.565
10473SOL     OW32317   6.029   4.583   0.807
10473SOL    HW132318   6.022   4.678   0.837
10473SOL    HW232319   5.989   4.523   0.876
10474SOL     OW32320   6.044   0.277   4.887
10474SOL    HW132321   6.098   0.350   4.846
10474SOL    HW232322   6.076   0.189   4.852
10475SOL     OW32323   1.038   5.403   1.282
10475SOL    HW132324   1.012   5.371   1.373
10475SOL    HW232325   0.973   5.474   1.252
10476SOL     OW32326   5.191   6.573   1.601
10476SOL    HW132327   5.096   6.589   1.575
10476SOL    HW232328   5.208   6.475   1.610
10477SOL     OW32329   6.890   5.909   3.527
10477SOL    HW132330   6.948   5.847   3.475
10477SOL    HW232331   6.801   5.917   3.482
10478SOL     OW32332   6.533   0.976   6.629
10478SOL    HW132333   6.597   1.043   6.592
10478SOL    HW232334   6.464   0.955   6.560
10479SOL     OW32335   0.841   2.741   1.987
10479SOL    HW132336   0.883   2.667   2.041
10479SOL    HW232337   0.840   2.825   2.041
10480SOL     OW32338   2.782   0.952   3.740
10480SOL    HW132339   2.705   0.927   3.682
10480SOL    HW232340   2.790   1.052   3.745
10481SOL     OW32341   6.848   1.078   1.223
10481SOL    HW132342   6.819   0.985   1.199
10481SOL    HW232343   6.828   1.140   1.147
10482SOL     OW32344   5.252   2.529   3.719
10482SOL    HW132345   5.208   2.538   3.808
10482SOL    HW232346   5.350   2.547   3.729
10483SOL     OW32347   6.697   6.245   0.132
10483SOL    HW132348   6.760   6.322   0.134
10483SOL    HW232349   6.679   6.213   0.225
10484SOL     OW32350   6.371   0.946   2.151
10484SOL    HW132351   6.419   1.032   2.167
10484SOL    HW232352   6.288   0.964   2.097
10485SOL     OW32353   5.036   3.189   5.743
10485SOL    HW132354   5.006   3.152   5.831
10485SOL    HW232355   4.958   3.192   5.680
10486SOL     OW32356   5.374   2.857   2.245
10486SOL    HW132357   5.399   2.908   2.327
10486SOL    HW232358   5.396   2.911   2.164
10487SOL     OW32359   5.633   6.931   1.832
10487SOL    HW132360   5.720   6.958   1.791
10487SOL    HW232361   5.612   6.992   1.907
10488SOL     OW32362   2.934   3.396   0.187
10488SOL    HW132363   2.949   3.492   0.212
10488SOL    HW232364   3.015   3.342   0.210
10489SOL     OW32365   1.156   5.927   5.138
10489SOL    HW132366   1.073   5.915   5.192
10489SOL    HW232367   1.204   6.010   5.167
10490SOL     OW32368   6.703   0.462   4.361
10490SOL    HW132369   6.647   0.407   4.424
10490SOL    HW232370   6.772   0.512   4.414
10491SOL     OW32371   0.732   4.990   5.659
10491SOL    HW132372   0.716   5.080   5.698
10491SOL    HW232373   0.781   4.933   5.725
10492SOL     OW32374   4.055   4.475   5.662
10492SOL    HW132375   4.012   4.448   5.576
10492SOL    HW232376   3.990   4.461   5.737
10493SOL     OW32377   3.113   1.105   0.574
10493SOL    HW132378   3.095   1.016   0.532
10493SOL    HW232379   3.160   1.092   0.661
10494SOL     OW32380   5.502   2.364   4.705
10494SOL    HW132381   5.546   2.385   4.618
10494SOL    HW232382   5.547   2.415   4.778
10495SOL     OW32383   1.492   6.276   0.351
10495SOL    HW132384   1.582   6.289   0.309
10495SOL    HW232385   1.448   6.365   0.362
10496SOL     OW32386   6.607   0.673   5.117
10496SOL    HW132387   6.577   0.596   5.173
10496SOL    HW232388   6.679   0.722   5.166
10497SOL     OW32389   0.619   1.661   0.058
10497SOL    HW132390   0.609   1.703   0.149
10497SOL    HW232391   0.634   1.733   7.009
10498SOL     OW32392   2.905   4.972   5.966
10498SOL    HW132393   2.838   4.902   5.942
10498SOL    HW232394   2.899   5.047   5.901
10499SOL     OW32395   3.012   5.277   2.983
10499SOL    HW132396   3.057   5.252   3.068
10499SOL    HW232397   3.081   5.289   2.911
10500SOL     OW32398   1.529   2.236   6.770
10500SOL    HW132399   1.628   2.248   6.760
10500SOL    HW232400   1.488   2.323   6.797
10501SOL     OW32401   1.326   2.269   3.070
10501SOL    HW132402   1.244   2.238   3.022
10501SOL    HW232403   1.314   2.255   3.169
10502SOL     OW32404   3.255   6.060   5.341
10502SOL    HW132405   3.336   6.026   5.387
10502SOL    HW232406   3.210   5.985   5.291
10503SOL     OW32407   2.874   3.780   5.636
10503SOL    HW132408   2.833   3.702   5.589
10503SOL    HW232409   2.827   3.794   5.724
10504SOL     OW32410   2.526   3.179   1.031
10504SOL    HW132411   2.448   3.167   1.093
10504SOL    HW232412   2.569   3.090   1.014
10505SOL     OW32413   0.339   6.955   1.258
10505SOL    HW132414   0.413   6.968   1.192
10505SOL    HW232415   0.278   0.015   1.258
10506SOL     OW32416   0.144   4.229   5.395
10506SOL    HW132417   0.060   4.244   5.343
10506SOL    HW232418   0.202   4.163   5.346
10507SOL     OW32419   1.164   0.259   4.670
10507SOL    HW132420   1.219   0.286   4.749
10507SOL    HW232421   1.099   0.188   4.698
10508SOL     OW32422   5.182   4.230   2.528
10508SOL    HW132423   5.272   4.240   2.485
10508SOL    HW232424   5.183   4.149   2.587
10509SOL     OW32425   1.678   0.336   5.072
10509SOL    HW132426   1.707   0.271   5.003
10509SOL    HW232427   1.726   0.317   5.158
10510SOL     OW32428   6.208   6.006   0.221
10510SOL    HW132429   6.292   6.019   0.170
10510SOL    HW232430   6.207   5.914   0.262
10511SOL     OW32431   6.469   1.847   0.530
10511SOL    HW132432   6.464   1.872   0.626
10511SOL    HW232433   6.497   1.926   0.476
10512SOL     OW32434   3.315   5.968   6.588
10512SOL    HW132435   3.262   5.887   6.609
10512SOL    HW232436   3.376   5.989   6.665
10513SOL     OW32437   6.689   2.295   0.249
10513SOL    HW132438   6.735   2.223   0.198
10513SOL    HW232439   6.599   2.311   0.210
10514SOL     OW32440   6.409   3.723   1.500
10514SOL    HW132441   6.413   3.623   1.500
10514SOL    HW232442   6.340   3.754   1.435
10515SOL     OW32443   6.235   2.130   4.390
10515SOL    HW132444   6.256   2.068   4.465
10515SOL    HW232445   6.155   2.098   4.340
10516SOL     OW32446   3.565   0.027   0.098
10516SOL    HW132447   3.500   6.985   0.142
10516SOL    HW232448   3.596   7.005   0.011
10517SOL     OW32449   6.991   2.589   3.013
10517SOL    HW132450   7.008   2.535   2.930
10517SOL    HW232451   0.056   2.636   3.040
10518SOL     OW32452   0.567   6.649   2.469
10518SOL    HW132453   0.499   6.577   2.451
10518SOL    HW232454   0.647   6.634   2.411
10519SOL     OW32455   3.314   3.732   5.249
10519SOL    HW132456   3.229   3.784   5.242
10519SOL    HW232457   3.378   3.764   5.179
10520SOL     OW32458   3.838   4.139   6.377
10520SOL    HW132459   3.758   4.132   6.437
10520SOL    HW232460   3.809   4.175   6.288
10521SOL     OW32461   6.355   5.031   2.168
10521SOL    HW132462   6.286   5.008   2.100
10521SOL    HW232463   6.315   5.090   2.238
10522SOL     OW32464   6.471   0.073   1.886
10522SOL    HW132465   6.567   0.043   1.884
10522SOL    HW232466   6.445   0.093   1.981
10523SOL     OW32467   6.743   5.769   6.846
10523SOL    HW132468   6.838   5.797   6.861
10523SOL    HW232469   6.698   5.836   6.786
10524SOL     OW32470   4.327   0.741   4.309
10524SOL    HW132471   4.353   0.684   4.387
10524SOL    HW232472   4.238   0.784   4.328
10525SOL     OW32473   2.918   6.256   4.648
10525SOL    HW132474   2.903   6.354   4.661
10525SOL    HW232475   2.925   6.236   4.551
10526SOL     OW32476   5.851   6.758   2.210
10526SOL    HW132477   5.875   6.837   2.155
10526SOL    HW232478   5.757   6.730   2.189
10527SOL     OW32479   1.782   2.706   4.432
10527SOL    HW132480   1.814   2.641   4.363
10527SOL    HW232481   1.806   2.799   4.405
10528SOL     OW32482   6.535   4.723   5.699
10528SOL    HW132483   6.631   4.703   5.718
10528SOL    HW232484   6.486   4.638   5.683
10529SOL     OW32485   6.208   6.111   3.878
10529SOL    HW132486   6.144   6.173   3.834
10529SOL    HW232487   6.277   6.082   3.812
10530SOL     OW32488   1.841   1.627   5.372
10530SOL    HW132489   1.927   1.675   5.354
10530SOL    HW232490   1.834   1.605   5.469
10531SOL     OW32491   2.320   2.359   5.748
10531SOL    HW132492   2.395   2.301   5.779
10531SOL    HW232493   2.233   2.319   5.777
10532SOL     OW32494   3.423   3.110   5.159
10532SOL    HW132495   3.495   3.046   5.187
10532SOL    HW232496   3.358   3.064   5.099
10533SOL     OW32497   2.409   0.760   6.112
10533SOL    HW132498   2.504   0.730   6.114
10533SOL    HW232499   2.375   0.772   6.205
10534SOL     OW32500   5.743   5.953   1.410
10534SOL    HW132501   5.689   6.024   1.456
10534SOL    HW232502   5.822   5.995   1.366
10535SOL     OW32503   0.805   1.592   2.582
10535SOL    HW132504   0.886   1.534   2.586
10535SOL    HW232505   0.767   1.604   2.674
10536SOL     OW32506   4.714   6.373   3.982
10536SOL    HW132507   4.638   6.435   3.998
10536SOL    HW232508   4.717   6.346   3.886
10537SOL     OW32509   0.437   5.261   1.269
10537SOL    HW132510   0.488   5.347   1.275
10537SOL    HW232511   0.485   5.199   1.208
10538SOL     OW32512   4.790   3.925   6.822
10538SOL    HW132513   4.809   3.843   6.876
10538SOL    HW232514   4.739   3.900   6.739
10539SOL     OW32515   0.602   3.442   5.594
10539SOL    HW132516   0.693   3.425   5.633
10539SOL    HW232517   0.610   3.503   5.515
10540SOL     OW32518   3.021   0.992   6.768
10540SOL    HW132519   3.040   0.943   6.682
10540SOL    HW232520   3.071   0.948   6.843
10541SOL     OW32521   4.530   2.532   0.788
10541SOL    HW132522   4.533   2.548   0.887
10541SOL    HW232523   4.452   2.473   0.766
10542SOL     OW32524   1.544   2.633   0.003
10542SOL    HW132525   1.603   2.597   0.075
10542SOL    HW232526   1.463   2.675   0.043
10543SOL     OW32527   2.415   0.647   5.605
10543SOL    HW132528   2.415   0.739   5.646
10543SOL    HW232529   2.508   0.621   5.583
10544SOL     OW32530   0.348   2.392   2.195
10544SOL    HW132531   0.394   2.465   2.245
10544SOL    HW232532   0.259   2.373   2.237
10545SOL     OW32533   5.481   0.870   3.227
10545SOL    HW132534   5.515   0.865   3.321
10545SOL    HW232535   5.381   0.874   3.228
10546SOL     OW32536   3.715   0.582   5.049
10546SOL    HW132537   3.619   0.608   5.038
10546SOL    HW232538   3.766   0.603   4.965
10547SOL     OW32539   4.395   1.159   0.837
10547SOL    HW132540   4.354   1.234   0.785
10547SOL    HW232541   4.432   1.090   0.774
10548SOL     OW32542   4.666   4.353   5.343
10548SOL    HW132543   4.719   4.388   5.266
10548SOL    HW232544   4.708   4.383   5.429
10549SOL     OW32545   1.449   1.068   1.636
10549SOL    HW132546   1.432   0.993   1.572
10549SOL    HW232547   1.546   1.071   1.659
10550SOL     OW32548   5.157   7.018   5.442
10550SOL    HW132549   5.081   6.976   5.393
10550SOL    HW232550   5.129   0.089   5.475
10551SOL     OW32551   1.764   2.903   5.797
10551SOL    HW132552   1.697   2.953   5.742
10551SOL    HW232553   1.856   2.933   5.773
10552SOL     OW32554   2.992   2.021   5.036
10552SOL    HW132555   2.971   1.976   4.948
10552SOL    HW232556   3.048   2.101   5.020
10553SOL     OW32557   2.855   4.613   6.108
10553SOL    HW132558   2.846   4.540   6.040
10553SOL    HW232559   2.930   4.674   6.081
10554SOL     OW32560   6.525   4.382   5.242
10554SOL    HW132561   6.446   4.406   5.299
10554SOL    HW232562   6.493   4.332   5.161
10555SOL     OW32563   3.341   2.397   1.408
10555SOL    HW132564   3.369   2.382   1.502
10555SOL    HW232565   3.401   2.465   1.366
10556SOL     OW32566   2.081   3.331   4.264
10556SOL    HW132567   2.134   3.250   4.289
10556SOL    HW232568   1.996   3.332   4.317
10557SOL     OW32569   6.199   1.893   3.783
10557SOL    HW132570   6.256   1.829   3.732
10557SOL    HW232571   6.228   1.896   3.878
10558SOL     OW32572   5.261   5.820   4.942
10558SOL    HW132573   5.308   5.780   4.864
10558SOL    HW232574   5.300   5.785   5.027
10559SOL     OW32575   4.649   2.275   1.003
10559SOL    HW132576   4.622   2.356   1.054
10559SOL    HW232577   4.620   2.193   1.052
10560SOL     OW32578   0.067   3.031   4.269
10560SOL    HW132579   0.160   3.064   4.254
10560SOL    HW232580   0.070   2.942   4.314
10561SOL     OW32581   2.742   4.752   5.848
10561SOL    HW132582   2.741   4.652   5.847
10561SOL    HW232583   2.670   4.787   5.789
10562SOL     OW32584   3.414   1.412   0.579
10562SOL    HW132585   3.321   1.399   0.544
10562SOL    HW232586   3.453   1.324   0.606
10563SOL     OW32587   1.817   1.552   4.126
10563SOL    HW132588   1.883   1.479   4.138
10563SOL    HW232589   1.762   1.562   4.210
10564SOL     OW32590   0.330   2.388   1.672
10564SOL    HW132591   0.397   2.444   1.622
10564SOL    HW232592   0.368   2.361   1.760
10565SOL     OW32593   5.137   1.577   5.053
10565SOL    HW132594   5.149   1.676   5.052
10565SOL    HW232595   5.225   1.532   5.037
10566SOL     OW32596   4.183   4.730   6.599
10566SOL    HW132597   4.154   4.733   6.504
10566SOL    HW232598   4.281   4.708   6.604
10567SOL     OW32599   2.014   5.040   3.751
10567SOL    HW132600   1.962   4.959   3.778
10567SOL    HW232601   1.980   5.072   3.663
10568SOL     OW32602   4.061   1.596   3.322
10568SOL    HW132603   3.991   1.613   3.392
10568SOL    HW232604   4.017   1.562   3.239
10569SOL     OW32605   5.953   3.236   3.084
10569SOL    HW132606   5.917   3.229   2.991
10569SOL    HW232607   5.879   3.223   3.150
10570SOL     OW32608   1.110   4.237   1.683
10570SOL    HW132609   1.162   4.245   1.769
10570SOL    HW232610   1.119   4.321   1.631
10571SOL     OW32611   6.023   6.893   4.972
10571SOL    HW132612   6.030   6.946   4.888
10571SOL    HW232613   6.039   6.796   4.952
10572SOL     OW32614   6.531   3.048   1.711
10572SOL    HW132615   6.455   3.064   1.775
10572SOL    HW232616   6.580   2.965   1.738
10573SOL     OW32617   6.303   4.526   6.065
10573SOL    HW132618   6.235   4.453   6.071
10573SOL    HW232619   6.290   4.576   5.979
10574SOL     OW32620   1.194   2.139   3.320
10574SOL    HW132621   1.290   2.132   3.291
10574SOL    HW232622   1.179   2.227   3.365
10575SOL     OW32623   0.576   6.813   5.930
10575SOL    HW132624   0.499   6.808   5.993
10575SOL    HW232625   0.576   6.733   5.871
10576SOL     OW32626   1.402   4.895   3.441
10576SOL    HW132627   1.493   4.936   3.439
10576SOL    HW232628   1.346   4.932   3.367
10577SOL     OW32629   0.626   3.111   5.615
10577SOL    HW132630   0.576   3.170   5.679
10577SOL    HW232631   0.673   3.040   5.666
10578SOL     OW32632   5.697   0.694   5.641
10578SOL    HW132633   5.712   0.775   5.698
10578SOL    HW232634   5.669   0.618   5.700
10579SOL     OW32635   4.726   0.540   0.537
10579SOL    HW132636   4.644   0.490   0.563
10579SOL    HW232637   4.780   0.560   0.619
10580SOL     OW32638   6.184   5.915   0.567
10580SOL    HW132639   6.134   5.835   0.601
10580SOL    HW232640   6.278   5.888   0.546
10581SOL     OW32641   4.360   1.521   3.656
10581SOL    HW132642   4.260   1.515   3.658
10581SOL    HW232643   4.387   1.616   3.637
10582SOL     OW32644   3.391   4.326   6.877
10582SOL    HW132645   3.378   4.351   6.972
10582SOL    HW232646   3.380   4.407   6.819
10583SOL     OW32647   4.705   1.562   0.720
10583SOL    HW132648   4.770   1.491   0.693
10583SOL    HW232649   4.626   1.519   0.764
10584SOL     OW32650   6.496   0.326   1.479
10584SOL    HW132651   6.466   0.317   1.574
10584SOL    HW232652   6.421   0.299   1.418
10585SOL     OW32653   2.035   4.570   6.297
10585SOL    HW132654   2.120   4.597   6.252
10585SOL    HW232655   2.011   4.636   6.367
10586SOL     OW32656   4.229   1.377   0.412
10586SOL    HW132657   4.217   1.476   0.412
10586SOL    HW232658   4.299   1.352   0.345
10587SOL     OW32659   6.057   3.700   0.531
10587SOL    HW132660   6.090   3.630   0.468
10587SOL    HW232661   6.131   3.766   0.548
10588SOL     OW32662   0.860   5.226   3.360
10588SOL    HW132663   0.822   5.184   3.278
10588SOL    HW232664   0.943   5.177   3.387
10589SOL     OW32665   6.355   1.323   4.199
10589SOL    HW132666   6.413   1.404   4.200
10589SOL    HW232667   6.388   1.259   4.129
10590SOL     OW32668   1.864   1.008   4.319
10590SOL    HW132669   1.825   1.065   4.392
10590SOL    HW232670   1.802   0.931   4.300
10591SOL     OW32671   1.241   2.522   0.703
10591SOL    HW132672   1.293   2.451   0.655
10591SOL    HW232673   1.296   2.605   0.711
10592SOL     OW32674   6.402   1.723   6.874
10592SOL    HW132675   6.317   1.765   6.906
10592SOL    HW232676   6.477   1.787   6.886
10593SOL     OW32677   1.981   4.516   1.401
10593SOL    HW132678   1.938   4.575   1.333
10593SOL    HW232679   2.080   4.530   1.400
10594SOL     OW32680   1.015   2.168   4.516
10594SOL    HW132681   0.945   2.096   4.513
10594SOL    HW232682   1.076   2.152   4.593
10595SOL     OW32683   2.032   6.292   5.666
10595SOL    HW132684   2.046   6.305   5.764
10595SOL    HW232685   2.039   6.380   5.619
10596SOL     OW32686   3.552   0.610   1.924
10596SOL    HW132687   3.548   0.679   1.996
10596SOL    HW232688   3.641   0.615   1.878
10597SOL     OW32689   1.950   0.445   3.586
10597SOL    HW132690   1.873   0.495   3.546
10597SOL    HW232691   2.027   0.508   3.600
10598SOL     OW32692   1.826   1.894   0.114
10598SOL    HW132693   1.854   1.980   0.157
10598SOL    HW232694   1.795   1.830   0.184
10599SOL     OW32695   4.943   0.906   6.841
10599SOL    HW132696   4.846   0.905   6.865
10599SOL    HW232697   4.961   0.836   6.772
10600SOL     OW32698   1.752   2.567   5.849
10600SOL    HW132699   1.835   2.604   5.809
10600SOL    HW232700   1.726   2.622   5.928
10601SOL     OW32701   3.245   6.387   6.082
10601SOL    HW132702   3.181   6.318   6.116
10601SOL    HW232703   3.258   6.374   5.984
10602SOL     OW32704   4.202   1.024   1.832
10602SOL    HW132705   4.288   1.003   1.785
10602SOL    HW232706   4.192   1.124   1.837
10603SOL     OW32707   0.799   5.101   4.299
10603SOL    HW132708   0.803   5.166   4.375
10603SOL    HW232709   0.796   5.152   4.213
10604SOL     OW32710   6.772   4.413   5.052
10604SOL    HW132711   6.730   4.478   5.116
10604SOL    HW232712   6.712   4.334   5.041
10605SOL     OW32713   2.202   4.912   6.250
10605SOL    HW132714   2.104   4.932   6.240
10605SOL    HW232715   2.242   4.898   6.159
10606SOL     OW32716   0.541   0.965   3.044
10606SOL    HW132717   0.475   0.891   3.054
10606SOL    HW232718   0.634   0.928   3.045
10607SOL     OW32719   5.771   4.857   6.989
10607SOL    HW132720   5.740   4.918   6.917
10607SOL    HW232721   5.790   4.767   6.951
10608SOL     OW32722   5.953   0.807   2.731
10608SOL    HW132723   6.031   0.794   2.791
10608SOL    HW232724   5.870   0.773   2.775
10609SOL     OW32725   4.093   6.774   2.226
10609SOL    HW132726   4.053   6.865   2.223
10609SOL    HW232727   4.186   6.778   2.187
10610SOL     OW32728   1.858   3.574   4.754
10610SOL    HW132729   1.823   3.645   4.815
10610SOL    HW232730   1.796   3.563   4.677
10611SOL     OW32731   5.019   2.166   6.089
10611SOL    HW132732   5.112   2.134   6.107
10611SOL    HW232733   4.998   2.155   5.992
10612SOL     OW32734   1.073   6.870   0.862
10612SOL    HW132735   1.019   6.808   0.919
10612SOL    HW232736   1.170   6.852   0.877
10613SOL     OW32737   0.522   6.496   6.664
10613SOL    HW132738   0.438   6.471   6.713
10613SOL    HW232739   0.504   6.574   6.605
10614SOL     OW32740   6.922   0.787   4.012
10614SOL    HW132741   6.863   0.849   4.064
10614SOL    HW232742   6.991   0.748   4.072
10615SOL     OW32743   6.879   5.757   5.184
10615SOL    HW132744   6.898   5.664   5.216
10615SOL    HW232745   6.790   5.787   5.219
10616SOL     OW32746   2.959   6.245   0.084
10616SOL    HW132747   3.023   6.171   0.103
10616SOL    HW232748   2.873   6.228   0.132
10617SOL     OW32749   0.356   2.231   6.622
10617SOL    HW132750   0.421   2.156   6.632
10617SOL    HW232751   0.354   2.261   6.527
10618SOL     OW32752   6.024   3.985   1.476
10618SOL    HW132753   6.070   3.976   1.565
10618SOL    HW232754   6.092   3.993   1.404
10619SOL     OW32755   0.535   4.149   3.758
10619SOL    HW132756   0.610   4.176   3.698
10619SOL    HW232757   0.571   4.130   3.849
10620SOL     OW32758   1.161   5.981   4.374
10620SOL    HW132759   1.112   5.929   4.445
10620SOL    HW232760   1.256   5.994   4.402
10621SOL     OW32761   2.670   6.397   0.802
10621SOL    HW132762   2.607   6.420   0.877
10621SOL    HW232763   2.618   6.379   0.719
10622SOL     OW32764   4.596   1.850   1.544
10622SOL    HW132765   4.619   1.947   1.550
10622SOL    HW232766   4.608   1.808   1.634
10623SOL     OW32767   6.847   1.084   3.957
10623SOL    HW132768   6.769   1.034   3.919
10623SOL    HW232769   6.860   1.059   4.053
10624SOL     OW32770   2.653   1.314   4.351
10624SOL    HW132771   2.593   1.363   4.288
10624SOL    HW232772   2.622   1.219   4.359
10625SOL     OW32773   0.075   3.290   0.172
10625SOL    HW132774   6.998   3.308   0.190
10625SOL    HW232775   0.087   3.195   0.144
10626SOL     OW32776   6.725   1.943   1.544
10626SOL    HW132777   6.662   1.886   1.597
10626SOL    HW232778   6.686   2.034   1.531
10627SOL     OW32779   6.271   5.169   4.385
10627SOL    HW132780   6.335   5.231   4.339
10627SOL    HW232781   6.287   5.076   4.354
10628SOL     OW32782   6.969   6.415   6.326
10628SOL    HW132783   6.988   6.322   6.355
10628SOL    HW232784   6.906   6.458   6.391
10629SOL     OW32785   2.775   5.639   6.194
10629SOL    HW132786   2.861   5.627   6.144
10629SOL    HW232787   2.767   5.735   6.222
10630SOL     OW32788   6.770   1.200   2.947
10630SOL    HW132789   6.839   1.245   3.004
10630SOL    HW232790   6.803   1.110   2.921
10631SOL     OW32791   1.048   0.352   5.315
10631SOL    HW132792   1.102   0.312   5.390
10631SOL    HW232793   1.006   0.278   5.262
10632SOL     OW32794   0.250   3.079   4.882
10632SOL    HW132795   0.251   3.174   4.853
10632SOL    HW232796   0.319   3.065   4.953
10633SOL     OW32797   0.900   5.160   0.431
10633SOL    HW132798   0.880   5.179   0.527
10633SOL    HW232799   0.978   5.215   0.402
10634SOL     OW32800   4.040   6.728   1.640
10634SOL    HW132801   3.950   6.708   1.603
10634SOL    HW232802   4.102   6.753   1.566
10635SOL     OW32803   1.501   0.862   0.872
10635SOL    HW132804   1.433   0.847   0.942
10635SOL    HW232805   1.510   0.961   0.855
10636SOL     OW32806   6.503   1.157   1.084
10636SOL    HW132807   6.557   1.084   1.041
10636SOL    HW232808   6.504   1.238   1.027
10637SOL     OW32809   3.809   4.699   5.706
10637SOL    HW132810   3.873   4.775   5.721
10637SOL    HW232811   3.860   4.617   5.681
10638SOL     OW32812   6.754   0.483   5.358
10638SOL    HW132813   6.705   0.513   5.440
10638SOL    HW232814   6.699   0.413   5.312
10639SOL     OW32815   3.008   1.790   5.361
10639SOL    HW132816   3.040   1.820   5.451
10639SOL    HW232817   3.045   1.850   5.291
10640SOL     OW32818   3.599   6.484   0.634
10640SOL    HW132819   3.608   6.536   0.719
10640SOL    HW232820   3.508   6.442   0.630
10641SOL     OW32821   4.448   0.833   6.348
10641SOL    HW132822   4.459   0.933   6.356
10641SOL    HW232823   4.355   0.812   6.321
10642SOL     OW32824   7.000   4.019   0.515
10642SOL    HW132825   6.975   4.080   0.440
10642SOL    HW232826   6.929   4.022   0.586
10643SOL     OW32827   3.977   3.412   5.396
10643SOL    HW132828   3.993   3.493   5.453
10643SOL    HW232829   3.988   3.330   5.452
10644SOL     OW32830   3.475   1.688   5.055
10644SOL    HW132831   3.474   1.588   5.055
10644SOL    HW232832   3.410   1.722   5.122
10645SOL     OW32833   2.293   6.903   5.302
10645SOL    HW132834   2.306   6.852   5.387
10645SOL    HW232835   2.247   6.989   5.322
10646SOL     OW32836   1.036   4.265   6.600
10646SOL    HW132837   1.017   4.173   6.634
10646SOL    HW232838   1.086   4.317   6.668
10647SOL     OW32839   0.309   5.147   0.667
10647SOL    HW132840   0.303   5.128   0.765
10647SOL    HW232841   0.391   5.102   0.630
10648SOL     OW32842   4.871   4.807   6.432
10648SOL    HW132843   4.957   4.757   6.445
10648SOL    HW232844   4.850   4.858   6.516
10649SOL     OW32845   0.674   4.403   6.003
10649SOL    HW132846   0.621   4.457   6.069
10649SOL    HW232847   0.767   4.390   6.038
10650SOL     OW32848   2.942   0.997   4.189
10650SOL    HW132849   2.918   0.983   4.093
10650SOL    HW232850   2.940   1.095   4.210
10651SOL     OW32851   2.855   6.958   5.518
10651SOL    HW132852   2.821   6.882   5.463
10651SOL    HW232853   2.893   6.924   5.604
10652SOL     OW32854   3.776   0.746   0.288
10652SOL    HW132855   3.790   0.655   0.247
10652SOL    HW232856   3.817   0.816   0.229
10653SOL     OW32857   5.523   2.634   4.022
10653SOL    HW132858   5.434   2.668   4.053
10653SOL    HW232859   5.588   2.637   4.097
10654SOL     OW32860   4.619   1.040   1.269
10654SOL    HW132861   4.635   1.080   1.360
10654SOL    HW232862   4.527   1.062   1.239
10655SOL     OW32863   3.357   5.946   1.445
10655SOL    HW132864   3.338   6.028   1.499
10655SOL    HW232865   3.456   5.931   1.440
10656SOL     OW32866   6.227   2.758   6.085
10656SOL    HW132867   6.244   2.777   5.989
10656SOL    HW232868   6.278   2.823   6.142
10657SOL     OW32869   6.363   0.258   1.722
10657SOL    HW132870   6.398   0.175   1.765
10657SOL    HW232871   6.349   0.328   1.792
10658SOL     OW32872   0.395   6.649   4.834
10658SOL    HW132873   0.334   6.639   4.913
10658SOL    HW232874   0.488   6.668   4.866
10659SOL     OW32875   5.157   0.765   0.989
10659SOL    HW132876   5.236   0.824   0.972
10659SOL    HW232877   5.119   0.786   1.079
10660SOL     OW32878   5.212   5.036   5.504
10660SOL    HW132879   5.237   5.105   5.437
10660SOL    HW232880   5.180   5.080   5.588
10661SOL     OW32881   1.086   0.209   2.298
10661SOL    HW132882   1.024   0.276   2.257
10661SOL    HW232883   1.034   0.145   2.355
10662SOL     OW32884   5.697   1.419   0.781
10662SOL    HW132885   5.733   1.496   0.729
10662SOL    HW232886   5.757   1.401   0.859
10663SOL     OW32887   0.531   1.248   0.273
10663SOL    HW132888   0.607   1.221   0.215
10663SOL    HW232889   0.450   1.193   0.251
10664SOL     OW32890   2.347   4.917   6.488
10664SOL    HW132891   2.308   4.889   6.400
10664SOL    HW232892   2.435   4.963   6.472
10665SOL     OW32893   6.121   1.216   6.817
10665SOL    HW132894   6.178   1.135   6.833
10665SOL    HW232895   6.122   1.274   6.899
10666SOL     OW32896   0.680   0.242   0.127
10666SOL    HW132897   0.597   0.245   0.184
10666SOL    HW232898   0.667   0.177   0.053
10667SOL     OW32899   3.334   2.075   5.143
10667SOL    HW132900   3.279   2.158   5.143
10667SOL    HW232901   3.385   2.069   5.057
10668SOL     OW32902   2.182   0.992   6.681
10668SOL    HW132903   2.092   0.951   6.668
10668SOL    HW232904   2.213   0.974   6.775
10669SOL     OW32905   0.895   6.408   6.939
10669SOL    HW132906   0.922   6.317   6.908
10669SOL    HW232907   0.845   6.401   0.006
10670SOL     OW32908   0.068   4.820   5.369
10670SOL    HW132909   0.162   4.835   5.400
10670SOL    HW232910   0.016   4.905   5.377
10671SOL     OW32911   1.589   2.038   3.456
10671SOL    HW132912   1.677   2.055   3.501
10671SOL    HW232913   1.516   2.041   3.523
10672SOL     OW32914   0.452   2.573   1.018
10672SOL    HW132915   0.471   2.533   1.107
10672SOL    HW232916   0.353   2.567   1.000
10673SOL     OW32917   3.382   3.208   4.530
10673SOL    HW132918   3.479   3.189   4.514
10673SOL    HW232919   3.372   3.298   4.572
10674SOL     OW32920   4.260   1.625   2.525
10674SOL    HW132921   4.214   1.660   2.606
10674SOL    HW232922   4.200   1.560   2.477
10675SOL     OW32923   0.146   1.147   6.652
10675SOL    HW132924   0.187   1.095   6.578
10675SOL    HW232925   0.217   1.173   6.718
10676SOL     OW32926   6.753   0.020   0.082
10676SOL    HW132927   6.668   6.993   0.058
10676SOL    HW232928   6.827   6.973   0.089
10677SOL     OW32929   6.465   1.254   0.435
10677SOL    HW132930   6.497   1.227   0.525
10677SOL    HW232931   6.533   1.313   0.391
10678SOL     OW32932   2.119   5.438   2.716
10678SOL    HW132933   2.203   5.388   2.696
10678SOL    HW232934   2.079   5.404   2.800
10679SOL     OW32935   5.200   5.339   3.395
10679SOL    HW132936   5.233   5.323   3.488
10679SOL    HW232937   5.191   5.437   3.379
10680SOL     OW32938   1.456   2.518   3.561
10680SOL    HW132939   1.445   2.509   3.659
10680SOL    HW232940   1.543   2.479   3.533
10681SOL     OW32941   0.513   2.019   6.638
10681SOL    HW132942   0.495   1.968   6.555
10681SOL    HW232943   0.601   2.067   6.629
10682SOL     OW32944   6.243   1.882   2.574
10682SOL    HW132945   6.237   1.810   2.643
10682SOL    HW232946   6.213   1.847   2.485
10683SOL     OW32947   1.964   0.686   3.856
10683SOL    HW132948   1.992   0.728   3.943
10683SOL    HW232949   1.865   0.671   3.857
10684SOL     OW32950   5.792   5.975   0.605
10684SOL    HW132951   5.869   6.014   0.554
10684SOL    HW232952   5.809   5.984   0.703
10685SOL     OW32953   6.803   2.672   2.194
10685SOL    HW132954   6.718   2.677   2.246
10685SOL    HW232955   6.862   2.601   2.232
10686SOL     OW32956   4.323   4.247   0.561
10686SOL    HW132957   4.288   4.193   0.485
10686SOL    HW232958   4.275   4.335   0.565
10687SOL     OW32959   6.891   5.294   1.379
10687SOL    HW132960   6.982   5.260   1.356
10687SOL    HW232961   6.895   5.344   1.465
10688SOL     OW32962   6.639   5.447   1.219
10688SOL    HW132963   6.737   5.465   1.207
10688SOL    HW232964   6.596   5.525   1.263
10689SOL     OW32965   1.062   0.741   1.634
10689SOL    HW132966   1.036   0.802   1.708
10689SOL    HW232967   1.000   0.662   1.633
10690SOL     OW32968   4.769   6.048   2.795
10690SOL    HW132969   4.719   6.061   2.710
10690SOL    HW232970   4.829   6.127   2.810
10691SOL     OW32971   6.530   1.639   1.391
10691SOL    HW132972   6.562   1.582   1.466
10691SOL    HW232973   6.441   1.678   1.413
10692SOL     OW32974   5.683   6.192   4.481
10692SOL    HW132975   5.765   6.195   4.538
10692SOL    HW232976   5.643   6.101   4.484
10693SOL     OW32977   4.703   2.831   3.320
10693SOL    HW132978   4.699   2.811   3.222
10693SOL    HW232979   4.791   2.874   3.342
10694SOL     OW32980   3.294   6.625   0.792
10694SOL    HW132981   3.215   6.683   0.813
10694SOL    HW232982   3.308   6.623   0.693
10695SOL     OW32983   5.993   2.688   5.414
10695SOL    HW132984   6.022   2.756   5.345
10695SOL    HW232985   5.894   2.676   5.409
10696SOL     OW32986   6.862   6.511   2.107
10696SOL    HW132987   6.769   6.530   2.075
10696SOL    HW232988   6.865   6.419   2.146
10697SOL     OW32989   2.716   6.458   2.938
10697SOL    HW132990   2.715   6.553   2.905
10697SOL    HW232991   2.672   6.454   3.028
10698SOL     OW32992   3.127   0.656   3.399
10698SOL    HW132993   3.187   0.701   3.333
10698SOL    HW232994   3.049   0.716   3.419
10699SOL     OW32995   1.971   2.457   3.055
10699SOL    HW132996   1.969   2.511   2.970
10699SOL    HW232997   2.065   2.430   3.075
10700SOL     OW32998   0.286   1.334   1.641
10700SOL    HW132999   0.366   1.290   1.682
10700SOL    HW233000   0.313   1.421   1.600
10701SOL     OW33001   3.429   6.882   0.944
10701SOL    HW133002   3.474   6.903   0.857
10701SOL    HW233003   3.439   6.785   0.965
10702SOL     OW33004   4.977   2.801   1.002
10702SOL    HW133005   4.922   2.718   1.013
10702SOL    HW233006   5.000   2.838   1.092
10703SOL     OW33007   3.874   3.175   3.850
10703SOL    HW133008   3.908   3.120   3.773
10703SOL    HW233009   3.951   3.210   3.902
10704SOL     OW33010   5.884   6.140   2.338
10704SOL    HW133011   5.918   6.211   2.399
10704SOL    HW233012   5.955   6.118   2.270
10705SOL     OW33013   1.551   3.332   5.866
10705SOL    HW133014   1.524   3.415   5.914
10705SOL    HW233015   1.523   3.338   5.770
10706SOL     OW33016   3.499   2.225   1.277
10706SOL    HW133017   3.576   2.278   1.313
10706SOL    HW233018   3.425   2.224   1.343
10707SOL     OW33019   6.102   6.981   6.418
10707SOL    HW133020   6.018   6.979   6.364
10707SOL    HW233021   6.153   6.897   6.402
10708SOL     OW33022   4.634   1.109   1.535
10708SOL    HW133023   4.671   1.025   1.575
10708SOL    HW233024   4.581   1.159   1.604
10709SOL     OW33025   0.677   0.051   6.285
10709SOL    HW133026   0.749   0.107   6.244
10709SOL    HW233027   0.590   0.071   6.241
10710SOL     OW33028   6.616   5.720   4.167
10710SOL    HW133029   6.674   5.782   4.114
10710SOL    HW233030   6.656   5.629   4.169
10711SOL     OW33031   2.323   5.524   5.238
10711SOL    HW133032   2.339   5.483   5.148
10711SOL    HW233033   2.225   5.520   5.259
10712SOL     OW33034   4.092   1.344   5.753
10712SOL    HW133035   4.035   1.408   5.702
10712SOL    HW233036   4.036   1.296   5.821
10713SOL     OW33037   2.053   5.950   0.753
10713SOL    HW133038   1.980   5.893   0.791
10713SOL    HW233039   2.067   5.928   0.657
10714SOL     OW33040   6.731   5.464   5.332
10714SOL    HW133041   6.799   5.456   5.259
10714SOL    HW233042   6.778   5.481   5.419
10715SOL     OW33043   5.962   1.010   3.611
10715SOL    HW133044   6.048   0.962   3.627
10715SOL    HW233045   5.896   0.984   3.681
10716SOL     OW33046   6.872   0.846   2.173
10716SOL    HW133047   6.949   0.824   2.233
10716SOL    HW233048   6.904   0.906   2.099
10717SOL     OW33049   0.149   6.269   2.286
10717SOL    HW133050   0.071   6.330   2.300
10717SOL    HW233051   0.228   6.304   2.336
10718SOL     OW33052   0.729   3.833   5.700
10718SOL    HW133053   0.745   3.923   5.738
10718SOL    HW233054   0.680   3.841   5.613
10719SOL     OW33055   3.698   6.541   2.458
10719SOL    HW133056   3.739   6.450   2.466
10719SOL    HW233057   3.665   6.571   2.547
10720SOL     OW33058   0.316   3.087   6.329
10720SOL    HW133059   0.294   3.109   6.424
10720SOL    HW233060   0.343   3.170   6.280
10721SOL     OW33061   5.121   2.033   4.755
10721SOL    HW133062   5.170   2.040   4.842
10721SOL    HW233063   5.023   2.044   4.772
10722SOL     OW33064   6.900   4.943   0.856
10722SOL    HW133065   6.834   4.970   0.927
10722SOL    HW233066   6.869   4.857   0.814
10723SOL     OW33067   6.159   4.971   0.432
10723SOL    HW133068   6.078   4.964   0.491
10723SOL    HW233069   6.229   4.908   0.463
10724SOL     OW33070   3.040   0.166   5.614
10724SOL    HW133071   3.117   0.144   5.673
10724SOL    HW233072   2.962   0.109   5.637
10725SOL     OW33073   0.000   0.416   5.329
10725SOL    HW133074   0.040   0.450   5.244
10725SOL    HW233075   6.929   0.455   5.341
10726SOL     OW33076   6.235   1.201   3.864
10726SOL    HW133077   6.323   1.196   3.817
10726SOL    HW233078   6.228   1.125   3.929
10727SOL     OW33079   3.182   6.920   6.939
10727SOL    HW133080   3.235   6.972   6.872
10727SOL    HW233081   3.169   6.826   6.906
10728SOL     OW33082   5.963   5.552   4.042
10728SOL    HW133083   5.964   5.459   4.005
10728SOL    HW233084   5.996   5.550   4.136
10729SOL     OW33085   5.739   2.764   3.867
10729SOL    HW133086   5.767   2.678   3.908
10729SOL    HW233087   5.683   2.816   3.931
10730SOL     OW33088   1.317   5.718   3.706
10730SOL    HW133089   1.407   5.749   3.676
10730SOL    HW233090   1.275   5.787   3.765
10731SOL     OW33091   4.905   5.821   6.753
10731SOL    HW133092   4.883   5.893   6.819
10731SOL    HW233093   4.823   5.793   6.704
10732SOL     OW33094   6.355   5.963   2.701
10732SOL    HW133095   6.365   5.867   2.727
10732SOL    HW233096   6.445   6.002   2.683
10733SOL     OW33097   0.605   1.703   6.285
10733SOL    HW133098   0.654   1.703   6.198
10733SOL    HW233099   0.671   1.699   6.360
10734SOL     OW33100   1.131   0.590   5.020
10734SOL    HW133101   1.144   0.571   4.923
10734SOL    HW233102   1.082   0.515   5.063
10735SOL     OW33103   0.381   0.288   2.204
10735SOL    HW133104   0.385   0.188   2.212
10735SOL    HW233105   0.472   0.326   2.220
10736SOL     OW33106   5.595   5.824   3.223
10736SOL    HW133107   5.638   5.742   3.260
10736SOL    HW233108   5.509   5.841   3.271
10737SOL     OW33109   6.577   0.793   1.769
10737SOL    HW133110   6.607   0.887   1.783
10737SOL    HW233111   6.618   0.734   1.838
10738SOL     OW33112   2.602   6.636   1.566
10738SOL    HW133113   2.656   6.658   1.485
10738SOL    HW233114   2.587   6.718   1.620
10739SOL     OW33115   5.347   3.237   4.314
10739SOL    HW133116   5.446   3.250   4.303
10739SOL    HW233117   5.307   3.319   4.355
10740SOL     OW33118   3.020   0.330   6.112
10740SOL    HW133119   3.015   0.368   6.019
10740SOL    HW233120   3.057   0.399   6.174
10741SOL     OW33121   1.159   2.383   3.605
10741SOL    HW133122   1.073   2.375   3.555
10741SOL    HW233123   1.225   2.434   3.550
10742SOL     OW33124   6.627   6.781   1.920
10742SOL    HW133125   6.621   6.682   1.910
10742SOL    HW233126   6.569   6.825   1.852
10743SOL     OW33127   4.012   2.169   6.044
10743SOL    HW133128   4.052   2.077   6.039
10743SOL    HW233129   3.971   2.192   5.956
10744SOL     OW33130   2.552   1.494   0.951
10744SOL    HW133131   2.614   1.444   0.890
10744SOL    HW233132   2.583   1.589   0.957
10745SOL     OW33133   2.749   4.903   1.225
10745SOL    HW133134   2.656   4.873   1.200
10745SOL    HW233135   2.752   5.002   1.227
10746SOL     OW33136   2.436   5.336   6.600
10746SOL    HW133137   2.506   5.408   6.597
10746SOL    HW233138   2.481   5.247   6.599
10747SOL     OW33139   6.934   1.272   4.374
10747SOL    HW133140   6.921   1.243   4.469
10747SOL    HW233141   6.918   1.370   4.367
10748SOL     OW33142   3.257   6.552   2.597
10748SOL    HW133143   3.171   6.526   2.642
10748SOL    HW233144   3.334   6.519   2.652
10749SOL     OW33145   6.126   4.540   1.696
10749SOL    HW133146   6.163   4.623   1.737
10749SOL    HW233147   6.055   4.501   1.756
10750SOL     OW33148   4.109   2.207   4.518
10750SOL    HW133149   4.094   2.194   4.616
10750SOL    HW233150   4.180   2.275   4.504
10751SOL     OW33151   6.480   6.047   4.347
10751SOL    HW133152   6.531   5.967   4.379
10751SOL    HW233153   6.431   6.088   4.424
10752SOL     OW33154   6.871   6.445   0.169
10752SOL    HW133155   6.824   6.520   0.215
10752SOL    HW233156   6.951   6.418   0.223
10753SOL     OW33157   5.293   6.796   5.312
10753SOL    HW133158   5.351   6.752   5.380
10753SOL    HW233159   5.259   6.883   5.348
10754SOL     OW33160   1.280   5.267   1.969
10754SOL    HW133161   1.205   5.201   1.980
10754SOL    HW233162   1.343   5.235   1.899
10755SOL     OW33163   0.641   1.932   1.447
10755SOL    HW133164   0.728   1.972   1.476
10755SOL    HW233165   0.605   1.873   1.519
10756SOL     OW33166   1.133   0.219   0.098
10756SOL    HW133167   1.086   0.187   0.016
10756SOL    HW233168   1.162   0.140   0.153
10757SOL     OW33169   0.390   2.897   2.231
10757SOL    HW133170   0.438   2.958   2.293
10757SOL    HW233171   0.304   2.940   2.201
10758SOL     OW33172   1.012   0.708   0.195
10758SOL    HW133173   1.066   0.713   0.111
10758SOL    HW233174   1.058   0.760   0.267
10759SOL     OW33175   3.228   3.031   4.943
10759SOL    HW133176   3.265   2.949   4.900
10759SOL    HW233177   3.222   3.104   4.875
10760SOL     OW33178   0.657   5.049   6.739
10760SOL    HW133179   0.570   5.068   6.783
10760SOL    HW233180   0.662   4.951   6.716
10761SOL     OW33181   1.131   1.684   5.997
10761SOL    HW133182   1.065   1.689   6.071
10761SOL    HW233183   1.162   1.776   5.973
10762SOL     OW33184   2.141   5.694   6.899
10762SOL    HW133185   2.134   5.599   6.929
10762SOL    HW233186   2.217   5.703   6.834
10763SOL     OW33187   4.295   0.966   2.713
10763SOL    HW133188   4.314   0.885   2.658
10763SOL    HW233189   4.197   0.978   2.723
10764SOL     OW33190   5.075   6.158   4.711
10764SOL    HW133191   5.154   6.110   4.671
10764SOL    HW233192   4.991   6.113   4.681
10765SOL     OW33193   1.093   2.326   1.067
10765SOL    HW133194   1.178   2.275   1.052
10765SOL    HW233195   1.075   2.333   1.165
10766SOL     OW33196   2.593   5.258   6.270
10766SOL    HW133197   2.670   5.314   6.300
10766SOL    HW233198   2.512   5.315   6.259
10767SOL     OW33199   1.613   4.479   7.004
10767SOL    HW133200   1.626   4.574   0.009
10767SOL    HW233201   1.700   4.431   7.007
10768SOL     OW33202   5.405   6.513   6.651
10768SOL    HW133203   5.497   6.475   6.646
10768SOL    HW233204   5.401   6.581   6.724
10769SOL     OW33205   3.017   3.156   4.568
10769SOL    HW133206   3.084   3.085   4.550
10769SOL    HW233207   2.928   3.114   4.587
10770SOL     OW33208   5.775   0.259   3.146
10770SOL    HW133209   5.682   0.223   3.140
10770SOL    HW233210   5.772   0.357   3.163
10771SOL     OW33211   4.975   6.187   5.720
10771SOL    HW133212   5.025   6.175   5.634
10771SOL    HW233213   4.881   6.155   5.709
10772SOL     OW33214   5.619   5.132   2.656
10772SOL    HW133215   5.546   5.113   2.721
10772SOL    HW233216   5.678   5.204   2.693
10773SOL     OW33217   0.805   3.420   0.738
10773SOL    HW133218   0.890   3.386   0.697
10773SOL    HW233219   0.727   3.370   0.700
10774SOL     OW33220   0.796   3.114   0.718
10774SOL    HW133221   0.886   3.158   0.721
10774SOL    HW233222   0.784   3.056   0.798
10775SOL     OW33223   2.196   3.782   0.275
10775SOL    HW133224   2.153   3.730   0.349
10775SOL    HW233225   2.127   3.834   0.225
10776SOL     OW33226   0.882   3.263   3.236
10776SOL    HW133227   0.907   3.185   3.294
10776SOL    HW233228   0.799   3.306   3.272
10777SOL     OW33229   1.356   6.852   1.066
10777SOL    HW133230   1.424   6.915   1.106
10777SOL    HW233231   1.391   6.817   0.979
10778SOL     OW33232   4.736   0.105   3.186
10778SOL    HW133233   4.789   0.130   3.266
10778SOL    HW233234   4.696   0.014   3.199
10779SOL     OW33235   5.639   3.189   6.112
10779SOL    HW133236   5.551   3.191   6.064
10779SOL    HW233237   5.636   3.119   6.184
10780SOL     OW33238   2.111   5.391   4.733
10780SOL    HW133239   2.066   5.409   4.645
10780SOL    HW233240   2.197   5.343   4.717
10781SOL     OW33241   5.515   2.203   5.284
10781SOL    HW133242   5.585   2.240   5.344
10781SOL    HW233243   5.482   2.116   5.320
10782SOL     OW33244   0.920   2.685   5.366
10782SOL    HW133245   0.892   2.645   5.279
10782SOL    HW233246   0.843   2.735   5.407
10783SOL     OW33247   1.770   3.260   3.444
10783SOL    HW133248   1.821   3.261   3.530
10783SOL    HW233249   1.762   3.166   3.411
10784SOL     OW33250   4.326   5.604   3.909
10784SOL    HW133251   4.297   5.550   3.988
10784SOL    HW233252   4.313   5.701   3.928
10785SOL     OW33253   2.056   5.313   1.504
10785SOL    HW133254   2.125   5.363   1.450
10785SOL    HW233255   2.101   5.241   1.557
10786SOL     OW33256   4.773   1.634   2.282
10786SOL    HW133257   4.796   1.601   2.374
10786SOL    HW233258   4.857   1.645   2.229
10787SOL     OW33259   3.764   2.108   3.962
10787SOL    HW133260   3.705   2.051   3.905
10787SOL    HW233261   3.841   2.142   3.908
10788SOL     OW33262   2.139   3.436   0.248
10788SOL    HW133263   2.209   3.500   0.280
10788SOL    HW233264   2.101   3.469   0.162
10789SOL     OW33265   6.991   1.066   1.995
10789SOL    HW133266   7.004   1.147   2.053
10789SOL    HW233267   0.058   1.019   1.983
10790SOL     OW33268   6.809   1.934   5.488
10790SOL    HW133269   6.725   1.984   5.510
10790SOL    HW233270   6.879   1.999   5.456
10791SOL     OW33271   1.779   2.180   3.651
10791SOL    HW133272   1.687   2.176   3.689
10791SOL    HW233273   1.839   2.230   3.715
10792SOL     OW33274   3.567   1.665   2.354
10792SOL    HW133275   3.574   1.677   2.453
10792SOL    HW233276   3.636   1.721   2.309
10793SOL     OW33277   3.453   1.969   4.621
10793SOL    HW133278   3.405   2.032   4.559
10793SOL    HW233279   3.395   1.890   4.641
10794SOL     OW33280   5.386   2.141   0.123
10794SOL    HW133281   5.320   2.181   0.187
10794SOL    HW233282   5.383   2.041   0.130
10795SOL     OW33283   6.726   3.604   3.120
10795SOL    HW133284   6.794   3.538   3.151
10795SOL    HW233285   6.636   3.577   3.153
10796SOL     OW33286   0.292   1.498   6.041
10796SOL    HW133287   0.336   1.420   5.997
10796SOL    HW233288   0.228   1.465   6.110
10797SOL     OW33289   4.458   4.389   0.047
10797SOL    HW133290   4.539   4.352   0.095
10797SOL    HW233291   4.487   4.429   6.980
10798SOL     OW33292   2.461   6.208   6.967
10798SOL    HW133293   2.499   6.242   0.034
10798SOL    HW233294   2.368   6.242   6.956
10799SOL     OW33295   3.372   0.859   2.945
10799SOL    HW133296   3.384   0.941   3.001
10799SOL    HW233297   3.274   0.841   2.932
10800SOL     OW33298   1.945   6.875   5.228
10800SOL    HW133299   1.977   6.967   5.204
10800SOL    HW233300   1.954   6.815   5.148
10801SOL     OW33301   2.519   6.512   6.809
10801SOL    HW133302   2.567   6.482   6.891
10801SOL    HW233303   2.432   6.554   6.835
10802SOL     OW33304   0.338   4.877   4.308
10802SOL    HW133305   0.319   4.917   4.218
10802SOL    HW233306   0.294   4.931   4.379
10803SOL     OW33307   0.020   4.625   3.813
10803SOL    HW133308   0.027   4.603   3.715
10803SOL    HW233309   0.095   4.581   3.862
10804SOL     OW33310   4.833   4.506   1.107
10804SOL    HW133311   4.887   4.424   1.087
10804SOL    HW233312   4.819   4.514   1.206
10805SOL     OW33313   3.958   6.008   0.833
10805SOL    HW133314   3.957   5.913   0.805
10805SOL    HW233315   3.868   6.034   0.868
10806SOL     OW33316   5.649   3.886   6.504
10806SOL    HW133317   5.708   3.821   6.550
10806SOL    HW233318   5.680   3.899   6.410
10807SOL     OW33319   4.303   1.860   4.353
10807SOL    HW133320   4.207   1.848   4.378
10807SOL    HW233321   4.333   1.782   4.297
10808SOL     OW33322   0.593   1.793   0.315
10808SOL    HW133323   0.499   1.768   0.291
10808SOL    HW233324   0.600   1.805   0.414
10809SOL     OW33325   2.474   1.092   2.581
10809SOL    HW133326   2.466   0.997   2.552
10809SOL    HW233327   2.507   1.148   2.505
10810SOL     OW33328   1.885   1.082   6.477
10810SOL    HW133329   1.929   1.058   6.390
10810SOL    HW233330   1.845   1.000   6.517
10811SOL     OW33331   4.857   5.227   6.618
10811SOL    HW133332   4.771   5.201   6.575
10811SOL    HW233333   4.871   5.172   6.701
10812SOL     OW33334   6.385   2.791   2.163
10812SOL    HW133335   6.394   2.783   2.262
10812SOL    HW233336   6.421   2.708   2.120
10813SOL     OW33337   3.497   5.554   2.743
10813SOL    HW133338   3.571   5.603   2.789
10813SOL    HW233339   3.524   5.460   2.726
10814SOL     OW33340   1.891   5.768   4.336
10814SOL    HW133341   1.835   5.690   4.364
10814SOL    HW233342   1.887   5.839   4.407
10815SOL     OW33343   4.780   1.837   4.786
10815SOL    HW133344   4.739   1.746   4.788
10815SOL    HW233345   4.726   1.900   4.842
10816SOL     OW33346   2.417   2.149   1.609
10816SOL    HW133347   2.426   2.248   1.615
10816SOL    HW233348   2.435   2.109   1.699
10817SOL     OW33349   4.408   0.658   1.800
10817SOL    HW133350   4.406   0.655   1.900
10817SOL    HW233351   4.409   0.564   1.764
10818SOL     OW33352   4.107   2.740   7.008
10818SOL    HW133353   4.081   2.713   6.915
10818SOL    HW233354   4.072   2.672   0.054
10819SOL     OW33355   0.949   3.567   5.443
10819SOL    HW133356   0.952   3.528   5.535
10819SOL    HW233357   0.854   3.573   5.413
10820SOL     OW33358   0.351   6.765   4.562
10820SOL    HW133359   0.386   6.859   4.559
10820SOL    HW233360   0.365   6.727   4.653
10821SOL     OW33361   0.458   0.466   0.653
10821SOL    HW133362   0.537   0.478   0.593
10821SOL    HW233363   0.456   0.541   0.719
10822SOL     OW33364   0.508   4.112   6.804
10822SOL    HW133365   0.494   4.164   6.888
10822SOL    HW233366   0.459   4.156   6.729
10823SOL     OW33367   1.939   2.226   1.381
10823SOL    HW133368   2.032   2.263   1.384
10823SOL    HW233369   1.942   2.127   1.387
10824SOL     OW33370   5.077   0.786   3.636
10824SOL    HW133371   5.059   0.747   3.727
10824SOL    HW233372   4.991   0.791   3.585
10825SOL     OW33373   3.421   0.860   2.058
10825SOL    HW133374   3.327   0.886   2.079
10825SOL    HW233375   3.467   0.831   2.142
10826SOL     OW33376   6.521   2.930   1.255
10826SOL    HW133377   6.498   3.022   1.286
10826SOL    HW233378   6.614   2.907   1.283
10827SOL     OW33379   1.255   3.006   4.227
10827SOL    HW133380   1.345   3.012   4.185
10827SOL    HW233381   1.185   3.039   4.163
10828SOL     OW33382   2.117   5.495   0.356
10828SOL    HW133383   2.049   5.423   0.340
10828SOL    HW233384   2.174   5.506   0.275
10829SOL     OW33385   1.902   3.493   1.606
10829SOL    HW133386   1.990   3.466   1.646
10829SOL    HW233387   1.855   3.554   1.669
10830SOL     OW33388   5.661   0.668   3.850
10830SOL    HW133389   5.641   0.570   3.857
10830SOL    HW233390   5.679   0.692   3.755
10831SOL     OW33391   5.499   3.049   2.400
10831SOL    HW133392   5.483   3.110   2.477
10831SOL    HW233393   5.472   3.094   2.315
10832SOL     OW33394   0.621   3.776   3.008
10832SOL    HW133395   0.554   3.726   3.064
10832SOL    HW233396   0.592   3.776   2.913
10833SOL     OW33397   2.785   6.769   3.820
10833SOL    HW133398   2.805   6.850   3.874
10833SOL    HW233399   2.825   6.779   3.729
10834SOL     OW33400   6.853   1.265   5.372
10834SOL    HW133401   6.946   1.273   5.336
10834SOL    HW233402   6.821   1.171   5.361
10835SOL     OW33403   0.280   2.674   1.428
10835SOL    HW133404   0.218   2.598   1.410
10835SOL    HW233405   0.263   2.747   1.362
10836SOL     OW33406   1.630   2.779   0.628
10836SOL    HW133407   1.673   2.694   0.596
10836SOL    HW233408   1.654   2.795   0.723
10837SOL     OW33409   0.923   5.906   1.310
10837SOL    HW133410   0.873   5.974   1.364
10837SOL    HW233411   1.011   5.945   1.282
10838SOL     OW33412   6.442   6.507   0.297
10838SOL    HW133413   6.425   6.426   0.354
10838SOL    HW233414   6.530   6.546   0.320
10839SOL     OW33415   1.391   1.460   6.766
10839SOL    HW133416   1.308   1.506   6.799
10839SOL    HW233417   1.424   1.507   6.684
10840SOL     OW33418   2.884   6.778   2.588
10840SOL    HW133419   2.956   6.818   2.533
10840SOL    HW233420   2.836   6.708   2.536
10841SOL     OW33421   4.803   3.005   0.375
10841SOL    HW133422   4.835   3.081   0.319
10841SOL    HW233423   4.792   3.035   0.470
10842SOL     OW33424   5.859   2.771   1.484
10842SOL    HW133425   5.849   2.676   1.454
10842SOL    HW233426   5.955   2.790   1.506
10843SOL     OW33427   0.390   1.551   1.436
10843SOL    HW133428   0.467   1.601   1.477
10843SOL    HW233429   0.323   1.616   1.401
10844SOL     OW33430   4.058   0.564   3.149
10844SOL    HW133431   4.123   0.539   3.077
10844SOL    HW233432   4.033   0.660   3.140
10845SOL     OW33433   2.183   3.112   0.538
10845SOL    HW133434   2.181   3.027   0.485
10845SOL    HW233435   2.128   3.101   0.621
10846SOL     OW33436   3.238   1.866   1.389
10846SOL    HW133437   3.304   1.906   1.452
10846SOL    HW233438   3.275   1.869   1.296
10847SOL     OW33439   4.971   2.917   5.371
10847SOL    HW133440   4.967   2.844   5.302
10847SOL    HW233441   5.022   2.886   5.450
10848SOL     OW33442   1.321   0.379   6.733
10848SOL    HW133443   1.294   0.347   6.643
10848SOL    HW233444   1.416   0.410   6.731
10849SOL     OW33445   1.946   5.195   4.010
10849SOL    HW133446   1.973   5.113   4.060
10849SOL    HW233447   1.989   5.195   3.920
10850SOL     OW33448   5.985   0.493   1.874
10850SOL    HW133449   6.060   0.553   1.903
10850SOL    HW233450   5.951   0.524   1.785
10851SOL     OW33451   4.675   2.191   6.807
10851SOL    HW133452   4.577   2.168   6.802
10851SOL    HW233453   4.724   2.115   6.851
10852SOL     OW33454   6.682   0.484   6.431
10852SOL    HW133455   6.701   0.580   6.410
10852SOL    HW233456   6.734   0.426   6.369
10853SOL     OW33457   2.362   0.636   4.459
10853SOL    HW133458   2.433   0.668   4.522
10853SOL    HW233459   2.404   0.606   4.374
10854SOL     OW33460   0.158   0.423   1.047
10854SOL    HW133461   0.073   0.387   1.010
10854SOL    HW233462   0.231   0.412   0.979
10855SOL     OW33463   6.843   5.604   1.349
10855SOL    HW133464   6.785   5.555   1.414
10855SOL    HW233465   6.932   5.621   1.391
10856SOL     OW33466   5.457   6.979   6.332
10856SOL    HW133467   5.508   0.024   6.274
10856SOL    HW233468   5.360   6.999   6.326
10857SOL     OW33469   6.500   0.319   4.604
10857SOL    HW133470   6.559   0.354   4.676
10857SOL    HW233471   6.439   0.249   4.641
10858SOL     OW33472   1.837   2.231   0.503
10858SOL    HW133473   1.784   2.269   0.580
10858SOL    HW233474   1.861   2.136   0.524
10859SOL     OW33475   1.459   5.231   2.525
10859SOL    HW133476   1.430   5.256   2.432
10859SOL    HW233477   1.553   5.264   2.539
10860SOL     OW33478   5.960   2.476   1.642
10860SOL    HW133479   6.023   2.399   1.634
10860SOL    HW233480   5.916   2.491   1.553
10861SOL     OW33481   1.657   3.821   1.616
10861SOL    HW133482   1.579   3.864   1.662
10861SOL    HW233483   1.710   3.891   1.569
10862SOL     OW33484   3.551   4.444   5.268
10862SOL    HW133485   3.477   4.396   5.220
10862SOL    HW233486   3.639   4.414   5.232
10863SOL     OW33487   1.898   0.497   3.273
10863SOL    HW133488   1.885   0.419   3.334
10863SOL    HW233489   1.893   0.467   3.178
10864SOL     OW33490   3.011   3.830   1.992
10864SOL    HW133491   3.065   3.914   2.003
10864SOL    HW233492   3.051   3.758   2.048
10865SOL     OW33493   3.422   1.488   2.769
10865SOL    HW133494   3.508   1.521   2.732
10865SOL    HW233495   3.350   1.499   2.701
10866SOL     OW33496   0.930   3.366   3.957
10866SOL    HW133497   0.982   3.313   3.890
10866SOL    HW233498   0.912   3.457   3.920
10867SOL     OW33499   4.223   2.934   0.138
10867SOL    HW133500   4.268   2.997   0.074
10867SOL    HW233501   4.175   2.863   0.087
10868SOL     OW33502   1.301   6.586   4.990
10868SOL    HW133503   1.350   6.547   4.912
10868SOL    HW233504   1.355   6.660   5.030
10869NA      NA33505   6.799   1.227   6.376
10870NA      NA33506   4.408   4.613   5.406
10871NA      NA33507   0.930   4.782   3.000
10872NA      NA33508   5.716   3.804   3.133
10873NA      NA33509   3.752   2.736   5.701
10874NA      NA33510   2.541   4.690   6.850
10875NA      NA33511   1.719   5.523   6.911
10876NA      NA33512   4.218   4.938   1.494
10877NA      NA33513   4.983   4.326   0.738
10878NA      NA33514   3.491   1.545   0.755
10879NA      NA33515   5.661   6.971   1.463
10880NA      NA33516   2.375   6.736   5.151
10881NA      NA33517   4.335   4.799   2.826
10882NA      NA33518   4.169   3.867   6.622
   7.01927   7.01927   7.01927
