Generated by trjconv : CNT in water t= 457.00000
33518
    1C        C    1   2.847   2.775   4.750
    1C        C    2   2.899   2.721   4.869
    1C        C    3   2.852   2.781   4.987
    1C        C    4   2.845   2.770   4.261
    1C        C    5   2.900   2.728   4.383
    1C        C    6   2.849   2.775   4.506
    1C        C    7   3.015   2.643   4.628
    1C        C    8   2.902   2.727   4.629
    1C        C    9   3.080   2.608   4.748
    1C        C   10   3.008   2.631   4.868
    1C        C   11   3.184   2.498   4.977
    1C        C   12   3.056   2.555   4.975
    1C        C   13   2.845   2.772   3.772
    1C        C   14   2.903   2.730   3.894
    1C        C   15   2.845   2.771   4.016
    1C        C   16   3.019   2.651   4.140
    1C        C   17   2.898   2.724   4.138
    1C        C   18   3.083   2.621   4.263
    1C        C   19   3.022   2.657   4.385
    1C        C   20   3.213   2.563   4.506
    1C        C   21   3.080   2.612   4.506
    1C        C   22   3.281   2.539   4.627
    1C        C   23   3.210   2.551   4.749
    1C        C   24   3.416   2.481   4.868
    1C        C   25   3.275   2.505   4.867
    1C        C   26   3.492   2.476   4.985
    1C        C   27   2.845   2.767   3.283
    1C        C   28   2.904   2.728   3.405
    1C        C   29   2.850   2.772   3.528
    1C        C   30   3.016   2.644   3.652
    1C        C   31   2.897   2.721   3.651
    1C        C   32   3.078   2.611   3.775
    1C        C   33   3.018   2.647   3.897
    1C        C   34   3.210   2.556   4.018
    1C        C   35   3.081   2.613   4.019
    1C        C   36   3.279   2.536   4.140
    1C        C   37   3.212   2.563   4.262
    1C        C   38   3.417   2.509   4.382
    1C        C   39   3.279   2.539   4.384
    1C        C   40   3.488   2.505   4.504
    1C        C   41   3.419   2.510   4.627
    1C        C   42   3.632   2.488   4.746
    1C        C   43   3.490   2.488   4.747
    1C        C   44   3.710   2.485   4.864
    1C        C   45   3.631   2.480   4.979
    1C        C   46   2.837   2.752   2.795
    1C        C   47   2.891   2.706   2.918
    1C        C   48   2.842   2.761   3.039
    1C        C   49   3.015   2.640   3.161
    1C        C   50   2.900   2.722   3.161
    1C        C   51   3.077   2.608   3.284
    1C        C   52   3.021   2.649   3.407
    1C        C   53   3.209   2.555   3.529
    1C        C   54   3.079   2.610   3.530
    1C        C   55   3.277   2.536   3.652
    1C        C   56   3.209   2.558   3.773
    1C        C   57   3.416   2.514   3.894
    1C        C   58   3.277   2.536   3.895
    1C        C   59   3.488   2.507   4.015
    1C        C   60   3.418   2.513   4.138
    1C        C   61   3.630   2.505   4.263
    1C        C   62   3.489   2.502   4.260
    1C        C   63   3.704   2.505   4.383
    1C        C   64   3.629   2.501   4.503
    1C        C   65   3.836   2.549   4.623
    1C        C   66   3.701   2.507   4.624
    1C        C   67   3.909   2.561   4.743
    1C        C   68   3.845   2.527   4.864
    1C        C   69   4.054   2.590   4.982
    1C        C   70   3.929   2.528   4.977
    1C        C   71   2.823   2.734   2.308
    1C        C   72   2.882   2.691   2.428
    1C        C   73   2.835   2.747   2.549
    1C        C   74   3.008   2.627   2.674
    1C        C   75   2.891   2.707   2.673
    1C        C   76   3.075   2.601   2.795
    1C        C   77   3.012   2.634   2.917
    1C        C   78   3.208   2.552   3.039
    1C        C   79   3.076   2.602   3.039
    1C        C   80   3.275   2.533   3.162
    1C        C   81   3.207   2.552   3.284
    1C        C   82   3.415   2.512   3.405
    1C        C   83   3.276   2.534   3.406
    1C        C   84   3.486   2.505   3.527
    1C        C   85   3.417   2.514   3.650
    1C        C   86   3.628   2.505   3.771
    1C        C   87   3.487   2.503   3.772
    1C        C   88   3.697   2.519   3.894
    1C        C   89   3.629   2.513   4.017
    1C        C   90   3.837   2.547   4.139
    1C        C   91   3.699   2.516   4.140
    1C        C   92   3.907   2.569   4.259
    1C        C   93   3.842   2.538   4.380
    1C        C   94   4.033   2.631   4.499
    1C        C   95   3.908   2.565   4.502
    1C        C   96   4.097   2.665   4.620
    1C        C   97   4.034   2.628   4.741
    1C        C   98   4.191   2.768   4.865
    1C        C   99   4.100   2.657   4.864
    1C        C  100   4.212   2.844   4.981
    1C        C  101   2.825   2.731   2.069
    1C        C  102   2.992   2.593   2.191
    1C        C  103   2.877   2.679   2.188
    1C        C  104   3.063   2.574   2.312
    1C        C  105   3.001   2.616   2.432
    1C        C  106   3.201   2.538   2.551
    1C        C  107   3.067   2.583   2.553
    1C        C  108   3.271   2.523   2.672
    1C        C  109   3.205   2.546   2.795
    1C        C  110   3.414   2.507   2.917
    1C        C  111   3.273   2.524   2.917
    1C        C  112   3.485   2.500   3.039
    1C        C  113   3.414   2.509   3.161
    1C        C  114   3.627   2.502   3.280
    1C        C  115   3.485   2.501   3.282
    1C        C  116   3.696   2.515   3.403
    1C        C  117   3.627   2.501   3.526
    1C        C  118   3.835   2.540   3.646
    1C        C  119   3.697   2.509   3.648
    1C        C  120   3.900   2.568   3.768
    1C        C  121   3.834   2.554   3.892
    1C        C  122   4.027   2.638   4.016
    1C        C  123   3.900   2.575   4.015
    1C        C  124   4.093   2.673   4.135
    1C        C  125   4.033   2.634   4.257
    1C        C  126   4.201   2.764   4.378
    1C        C  127   4.092   2.675   4.379
    1C        C  128   4.243   2.822   4.500
    1C        C  129   4.194   2.768   4.621
    1C        C  130   4.324   2.936   4.741
    1C        C  131   4.239   2.822   4.743
    1C        C  132   4.354   3.005   4.861
    1C        C  133   4.285   2.962   4.975
    1C        C  134   3.171   2.463   2.085
    1C        C  135   3.039   2.509   2.085
    1C        C  136   3.260   2.483   2.191
    1C        C  137   3.196   2.524   2.310
    1C        C  138   3.408   2.489   2.428
    1C        C  139   3.268   2.507   2.430
    1C        C  140   3.481   2.495   2.549
    1C        C  141   3.411   2.503   2.672
    1C        C  142   3.623   2.501   2.792
    1C        C  143   3.482   2.496   2.794
    1C        C  144   3.695   2.511   2.913
    1C        C  145   3.626   2.504   3.037
    1C        C  146   3.835   2.544   3.156
    1C        C  147   3.698   2.510   3.158
    1C        C  148   3.900   2.567   3.279
    1C        C  149   3.834   2.547   3.402
    1C        C  150   4.029   2.628   3.527
    1C        C  151   3.903   2.564   3.524
    1C        C  152   4.088   2.668   3.649
    1C        C  153   4.026   2.632   3.772
    1C        C  154   4.197   2.761   3.890
    1C        C  155   4.083   2.678   3.893
    1C        C  156   4.250   2.812   4.011
    1C        C  157   4.201   2.763   4.134
    1C        C  158   4.340   2.924   4.256
    1C        C  159   4.253   2.812   4.256
    1C        C  160   4.380   2.986   4.376
    1C        C  161   4.334   2.930   4.497
    1C        C  162   4.436   3.117   4.616
    1C        C  163   4.366   2.994   4.619
    1C        C  164   4.469   3.183   4.736
    1C        C  165   4.438   3.119   4.858
    1C        C  166   4.514   3.321   4.974
    1C        C  167   4.481   3.186   4.973
    1C        C  168   3.479   2.437   2.076
    1C        C  169   3.400   2.462   2.189
    1C        C  170   3.619   2.475   2.307
    1C        C  171   3.477   2.471   2.307
    1C        C  172   3.693   2.491   2.427
    1C        C  173   3.622   2.491   2.549
    1C        C  174   3.829   2.548   2.667
    1C        C  175   3.693   2.509   2.669
    1C        C  176   3.899   2.560   2.789
    1C        C  177   3.833   2.539   2.912
    1C        C  178   4.029   2.625   3.033
    1C        C  179   3.902   2.564   3.033
    1C        C  180   4.090   2.658   3.156
    1C        C  181   4.028   2.626   3.279
    1C        C  182   4.200   2.746   3.402
    1C        C  183   4.088   2.660   3.403
    1C        C  184   4.249   2.800   3.523
    1C        C  185   4.201   2.752   3.647
    1C        C  186   4.344   2.912   3.767
    1C        C  187   4.256   2.801   3.768
    1C        C  188   4.385   2.974   3.887
    1C        C  189   4.342   2.920   4.011
    1C        C  190   4.448   3.104   4.131
    1C        C  191   4.380   2.980   4.133
    1C        C  192   4.474   3.172   4.252
    1C        C  193   4.445   3.111   4.376
    1C        C  194   4.513   3.317   4.494
    1C        C  195   4.472   3.182   4.496
    1C        C  196   4.523   3.389   4.615
    1C        C  197   4.509   3.319   4.737
    1C        C  198   4.553   3.536   4.853
    1C        C  199   4.530   3.395   4.856
    1C        C  200   4.587   3.624   4.961
    1C        C  201   3.617   2.413   2.076
    1C        C  202   3.829   2.510   2.182
    1C        C  203   3.694   2.461   2.187
    1C        C  204   3.899   2.542   2.301
    1C        C  205   3.830   2.524   2.424
    1C        C  206   4.025   2.618   2.545
    1C        C  207   3.898   2.556   2.543
    1C        C  208   4.088   2.657   2.666
    1C        C  209   4.027   2.619   2.788
    1C        C  210   4.200   2.744   2.908
    1C        C  211   4.090   2.655   2.909
    1C        C  212   4.250   2.792   3.031
    1C        C  213   4.202   2.744   3.155
    1C        C  214   4.334   2.907   3.275
    1C        C  215   4.249   2.795   3.279
    1C        C  216   4.373   2.966   3.398
    1C        C  217   4.334   2.913   3.522
    1C        C  218   4.437   3.099   3.641
    1C        C  219   4.379   2.970   3.643
    1C        C  220   4.458   3.169   3.762
    1C        C  221   4.443   3.103   3.886
    1C        C  222   4.499   3.307   4.007
    1C        C  223   4.471   3.168   4.008
    1C        C  224   4.510   3.380   4.127
    1C        C  225   4.501   3.311   4.250
    1C        C  226   4.519   3.525   4.367
    1C        C  227   4.518   3.384   4.370
    1C        C  228   4.521   3.598   4.488
    1C        C  229   4.534   3.530   4.611
    1C        C  230   4.502   3.743   4.726
    1C        C  231   4.537   3.606   4.730
    1C        C  232   4.494   3.820   4.845
    1C        C  233   4.544   3.757   4.960
    1C        C  234   4.021   2.610   2.063
    1C        C  235   3.903   2.537   2.066
    1C        C  236   4.083   2.652   2.181
    1C        C  237   4.021   2.616   2.302
    1C        C  238   4.204   2.732   2.421
    1C        C  239   4.084   2.655   2.422
    1C        C  240   4.258   2.781   2.542
    1C        C  241   4.203   2.738   2.665
    1C        C  242   4.337   2.905   2.785
    1C        C  243   4.254   2.790   2.786
    1C        C  244   4.380   2.961   2.907
    1C        C  245   4.339   2.902   3.029
    1C        C  246   4.436   3.090   3.153
    1C        C  247   4.370   2.965   3.152
    1C        C  248   4.461   3.158   3.274
    1C        C  249   4.433   3.095   3.397
    1C        C  250   4.494   3.300   3.516
    1C        C  251   4.460   3.163   3.517
    1C        C  252   4.506   3.371   3.638
    1C        C  253   4.492   3.306   3.762
    1C        C  254   4.513   3.517   3.877
    1C        C  255   4.507   3.376   3.884
    1C        C  256   4.510   3.587   4.000
    1C        C  257   4.511   3.522   4.125
    1C        C  258   4.488   3.735   4.242
    1C        C  259   4.508   3.596   4.245
    1C        C  260   4.468   3.804   4.364
    1C        C  261   4.489   3.736   4.487
    1C        C  262   4.426   3.943   4.602
    1C        C  263   4.478   3.812   4.605
    1C        C  264   4.401   4.010   4.724
    1C        C  265   4.437   3.949   4.846
    1C        C  266   4.319   4.133   4.963
    1C        C  267   4.387   4.011   4.961
    1C        C  268   4.264   2.779   2.065
    1C        C  269   4.197   2.736   2.181
    1C        C  270   4.349   2.889   2.300
    1C        C  271   4.259   2.779   2.300
    1C        C  272   4.387   2.952   2.421
    1C        C  273   4.343   2.893   2.542
    1C        C  274   4.448   3.083   2.662
    1C        C  275   4.377   2.961   2.661
    1C        C  276   4.473   3.149   2.784
    1C        C  277   4.447   3.085   2.908
    1C        C  278   4.497   3.291   3.029
    1C        C  279   4.469   3.153   3.030
    1C        C  280   4.503   3.366   3.148
    1C        C  281   4.494   3.295   3.270
    1C        C  282   4.506   3.508   3.392
    1C        C  283   4.503   3.367   3.392
    1C        C  284   4.509   3.581   3.513
    1C        C  285   4.515   3.512   3.636
    1C        C  286   4.486   3.727   3.753
    1C        C  287   4.514   3.589   3.755
    1C        C  288   4.467   3.794   3.876
    1C        C  289   4.484   3.726   3.999
    1C        C  290   4.435   3.937   4.118
    1C        C  291   4.471   3.801   4.118
    1C        C  292   4.408   4.007   4.238
    1C        C  293   4.426   3.939   4.360
    1C        C  294   4.329   4.131   4.478
    1C        C  295   4.395   4.006   4.480
    1C        C  296   4.284   4.186   4.601
    1C        C  297   4.325   4.130   4.724
    1C        C  298   4.202   4.312   4.840
    1C        C  299   4.286   4.196   4.843
    1C        C  300   4.174   4.405   4.945
    1C        C  301   4.353   2.886   2.059
    1C        C  302   4.470   3.067   2.175
    1C        C  303   4.397   2.944   2.178
    1C        C  304   4.481   3.142   2.296
    1C        C  305   4.449   3.078   2.418
    1C        C  306   4.511   3.283   2.539
    1C        C  307   4.476   3.147   2.538
    1C        C  308   4.513   3.355   2.660
    1C        C  309   4.495   3.288   2.783
    1C        C  310   4.516   3.499   2.900
    1C        C  311   4.511   3.358   2.905
    1C        C  312   4.513   3.572   3.021
    1C        C  313   4.515   3.507   3.146
    1C        C  314   4.491   3.717   3.264
    1C        C  315   4.507   3.577   3.269
    1C        C  316   4.478   3.790   3.384
    1C        C  317   4.489   3.721   3.507
    1C        C  318   4.430   3.927   3.626
    1C        C  319   4.475   3.793   3.628
    1C        C  320   4.395   3.988   3.749
    1C        C  321   4.421   3.927   3.874
    1C        C  322   4.318   4.113   3.991
    1C        C  323   4.396   3.995   3.995
    1C        C  324   4.284   4.175   4.113
    1C        C  325   4.333   4.127   4.236
    1C        C  326   4.188   4.286   4.354
    1C        C  327   4.293   4.190   4.356
    1C        C  328   4.138   4.340   4.474
    1C        C  329   4.190   4.291   4.596
    1C        C  330   4.028   4.433   4.715
    1C        C  331   4.142   4.348   4.716
    1C        C  332   3.975   4.490   4.832
    1C        C  333   4.055   4.479   4.947
    1C        C  334   4.554   3.272   2.065
    1C        C  335   4.529   3.134   2.063
    1C        C  336   4.539   3.352   2.178
    1C        C  337   4.513   3.280   2.297
    1C        C  338   4.515   3.495   2.412
    1C        C  339   4.520   3.354   2.417
    1C        C  340   4.515   3.566   2.534
    1C        C  341   4.516   3.497   2.657
    1C        C  342   4.493   3.710   2.777
    1C        C  343   4.513   3.570   2.778
    1C        C  344   4.477   3.781   2.897
    1C        C  345   4.491   3.711   3.019
    1C        C  346   4.428   3.917   3.138
    1C        C  347   4.473   3.783   3.140
    1C        C  348   4.399   3.983   3.259
    1C        C  349   4.432   3.923   3.382
    1C        C  350   4.326   4.109   3.502
    1C        C  351   4.404   3.992   3.503
    1C        C  352   4.283   4.169   3.622
    1C        C  353   4.324   4.109   3.744
    1C        C  354   4.184   4.270   3.867
    1C        C  355   4.278   4.165   3.865
    1C        C  356   4.129   4.321   3.986
    1C        C  357   4.183   4.275   4.108
    1C        C  358   4.017   4.406   4.231
    1C        C  359   4.131   4.323   4.230
    1C        C  360   3.959   4.452   4.351
    1C        C  361   4.022   4.421   4.474
    1C        C  362   3.831   4.521   4.592
    1C        C  363   3.960   4.462   4.594
    1C        C  364   3.765   4.549   4.713
    1C        C  365   3.843   4.541   4.831
    1C        C  366   3.630   4.584   4.948
    1C        C  367   3.769   4.569   4.947
    1C        C  368   4.513   3.566   2.054
    1C        C  369   4.526   3.493   2.173
    1C        C  370   4.512   3.709   2.287
    1C        C  371   4.514   3.568   2.292
    1C        C  372   4.488   3.776   2.409
    1C        C  373   4.494   3.706   2.532
    1C        C  374   4.429   3.909   2.649
    1C        C  375   4.473   3.775   2.653
    1C        C  376   4.399   3.977   2.769
    1C        C  377   4.421   3.911   2.892
    1C        C  378   4.327   4.101   3.013
    1C        C  379   4.396   3.977   3.014
    1C        C  380   4.285   4.161   3.133
    1C        C  381   4.325   4.104   3.256
    1C        C  382   4.181   4.261   3.378
    1C        C  383   4.281   4.161   3.378
    1C        C  384   4.128   4.311   3.498
    1C        C  385   4.182   4.268   3.621
    1C        C  386   4.010   4.390   3.742
    1C        C  387   4.127   4.311   3.744
    1C        C  388   3.950   4.431   3.863
    1C        C  389   4.012   4.400   3.986
    1C        C  390   3.820   4.486   4.109
    1C        C  391   3.951   4.432   4.109
    1C        C  392   3.753   4.511   4.230
    1C        C  393   3.827   4.503   4.350
    1C        C  394   3.620   4.551   4.474
    1C        C  395   3.761   4.535   4.471
    1C        C  396   3.549   4.559   4.596
    1C        C  397   3.625   4.564   4.715
    1C        C  398   3.409   4.553   4.840
    1C        C  399   3.549   4.572   4.834
    1C        C  400   3.340   4.516   4.956
    1C        C  401   4.514   3.705   2.052
    1C        C  402   4.455   3.917   2.168
    1C        C  403   4.498   3.783   2.167
    1C        C  404   4.416   3.977   2.289
    1C        C  405   4.441   3.910   2.411
    1C        C  406   4.328   4.097   2.526
    1C        C  407   4.402   3.977   2.528
    1C        C  408   4.278   4.150   2.647
    1C        C  409   4.324   4.097   2.770
    1C        C  410   4.184   4.257   2.887
    1C        C  411   4.284   4.157   2.891
    1C        C  412   4.129   4.301   3.010
    1C        C  413   4.180   4.256   3.133
    1C        C  414   4.007   4.379   3.252
    1C        C  415   4.127   4.305   3.255
    1C        C  416   3.945   4.415   3.374
    1C        C  417   4.008   4.387   3.497
    1C        C  418   3.816   4.475   3.620
    1C        C  419   3.947   4.422   3.619
    1C        C  420   3.750   4.502   3.742
    1C        C  421   3.818   4.482   3.864
    1C        C  422   3.613   4.530   3.986
    1C        C  423   3.752   4.505   3.986
    1C        C  424   3.545   4.531   4.110
    1C        C  425   3.613   4.530   4.234
    1C        C  426   3.402   4.543   4.357
    1C        C  427   3.544   4.549   4.356
    1C        C  428   3.333   4.545   4.480
    1C        C  429   3.408   4.556   4.599
    1C        C  430   3.196   4.521   4.724
    1C        C  431   3.336   4.546   4.720
    1C        C  432   3.124   4.497   4.845
    1C        C  433   3.203   4.493   4.960
    1C        C  434   4.388   4.121   2.053
    1C        C  435   4.455   3.998   2.054
    1C        C  436   4.308   4.165   2.164
    1C        C  437   4.342   4.099   2.285
    1C        C  438   4.185   4.251   2.402
    1C        C  439   4.288   4.155   2.403
    1C        C  440   4.127   4.298   2.522
    1C        C  441   4.183   4.254   2.644
    1C        C  442   4.011   4.380   2.764
    1C        C  443   4.130   4.304   2.765
    1C        C  444   3.947   4.410   2.887
    1C        C  445   4.009   4.375   3.008
    1C        C  446   3.815   4.465   3.131
    1C        C  447   3.947   4.413   3.129
    1C        C  448   3.748   4.489   3.253
    1C        C  449   3.817   4.475   3.376
    1C        C  450   3.611   4.524   3.497
    1C        C  451   3.749   4.496   3.497
    1C        C  452   3.543   4.535   3.620
    1C        C  453   3.613   4.536   3.743
    1C        C  454   3.401   4.533   3.866
    1C        C  455   3.542   4.544   3.865
    1C        C  456   3.332   4.524   3.989
    1C        C  457   3.404   4.529   4.111
    1C        C  458   3.195   4.505   4.237
    1C        C  459   3.335   4.528   4.234
    1C        C  460   3.129   4.487   4.360
    1C        C  461   3.195   4.511   4.482
    1C        C  462   2.997   4.437   4.603
    1C        C  463   3.126   4.495   4.604
    1C        C  464   2.932   4.405   4.724
    1C        C  465   2.988   4.452   4.845
    1C        C  466   2.801   4.343   4.958
    1C        C  467   2.906   4.436   4.962
    1C        C  468   4.122   4.282   2.043
    1C        C  469   4.189   4.244   2.160
    1C        C  470   4.012   4.374   2.279
    1C        C  471   4.129   4.294   2.279
    1C        C  472   3.946   4.405   2.400
    1C        C  473   4.009   4.376   2.524
    1C        C  474   3.813   4.460   2.645
    1C        C  475   3.947   4.417   2.644
    1C        C  476   3.747   4.486   2.767
    1C        C  477   3.817   4.465   2.888
    1C        C  478   3.609   4.514   3.010
    1C        C  479   3.747   4.484   3.009
    1C        C  480   3.539   4.521   3.132
    1C        C  481   3.609   4.513   3.255
    1C        C  482   3.396   4.527   3.378
    1C        C  483   3.537   4.531   3.376
    1C        C  484   3.329   4.524   3.502
    1C        C  485   3.402   4.534   3.623
    1C        C  486   3.191   4.501   3.746
    1C        C  487   3.330   4.527   3.744
    1C        C  488   3.126   4.479   3.869
    1C        C  489   3.194   4.496   3.992
    1C        C  490   2.999   4.422   4.116
    1C        C  491   3.127   4.483   4.115
    1C        C  492   2.943   4.383   4.240
    1C        C  493   3.002   4.424   4.361
    1C        C  494   2.829   4.303   4.483
    1C        C  495   2.936   4.395   4.482
    1C        C  496   2.775   4.261   4.606
    1C        C  497   2.820   4.316   4.728
    1C        C  498   2.662   4.168   4.843
    1C        C  499   2.754   4.275   4.845
    1C        C  500   2.594   4.120   4.956
    1C        C  501   4.006   4.359   2.041
    1C        C  502   3.818   4.466   2.157
    1C        C  503   3.948   4.410   2.158
    1C        C  504   3.746   4.479   2.277
    1C        C  505   3.812   4.450   2.399
    1C        C  506   3.608   4.503   2.522
    1C        C  507   3.746   4.473   2.521
    1C        C  508   3.537   4.510   2.644
    1C        C  509   3.608   4.510   2.766
    1C        C  510   3.397   4.519   2.887
    1C        C  511   3.538   4.523   2.888
    1C        C  512   3.327   4.513   3.010
    1C        C  513   3.398   4.524   3.131
    1C        C  514   3.190   4.494   3.257
    1C        C  515   3.328   4.523   3.254
    1C        C  516   3.123   4.469   3.379
    1C        C  517   3.191   4.497   3.500
    1C        C  518   3.001   4.410   3.624
    1C        C  519   3.124   4.480   3.623
    1C        C  520   2.942   4.374   3.747
    1C        C  521   3.002   4.412   3.870
    1C        C  522   2.834   4.289   3.994
    1C        C  523   2.946   4.375   3.994
    1C        C  524   2.785   4.244   4.118
    1C        C  525   2.834   4.293   4.241
    1C        C  526   2.694   4.134   4.364
    1C        C  527   2.781   4.245   4.363
    1C        C  528   2.654   4.079   4.487
    1C        C  529   2.694   4.145   4.605
    1C        C  530   2.587   3.962   4.729
    1C        C  531   2.640   4.094   4.725
    1C        C  532   2.543   3.905   4.852
    1C        C  533   2.529   3.995   4.961
    1C        C  534   3.621   4.559   2.045
    1C        C  535   3.755   4.517   2.043
    1C        C  536   3.538   4.533   2.157
    1C        C  537   3.606   4.502   2.278
    1C        C  538   3.395   4.514   2.402
    1C        C  539   3.536   4.513   2.401
    1C        C  540   3.324   4.515   2.524
    1C        C  541   3.396   4.519   2.646
    1C        C  542   3.185   4.480   2.766
    1C        C  543   3.323   4.510   2.767
    1C        C  544   3.119   4.462   2.890
    1C        C  545   3.190   4.481   3.011
    1C        C  546   2.996   4.407   3.134
    1C        C  547   3.124   4.467   3.135
    1C        C  548   2.934   4.376   3.257
    1C        C  549   2.994   4.413   3.380
    1C        C  550   2.829   4.283   3.504
    1C        C  551   2.938   4.373   3.503
    1C        C  552   2.777   4.239   3.628
    1C        C  553   2.827   4.292   3.749
    1C        C  554   2.705   4.121   3.875
    1C        C  555   2.784   4.238   3.872
    1C        C  556   2.669   4.062   3.998
    1C        C  557   2.700   4.131   4.118
    1C        C  558   2.601   3.946   4.243
    1C        C  559   2.659   4.075   4.240
    1C        C  560   2.577   3.878   4.365
    1C        C  561   2.593   3.951   4.485
    1C        C  562   2.534   3.752   4.614
    1C        C  563   2.564   3.890   4.609
    1C        C  564   2.518   3.684   4.736
    1C        C  565   2.525   3.763   4.854
    1C        C  566   2.536   3.550   4.977
    1C        C  567   2.535   3.689   4.973
    1C        C  568   3.327   4.478   2.043
    1C        C  569   3.397   4.513   2.160
    1C        C  570   3.184   4.476   2.283
    1C        C  571   3.323   4.508   2.281
    1C        C  572   3.113   4.464   2.404
    1C        C  573   3.186   4.485   2.523
    1C        C  574   2.987   4.404   2.648
    1C        C  575   3.117   4.461   2.644
    1C        C  576   2.928   4.366   2.770
    1C        C  577   2.993   4.398   2.892
    1C        C  578   2.824   4.275   3.015
    1C        C  579   2.933   4.365   3.015
    1C        C  580   2.778   4.227   3.140
    1C        C  581   2.830   4.280   3.260
    1C        C  582   2.698   4.115   3.386
    1C        C  583   2.784   4.227   3.383
    1C        C  584   2.657   4.060   3.510
    1C        C  585   2.696   4.124   3.630
    1C        C  586   2.604   3.935   3.756
    1C        C  587   2.668   4.061   3.753
    1C        C  588   2.573   3.873   3.879
    1C        C  589   2.607   3.935   4.001
    1C        C  590   2.537   3.738   4.126
    1C        C  591   2.576   3.874   4.125
    1C        C  592   2.526   3.671   4.250
    1C        C  593   2.538   3.743   4.371
    1C        C  594   2.512   3.536   4.498
    1C        C  595   2.521   3.677   4.495
    1C        C  596   2.524   3.465   4.620
    1C        C  597   2.516   3.541   4.738
    1C        C  598   2.535   3.331   4.865
    1C        C  599   2.524   3.472   4.861
    1C        C  600   2.529   3.249   4.979
    1C        C  601   3.193   4.444   2.047
    1C        C  602   2.983   4.392   2.164
    1C        C  603   3.115   4.447   2.163
    1C        C  604   2.920   4.359   2.287
    1C        C  605   2.984   4.407   2.404
    1C        C  606   2.818   4.275   2.531
    1C        C  607   2.926   4.366   2.526
    1C        C  608   2.766   4.225   2.652
    1C        C  609   2.816   4.280   2.772
    1C        C  610   2.688   4.112   2.896
    1C        C  611   2.772   4.225   2.894
    1C        C  612   2.657   4.052   3.021
    1C        C  613   2.694   4.114   3.143
    1C        C  614   2.590   3.930   3.267
    1C        C  615   2.656   4.055   3.265
    1C        C  616   2.569   3.866   3.391
    1C        C  617   2.597   3.933   3.513
    1C        C  618   2.536   3.730   3.639
    1C        C  619   2.576   3.866   3.635
    1C        C  620   2.521   3.664   3.763
    1C        C  621   2.532   3.738   3.882
    1C        C  622   2.514   3.527   4.009
    1C        C  623   2.521   3.668   4.004
    1C        C  624   2.518   3.458   4.133
    1C        C  625   2.517   3.530   4.255
    1C        C  626   2.540   3.322   4.380
    1C        C  627   2.517   3.461   4.378
    1C        C  628   2.554   3.253   4.502
    1C        C  629   2.534   3.324   4.623
    1C        C  630   2.596   3.122   4.744
    1C        C  631   2.552   3.257   4.746
    1C        C  632   2.620   3.055   4.867
    1C        C  633   2.566   3.114   4.986
    1C        C  634   2.784   4.308   2.055
    1C        C  635   2.896   4.392   2.051
    1C        C  636   2.745   4.235   2.168
    1C        C  637   2.802   4.280   2.289
    1C        C  638   2.676   4.111   2.410
    1C        C  639   2.761   4.224   2.412
    1C        C  640   2.639   4.051   2.532
    1C        C  641   2.682   4.111   2.652
    1C        C  642   2.587   3.924   2.777
    1C        C  643   2.646   4.052   2.775
    1C        C  644   2.565   3.858   2.900
    1C        C  645   2.597   3.924   3.021
    1C        C  646   2.531   3.726   3.150
    1C        C  647   2.570   3.862   3.145
    1C        C  648   2.519   3.656   3.273
    1C        C  649   2.534   3.729   3.393
    1C        C  650   2.517   3.520   3.518
    1C        C  651   2.525   3.661   3.516
    1C        C  652   2.520   3.453   3.642
    1C        C  653   2.516   3.523   3.765
    1C        C  654   2.534   3.315   3.888
    1C        C  655   2.511   3.454   3.888
    1C        C  656   2.551   3.250   4.012
    1C        C  657   2.537   3.319   4.135
    1C        C  658   2.606   3.120   4.258
    1C        C  659   2.555   3.252   4.258
    1C        C  660   2.636   3.057   4.381
    1C        C  661   2.609   3.123   4.503
    1C        C  662   2.708   2.937   4.625
    1C        C  663   2.631   3.055   4.625
    1C        C  664   2.753   2.881   4.747
    1C        C  665   2.704   2.939   4.867
    1C        C  666   2.749   2.874   4.983
    1C        C  667   2.676   4.025   2.059
    1C        C  668   2.683   4.108   2.172
    1C        C  669   2.582   3.916   2.292
    1C        C  670   2.635   4.048   2.290
    1C        C  671   2.555   3.851   2.415
    1C        C  672   2.582   3.921   2.535
    1C        C  673   2.523   3.718   2.661
    1C        C  674   2.559   3.855   2.657
    1C        C  675   2.517   3.649   2.784
    1C        C  676   2.531   3.721   2.905
    1C        C  677   2.508   3.514   3.029
    1C        C  678   2.519   3.655   3.029
    1C        C  679   2.506   3.443   3.151
    1C        C  680   2.508   3.516   3.272
    1C        C  681   2.530   3.308   3.400
    1C        C  682   2.513   3.449   3.396
    1C        C  683   2.547   3.241   3.523
    1C        C  684   2.531   3.312   3.644
    1C        C  685   2.599   3.112   3.770
    1C        C  686   2.548   3.244   3.767
    1C        C  687   2.635   3.054   3.894
    1C        C  688   2.599   3.117   4.015
    1C        C  689   2.712   2.936   4.140
    1C        C  690   2.635   3.054   4.136
    1C        C  691   2.753   2.877   4.262
    1C        C  692   2.710   2.937   4.383
    1C        C  693   2.754   2.879   4.504
    1C        C  694   2.624   3.895   2.059
    1C        C  695   2.529   3.703   2.176
    1C        C  696   2.572   3.838   2.175
    1C        C  697   2.507   3.638   2.300
    1C        C  698   2.519   3.715   2.418
    1C        C  699   2.492   3.506   2.543
    1C        C  700   2.503   3.647   2.541
    1C        C  701   2.500   3.435   2.665
    1C        C  702   2.503   3.508   2.786
    1C        C  703   2.525   3.299   2.909
    1C        C  704   2.504   3.439   2.909
    1C        C  705   2.547   3.234   3.033
    1C        C  706   2.530   3.303   3.155
    1C        C  707   2.595   3.106   3.279
    1C        C  708   2.545   3.238   3.279
    1C        C  709   2.630   3.045   3.402
    1C        C  710   2.601   3.110   3.524
    1C        C  711   2.707   2.930   3.649
    1C        C  712   2.628   3.047   3.648
    1C        C  713   2.754   2.880   3.773
    1C        C  714   2.711   2.934   3.896
    1C        C  715   2.752   2.877   4.018
    1C        C  716   2.454   3.498   2.065
    1C        C  717   2.500   3.630   2.061
    1C        C  718   2.468   3.420   2.184
    1C        C  719   2.485   3.498   2.302
    1C        C  720   2.515   3.289   2.425
    1C        C  721   2.493   3.429   2.425
    1C        C  722   2.542   3.225   2.548
    1C        C  723   2.522   3.296   2.668
    1C        C  724   2.593   3.095   2.790
    1C        C  725   2.539   3.226   2.789
    1C        C  726   2.623   3.034   2.914
    1C        C  727   2.594   3.101   3.035
    1C        C  728   2.701   2.920   3.159
    1C        C  729   2.623   3.038   3.158
    1C        C  730   2.750   2.871   3.282
    1C        C  731   2.710   2.929   3.405
    1C        C  732   2.754   2.875   3.528
    1C        C  733   2.494   3.200   2.068
    1C        C  734   2.489   3.279   2.183
    1C        C  735   2.580   3.084   2.305
    1C        C  736   2.526   3.216   2.305
    1C        C  737   2.613   3.021   2.427
    1C        C  738   2.592   3.093   2.547
    1C        C  739   2.696   2.908   2.670
    1C        C  740   2.620   3.027   2.669
    1C        C  741   2.739   2.854   2.793
    1C        C  742   2.698   2.914   2.914
    1C        C  743   2.744   2.863   3.037
    1C        C  744   2.552   3.073   2.069
    1C        C  745   2.685   2.898   2.184
    1C        C  746   2.607   3.016   2.184
    1C        C  747   2.727   2.839   2.306
    1C        C  748   2.692   2.904   2.426
    1C        C  749   2.737   2.849   2.548
    1C        C  750   2.739   2.841   2.068
    1C        C  751   3.649   2.285   2.010
    1C        O  752   3.683   2.178   2.068
    1C        O  753   3.633   2.271   1.872
    1C        C  754   4.622   3.062   1.972
    1C        O  755   4.640   3.104   1.855
    1C        O  756   4.731   2.988   2.019
    1C        C  757   4.421   4.205   1.936
    1C        O  758   4.492   4.305   1.964
    1C        O  759   4.391   4.182   1.801
    1C        C  760   3.583   4.634   1.922
    1C        O  761   3.549   4.755   1.913
    1C        O  762   3.592   4.577   1.795
    1C        C  763   2.890   4.503   1.953
    1C        O  764   2.945   4.480   1.842
    1C        O  765   2.816   4.618   1.981
    1C        C  766   2.346   3.471   1.967
    1C        O  767   2.368   3.456   1.844
    1C        O  768   2.214   3.496   2.007
    1C        C  769   4.708   3.599   5.043
    1C        O  770   4.693   3.550   5.158
    1C        O  771   4.827   3.670   5.027
    1C        C  772   4.300   4.473   4.983
    1C        O  773   4.341   4.458   5.101
    1C        O  774   4.357   4.577   4.909
    1C        C  775   4.151   2.507   5.056
    1C        O  776   4.235   2.436   4.994
    1C        O  777   4.144   2.502   5.195
    1C        C  778   2.886   4.540   5.066
    1C        O  779   2.888   4.663   5.040
    1C        O  780   2.928   4.502   5.194
    1C        C  781   2.462   3.042   5.063
    1C        O  782   2.338   3.056   5.045
    1C        O  783   2.491   2.998   5.192
    1C        C  784   2.416   3.995   5.057
    1C        O  785   2.318   4.065   5.022
    1C        O  786   2.433   3.962   5.192
    1C        C  787   2.949   2.413   2.017
    1C        O  788   2.887   2.439   1.910
    1C        O  789   2.928   2.286   2.070
    1C        C  790   3.194   2.400   5.088
    1C        O  791   3.140   2.287   5.075
    1C        O  792   3.247   2.418   5.216
    1C        H  793   4.321   2.998   5.069
    1C        H  794   4.215   2.793   5.075
    1C        H  795   4.508   3.127   5.058
    1C        H  796   4.528   3.367   5.070
    1C        H  797   4.578   3.817   5.041
    1C        H  798   4.394   3.957   5.053
    1C        H  799   4.299   4.184   5.055
    1C        H  800   4.066   4.569   5.003
    1C        H  801   3.822   4.596   5.035
    1C        H  802   3.590   4.637   5.032
    1C        H  803   3.381   4.543   5.051
    1C        H  804   3.157   4.504   5.057
    1C        H  805   3.898   2.478   5.066
    1C        H  806   3.676   2.521   5.067
    1C        H  807   2.990   2.540   5.057
    1C        H  808   3.450   2.496   5.081
    1C        H  809   2.911   2.773   5.076
    1C        H  810   2.707   2.900   5.078
    1C        H  811   2.542   3.296   5.075
    1C        H  812   2.568   3.506   5.069
    1C        H  813   2.493   3.731   5.062
    1C        H  814   2.616   4.161   5.052
    1C        H  815   2.745   4.331   5.049
    1C        H  816   2.733   2.897   1.977
    1C        H  817   2.803   2.655   1.998
    1C        H  818   3.216   2.455   1.988
    1C        H  819   3.446   2.479   1.983
    1C        H  820   3.895   2.462   1.990
    1C        H  821   4.057   2.645   1.969
    1C        H  822   4.245   2.726   1.974
    1C        H  823   4.328   2.953   1.980
    1C        H  824   4.587   3.315   1.973
    1C        H  825   4.479   3.517   1.966
    1C        H  826   4.555   3.755   1.966
    1C        H  827   3.815   4.543   1.959
    1C        H  828   3.942   4.345   1.957
    1C        H  829   4.134   4.222   1.955
    1C        H  830   4.522   3.974   1.974
    1C        H  831   2.602   3.857   1.961
    1C        H  832   2.687   4.070   1.962
    1C        H  833   2.730   4.285   1.965
    1C        H  834   3.382   4.438   1.961
    1C        H  835   3.155   4.404   1.955
    1C        H  836   2.495   3.007   2.006
    1C        H  837   2.441   3.229   1.980
    1C        H  838   2.502   3.680   1.966
    2V3OU   H29  839   2.811   3.555   5.111
    2V3OU   C27  840   2.782   3.502   5.205
    2V3OU   H27  841   2.725   3.568   5.276
    2V3OU   H28  842   2.731   3.404   5.188
    2V3OU   O11  843   2.905   3.480   5.275
    2V3OU   C15  844   2.921   3.398   5.385
    2V3OU   C13  845   3.053   3.377   5.430
    2V3OU   C14  846   3.079   3.271   5.519
    2V3OU   C16  847   2.974   3.187   5.554
    2V3OU    H6  848   2.993   3.108   5.627
    2V3OU   C12  849   3.218   3.234   5.556
    2V3OU    O2  850   3.244   3.128   5.616
    2V3OU   C10  851   3.328   3.305   5.489
    2V3OU    C8  852   3.459   3.266   5.512
    2V3OU   O10  853   3.490   3.144   5.563
    2V3OU   H26  854   3.402   3.109   5.586
    2V3OU    C6  855   3.569   3.349   5.472
    2V3OU    C5  856   3.540   3.465   5.401
    2V3OU    C4  857   3.706   3.292   5.474
    2V3OU    H4  858   3.721   3.231   5.568
    2V3OU    H5  859   3.712   3.224   5.384
    2V3OU    C2  860   3.816   3.398   5.473
    2V3OU    O6  861   3.807   3.475   5.593
    2V3OU   H21  862   3.770   3.559   5.562
    2V3OU    C3  863   3.786   3.494   5.359
    2V3OU    H2  864   3.869   3.570   5.357
    2V3OU    H3  865   3.788   3.433   5.265
    2V3OU   C25  866   3.951   3.326   5.461
    2V3OU    O7  867   3.994   3.300   5.349
    2V3OU   C26  868   4.032   3.289   5.585
    2V3OU   H22  869   4.064   3.384   5.633
    2V3OU   H23  870   4.127   3.240   5.553
    2V3OU    O8  871   3.968   3.209   5.681
    2V3OU   H24  872   3.939   3.274   5.747
    2V3OU    C1  873   3.651   3.563   5.372
    2V3OU    H1  874   3.628   3.618   5.276
    2V3OU    O3  875   3.659   3.656   5.480
    2V3OU   C19  876   3.620   3.793   5.464
    2V3OU    H9  877   3.522   3.807   5.410
    2V3OU    O4  878   3.720   3.845   5.379
    2V3OU   C20  879   3.846   3.875   5.439
    2V3OU   H10  880   3.899   3.780   5.468
    2V3OU   C24  881   3.609   3.856   5.603
    2V3OU   H16  882   3.543   3.787   5.662
    2V3OU   H17  883   3.564   3.958   5.593
    2V3OU   C23  884   3.748   3.870   5.666
    2V3OU   H15  885   3.785   3.764   5.682
    2V3OU    N1  886   3.734   3.955   5.783
    2V3OU   H19  887   3.810   3.936   5.845
    2V3OU   H20  888   3.652   3.929   5.834
    2V3OU   C21  889   3.848   3.947   5.574
    2V3OU   H11  890   3.952   3.934   5.617
    2V3OU    O5  891   3.823   4.086   5.558
    2V3OU   H18  892   3.782   4.100   5.645
    2V3OU   C22  893   3.917   3.951   5.329
    2V3OU   H12  894   3.866   4.050   5.313
    2V3OU   H13  895   3.904   3.896   5.232
    2V3OU   H14  896   4.026   3.958   5.352
    2V3OU   C11  897   3.160   3.474   5.404
    2V3OU    O1  898   3.132   3.587   5.358
    2V3OU    C9  899   3.299   3.428   5.424
    2V3OU    C7  900   3.405   3.506   5.379
    2V3OU    O9  901   3.385   3.609   5.289
    2V3OU   H25  902   3.290   3.631   5.297
    2V3OU   C17  903   2.816   3.320   5.436
    2V3OU    H7  904   2.713   3.343   5.408
    2V3OU   C18  905   2.842   3.210   5.517
    2V3OU    H8  906   2.756   3.145   5.540
    3SOL     OW  907   4.093   3.441   3.922
    3SOL    HW1  908   4.000   3.408   3.903
    3SOL    HW2  909   4.155   3.364   3.927
    4SOL     OW  910   7.024   0.058   0.386
    4SOL    HW1  911   0.046   0.029   0.469
    4SOL    HW2  912   7.019   7.007   0.322
    5SOL     OW  913   5.386   2.182   1.031
    5SOL    HW1  914   5.445   2.106   1.062
    5SOL    HW2  915   5.361   2.238   1.110
    6SOL     OW  916   5.615   0.569   2.374
    6SOL    HW1  917   5.519   0.567   2.345
    6SOL    HW2  918   5.627   0.506   2.451
    7SOL     OW  919   1.013   4.329   4.759
    7SOL    HW1  920   0.994   4.337   4.661
    7SOL    HW2  921   0.990   4.237   4.790
    8SOL     OW  922   1.598   3.721   5.034
    8SOL    HW1  923   1.557   3.761   5.115
    8SOL    HW2  924   1.686   3.764   5.016
    9SOL     OW  925   0.150   0.925   6.404
    9SOL    HW1  926   0.138   0.878   6.317
    9SOL    HW2  927   0.176   1.020   6.387
   10SOL     OW  928   4.990   4.654   2.423
   10SOL    HW1  929   4.989   4.579   2.490
   10SOL    HW2  930   5.045   4.627   2.344
   11SOL     OW  931   2.457   2.076   0.392
   11SOL    HW1  932   2.550   2.086   0.428
   11SOL    HW2  933   2.403   2.020   0.454
   12SOL     OW  934   3.490   4.923   3.117
   12SOL    HW1  935   3.434   5.004   3.133
   12SOL    HW2  936   3.446   4.865   3.049
   13SOL     OW  937   5.529   6.323   1.356
   13SOL    HW1  938   5.534   6.225   1.376
   13SOL    HW2  939   5.507   6.374   1.439
   14SOL     OW  940   4.743   5.525   5.089
   14SOL    HW1  941   4.715   5.436   5.055
   14SOL    HW2  942   4.826   5.554   5.041
   15SOL     OW  943   0.119   6.519   6.096
   15SOL    HW1  944   0.116   6.420   6.085
   15SOL    HW2  945   0.213   6.549   6.113
   16SOL     OW  946   1.298   4.356   4.819
   16SOL    HW1  947   1.296   4.262   4.852
   16SOL    HW2  948   1.204   4.389   4.809
   17SOL     OW  949   6.636   2.058   5.019
   17SOL    HW1  950   6.635   1.994   5.096
   17SOL    HW2  951   6.542   2.074   4.988
   18SOL     OW  952   2.202   1.097   6.013
   18SOL    HW1  953   2.176   1.182   6.058
   18SOL    HW2  954   2.245   1.118   5.925
   19SOL     OW  955   2.415   0.440   3.084
   19SOL    HW1  956   2.330   0.411   3.128
   19SOL    HW2  957   2.484   0.460   3.154
   20SOL     OW  958   6.730   1.698   5.646
   20SOL    HW1  959   6.729   1.672   5.742
   20SOL    HW2  960   6.698   1.622   5.590
   21SOL     OW  961   2.962   4.856   3.269
   21SOL    HW1  962   2.994   4.950   3.280
   21SOL    HW2  963   2.931   4.820   3.357
   22SOL     OW  964   1.589   0.438   6.360
   22SOL    HW1  965   1.503   0.397   6.389
   22SOL    HW2  966   1.578   0.537   6.354
   23SOL     OW  967   5.979   4.673   1.264
   23SOL    HW1  968   5.880   4.672   1.281
   23SOL    HW2  969   6.015   4.764   1.284
   24SOL     OW  970   4.446   0.866   0.553
   24SOL    HW1  971   4.544   0.853   0.567
   24SOL    HW2  972   4.428   0.885   0.456
   25SOL     OW  973   1.381   1.009   4.598
   25SOL    HW1  974   1.393   0.971   4.690
   25SOL    HW2  975   1.291   0.983   4.563
   26SOL     OW  976   1.205   3.115   0.031
   26SOL    HW1  977   1.267   3.087   6.983
   26SOL    HW2  978   1.115   3.074   0.016
   27SOL     OW  979   6.024   1.221   1.406
   27SOL    HW1  980   6.111   1.185   1.373
   27SOL    HW2  981   5.996   1.298   1.348
   28SOL     OW  982   2.716   1.047   5.568
   28SOL    HW1  983   2.675   0.997   5.644
   28SOL    HW2  984   2.773   1.121   5.603
   29SOL     OW  985   0.675   0.172   1.182
   29SOL    HW1  986   0.581   0.198   1.204
   29SOL    HW2  987   0.717   0.241   1.125
   30SOL     OW  988   4.722   0.361   4.748
   30SOL    HW1  989   4.681   0.452   4.762
   30SOL    HW2  990   4.814   0.360   4.785
   31SOL     OW  991   1.268   3.630   5.871
   31SOL    HW1  992   1.356   3.586   5.853
   31SOL    HW2  993   1.201   3.561   5.898
   32SOL     OW  994   3.096   0.553   1.241
   32SOL    HW1  995   3.069   0.459   1.260
   32SOL    HW2  996   3.116   0.563   1.143
   33SOL     OW  997   1.307   5.225   6.656
   33SOL    HW1  998   1.253   5.277   6.590
   33SOL    HW2  999   1.263   5.227   6.746
   34SOL     OW 1000   2.156   5.013   5.494
   34SOL    HW1 1001   2.196   4.956   5.565
   34SOL    HW2 1002   2.132   5.102   5.532
   35SOL     OW 1003   2.413   3.646   6.931
   35SOL    HW1 1004   2.428   3.554   6.967
   35SOL    HW2 1005   2.412   3.642   6.831
   36SOL     OW 1006   4.290   1.344   4.461
   36SOL    HW1 1007   4.382   1.349   4.499
   36SOL    HW2 1008   4.265   1.248   4.445
   37SOL     OW 1009   3.005   0.401   4.360
   37SOL    HW1 1010   2.998   0.330   4.290
   37SOL    HW2 1011   2.920   0.454   4.363
   38SOL     OW 1012   6.966   4.253   2.777
   38SOL    HW1 1013   6.989   4.186   2.847
   38SOL    HW2 1014   6.972   4.211   2.687
   39SOL     OW 1015   6.618   5.353   6.924
   39SOL    HW1 1016   6.673   5.434   6.943
   39SOL    HW2 1017   6.675   5.271   6.927
   40SOL     OW 1018   3.838   1.232   6.800
   40SOL    HW1 1019   3.792   1.273   6.879
   40SOL    HW2 1020   3.778   1.163   6.759
   41SOL     OW 1021   5.506   3.635   1.654
   41SOL    HW1 1022   5.535   3.628   1.558
   41SOL    HW2 1023   5.567   3.698   1.702
   42SOL     OW 1024   2.930   5.578   6.145
   42SOL    HW1 1025   2.833   5.586   6.171
   42SOL    HW2 1026   2.985   5.562   6.227
   43SOL     OW 1027   3.790   6.904   4.802
   43SOL    HW1 1028   3.882   6.896   4.841
   43SOL    HW2 1029   3.760   6.999   4.807
   44SOL     OW 1030   0.215   0.954   5.627
   44SOL    HW1 1031   0.262   0.970   5.714
   44SOL    HW2 1032   0.121   0.989   5.633
   45SOL     OW 1033   2.296   5.386   0.181
   45SOL    HW1 1034   2.218   5.434   0.141
   45SOL    HW2 1035   2.380   5.417   0.137
   46SOL     OW 1036   0.371   2.952   4.289
   46SOL    HW1 1037   0.350   2.921   4.196
   46SOL    HW2 1038   0.442   3.022   4.285
   47SOL     OW 1039   6.345   2.708   1.087
   47SOL    HW1 1040   6.353   2.630   1.025
   47SOL    HW2 1041   6.427   2.764   1.081
   48SOL     OW 1042   6.123   3.612   1.013
   48SOL    HW1 1043   6.094   3.705   0.990
   48SOL    HW2 1044   6.223   3.608   1.012
   49SOL     OW 1045   3.947   3.998   0.294
   49SOL    HW1 1046   4.033   4.048   0.304
   49SOL    HW2 1047   3.965   3.900   0.296
   50SOL     OW 1048   6.444   2.925   6.869
   50SOL    HW1 1049   6.390   2.876   6.937
   50SOL    HW2 1050   6.473   3.013   6.906
   51SOL     OW 1051   2.071   5.823   3.189
   51SOL    HW1 1052   2.068   5.920   3.166
   51SOL    HW2 1053   2.149   5.780   3.145
   52SOL     OW 1054   5.919   2.539   1.390
   52SOL    HW1 1055   5.839   2.594   1.366
   52SOL    HW2 1056   5.890   2.462   1.448
   53SOL     OW 1057   3.931   0.181   2.033
   53SOL    HW1 1058   4.024   0.144   2.039
   53SOL    HW2 1059   3.927   0.270   2.077
   54SOL     OW 1060   5.608   0.284   6.825
   54SOL    HW1 1061   5.683   0.259   6.886
   54SOL    HW2 1062   5.642   0.344   6.752
   55SOL     OW 1063   1.018   3.028   6.773
   55SOL    HW1 1064   0.972   3.066   6.853
   55SOL    HW2 1065   1.099   3.083   6.752
   56SOL     OW 1066   0.897   2.779   6.727
   56SOL    HW1 1067   0.958   2.851   6.761
   56SOL    HW2 1068   0.916   2.763   6.630
   57SOL     OW 1069   4.512   6.247   6.749
   57SOL    HW1 1070   4.605   6.226   6.721
   57SOL    HW2 1071   4.502   6.346   6.760
   58SOL     OW 1072   0.536   0.404   6.904
   58SOL    HW1 1073   0.511   0.443   6.816
   58SOL    HW2 1074   0.627   0.364   6.898
   59SOL     OW 1075   4.992   3.162   5.670
   59SOL    HW1 1076   4.971   3.130   5.578
   59SOL    HW2 1077   5.046   3.093   5.718
   60SOL     OW 1078   5.341   1.157   2.748
   60SOL    HW1 1079   5.315   1.183   2.841
   60SOL    HW2 1080   5.428   1.109   2.751
   61SOL     OW 1081   6.936   5.861   4.564
   61SOL    HW1 1082   6.904   5.872   4.659
   61SOL    HW2 1083   6.857   5.848   4.504
   62SOL     OW 1084   6.075   2.675   2.297
   62SOL    HW1 1085   6.097   2.766   2.262
   62SOL    HW2 1086   6.134   2.653   2.374
   63SOL     OW 1087   4.308   6.527   5.359
   63SOL    HW1 1088   4.382   6.532   5.425
   63SOL    HW2 1089   4.268   6.618   5.348
   64SOL     OW 1090   0.926   4.106   5.660
   64SOL    HW1 1091   0.902   4.045   5.735
   64SOL    HW2 1092   0.894   4.199   5.680
   65SOL     OW 1093   0.432   6.748   5.037
   65SOL    HW1 1094   0.420   6.817   4.966
   65SOL    HW2 1095   0.342   6.721   5.073
   66SOL     OW 1096   3.849   0.813   2.076
   66SOL    HW1 1097   3.763   0.827   2.027
   66SOL    HW2 1098   3.902   0.897   2.076
   67SOL     OW 1099   0.176   2.970   1.583
   67SOL    HW1 1100   0.178   3.067   1.605
   67SOL    HW2 1101   0.211   2.956   1.490
   68SOL     OW 1102   0.287   1.992   5.431
   68SOL    HW1 1103   0.357   1.927   5.460
   68SOL    HW2 1104   0.199   1.965   5.469
   69SOL     OW 1105   0.769   6.107   6.451
   69SOL    HW1 1106   0.839   6.109   6.381
   69SOL    HW2 1107   0.805   6.143   6.537
   70SOL     OW 1108   5.166   3.650   4.571
   70SOL    HW1 1109   5.216   3.630   4.486
   70SOL    HW2 1110   5.068   3.639   4.555
   71SOL     OW 1111   5.000   2.011   5.150
   71SOL    HW1 1112   5.063   1.966   5.214
   71SOL    HW2 1113   5.050   2.040   5.069
   72SOL     OW 1114   6.951   0.439   3.766
   72SOL    HW1 1115   6.915   0.366   3.825
   72SOL    HW2 1116   6.998   0.398   3.689
   73SOL     OW 1117   3.111   0.999   0.869
   73SOL    HW1 1118   3.121   0.939   0.790
   73SOL    HW2 1119   3.041   1.067   0.850
   74SOL     OW 1120   2.616   1.971   0.991
   74SOL    HW1 1121   2.630   1.890   1.048
   74SOL    HW2 1122   2.702   2.023   0.985
   75SOL     OW 1123   3.576   3.587   0.722
   75SOL    HW1 1124   3.607   3.595   0.817
   75SOL    HW2 1125   3.478   3.604   0.718
   76SOL     OW 1126   3.499   4.792   5.317
   76SOL    HW1 1127   3.459   4.838   5.396
   76SOL    HW2 1128   3.448   4.817   5.235
   77SOL     OW 1129   0.310   4.913   4.623
   77SOL    HW1 1130   0.403   4.913   4.660
   77SOL    HW2 1131   0.260   4.992   4.660
   78SOL     OW 1132   4.658   1.599   1.163
   78SOL    HW1 1133   4.654   1.503   1.135
   78SOL    HW2 1134   4.637   1.657   1.084
   79SOL     OW 1135   1.243   4.622   3.188
   79SOL    HW1 1136   1.240   4.530   3.149
   79SOL    HW2 1137   1.156   4.669   3.171
   80SOL     OW 1138   3.810   0.722   5.104
   80SOL    HW1 1139   3.745   0.792   5.075
   80SOL    HW2 1140   3.885   0.717   5.037
   81SOL     OW 1141   4.406   5.839   1.649
   81SOL    HW1 1142   4.373   5.757   1.602
   81SOL    HW2 1143   4.429   5.909   1.581
   82SOL     OW 1144   2.944   6.318   2.140
   82SOL    HW1 1145   2.930   6.219   2.147
   82SOL    HW2 1146   3.023   6.344   2.196
   83SOL     OW 1147   5.392   0.988   4.625
   83SOL    HW1 1148   5.441   0.992   4.713
   83SOL    HW2 1149   5.370   1.080   4.595
   84SOL     OW 1150   5.017   2.671   2.204
   84SOL    HW1 1151   5.034   2.599   2.136
   84SOL    HW2 1152   4.930   2.716   2.183
   85SOL     OW 1153   2.328   6.767   4.257
   85SOL    HW1 1154   2.311   6.858   4.293
   85SOL    HW2 1155   2.350   6.705   4.332
   86SOL     OW 1156   6.277   0.455   0.138
   86SOL    HW1 1157   6.361   0.470   0.191
   86SOL    HW2 1158   6.240   0.543   0.109
   87SOL     OW 1159   2.263   4.338   6.454
   87SOL    HW1 1160   2.277   4.256   6.399
   87SOL    HW2 1161   2.351   4.368   6.492
   88SOL     OW 1162   3.667   3.981   0.665
   88SOL    HW1 1163   3.673   4.054   0.733
   88SOL    HW2 1164   3.581   3.931   0.678
   89SOL     OW 1165   3.270   3.969   4.035
   89SOL    HW1 1166   3.211   3.968   4.116
   89SOL    HW2 1167   3.346   4.031   4.049
   90SOL     OW 1168   4.941   3.676   2.293
   90SOL    HW1 1169   4.968   3.594   2.244
   90SOL    HW2 1170   4.893   3.738   2.231
   91SOL     OW 1171   4.419   5.596   5.468
   91SOL    HW1 1172   4.337   5.539   5.456
   91SOL    HW2 1173   4.455   5.620   5.378
   92SOL     OW 1174   5.314   3.466   6.213
   92SOL    HW1 1175   5.292   3.370   6.228
   92SOL    HW2 1176   5.229   3.520   6.212
   93SOL     OW 1177   2.908   3.192   2.180
   93SOL    HW1 1178   2.870   3.244   2.257
   93SOL    HW2 1179   2.984   3.136   2.212
   94SOL     OW 1180   3.066   1.592   4.974
   94SOL    HW1 1181   3.027   1.674   4.932
   94SOL    HW2 1182   3.023   1.511   4.936
   95SOL     OW 1183   0.834   0.435   4.103
   95SOL    HW1 1184   0.888   0.424   4.187
   95SOL    HW2 1185   0.738   0.412   4.122
   96SOL     OW 1186   6.274   4.839   0.211
   96SOL    HW1 1187   6.279   4.904   0.136
   96SOL    HW2 1188   6.326   4.757   0.188
   97SOL     OW 1189   1.841   4.733   5.962
   97SOL    HW1 1190   1.814   4.793   5.887
   97SOL    HW2 1191   1.936   4.750   5.986
   98SOL     OW 1192   1.929   2.108   3.412
   98SOL    HW1 1193   1.947   2.013   3.385
   98SOL    HW2 1194   1.847   2.111   3.469
   99SOL     OW 1195   3.827   3.511   4.984
   99SOL    HW1 1196   3.818   3.578   5.058
   99SOL    HW2 1197   3.922   3.511   4.951
  100SOL     OW 1198   6.661   1.523   4.702
  100SOL    HW1 1199   6.704   1.433   4.696
  100SOL    HW2 1200   6.703   1.584   4.635
  101SOL     OW 1201   6.369   3.559   2.719
  101SOL    HW1 1202   6.408   3.547   2.628
  101SOL    HW2 1203   6.377   3.655   2.746
  102SOL     OW 1204   4.642   6.544   0.221
  102SOL    HW1 1205   4.630   6.497   0.133
  102SOL    HW2 1206   4.650   6.642   0.205
  103SOL     OW 1207   3.608   0.973   2.064
  103SOL    HW1 1208   3.635   0.938   1.974
  103SOL    HW2 1209   3.509   0.988   2.066
  104SOL     OW 1210   6.523   4.717   2.292
  104SOL    HW1 1211   6.476   4.673   2.369
  104SOL    HW2 1212   6.586   4.651   2.250
  105SOL     OW 1213   6.436   1.154   5.284
  105SOL    HW1 1214   6.388   1.066   5.276
  105SOL    HW2 1215   6.457   1.188   5.192
  106SOL     OW 1216   5.039   4.909   1.608
  106SOL    HW1 1217   5.052   4.811   1.591
  106SOL    HW2 1218   4.981   4.921   1.689
  107SOL     OW 1219   5.700   6.867   1.050
  107SOL    HW1 1220   5.636   6.930   1.094
  107SOL    HW2 1221   5.785   6.916   1.028
  108SOL     OW 1222   2.697   1.583   4.113
  108SOL    HW1 1223   2.792   1.611   4.126
  108SOL    HW2 1224   2.666   1.610   4.022
  109SOL     OW 1225   2.035   0.914   4.508
  109SOL    HW1 1226   2.054   0.817   4.521
  109SOL    HW2 1227   1.961   0.942   4.570
  110SOL     OW 1228   3.599   4.306   5.832
  110SOL    HW1 1229   3.518   4.268   5.878
  110SOL    HW2 1230   3.679   4.295   5.891
  111SOL     OW 1231   6.166   2.255   1.301
  111SOL    HW1 1232   6.074   2.216   1.310
  111SOL    HW2 1233   6.228   2.209   1.364
  112SOL     OW 1234   4.968   6.430   6.592
  112SOL    HW1 1235   4.916   6.488   6.530
  112SOL    HW2 1236   5.053   6.400   6.547
  113SOL     OW 1237   0.427   6.132   2.038
  113SOL    HW1 1238   0.435   6.183   1.953
  113SOL    HW2 1239   0.519   6.110   2.072
  114SOL     OW 1240   0.117   3.050   2.688
  114SOL    HW1 1241   0.083   2.991   2.615
  114SOL    HW2 1242   0.045   3.113   2.716
  115SOL     OW 1243   5.465   0.548   3.528
  115SOL    HW1 1244   5.513   0.634   3.510
  115SOL    HW2 1245   5.420   0.553   3.617
  116SOL     OW 1246   0.343   5.290   0.259
  116SOL    HW1 1247   0.294   5.365   0.216
  116SOL    HW2 1248   0.289   5.206   0.251
  117SOL     OW 1249   2.336   1.946   0.615
  117SOL    HW1 1250   2.239   1.945   0.639
  117SOL    HW2 1251   2.386   2.004   0.680
  118SOL     OW 1252   0.462   1.882   3.321
  118SOL    HW1 1253   0.471   1.786   3.348
  118SOL    HW2 1254   0.480   1.940   3.400
  119SOL     OW 1255   6.101   6.966   6.075
  119SOL    HW1 1256   6.126   0.035   6.053
  119SOL    HW2 1257   6.184   6.911   6.083
  120SOL     OW 1258   5.175   2.687   4.836
  120SOL    HW1 1259   5.093   2.701   4.780
  120SOL    HW2 1260   5.164   2.732   4.924
  121SOL     OW 1261   1.113   4.914   6.953
  121SOL    HW1 1262   1.192   4.852   6.956
  121SOL    HW2 1263   1.040   4.877   7.011
  122SOL     OW 1264   0.087   4.310   6.497
  122SOL    HW1 1265   7.016   4.335   6.503
  122SOL    HW2 1266   0.105   4.235   6.561
  123SOL     OW 1267   0.995   1.975   1.980
  123SOL    HW1 1268   1.023   2.069   1.957
  123SOL    HW2 1269   0.975   1.925   1.895
  124SOL     OW 1270   2.106   2.868   0.324
  124SOL    HW1 1271   2.031   2.890   0.262
  124SOL    HW2 1272   2.083   2.899   0.416
  125SOL     OW 1273   4.389   3.449   0.557
  125SOL    HW1 1274   4.368   3.495   0.643
  125SOL    HW2 1275   4.442   3.366   0.576
  126SOL     OW 1276   4.013   3.823   4.461
  126SOL    HW1 1277   3.970   3.913   4.465
  126SOL    HW2 1278   4.025   3.796   4.366
  127SOL     OW 1279   0.665   5.468   5.731
  127SOL    HW1 1280   0.566   5.481   5.734
  127SOL    HW2 1281   0.703   5.519   5.653
  128SOL     OW 1282   4.103   3.202   6.927
  128SOL    HW1 1283   4.018   3.201   6.874
  128SOL    HW2 1284   4.086   3.168   7.019
  129SOL     OW 1285   1.269   5.269   1.796
  129SOL    HW1 1286   1.222   5.321   1.725
  129SOL    HW2 1287   1.349   5.320   1.828
  130SOL     OW 1288   6.394   2.873   4.366
  130SOL    HW1 1289   6.473   2.866   4.304
  130SOL    HW2 1290   6.413   2.942   4.435
  131SOL     OW 1291   0.229   2.282   3.383
  131SOL    HW1 1292   0.174   2.306   3.464
  131SOL    HW2 1293   0.326   2.295   3.404
  132SOL     OW 1294   3.936   3.160   1.947
  132SOL    HW1 1295   3.867   3.216   1.901
  132SOL    HW2 1296   3.913   3.064   1.936
  133SOL     OW 1297   5.367   6.414   6.079
  133SOL    HW1 1298   5.418   6.487   6.033
  133SOL    HW2 1299   5.371   6.330   6.025
  134SOL     OW 1300   5.490   1.560   1.479
  134SOL    HW1 1301   5.575   1.552   1.531
  134SOL    HW2 1302   5.463   1.656   1.474
  135SOL     OW 1303   5.017   2.799   3.764
  135SOL    HW1 1304   4.979   2.884   3.728
  135SOL    HW2 1305   5.102   2.778   3.716
  136SOL     OW 1306   3.410   0.154   6.712
  136SOL    HW1 1307   3.318   0.168   6.675
  136SOL    HW2 1308   3.466   0.106   6.645
  137SOL     OW 1309   2.969   3.541   5.827
  137SOL    HW1 1310   2.915   3.458   5.823
  137SOL    HW2 1311   3.066   3.518   5.834
  138SOL     OW 1312   0.997   5.059   6.311
  138SOL    HW1 1313   0.930   5.012   6.369
  138SOL    HW2 1314   1.085   5.012   6.316
  139SOL     OW 1315   1.868   6.410   1.061
  139SOL    HW1 1316   1.907   6.342   1.124
  139SOL    HW2 1317   1.770   6.418   1.077
  140SOL     OW 1318   3.171   0.555   0.971
  140SOL    HW1 1319   3.203   0.648   0.988
  140SOL    HW2 1320   3.247   0.499   0.938
  141SOL     OW 1321   0.126   2.600   0.420
  141SOL    HW1 1322   0.188   2.521   0.426
  141SOL    HW2 1323   0.152   2.669   0.487
  142SOL     OW 1324   1.291   4.206   1.918
  142SOL    HW1 1325   1.256   4.192   1.825
  142SOL    HW2 1326   1.282   4.303   1.943
  143SOL     OW 1327   4.864   6.224   2.029
  143SOL    HW1 1328   4.933   6.194   1.964
  143SOL    HW2 1329   4.828   6.146   2.080
  144SOL     OW 1330   3.456   5.025   3.743
  144SOL    HW1 1331   3.537   4.966   3.749
  144SOL    HW2 1332   3.417   5.017   3.651
  145SOL     OW 1333   6.778   4.931   3.212
  145SOL    HW1 1334   6.823   4.890   3.291
  145SOL    HW2 1335   6.770   4.863   3.139
  146SOL     OW 1336   5.670   0.949   6.178
  146SOL    HW1 1337   5.687   0.968   6.081
  146SOL    HW2 1338   5.756   0.927   6.223
  147SOL     OW 1339   5.040   1.051   4.739
  147SOL    HW1 1340   5.033   1.061   4.838
  147SOL    HW2 1341   4.987   0.972   4.709
  148SOL     OW 1342   0.740   5.559   0.826
  148SOL    HW1 1343   0.779   5.539   0.737
  148SOL    HW2 1344   0.658   5.616   0.815
  149SOL     OW 1345   1.879   2.207   5.149
  149SOL    HW1 1346   1.878   2.299   5.110
  149SOL    HW2 1347   1.956   2.198   5.212
  150SOL     OW 1348   4.395   1.240   4.907
  150SOL    HW1 1349   4.367   1.145   4.915
  150SOL    HW2 1350   4.331   1.289   4.848
  151SOL     OW 1351   4.215   2.999   1.016
  151SOL    HW1 1352   4.149   2.984   0.943
  151SOL    HW2 1353   4.177   3.064   1.082
  152SOL     OW 1354   0.341   2.467   0.853
  152SOL    HW1 1355   0.391   2.432   0.932
  152SOL    HW2 1356   0.253   2.421   0.846
  153SOL     OW 1357   2.750   1.188   3.498
  153SOL    HW1 1358   2.730   1.267   3.440
  153SOL    HW2 1359   2.665   1.148   3.530
  154SOL     OW 1360   6.425   1.495   2.781
  154SOL    HW1 1361   6.515   1.536   2.766
  154SOL    HW2 1362   6.366   1.560   2.829
  155SOL     OW 1363   0.598   6.841   2.096
  155SOL    HW1 1364   0.550   6.898   2.162
  155SOL    HW2 1365   0.669   6.895   2.050
  156SOL     OW 1366   4.968   2.488   0.348
  156SOL    HW1 1367   4.953   2.584   0.372
  156SOL    HW2 1368   5.062   2.463   0.371
  157SOL     OW 1369   3.404   5.370   0.408
  157SOL    HW1 1370   3.502   5.385   0.421
  157SOL    HW2 1371   3.377   5.282   0.448
  158SOL     OW 1372   0.180   2.721   3.513
  158SOL    HW1 1373   0.198   2.645   3.450
  158SOL    HW2 1374   0.177   2.686   3.606
  159SOL     OW 1375   5.977   5.087   0.524
  159SOL    HW1 1376   5.956   5.043   0.437
  159SOL    HW2 1377   5.996   5.018   0.593
  160SOL     OW 1378   6.438   0.075   2.315
  160SOL    HW1 1379   6.487   0.129   2.247
  160SOL    HW2 1380   6.410   7.013   2.276
  161SOL     OW 1381   0.507   5.973   0.684
  161SOL    HW1 1382   0.607   5.967   0.679
  161SOL    HW2 1383   0.472   6.010   0.598
  162SOL     OW 1384   4.342   6.535   6.949
  162SOL    HW1 1385   4.352   6.439   6.977
  162SOL    HW2 1386   4.433   6.575   6.934
  163SOL     OW 1387   0.297   4.457   3.107
  163SOL    HW1 1388   0.325   4.541   3.060
  163SOL    HW2 1389   0.344   4.379   3.065
  164SOL     OW 1390   2.940   2.026   3.829
  164SOL    HW1 1391   3.023   2.075   3.804
  164SOL    HW2 1392   2.860   2.081   3.806
  165SOL     OW 1393   0.372   6.042   3.125
  165SOL    HW1 1394   0.329   5.955   3.150
  165SOL    HW2 1395   0.403   6.089   3.207
  166SOL     OW 1396   6.436   4.365   3.523
  166SOL    HW1 1397   6.406   4.315   3.604
  166SOL    HW2 1398   6.365   4.359   3.453
  167SOL     OW 1399   2.845   2.081   6.920
  167SOL    HW1 1400   2.931   2.131   6.934
  167SOL    HW2 1401   2.778   2.143   6.879
  168SOL     OW 1402   5.031   3.947   1.248
  168SOL    HW1 1403   5.080   3.910   1.327
  168SOL    HW2 1404   4.956   3.886   1.224
  169SOL     OW 1405   4.816   1.905   1.023
  169SOL    HW1 1406   4.827   1.998   1.059
  169SOL    HW2 1407   4.826   1.840   1.098
  170SOL     OW 1408   0.180   5.929   2.371
  170SOL    HW1 1409   0.171   6.008   2.311
  170SOL    HW2 1410   0.093   5.912   2.418
  171SOL     OW 1411   3.711   3.937   0.380
  171SOL    HW1 1412   3.692   3.985   0.466
  171SOL    HW2 1413   3.801   3.963   0.345
  172SOL     OW 1414   0.019   2.320   6.439
  172SOL    HW1 1415   0.087   2.249   6.458
  172SOL    HW2 1416   6.975   2.320   6.511
  173SOL     OW 1417   6.973   1.794   4.310
  173SOL    HW1 1418   6.977   1.843   4.397
  173SOL    HW2 1419   6.901   1.725   4.314
  174SOL     OW 1420   5.886   5.490   5.227
  174SOL    HW1 1421   5.924   5.560   5.166
  174SOL    HW2 1422   5.799   5.458   5.190
  175SOL     OW 1423   0.364   6.960   1.544
  175SOL    HW1 1424   0.379   6.861   1.545
  175SOL    HW2 1425   0.266   6.978   1.544
  176SOL     OW 1426   5.990   4.427   1.364
  176SOL    HW1 1427   5.900   4.402   1.329
  176SOL    HW2 1428   6.014   4.519   1.333
  177SOL     OW 1429   6.020   2.983   4.367
  177SOL    HW1 1430   5.943   2.923   4.389
  177SOL    HW2 1431   5.986   3.070   4.331
  178SOL     OW 1432   2.245   6.230   5.848
  178SOL    HW1 1433   2.212   6.320   5.877
  178SOL    HW2 1434   2.180   6.190   5.784
  179SOL     OW 1435   3.264   4.580   1.206
  179SOL    HW1 1436   3.210   4.643   1.262
  179SOL    HW2 1437   3.202   4.521   1.154
  180SOL     OW 1438   3.551   1.041   0.270
  180SOL    HW1 1439   3.560   1.134   0.235
  180SOL    HW2 1440   3.455   1.023   0.292
  181SOL     OW 1441   3.337   2.264   5.783
  181SOL    HW1 1442   3.338   2.164   5.792
  181SOL    HW2 1443   3.425   2.294   5.745
  182SOL     OW 1444   4.219   2.918   6.946
  182SOL    HW1 1445   4.269   2.989   6.897
  182SOL    HW2 1446   4.277   2.838   6.958
  183SOL     OW 1447   3.327   1.546   3.265
  183SOL    HW1 1448   3.421   1.564   3.294
  183SOL    HW2 1449   3.265   1.555   3.344
  184SOL     OW 1450   5.298   6.067   3.414
  184SOL    HW1 1451   5.251   5.989   3.456
  184SOL    HW2 1452   5.231   6.129   3.374
  185SOL     OW 1453   6.861   0.658   3.886
  185SOL    HW1 1454   6.916   0.578   3.859
  185SOL    HW2 1455   6.767   0.628   3.904
  186SOL     OW 1456   4.617   6.664   3.994
  186SOL    HW1 1457   4.685   6.697   4.060
  186SOL    HW2 1458   4.526   6.693   4.022
  187SOL     OW 1459   4.099   6.426   1.966
  187SOL    HW1 1460   4.022   6.426   1.902
  187SOL    HW2 1461   4.118   6.520   1.996
  188SOL     OW 1462   1.440   3.356   3.296
  188SOL    HW1 1463   1.475   3.449   3.286
  188SOL    HW2 1464   1.469   3.319   3.384
  189SOL     OW 1465   5.981   5.109   6.053
  189SOL    HW1 1466   5.991   5.184   6.119
  189SOL    HW2 1467   6.009   5.141   5.962
  190SOL     OW 1468   5.975   0.708   0.062
  190SOL    HW1 1469   6.020   0.775   0.121
  190SOL    HW2 1470   5.964   0.622   0.111
  191SOL     OW 1471   0.095   1.243   4.947
  191SOL    HW1 1472   0.102   1.342   4.960
  191SOL    HW2 1473   0.110   1.196   5.034
  192SOL     OW 1474   0.536   5.057   0.747
  192SOL    HW1 1475   0.607   5.127   0.745
  192SOL    HW2 1476   0.449   5.097   0.716
  193SOL     OW 1477   2.665   6.306   0.130
  193SOL    HW1 1478   2.593   6.353   0.182
  193SOL    HW2 1479   2.623   6.238   0.069
  194SOL     OW 1480   4.172   6.484   2.397
  194SOL    HW1 1481   4.261   6.502   2.439
  194SOL    HW2 1482   4.185   6.427   2.316
  195SOL     OW 1483   3.532   0.880   0.742
  195SOL    HW1 1484   3.451   0.828   0.716
  195SOL    HW2 1485   3.504   0.962   0.791
  196SOL     OW 1486   3.129   2.015   0.366
  196SOL    HW1 1487   3.059   2.026   0.296
  196SOL    HW2 1488   3.089   1.978   0.449
  197SOL     OW 1489   2.592   6.627   0.633
  197SOL    HW1 1490   2.538   6.680   0.699
  197SOL    HW2 1491   2.687   6.624   0.663
  198SOL     OW 1492   4.239   0.678   6.497
  198SOL    HW1 1493   4.230   0.604   6.564
  198SOL    HW2 1494   4.244   0.766   6.546
  199SOL     OW 1495   0.341   0.129   3.268
  199SOL    HW1 1496   0.265   0.080   3.312
  199SOL    HW2 1497   0.372   0.078   3.188
  200SOL     OW 1498   0.445   4.070   3.370
  200SOL    HW1 1499   0.466   4.165   3.350
  200SOL    HW2 1500   0.443   4.017   3.284
  201SOL     OW 1501   4.266   1.642   6.377
  201SOL    HW1 1502   4.358   1.606   6.369
  201SOL    HW2 1503   4.262   1.734   6.337
  202SOL     OW 1504   3.393   0.080   2.969
  202SOL    HW1 1505   3.422   0.169   2.931
  202SOL    HW2 1506   3.471   0.037   3.015
  203SOL     OW 1507   5.421   2.769   6.600
  203SOL    HW1 1508   5.518   2.792   6.597
  203SOL    HW2 1509   5.383   2.797   6.688
  204SOL     OW 1510   2.369   6.547   0.988
  204SOL    HW1 1511   2.343   6.521   1.081
  204SOL    HW2 1512   2.468   6.539   0.978
  205SOL     OW 1513   6.078   1.175   0.413
  205SOL    HW1 1514   6.027   1.142   0.493
  205SOL    HW2 1515   6.053   1.120   0.333
  206SOL     OW 1516   1.305   4.486   1.673
  206SOL    HW1 1517   1.355   4.468   1.758
  206SOL    HW2 1518   1.247   4.566   1.685
  207SOL     OW 1519   5.003   0.660   5.435
  207SOL    HW1 1520   4.939   0.729   5.401
  207SOL    HW2 1521   4.954   0.597   5.495
  208SOL     OW 1522   3.788   4.825   6.291
  208SOL    HW1 1523   3.721   4.790   6.226
  208SOL    HW2 1524   3.843   4.749   6.326
  209SOL     OW 1525   6.695   5.862   5.524
  209SOL    HW1 1526   6.713   5.949   5.570
  209SOL    HW2 1527   6.750   5.790   5.565
  210SOL     OW 1528   4.006   2.352   1.720
  210SOL    HW1 1529   4.012   2.390   1.628
  210SOL    HW2 1530   3.949   2.270   1.719
  211SOL     OW 1531   1.898   2.106   1.545
  211SOL    HW1 1532   1.802   2.085   1.563
  211SOL    HW2 1533   1.921   2.195   1.585
  212SOL     OW 1534   0.743   5.581   3.596
  212SOL    HW1 1535   0.675   5.511   3.616
  212SOL    HW2 1536   0.833   5.537   3.584
  213SOL     OW 1537   4.485   2.643   0.246
  213SOL    HW1 1538   4.542   2.630   0.165
  213SOL    HW2 1539   4.538   2.620   0.328
  214SOL     OW 1540   1.624   0.263   2.738
  214SOL    HW1 1541   1.696   0.217   2.686
  214SOL    HW2 1542   1.565   0.314   2.675
  215SOL     OW 1543   3.283   3.146   2.588
  215SOL    HW1 1544   3.329   3.153   2.499
  215SOL    HW2 1545   3.322   3.213   2.651
  216SOL     OW 1546   0.582   6.450   5.885
  216SOL    HW1 1547   0.565   6.432   5.788
  216SOL    HW2 1548   0.660   6.511   5.895
  217SOL     OW 1549   1.025   2.846   3.245
  217SOL    HW1 1550   0.970   2.784   3.302
  217SOL    HW2 1551   1.090   2.895   3.304
  218SOL     OW 1552   1.076   4.280   5.442
  218SOL    HW1 1553   1.081   4.278   5.342
  218SOL    HW2 1554   1.082   4.187   5.477
  219SOL     OW 1555   4.909   4.728   0.011
  219SOL    HW1 1556   4.934   4.765   6.947
  219SOL    HW2 1557   4.956   4.780   0.083
  220SOL     OW 1558   3.384   4.976   0.737
  220SOL    HW1 1559   3.358   5.000   0.830
  220SOL    HW2 1560   3.310   4.925   0.693
  221SOL     OW 1561   6.052   2.169   4.467
  221SOL    HW1 1562   6.106   2.093   4.432
  221SOL    HW2 1563   6.009   2.217   4.390
  222SOL     OW 1564   1.369   6.588   5.091
  222SOL    HW1 1565   1.291   6.525   5.097
  222SOL    HW2 1566   1.377   6.639   5.176
  223SOL     OW 1567   6.434   3.613   1.245
  223SOL    HW1 1568   6.370   3.689   1.253
  223SOL    HW2 1569   6.385   3.527   1.263
  224SOL     OW 1570   2.979   2.293   1.727
  224SOL    HW1 1571   2.936   2.340   1.803
  224SOL    HW2 1572   2.935   2.320   1.641
  225SOL     OW 1573   6.482   0.328   6.858
  225SOL    HW1 1574   6.477   0.303   6.761
  225SOL    HW2 1575   6.467   0.426   6.867
  226SOL     OW 1576   6.422   5.413   1.036
  226SOL    HW1 1577   6.474   5.403   1.121
  226SOL    HW2 1578   6.367   5.496   1.040
  227SOL     OW 1579   1.519   2.859   4.010
  227SOL    HW1 1580   1.586   2.895   4.075
  227SOL    HW2 1581   1.542   2.764   3.987
  228SOL     OW 1582   3.945   0.224   3.377
  228SOL    HW1 1583   3.896   0.144   3.342
  228SOL    HW2 1584   3.932   0.231   3.476
  229SOL     OW 1585   5.606   5.346   2.699
  229SOL    HW1 1586   5.516   5.387   2.715
  229SOL    HW2 1587   5.661   5.406   2.642
  230SOL     OW 1588   1.558   4.411   5.525
  230SOL    HW1 1589   1.579   4.508   5.520
  230SOL    HW2 1590   1.461   4.399   5.549
  231SOL     OW 1591   0.892   2.061   6.904
  231SOL    HW1 1592   0.894   2.123   6.826
  231SOL    HW2 1593   0.798   2.027   6.917
  232SOL     OW 1594   1.861   5.147   6.594
  232SOL    HW1 1595   1.955   5.117   6.579
  232SOL    HW2 1596   1.808   5.071   6.631
  233SOL     OW 1597   2.580   1.278   6.325
  233SOL    HW1 1598   2.503   1.293   6.263
  233SOL    HW2 1599   2.635   1.361   6.331
  234SOL     OW 1600   2.924   5.925   0.160
  234SOL    HW1 1601   2.843   5.898   0.108
  234SOL    HW2 1602   3.007   5.894   0.113
  235SOL     OW 1603   3.170   3.317   5.026
  235SOL    HW1 1604   3.127   3.279   5.107
  235SOL    HW2 1605   3.120   3.288   4.945
  236SOL     OW 1606   0.153   2.437   5.351
  236SOL    HW1 1607   0.235   2.493   5.339
  236SOL    HW2 1608   0.160   2.384   5.436
  237SOL     OW 1609   0.277   0.075   1.280
  237SOL    HW1 1610   0.334   0.037   1.353
  237SOL    HW2 1611   0.307   0.038   1.192
  238SOL     OW 1612   5.715   2.556   2.419
  238SOL    HW1 1613   5.797   2.514   2.458
  238SOL    HW2 1614   5.690   2.509   2.334
  239SOL     OW 1615   0.262   5.757   0.175
  239SOL    HW1 1616   0.362   5.758   0.171
  239SOL    HW2 1617   0.233   5.732   0.268
  240SOL     OW 1618   6.883   3.526   5.838
  240SOL    HW1 1619   6.903   3.552   5.743
  240SOL    HW2 1620   6.785   3.510   5.848
  241SOL     OW 1621   0.579   0.874   3.016
  241SOL    HW1 1622   0.534   0.963   3.006
  241SOL    HW2 1623   0.678   0.886   3.010
  242SOL     OW 1624   1.723   3.375   3.813
  242SOL    HW1 1625   1.819   3.356   3.835
  242SOL    HW2 1626   1.673   3.289   3.804
  243SOL     OW 1627   4.981   0.377   4.917
  243SOL    HW1 1628   4.924   0.414   4.991
  243SOL    HW2 1629   5.029   0.295   4.950
  244SOL     OW 1630   6.573   1.521   5.514
  244SOL    HW1 1631   6.618   1.496   5.428
  244SOL    HW2 1632   6.478   1.490   5.513
  245SOL     OW 1633   6.251   1.532   3.586
  245SOL    HW1 1634   6.328   1.542   3.649
  245SOL    HW2 1635   6.243   1.437   3.557
  246SOL     OW 1636   5.046   3.518   2.973
  246SOL    HW1 1637   5.124   3.564   2.930
  246SOL    HW2 1638   5.020   3.567   3.056
  247SOL     OW 1639   2.964   1.304   3.143
  247SOL    HW1 1640   2.907   1.242   3.089
  247SOL    HW2 1641   2.906   1.363   3.198
  248SOL     OW 1642   6.064   1.213   2.824
  248SOL    HW1 1643   6.137   1.161   2.868
  248SOL    HW2 1644   6.088   1.311   2.824
  249SOL     OW 1645   3.395   0.175   3.773
  249SOL    HW1 1646   3.301   0.149   3.796
  249SOL    HW2 1647   3.433   0.108   3.709
  250SOL     OW 1648   4.715   3.104   5.811
  250SOL    HW1 1649   4.692   3.180   5.750
  250SOL    HW2 1650   4.760   3.032   5.758
  251SOL     OW 1651   2.713   2.639   0.961
  251SOL    HW1 1652   2.809   2.666   0.956
  251SOL    HW2 1653   2.698   2.555   0.909
  252SOL     OW 1654   0.395   1.218   5.881
  252SOL    HW1 1655   0.327   1.147   5.899
  252SOL    HW2 1656   0.445   1.238   5.965
  253SOL     OW 1657   2.670   4.036   5.940
  253SOL    HW1 1658   2.702   3.955   5.890
  253SOL    HW2 1659   2.671   4.017   6.038
  254SOL     OW 1660   5.931   3.445   4.972
  254SOL    HW1 1661   5.832   3.456   4.977
  254SOL    HW2 1662   5.954   3.348   4.971
  255SOL     OW 1663   3.632   2.064   4.029
  255SOL    HW1 1664   3.721   2.044   3.988
  255SOL    HW2 1665   3.629   2.029   4.123
  256SOL     OW 1666   6.630   5.992   6.749
  256SOL    HW1 1667   6.560   5.926   6.778
  256SOL    HW2 1668   6.717   5.945   6.734
  257SOL     OW 1669   3.125   5.622   5.956
  257SOL    HW1 1670   3.065   5.621   6.036
  257SOL    HW2 1671   3.115   5.537   5.905
  258SOL     OW 1672   5.335   4.339   4.311
  258SOL    HW1 1673   5.287   4.324   4.397
  258SOL    HW2 1674   5.298   4.420   4.265
  259SOL     OW 1675   1.146   2.342   3.137
  259SOL    HW1 1676   1.186   2.417   3.189
  259SOL    HW2 1677   1.092   2.380   3.061
  260SOL     OW 1678   6.464   0.037   6.154
  260SOL    HW1 1679   6.430   6.971   6.135
  260SOL    HW2 1680   6.424   0.102   6.089
  261SOL     OW 1681   1.115   2.232   2.633
  261SOL    HW1 1682   1.123   2.251   2.535
  261SOL    HW2 1683   1.118   2.133   2.648
  262SOL     OW 1684   1.118   5.224   2.045
  262SOL    HW1 1685   1.158   5.249   1.957
  262SOL    HW2 1686   1.140   5.294   2.112
  263SOL     OW 1687   1.251   2.169   4.327
  263SOL    HW1 1688   1.294   2.215   4.404
  263SOL    HW2 1689   1.303   2.088   4.303
  264SOL     OW 1690   2.968   5.043   6.585
  264SOL    HW1 1691   3.059   5.002   6.577
  264SOL    HW2 1692   2.954   5.108   6.511
  265SOL     OW 1693   5.400   4.687   5.277
  265SOL    HW1 1694   5.390   4.605   5.333
  265SOL    HW2 1695   5.414   4.661   5.182
  266SOL     OW 1696   3.952   2.170   0.411
  266SOL    HW1 1697   3.995   2.202   0.326
  266SOL    HW2 1698   3.959   2.242   0.481
  267SOL     OW 1699   1.107   1.795   5.486
  267SOL    HW1 1700   1.168   1.733   5.534
  267SOL    HW2 1701   1.158   1.875   5.454
  268SOL     OW 1702   3.744   5.252   4.336
  268SOL    HW1 1703   3.689   5.317   4.283
  268SOL    HW2 1704   3.830   5.296   4.364
  269SOL     OW 1705   1.219   0.903   5.974
  269SOL    HW1 1706   1.128   0.929   6.005
  269SOL    HW2 1707   1.280   0.982   5.979
  270SOL     OW 1708   5.048   1.329   3.956
  270SOL    HW1 1709   5.099   1.393   4.012
  270SOL    HW2 1710   4.997   1.266   4.014
  271SOL     OW 1711   1.548   0.799   6.949
  271SOL    HW1 1712   1.533   0.709   6.991
  271SOL    HW2 1713   1.461   0.834   6.913
  272SOL     OW 1714   4.047   5.800   3.136
  272SOL    HW1 1715   4.030   5.817   3.039
  272SOL    HW2 1716   4.114   5.866   3.171
  273SOL     OW 1717   2.606   6.999   5.245
  273SOL    HW1 1718   2.678   6.938   5.278
  273SOL    HW2 1719   2.520   6.976   5.290
  274SOL     OW 1720   5.920   2.168   1.347
  274SOL    HW1 1721   5.839   2.206   1.304
  274SOL    HW2 1722   5.920   2.068   1.336
  275SOL     OW 1723   5.971   5.935   5.073
  275SOL    HW1 1724   5.905   5.952   5.145
  275SOL    HW2 1725   6.051   5.994   5.087
  276SOL     OW 1726   6.368   6.405   3.647
  276SOL    HW1 1727   6.348   6.401   3.549
  276SOL    HW2 1728   6.289   6.372   3.699
  277SOL     OW 1729   5.005   1.319   5.333
  277SOL    HW1 1730   4.930   1.263   5.299
  277SOL    HW2 1731   4.981   1.416   5.325
  278SOL     OW 1732   6.242   2.952   2.875
  278SOL    HW1 1733   6.194   2.906   2.950
  278SOL    HW2 1734   6.287   3.034   2.911
  279SOL     OW 1735   0.224   3.237   4.605
  279SOL    HW1 1736   0.282   3.245   4.686
  279SOL    HW2 1737   0.128   3.240   4.631
  280SOL     OW 1738   3.117   1.170   2.942
  280SOL    HW1 1739   3.209   1.150   2.908
  280SOL    HW2 1740   3.123   1.197   3.038
  281SOL     OW 1741   5.353   5.683   3.727
  281SOL    HW1 1742   5.313   5.695   3.818
  281SOL    HW2 1743   5.296   5.621   3.673
  282SOL     OW 1744   2.747   1.648   0.595
  282SOL    HW1 1745   2.647   1.645   0.598
  282SOL    HW2 1746   2.778   1.630   0.502
  283SOL     OW 1747   6.762   2.253   4.849
  283SOL    HW1 1748   6.754   2.169   4.904
  283SOL    HW2 1749   6.796   2.327   4.906
  284SOL     OW 1750   4.883   5.988   3.304
  284SOL    HW1 1751   4.959   6.036   3.261
  284SOL    HW2 1752   4.825   5.947   3.233
  285SOL     OW 1753   4.258   0.331   5.897
  285SOL    HW1 1754   4.302   0.355   5.983
  285SOL    HW2 1755   4.189   0.261   5.912
  286SOL     OW 1756   1.893   5.057   5.059
  286SOL    HW1 1757   1.829   5.037   5.133
  286SOL    HW2 1758   1.884   4.987   4.988
  287SOL     OW 1759   3.267   0.310   6.207
  287SOL    HW1 1760   3.219   0.294   6.120
  287SOL    HW2 1761   3.270   0.225   6.260
  288SOL     OW 1762   3.699   0.265   0.994
  288SOL    HW1 1763   3.626   0.243   0.928
  288SOL    HW2 1764   3.659   0.276   1.085
  289SOL     OW 1765   6.101   5.921   3.220
  289SOL    HW1 1766   6.071   5.911   3.314
  289SOL    HW2 1767   6.024   5.954   3.164
  290SOL     OW 1768   3.222   0.735   6.073
  290SOL    HW1 1769   3.151   0.668   6.094
  290SOL    HW2 1770   3.311   0.701   6.104
  291SOL     OW 1771   3.078   6.820   5.072
  291SOL    HW1 1772   3.141   6.891   5.104
  291SOL    HW2 1773   3.026   6.855   4.994
  292SOL     OW 1774   4.536   6.865   4.197
  292SOL    HW1 1775   4.550   6.961   4.221
  292SOL    HW2 1776   4.624   6.820   4.187
  293SOL     OW 1777   6.023   6.941   2.284
  293SOL    HW1 1778   6.070   6.895   2.361
  293SOL    HW2 1779   5.927   6.914   2.283
  294SOL     OW 1780   6.482   0.785   6.200
  294SOL    HW1 1781   6.488   0.725   6.279
  294SOL    HW2 1782   6.538   0.866   6.215
  295SOL     OW 1783   1.362   1.329   4.428
  295SOL    HW1 1784   1.353   1.249   4.369
  295SOL    HW2 1785   1.279   1.338   4.484
  296SOL     OW 1786   6.929   2.268   1.118
  296SOL    HW1 1787   6.870   2.244   1.041
  296SOL    HW2 1788   6.884   2.244   1.204
  297SOL     OW 1789   5.041   3.194   3.832
  297SOL    HW1 1790   5.131   3.220   3.867
  297SOL    HW2 1791   4.999   3.129   3.895
  298SOL     OW 1792   3.947   0.484   6.291
  298SOL    HW1 1793   3.940   0.415   6.219
  298SOL    HW2 1794   3.862   0.485   6.343
  299SOL     OW 1795   1.052   0.924   6.767
  299SOL    HW1 1796   0.987   1.000   6.758
  299SOL    HW2 1797   1.016   0.857   6.832
  300SOL     OW 1798   4.404   0.092   3.572
  300SOL    HW1 1799   4.450   0.132   3.493
  300SOL    HW2 1800   4.470   0.083   3.647
  301SOL     OW 1801   6.366   5.780   1.461
  301SOL    HW1 1802   6.383   5.740   1.371
  301SOL    HW2 1803   6.441   5.756   1.523
  302SOL     OW 1804   0.218   5.689   1.686
  302SOL    HW1 1805   0.162   5.608   1.704
  302SOL    HW2 1806   0.312   5.662   1.669
  303SOL     OW 1807   5.445   5.861   3.320
  303SOL    HW1 1808   5.534   5.890   3.284
  303SOL    HW2 1809   5.395   5.941   3.354
  304SOL     OW 1810   2.547   5.819   4.853
  304SOL    HW1 1811   2.477   5.876   4.811
  304SOL    HW2 1812   2.527   5.722   4.835
  305SOL     OW 1813   0.997   2.861   2.475
  305SOL    HW1 1814   1.048   2.891   2.395
  305SOL    HW2 1815   0.922   2.801   2.446
  306SOL     OW 1816   0.393   6.517   2.938
  306SOL    HW1 1817   0.347   6.431   2.918
  306SOL    HW2 1818   0.325   6.586   2.965
  307SOL     OW 1819   3.442   3.001   3.058
  307SOL    HW1 1820   3.412   2.959   3.144
  307SOL    HW2 1821   3.373   2.987   2.988
  308SOL     OW 1822   5.398   2.281   3.746
  308SOL    HW1 1823   5.470   2.296   3.678
  308SOL    HW2 1824   5.323   2.229   3.705
  309SOL     OW 1825   1.564   6.706   6.546
  309SOL    HW1 1826   1.465   6.701   6.540
  309SOL    HW2 1827   1.592   6.799   6.570
  310SOL     OW 1828   5.255   0.327   5.292
  310SOL    HW1 1829   5.209   0.248   5.332
  310SOL    HW2 1830   5.294   0.301   5.203
  311SOL     OW 1831   2.061   5.640   2.702
  311SOL    HW1 1832   1.999   5.712   2.673
  311SOL    HW2 1833   2.055   5.563   2.638
  312SOL     OW 1834   4.443   1.600   3.228
  312SOL    HW1 1835   4.482   1.631   3.315
  312SOL    HW2 1836   4.513   1.550   3.176
  313SOL     OW 1837   4.064   3.787   2.722
  313SOL    HW1 1838   4.049   3.744   2.633
  313SOL    HW2 1839   4.127   3.731   2.775
  314SOL     OW 1840   2.427   5.722   6.096
  314SOL    HW1 1841   2.409   5.768   6.183
  314SOL    HW2 1842   2.489   5.645   6.111
  315SOL     OW 1843   6.250   1.256   3.408
  315SOL    HW1 1844   6.326   1.194   3.390
  315SOL    HW2 1845   6.192   1.218   3.480
  316SOL     OW 1846   3.699   1.321   5.737
  316SOL    HW1 1847   3.726   1.316   5.833
  316SOL    HW2 1848   3.602   1.300   5.729
  317SOL     OW 1849   1.257   1.631   1.929
  317SOL    HW1 1850   1.283   1.552   1.984
  317SOL    HW2 1851   1.338   1.683   1.904
  318SOL     OW 1852   1.065   0.321   4.583
  318SOL    HW1 1853   1.105   0.271   4.660
  318SOL    HW2 1854   0.966   0.318   4.589
  319SOL     OW 1855   1.531   1.398   2.559
  319SOL    HW1 1856   1.582   1.376   2.476
  319SOL    HW2 1857   1.535   1.497   2.574
  320SOL     OW 1858   6.125   2.065   6.068
  320SOL    HW1 1859   6.131   1.978   6.020
  320SOL    HW2 1860   6.030   2.086   6.089
  321SOL     OW 1861   4.596   3.121   1.104
  321SOL    HW1 1862   4.551   3.189   1.163
  321SOL    HW2 1863   4.547   3.115   1.017
  322SOL     OW 1864   3.497   3.372   5.991
  322SOL    HW1 1865   3.498   3.385   6.090
  322SOL    HW2 1866   3.514   3.276   5.970
  323SOL     OW 1867   0.680   3.442   2.068
  323SOL    HW1 1868   0.763   3.476   2.023
  323SOL    HW2 1869   0.706   3.393   2.151
  324SOL     OW 1870   0.051   0.272   3.580
  324SOL    HW1 1871   0.141   0.269   3.622
  324SOL    HW2 1872   0.016   0.179   3.569
  325SOL     OW 1873   0.003   3.816   1.938
  325SOL    HW1 1874   0.041   3.773   2.019
  325SOL    HW2 1875   6.930   3.801   1.934
  326SOL     OW 1876   0.805   6.790   6.485
  326SOL    HW1 1877   0.895   6.792   6.528
  326SOL    HW2 1878   0.765   6.881   6.486
  327SOL     OW 1879   4.900   5.719   4.172
  327SOL    HW1 1880   4.817   5.669   4.199
  327SOL    HW2 1881   4.875   5.804   4.127
  328SOL     OW 1882   2.250   4.222   2.522
  328SOL    HW1 1883   2.318   4.285   2.561
  328SOL    HW2 1884   2.228   4.250   2.429
  329SOL     OW 1885   3.271   3.276   2.171
  329SOL    HW1 1886   3.326   3.273   2.087
  329SOL    HW2 1887   3.177   3.250   2.150
  330SOL     OW 1888   3.174   5.921   0.629
  330SOL    HW1 1889   3.090   5.943   0.581
  330SOL    HW2 1890   3.190   5.822   0.626
  331SOL     OW 1891   5.805   5.090   6.872
  331SOL    HW1 1892   5.778   5.047   6.959
  331SOL    HW2 1893   5.731   5.150   6.841
  332SOL     OW 1894   5.811   2.165   3.052
  332SOL    HW1 1895   5.910   2.153   3.060
  332SOL    HW2 1896   5.767   2.138   3.138
  333SOL     OW 1897   3.387   0.903   5.733
  333SOL    HW1 1898   3.395   0.950   5.645
  333SOL    HW2 1899   3.441   0.951   5.802
  334SOL     OW 1900   4.117   3.399   3.541
  334SOL    HW1 1901   4.104   3.396   3.442
  334SOL    HW2 1902   4.146   3.309   3.574
  335SOL     OW 1903   3.880   0.270   6.824
  335SOL    HW1 1904   3.869   0.277   6.923
  335SOL    HW2 1905   3.975   0.287   6.800
  336SOL     OW 1906   2.823   1.610   3.821
  336SOL    HW1 1907   2.803   1.669   3.742
  336SOL    HW2 1908   2.863   1.665   3.894
  337SOL     OW 1909   2.119   0.767   6.316
  337SOL    HW1 1910   2.039   0.773   6.376
  337SOL    HW2 1911   2.199   0.744   6.371
  338SOL     OW 1912   4.030   1.408   0.888
  338SOL    HW1 1913   4.061   1.397   0.982
  338SOL    HW2 1914   4.103   1.381   0.825
  339SOL     OW 1915   4.239   5.378   5.124
  339SOL    HW1 1916   4.321   5.361   5.179
  339SOL    HW2 1917   4.189   5.456   5.162
  340SOL     OW 1918   4.685   1.710   3.840
  340SOL    HW1 1919   4.777   1.691   3.873
  340SOL    HW2 1920   4.691   1.755   3.751
  341SOL     OW 1921   5.832   6.366   2.800
  341SOL    HW1 1922   5.920   6.362   2.848
  341SOL    HW2 1923   5.762   6.320   2.856
  342SOL     OW 1924   4.254   2.167   2.276
  342SOL    HW1 1925   4.334   2.226   2.265
  342SOL    HW2 1926   4.236   2.118   2.191
  343SOL     OW 1927   0.038   5.672   2.846
  343SOL    HW1 1928   0.125   5.687   2.892
  343SOL    HW2 1929   0.048   5.690   2.748
  344SOL     OW 1930   2.200   2.230   1.291
  344SOL    HW1 1931   2.249   2.143   1.288
  344SOL    HW2 1932   2.168   2.253   1.199
  345SOL     OW 1933   6.576   3.644   3.946
  345SOL    HW1 1934   6.506   3.572   3.950
  345SOL    HW2 1935   6.531   3.733   3.931
  346SOL     OW 1936   2.010   6.673   3.660
  346SOL    HW1 1937   2.005   6.704   3.565
  346SOL    HW2 1938   1.921   6.637   3.688
  347SOL     OW 1939   2.562   4.895   0.461
  347SOL    HW1 1940   2.634   4.888   0.531
  347SOL    HW2 1941   2.497   4.966   0.487
  348SOL     OW 1942   4.549   5.254   1.375
  348SOL    HW1 1943   4.640   5.282   1.343
  348SOL    HW2 1944   4.520   5.173   1.325
  349SOL     OW 1945   6.312   4.199   1.228
  349SOL    HW1 1946   6.315   4.112   1.178
  349SOL    HW2 1947   6.225   4.206   1.277
  350SOL     OW 1948   3.492   3.127   0.489
  350SOL    HW1 1949   3.468   3.043   0.538
  350SOL    HW2 1950   3.422   3.196   0.504
  351SOL     OW 1951   3.290   4.203   1.651
  351SOL    HW1 1952   3.196   4.236   1.662
  351SOL    HW2 1953   3.304   4.174   1.556
  352SOL     OW 1954   4.208   0.376   3.289
  352SOL    HW1 1955   4.256   0.397   3.374
  352SOL    HW2 1956   4.131   0.315   3.309
  353SOL     OW 1957   2.025   6.129   7.006
  353SOL    HW1 1958   2.072   6.215   6.989
  353SOL    HW2 1959   2.072   6.080   0.055
  354SOL     OW 1960   0.222   2.907   0.312
  354SOL    HW1 1961   0.254   2.952   0.395
  354SOL    HW2 1962   0.127   2.932   0.296
  355SOL     OW 1963   1.802   2.178   2.254
  355SOL    HW1 1964   1.871   2.121   2.298
  355SOL    HW2 1965   1.838   2.215   2.168
  356SOL     OW 1966   0.779   6.848   6.174
  356SOL    HW1 1967   0.846   6.907   6.218
  356SOL    HW2 1968   0.715   6.814   6.243
  357SOL     OW 1969   5.640   6.672   4.907
  357SOL    HW1 1970   5.610   6.755   4.955
  357SOL    HW2 1971   5.719   6.633   4.955
  358SOL     OW 1972   4.418   5.683   0.285
  358SOL    HW1 1973   4.390   5.761   0.229
  358SOL    HW2 1974   4.396   5.598   0.236
  359SOL     OW 1975   2.502   2.529   2.916
  359SOL    HW1 1976   2.547   2.595   2.856
  359SOL    HW2 1977   2.568   2.460   2.945
  360SOL     OW 1978   1.448   5.006   4.417
  360SOL    HW1 1979   1.390   5.083   4.444
  360SOL    HW2 1980   1.499   5.030   4.334
  361SOL     OW 1981   6.288   0.233   3.500
  361SOL    HW1 1982   6.234   0.150   3.517
  361SOL    HW2 1983   6.349   0.217   3.422
  362SOL     OW 1984   4.333   4.842   0.995
  362SOL    HW1 1985   4.306   4.786   0.917
  362SOL    HW2 1986   4.422   4.811   1.029
  363SOL     OW 1987   4.922   5.544   1.978
  363SOL    HW1 1988   5.013   5.558   1.938
  363SOL    HW2 1989   4.906   5.446   1.991
  364SOL     OW 1990   0.499   6.153   6.536
  364SOL    HW1 1991   0.588   6.113   6.511
  364SOL    HW2 1992   0.436   6.080   6.563
  365SOL     OW 1993   4.960   1.906   3.130
  365SOL    HW1 1994   4.891   1.881   3.063
  365SOL    HW2 1995   5.000   1.995   3.105
  366SOL     OW 1996   5.243   2.281   0.216
  366SOL    HW1 1997   5.269   2.356   0.156
  366SOL    HW2 1998   5.177   2.222   0.169
  367SOL     OW 1999   4.728   1.832   5.705
  367SOL    HW1 2000   4.747   1.737   5.679
  367SOL    HW2 2001   4.699   1.835   5.800
  368SOL     OW 2002   6.736   2.513   6.023
  368SOL    HW1 2003   6.810   2.570   5.987
  368SOL    HW2 2004   6.769   2.462   6.103
  369SOL     OW 2005   5.929   3.173   2.364
  369SOL    HW1 2006   5.851   3.141   2.311
  369SOL    HW2 2007   5.898   3.238   2.433
  370SOL     OW 2008   2.139   3.657   3.987
  370SOL    HW1 2009   2.053   3.707   3.986
  370SOL    HW2 2010   2.196   3.688   4.063
  371SOL     OW 2011   1.612   4.808   6.911
  371SOL    HW1 2012   1.685   4.801   6.844
  371SOL    HW2 2013   1.652   4.816   7.003
  372SOL     OW 2014   3.950   6.690   6.674
  372SOL    HW1 2015   3.904   6.712   6.760
  372SOL    HW2 2016   3.901   6.731   6.597
  373SOL     OW 2017   6.053   5.938   4.359
  373SOL    HW1 2018   6.020   5.857   4.309
  373SOL    HW2 2019   6.035   6.020   4.305
  374SOL     OW 2020   2.752   2.107   2.484
  374SOL    HW1 2021   2.726   2.171   2.411
  374SOL    HW2 2022   2.670   2.060   2.517
  375SOL     OW 2023   1.275   5.000   5.141
  375SOL    HW1 2024   1.337   5.036   5.212
  375SOL    HW2 2025   1.209   4.939   5.183
  376SOL     OW 2026   2.730   1.108   4.579
  376SOL    HW1 2027   2.658   1.074   4.518
  376SOL    HW2 2028   2.805   1.145   4.524
  377SOL     OW 2029   1.210   2.187   6.538
  377SOL    HW1 2030   1.185   2.207   6.444
  377SOL    HW2 2031   1.158   2.247   6.600
  378SOL     OW 2032   3.692   0.823   1.516
  378SOL    HW1 2033   3.782   0.800   1.552
  378SOL    HW2 2034   3.687   0.921   1.499
  379SOL     OW 2035   6.415   1.972   6.047
  379SOL    HW1 2036   6.440   1.876   6.057
  379SOL    HW2 2037   6.480   2.029   6.096
  380SOL     OW 2038   4.204   1.877   0.933
  380SOL    HW1 2039   4.114   1.842   0.906
  380SOL    HW2 2040   4.209   1.884   1.032
  381SOL     OW 2041   1.715   3.840   3.358
  381SOL    HW1 2042   1.656   3.917   3.384
  381SOL    HW2 2043   1.810   3.861   3.382
  382SOL     OW 2044   5.403   0.526   0.073
  382SOL    HW1 2045   5.380   0.473   7.016
  382SOL    HW2 2046   5.482   0.585   0.053
  383SOL     OW 2047   4.437   3.031   0.850
  383SOL    HW1 2048   4.364   3.016   0.917
  383SOL    HW2 2049   4.419   3.114   0.799
  384SOL     OW 2050   6.118   4.197   4.972
  384SOL    HW1 2051   6.033   4.144   4.966
  384SOL    HW2 2052   6.191   4.149   4.925
  385SOL     OW 2053   4.641   4.522   0.606
  385SOL    HW1 2054   4.711   4.471   0.654
  385SOL    HW2 2055   4.672   4.543   0.513
  386SOL     OW 2056   2.926   0.025   3.768
  386SOL    HW1 2057   2.899   6.999   3.686
  386SOL    HW2 2058   2.860   0.009   3.841
  387SOL     OW 2059   1.982   5.979   3.889
  387SOL    HW1 2060   1.992   6.029   3.803
  387SOL    HW2 2061   2.071   5.946   3.920
  388SOL     OW 2062   2.365   3.087   5.935
  388SOL    HW1 2063   2.285   3.062   5.881
  388SOL    HW2 2064   2.438   3.117   5.873
  389SOL     OW 2065   3.022   3.744   3.291
  389SOL    HW1 2066   3.040   3.776   3.384
  389SOL    HW2 2067   2.995   3.648   3.292
  390SOL     OW 2068   2.280   0.997   4.562
  390SOL    HW1 2069   2.186   0.978   4.534
  390SOL    HW2 2070   2.316   0.920   4.614
  391SOL     OW 2071   0.855   3.221   0.219
  391SOL    HW1 2072   0.922   3.243   0.290
  391SOL    HW2 2073   0.766   3.203   0.261
  392SOL     OW 2074   2.344   4.994   2.381
  392SOL    HW1 2075   2.416   4.998   2.450
  392SOL    HW2 2076   2.381   4.959   2.295
  393SOL     OW 2077   5.733   4.411   5.350
  393SOL    HW1 2078   5.778   4.364   5.426
  393SOL    HW2 2079   5.713   4.506   5.376
  394SOL     OW 2080   1.224   0.050   1.045
  394SOL    HW1 2081   1.302   0.022   1.101
  394SOL    HW2 2082   1.143   0.062   1.102
  395SOL     OW 2083   5.366   3.875   1.233
  395SOL    HW1 2084   5.352   3.864   1.134
  395SOL    HW2 2085   5.418   3.797   1.268
  396SOL     OW 2086   3.169   4.026   3.413
  396SOL    HW1 2087   3.195   4.029   3.316
  396SOL    HW2 2088   3.212   4.102   3.461
  397SOL     OW 2089   4.538   1.927   5.508
  397SOL    HW1 2090   4.605   1.886   5.570
  397SOL    HW2 2091   4.524   2.023   5.533
  398SOL     OW 2092   0.845   5.063   2.483
  398SOL    HW1 2093   0.833   4.965   2.497
  398SOL    HW2 2094   0.769   5.112   2.526
  399SOL     OW 2095   4.820   5.051   1.159
  399SOL    HW1 2096   4.726   5.079   1.142
  399SOL    HW2 2097   4.862   5.019   1.073
  400SOL     OW 2098   0.490   6.151   5.085
  400SOL    HW1 2099   0.556   6.224   5.070
  400SOL    HW2 2100   0.451   6.159   5.177
  401SOL     OW 2101   4.709   1.992   6.763
  401SOL    HW1 2102   4.636   1.990   6.832
  401SOL    HW2 2103   4.748   1.900   6.754
  402SOL     OW 2104   6.103   5.771   1.494
  402SOL    HW1 2105   6.196   5.751   1.465
  402SOL    HW2 2106   6.083   5.721   1.579
  403SOL     OW 2107   4.262   2.052   5.904
  403SOL    HW1 2108   4.223   1.960   5.899
  403SOL    HW2 2109   4.300   2.068   5.995
  404SOL     OW 2110   0.482   6.990   4.522
  404SOL    HW1 2111   0.499   0.029   4.597
  404SOL    HW2 2112   0.515   0.004   4.436
  405SOL     OW 2113   0.893   2.396   0.913
  405SOL    HW1 2114   0.922   2.302   0.893
  405SOL    HW2 2115   0.794   2.404   0.900
  406SOL     OW 2116   1.456   2.580   4.598
  406SOL    HW1 2117   1.434   2.663   4.649
  406SOL    HW2 2118   1.488   2.604   4.506
  407SOL     OW 2119   2.776   0.574   5.683
  407SOL    HW1 2120   2.833   0.611   5.756
  407SOL    HW2 2121   2.814   0.600   5.594
  408SOL     OW 2122   1.723   0.434   3.598
  408SOL    HW1 2123   1.744   0.511   3.658
  408SOL    HW2 2124   1.625   0.416   3.600
  409SOL     OW 2125   5.819   3.315   3.581
  409SOL    HW1 2126   5.883   3.374   3.629
  409SOL    HW2 2127   5.748   3.370   3.538
  410SOL     OW 2128   2.461   0.743   6.991
  410SOL    HW1 2129   2.560   0.750   6.996
  410SOL    HW2 2130   2.425   0.815   6.931
  411SOL     OW 2131   6.181   4.055   5.409
  411SOL    HW1 2132   6.232   4.085   5.328
  411SOL    HW2 2133   6.237   4.071   5.491
  412SOL     OW 2134   3.818   0.263   2.517
  412SOL    HW1 2135   3.796   0.186   2.457
  412SOL    HW2 2136   3.839   0.343   2.461
  413SOL     OW 2137   3.225   6.241   0.763
  413SOL    HW1 2138   3.321   6.269   0.760
  413SOL    HW2 2139   3.216   6.161   0.822
  414SOL     OW 2140   4.365   4.508   0.692
  414SOL    HW1 2141   4.456   4.517   0.651
  414SOL    HW2 2142   4.315   4.594   0.682
  415SOL     OW 2143   2.197   6.475   1.855
  415SOL    HW1 2144   2.172   6.508   1.946
  415SOL    HW2 2145   2.117   6.478   1.795
  416SOL     OW 2146   4.233   6.366   4.957
  416SOL    HW1 2147   4.293   6.387   5.034
  416SOL    HW2 2148   4.140   6.398   4.977
  417SOL     OW 2149   3.754   6.197   2.087
  417SOL    HW1 2150   3.714   6.125   2.030
  417SOL    HW2 2151   3.680   6.247   2.132
  418SOL     OW 2152   4.886   5.896   0.237
  418SOL    HW1 2153   4.874   5.875   0.140
  418SOL    HW2 2154   4.799   5.927   0.275
  419SOL     OW 2155   6.909   6.753   1.274
  419SOL    HW1 2156   6.894   6.659   1.246
  419SOL    HW2 2157   6.970   6.799   1.209
  420SOL     OW 2158   5.755   3.749   0.360
  420SOL    HW1 2159   5.836   3.696   0.337
  420SOL    HW2 2160   5.712   3.711   0.442
  421SOL     OW 2161   2.519   6.106   7.019
  421SOL    HW1 2162   2.475   6.156   6.944
  421SOL    HW2 2163   2.600   6.059   6.986
  422SOL     OW 2164   6.152   4.588   6.659
  422SOL    HW1 2165   6.196   4.674   6.686
  422SOL    HW2 2166   6.054   4.604   6.645
  423SOL     OW 2167   5.915   2.748   0.182
  423SOL    HW1 2168   5.907   2.781   0.276
  423SOL    HW2 2169   5.840   2.684   0.163
  424SOL     OW 2170   3.451   4.162   0.483
  424SOL    HW1 2171   3.500   4.132   0.566
  424SOL    HW2 2172   3.506   4.230   0.435
  425SOL     OW 2173   4.110   0.822   1.416
  425SOL    HW1 2174   4.128   0.843   1.319
  425SOL    HW2 2175   4.149   0.894   1.473
  426SOL     OW 2176   5.007   2.844   5.899
  426SOL    HW1 2177   5.003   2.755   5.854
  426SOL    HW2 2178   5.086   2.896   5.865
  427SOL     OW 2179   5.525   3.894   0.945
  427SOL    HW1 2180   5.448   3.831   0.934
  427SOL    HW2 2181   5.577   3.870   1.027
  428SOL     OW 2182   4.205   0.579   5.535
  428SOL    HW1 2183   4.194   0.601   5.438
  428SOL    HW2 2184   4.290   0.618   5.569
  429SOL     OW 2185   1.720   4.794   0.152
  429SOL    HW1 2186   1.819   4.789   0.156
  429SOL    HW2 2187   1.685   4.841   0.234
  430SOL     OW 2188   0.760   7.006   4.705
  430SOL    HW1 2189   0.794   6.925   4.658
  430SOL    HW2 2190   0.829   0.014   4.769
  431SOL     OW 2191   3.587   1.622   0.236
  431SOL    HW1 2192   3.648   1.679   0.182
  431SOL    HW2 2193   3.604   1.637   0.334
  432SOL     OW 2194   6.746   1.920   0.528
  432SOL    HW1 2195   6.774   1.926   0.624
  432SOL    HW2 2196   6.826   1.926   0.469
  433SOL     OW 2197   2.594   6.645   4.986
  433SOL    HW1 2198   2.612   6.635   5.084
  433SOL    HW2 2199   2.515   6.704   4.972
  434SOL     OW 2200   5.952   3.341   1.007
  434SOL    HW1 2201   5.925   3.416   0.947
  434SOL    HW2 2202   6.052   3.329   1.003
  435SOL     OW 2203   3.245   3.381   5.865
  435SOL    HW1 2204   3.334   3.389   5.910
  435SOL    HW2 2205   3.195   3.304   5.904
  436SOL     OW 2206   1.541   0.269   1.179
  436SOL    HW1 2207   1.559   0.329   1.101
  436SOL    HW2 2208   1.609   0.195   1.181
  437SOL     OW 2209   0.158   0.335   6.161
  437SOL    HW1 2210   0.209   0.404   6.211
  437SOL    HW2 2211   0.149   0.253   6.216
  438SOL     OW 2212   1.726   3.284   2.104
  438SOL    HW1 2213   1.667   3.212   2.141
  438SOL    HW2 2214   1.797   3.244   2.047
  439SOL     OW 2215   6.130   4.582   2.580
  439SOL    HW1 2216   6.199   4.567   2.509
  439SOL    HW2 2217   6.102   4.678   2.579
  440SOL     OW 2218   0.759   2.499   4.189
  440SOL    HW1 2219   0.741   2.478   4.285
  440SOL    HW2 2220   0.815   2.427   4.148
  441SOL     OW 2221   1.898   1.542   3.113
  441SOL    HW1 2222   1.897   1.546   3.013
  441SOL    HW2 2223   1.954   1.617   3.149
  442SOL     OW 2224   6.726   4.179   0.031
  442SOL    HW1 2225   6.648   4.134   7.012
  442SOL    HW2 2226   6.793   4.110   0.057
  443SOL     OW 2227   1.284   4.146   5.266
  443SOL    HW1 2228   1.246   4.100   5.346
  443SOL    HW2 2229   1.316   4.237   5.292
  444SOL     OW 2230   4.375   2.622   6.270
  444SOL    HW1 2231   4.309   2.602   6.197
  444SOL    HW2 2232   4.404   2.537   6.313
  445SOL     OW 2233   2.412   4.848   3.566
  445SOL    HW1 2234   2.441   4.936   3.529
  445SOL    HW2 2235   2.339   4.810   3.510
  446SOL     OW 2236   3.688   4.874   3.780
  446SOL    HW1 2237   3.656   4.800   3.721
  446SOL    HW2 2238   3.777   4.906   3.748
  447SOL     OW 2239   0.213   4.642   0.213
  447SOL    HW1 2240   0.143   4.623   0.144
  447SOL    HW2 2241   0.179   4.615   0.303
  448SOL     OW 2242   3.910   0.710   5.360
  448SOL    HW1 2243   3.853   0.702   5.278
  448SOL    HW2 2244   4.005   0.720   5.334
  449SOL     OW 2245   6.514   1.086   4.579
  449SOL    HW1 2246   6.460   1.004   4.598
  449SOL    HW2 2247   6.491   1.158   4.645
  450SOL     OW 2248   0.187   5.903   3.374
  450SOL    HW1 2249   0.219   5.942   3.460
  450SOL    HW2 2250   0.261   5.852   3.330
  451SOL     OW 2251   0.854   1.769   2.682
  451SOL    HW1 2252   0.888   1.850   2.634
  451SOL    HW2 2253   0.910   1.752   2.763
  452SOL     OW 2254   0.122   4.802   0.563
  452SOL    HW1 2255   0.046   4.800   0.629
  452SOL    HW2 2256   0.139   4.710   0.530
  453SOL     OW 2257   2.931   1.541   6.759
  453SOL    HW1 2258   2.838   1.575   6.777
  453SOL    HW2 2259   2.926   1.454   6.712
  454SOL     OW 2260   0.312   5.927   6.423
  454SOL    HW1 2261   0.255   5.878   6.490
  454SOL    HW2 2262   0.253   5.970   6.355
  455SOL     OW 2263   5.870   0.609   3.962
  455SOL    HW1 2264   5.849   0.513   3.944
  455SOL    HW2 2265   5.805   0.667   3.915
  456SOL     OW 2266   4.069   5.708   6.203
  456SOL    HW1 2267   4.134   5.636   6.177
  456SOL    HW2 2268   3.994   5.668   6.255
  457SOL     OW 2269   2.266   4.051   3.105
  457SOL    HW1 2270   2.236   3.993   3.029
  457SOL    HW2 2271   2.187   4.095   3.147
  458SOL     OW 2272   5.655   6.255   5.733
  458SOL    HW1 2273   5.682   6.190   5.803
  458SOL    HW2 2274   5.659   6.212   5.643
  459SOL     OW 2275   1.240   0.332   2.988
  459SOL    HW1 2276   1.187   0.404   2.944
  459SOL    HW2 2277   1.178   0.265   3.029
  460SOL     OW 2278   6.989   1.712   2.180
  460SOL    HW1 2279   0.061   1.733   2.180
  460SOL    HW2 2280   6.954   1.716   2.274
  461SOL     OW 2281   4.548   6.802   4.981
  461SOL    HW1 2282   4.558   6.760   5.071
  461SOL    HW2 2283   4.535   6.731   4.912
  462SOL     OW 2284   3.288   2.742   5.989
  462SOL    HW1 2285   3.278   2.830   6.036
  462SOL    HW2 2286   3.284   2.757   5.890
  463SOL     OW 2287   6.117   5.173   3.548
  463SOL    HW1 2288   6.108   5.266   3.582
  463SOL    HW2 2289   6.102   5.172   3.449
  464SOL     OW 2290   1.730   0.927   6.765
  464SOL    HW1 2291   1.644   0.898   6.806
  464SOL    HW2 2292   1.774   0.848   6.721
  465SOL     OW 2293   0.817   1.735   3.857
  465SOL    HW1 2294   0.835   1.637   3.845
  465SOL    HW2 2295   0.853   1.765   3.945
  466SOL     OW 2296   0.400   6.574   3.817
  466SOL    HW1 2297   0.348   6.504   3.866
  466SOL    HW2 2298   0.456   6.625   3.883
  467SOL     OW 2299   0.780   0.299   5.905
  467SOL    HW1 2300   0.754   0.202   5.906
  467SOL    HW2 2301   0.700   0.355   5.927
  468SOL     OW 2302   4.034   5.621   0.928
  468SOL    HW1 2303   3.992   5.667   0.850
  468SOL    HW2 2304   4.094   5.685   0.976
  469SOL     OW 2305   2.355   5.408   0.469
  469SOL    HW1 2306   2.360   5.380   0.373
  469SOL    HW2 2307   2.447   5.421   0.505
  470SOL     OW 2308   4.319   0.383   2.028
  470SOL    HW1 2309   4.278   0.293   2.014
  470SOL    HW2 2310   4.401   0.374   2.085
  471SOL     OW 2311   1.956   2.581   4.512
  471SOL    HW1 2312   1.895   2.533   4.449
  471SOL    HW2 2313   2.050   2.577   4.476
  472SOL     OW 2314   4.932   5.058   6.275
  472SOL    HW1 2315   4.887   5.139   6.237
  472SOL    HW2 2316   4.933   4.985   6.206
  473SOL     OW 2317   0.466   2.517   1.753
  473SOL    HW1 2318   0.489   2.503   1.849
  473SOL    HW2 2319   0.378   2.474   1.733
  474SOL     OW 2320   4.389   5.453   4.073
  474SOL    HW1 2321   4.477   5.492   4.044
  474SOL    HW2 2322   4.386   5.356   4.049
  475SOL     OW 2323   6.774   6.743   6.859
  475SOL    HW1 2324   6.678   6.754   6.833
  475SOL    HW2 2325   6.796   6.809   6.931
  476SOL     OW 2326   6.274   4.073   2.404
  476SOL    HW1 2327   6.180   4.049   2.427
  476SOL    HW2 2328   6.331   4.066   2.485
  477SOL     OW 2329   2.314   5.036   4.615
  477SOL    HW1 2330   2.263   5.095   4.553
  477SOL    HW2 2331   2.281   5.051   4.709
  478SOL     OW 2332   3.600   5.741   3.364
  478SOL    HW1 2333   3.680   5.801   3.352
  478SOL    HW2 2334   3.542   5.778   3.437
  479SOL     OW 2335   2.713   2.022   0.442
  479SOL    HW1 2336   2.727   2.001   0.539
  479SOL    HW2 2337   2.764   2.105   0.419
  480SOL     OW 2338   1.484   6.928   1.487
  480SOL    HW1 2339   1.408   6.940   1.550
  480SOL    HW2 2340   1.525   6.837   1.501
  481SOL     OW 2341   2.270   0.991   1.730
  481SOL    HW1 2342   2.195   0.924   1.735
  481SOL    HW2 2343   2.248   1.061   1.663
  482SOL     OW 2344   5.285   4.481   2.649
  482SOL    HW1 2345   5.324   4.410   2.591
  482SOL    HW2 2346   5.314   4.465   2.744
  483SOL     OW 2347   5.399   2.148   1.414
  483SOL    HW1 2348   5.351   2.231   1.383
  483SOL    HW2 2349   5.338   2.094   1.471
  484SOL     OW 2350   0.595   2.805   4.501
  484SOL    HW1 2351   0.521   2.743   4.475
  484SOL    HW2 2352   0.621   2.859   4.421
  485SOL     OW 2353   3.529   4.943   2.505
  485SOL    HW1 2354   3.594   5.016   2.484
  485SOL    HW2 2355   3.524   4.879   2.429
  486SOL     OW 2356   1.165   1.521   1.115
  486SOL    HW1 2357   1.261   1.517   1.142
  486SOL    HW2 2358   1.140   1.616   1.097
  487SOL     OW 2359   0.905   2.405   6.986
  487SOL    HW1 2360   0.845   2.376   0.035
  487SOL    HW2 2361   0.986   2.346   6.984
  488SOL     OW 2362   0.933   1.604   1.349
  488SOL    HW1 2363   1.032   1.613   1.338
  488SOL    HW2 2364   0.910   1.509   1.371
  489SOL     OW 2365   3.432   5.657   7.015
  489SOL    HW1 2366   3.405   5.671   0.085
  489SOL    HW2 2367   3.491   5.733   6.986
  490SOL     OW 2368   6.075   6.418   4.197
  490SOL    HW1 2369   6.156   6.398   4.251
  490SOL    HW2 2370   6.003   6.456   4.255
  491SOL     OW 2371   0.287   2.800   2.549
  491SOL    HW1 2372   0.315   2.712   2.588
  491SOL    HW2 2373   0.283   2.869   2.621
  492SOL     OW 2374   3.485   0.625   5.758
  492SOL    HW1 2375   3.452   0.719   5.766
  492SOL    HW2 2376   3.418   0.571   5.705
  493SOL     OW 2377   6.616   5.072   5.959
  493SOL    HW1 2378   6.613   4.977   5.989
  493SOL    HW2 2379   6.676   5.079   5.879
  494SOL     OW 2380   0.321   6.007   6.981
  494SOL    HW1 2381   0.384   6.057   0.015
  494SOL    HW2 2382   0.232   5.999   0.001
  495SOL     OW 2383   4.582   4.916   2.615
  495SOL    HW1 2384   4.587   4.996   2.556
  495SOL    HW2 2385   4.666   4.862   2.606
  496SOL     OW 2386   5.644   3.024   3.247
  496SOL    HW1 2387   5.730   3.018   3.197
  496SOL    HW2 2388   5.576   2.965   3.205
  497SOL     OW 2389   3.603   1.189   4.740
  497SOL    HW1 2390   3.654   1.269   4.773
  497SOL    HW2 2391   3.541   1.217   4.667
  498SOL     OW 2392   0.995   3.389   2.473
  498SOL    HW1 2393   1.019   3.324   2.401
  498SOL    HW2 2394   0.972   3.339   2.557
  499SOL     OW 2395   3.116   0.638   4.349
  499SOL    HW1 2396   3.089   0.542   4.358
  499SOL    HW2 2397   3.135   0.658   4.252
  500SOL     OW 2398   0.970   4.133   3.620
  500SOL    HW1 2399   1.013   4.131   3.530
  500SOL    HW2 2400   0.874   4.161   3.610
  501SOL     OW 2401   2.251   2.092   0.172
  501SOL    HW1 2402   2.298   2.027   0.111
  501SOL    HW2 2403   2.307   2.107   0.253
  502SOL     OW 2404   5.155   4.151   5.786
  502SOL    HW1 2405   5.144   4.197   5.874
  502SOL    HW2 2406   5.105   4.065   5.787
  503SOL     OW 2407   6.112   4.255   6.161
  503SOL    HW1 2408   6.057   4.301   6.091
  503SOL    HW2 2409   6.071   4.167   6.185
  504SOL     OW 2410   2.113   6.074   4.223
  504SOL    HW1 2411   2.066   5.994   4.260
  504SOL    HW2 2412   2.075   6.157   4.264
  505SOL     OW 2413   3.938   0.169   5.684
  505SOL    HW1 2414   3.913   0.256   5.728
  505SOL    HW2 2415   3.874   0.150   5.610
  506SOL     OW 2416   1.724   4.758   4.878
  506SOL    HW1 2417   1.740   4.702   4.797
  506SOL    HW2 2418   1.712   4.699   4.958
  507SOL     OW 2419   2.854   0.066   4.517
  507SOL    HW1 2420   2.767   0.055   4.565
  507SOL    HW2 2421   2.895   7.002   4.501
  508SOL     OW 2422   5.990   3.251   2.872
  508SOL    HW1 2423   6.072   3.296   2.836
  508SOL    HW2 2424   6.008   3.219   2.966
  509SOL     OW 2425   4.458   0.858   1.762
  509SOL    HW1 2426   4.407   0.931   1.808
  509SOL    HW2 2427   4.408   0.828   1.681
  510SOL     OW 2428   6.829   4.870   5.555
  510SOL    HW1 2429   6.882   4.789   5.580
  510SOL    HW2 2430   6.824   4.878   5.456
  511SOL     OW 2431   0.165   6.472   6.923
  511SOL    HW1 2432   0.073   6.462   6.960
  511SOL    HW2 2433   0.233   6.456   6.995
  512SOL     OW 2434   0.826   2.864   0.334
  512SOL    HW1 2435   0.834   2.963   0.343
  512SOL    HW2 2436   0.731   2.840   0.311
  513SOL     OW 2437   6.068   5.960   2.881
  513SOL    HW1 2438   6.003   5.894   2.845
  513SOL    HW2 2439   6.161   5.933   2.856
  514SOL     OW 2440   6.791   2.533   4.104
  514SOL    HW1 2441   6.883   2.511   4.073
  514SOL    HW2 2442   6.790   2.626   4.140
  515SOL     OW 2443   2.492   6.803   5.756
  515SOL    HW1 2444   2.423   6.867   5.724
  515SOL    HW2 2445   2.583   6.845   5.750
  516SOL     OW 2446   2.814   4.624   1.414
  516SOL    HW1 2447   2.783   4.607   1.508
  516SOL    HW2 2448   2.911   4.599   1.406
  517SOL     OW 2449   5.438   6.706   2.120
  517SOL    HW1 2450   5.412   6.707   2.023
  517SOL    HW2 2451   5.413   6.793   2.162
  518SOL     OW 2452   2.275   2.248   1.762
  518SOL    HW1 2453   2.272   2.321   1.695
  518SOL    HW2 2454   2.187   2.200   1.763
  519SOL     OW 2455   0.026   0.241   4.728
  519SOL    HW1 2456   0.057   0.147   4.743
  519SOL    HW2 2457   6.997   0.245   4.644
  520SOL     OW 2458   5.573   4.568   6.365
  520SOL    HW1 2459   5.658   4.537   6.409
  520SOL    HW2 2460   5.496   4.514   6.400
  521SOL     OW 2461   6.540   1.671   6.043
  521SOL    HW1 2462   6.582   1.740   6.102
  521SOL    HW2 2463   6.465   1.626   6.091
  522SOL     OW 2464   3.912   2.901   5.333
  522SOL    HW1 2465   3.909   2.802   5.325
  522SOL    HW2 2466   3.995   2.928   5.382
  523SOL     OW 2467   6.794   6.072   3.455
  523SOL    HW1 2468   6.719   6.121   3.410
  523SOL    HW2 2469   6.877   6.083   3.400
  524SOL     OW 2470   2.919   1.076   6.777
  524SOL    HW1 2471   2.919   1.176   6.783
  524SOL    HW2 2472   2.837   1.045   6.728
  525SOL     OW 2473   2.815   3.685   6.336
  525SOL    HW1 2474   2.856   3.604   6.294
  525SOL    HW2 2475   2.722   3.696   6.303
  526SOL     OW 2476   2.572   5.410   4.985
  526SOL    HW1 2477   2.579   5.339   4.914
  526SOL    HW2 2478   2.590   5.369   5.075
  527SOL     OW 2479   6.502   1.417   5.789
  527SOL    HW1 2480   6.598   1.411   5.765
  527SOL    HW2 2481   6.450   1.449   5.710
  528SOL     OW 2482   1.829   1.208   4.507
  528SOL    HW1 2483   1.733   1.215   4.534
  528SOL    HW2 2484   1.858   1.112   4.515
  529SOL     OW 2485   0.534   5.068   4.974
  529SOL    HW1 2486   0.569   5.013   5.050
  529SOL    HW2 2487   0.574   5.036   4.888
  530SOL     OW 2488   2.423   3.081   5.423
  530SOL    HW1 2489   2.458   3.033   5.503
  530SOL    HW2 2490   2.447   3.030   5.340
  531SOL     OW 2491   0.335   0.834   1.129
  531SOL    HW1 2492   0.318   0.780   1.211
  531SOL    HW2 2493   0.410   0.899   1.146
  532SOL     OW 2494   0.945   1.746   5.709
  532SOL    HW1 2495   0.847   1.765   5.698
  532SOL    HW2 2496   0.996   1.792   5.636
  533SOL     OW 2497   5.140   6.574   4.832
  533SOL    HW1 2498   5.237   6.550   4.835
  533SOL    HW2 2499   5.085   6.494   4.857
  534SOL     OW 2500   4.772   5.683   3.723
  534SOL    HW1 2501   4.866   5.651   3.740
  534SOL    HW2 2502   4.771   5.738   3.640
  535SOL     OW 2503   0.516   4.094   3.851
  535SOL    HW1 2504   0.559   4.036   3.921
  535SOL    HW2 2505   0.501   4.039   3.769
  536SOL     OW 2506   0.728   5.526   1.272
  536SOL    HW1 2507   0.749   5.574   1.357
  536SOL    HW2 2508   0.659   5.577   1.220
  537SOL     OW 2509   2.363   6.395   3.381
  537SOL    HW1 2510   2.307   6.414   3.300
  537SOL    HW2 2511   2.370   6.297   3.395
  538SOL     OW 2512   1.102   5.686   3.628
  538SOL    HW1 2513   1.068   5.772   3.589
  538SOL    HW2 2514   1.058   5.609   3.583
  539SOL     OW 2515   0.903   5.325   1.623
  539SOL    HW1 2516   0.929   5.394   1.691
  539SOL    HW2 2517   0.813   5.288   1.647
  540SOL     OW 2518   0.542   1.924   2.643
  540SOL    HW1 2519   0.543   1.855   2.571
  540SOL    HW2 2520   0.568   2.013   2.605
  541SOL     OW 2521   3.273   6.149   5.041
  541SOL    HW1 2522   3.238   6.093   4.966
  541SOL    HW2 2523   3.284   6.244   5.010
  542SOL     OW 2524   6.257   6.244   6.883
  542SOL    HW1 2525   6.327   6.314   6.903
  542SOL    HW2 2526   6.249   6.233   6.784
  543SOL     OW 2527   0.995   5.012   6.683
  543SOL    HW1 2528   0.962   5.094   6.730
  543SOL    HW2 2529   1.022   4.943   6.750
  544SOL     OW 2530   0.823   5.081   1.126
  544SOL    HW1 2531   0.833   5.144   1.203
  544SOL    HW2 2532   0.908   5.080   1.073
  545SOL     OW 2533   3.846   1.546   3.294
  545SOL    HW1 2534   3.886   1.622   3.345
  545SOL    HW2 2535   3.868   1.460   3.340
  546SOL     OW 2536   1.126   3.609   1.435
  546SOL    HW1 2537   1.118   3.512   1.413
  546SOL    HW2 2538   1.120   3.621   1.534
  547SOL     OW 2539   2.709   2.628   0.264
  547SOL    HW1 2540   2.617   2.592   0.281
  547SOL    HW2 2541   2.735   2.608   0.169
  548SOL     OW 2542   3.816   3.373   3.588
  548SOL    HW1 2543   3.907   3.402   3.559
  548SOL    HW2 2544   3.823   3.284   3.633
  549SOL     OW 2545   5.384   3.360   1.469
  549SOL    HW1 2546   5.294   3.378   1.508
  549SOL    HW2 2547   5.373   3.337   1.372
  550SOL     OW 2548   6.802   2.870   2.409
  550SOL    HW1 2549   6.831   2.932   2.336
  550SOL    HW2 2550   6.741   2.919   2.471
  551SOL     OW 2551   6.977   1.905   1.046
  551SOL    HW1 2552   7.003   1.986   1.099
  551SOL    HW2 2553   0.021   1.834   1.057
  552SOL     OW 2554   3.835   5.246   0.675
  552SOL    HW1 2555   3.919   5.283   0.714
  552SOL    HW2 2556   3.858   5.188   0.596
  553SOL     OW 2557   1.903   0.618   1.882
  553SOL    HW1 2558   1.944   0.690   1.937
  553SOL    HW2 2559   1.842   0.658   1.813
  554SOL     OW 2560   5.293   6.833   5.840
  554SOL    HW1 2561   5.355   6.758   5.861
  554SOL    HW2 2562   5.211   6.797   5.796
  555SOL     OW 2563   2.302   4.764   4.613
  555SOL    HW1 2564   2.312   4.863   4.606
  555SOL    HW2 2565   2.392   4.721   4.602
  556SOL     OW 2566   6.212   2.205   4.078
  556SOL    HW1 2567   6.191   2.255   3.994
  556SOL    HW2 2568   6.127   2.185   4.127
  557SOL     OW 2569   6.882   5.762   6.248
  557SOL    HW1 2570   6.907   5.674   6.288
  557SOL    HW2 2571   6.855   5.826   6.321
  558SOL     OW 2572   4.115   3.622   5.485
  558SOL    HW1 2573   4.207   3.582   5.496
  558SOL    HW2 2574   4.114   3.680   5.403
  559SOL     OW 2575   0.114   5.806   6.182
  559SOL    HW1 2576   0.156   5.890   6.148
  559SOL    HW2 2577   0.019   5.825   6.209
  560SOL     OW 2578   4.669   6.474   6.635
  560SOL    HW1 2579   4.616   6.537   6.578
  560SOL    HW2 2580   4.675   6.385   6.589
  561SOL     OW 2581   6.040   6.712   0.118
  561SOL    HW1 2582   6.112   6.779   0.104
  561SOL    HW2 2583   6.038   6.647   0.042
  562SOL     OW 2584   5.505   1.142   6.263
  562SOL    HW1 2585   5.415   1.115   6.296
  562SOL    HW2 2586   5.553   1.062   6.227
  563SOL     OW 2587   2.462   6.173   4.256
  563SOL    HW1 2588   2.432   6.147   4.164
  563SOL    HW2 2589   2.492   6.268   4.255
  564SOL     OW 2590   1.669   1.454   6.574
  564SOL    HW1 2591   1.611   1.374   6.590
  564SOL    HW2 2592   1.747   1.427   6.518
  565SOL     OW 2593   4.428   3.766   5.626
  565SOL    HW1 2594   4.419   3.841   5.560
  565SOL    HW2 2595   4.419   3.679   5.578
  566SOL     OW 2596   4.314   4.915   3.361
  566SOL    HW1 2597   4.378   4.906   3.285
  566SOL    HW2 2598   4.363   4.950   3.442
  567SOL     OW 2599   3.557   3.096   4.264
  567SOL    HW1 2600   3.554   3.046   4.351
  567SOL    HW2 2601   3.577   3.032   4.190
  568SOL     OW 2602   3.013   2.579   6.951
  568SOL    HW1 2603   3.050   2.637   6.878
  568SOL    HW2 2604   2.917   2.601   6.964
  569SOL     OW 2605   1.679   2.590   0.526
  569SOL    HW1 2606   1.710   2.496   0.540
  569SOL    HW2 2607   1.583   2.598   0.555
  570SOL     OW 2608   1.508   6.859   0.684
  570SOL    HW1 2609   1.430   6.867   0.746
  570SOL    HW2 2610   1.590   6.839   0.738
  571SOL     OW 2611   3.382   5.458   2.883
  571SOL    HW1 2612   3.398   5.369   2.841
  571SOL    HW2 2613   3.470   5.505   2.895
  572SOL     OW 2614   2.409   4.244   6.057
  572SOL    HW1 2615   2.392   4.311   5.984
  572SOL    HW2 2616   2.403   4.152   6.019
  573SOL     OW 2617   4.304   0.978   4.895
  573SOL    HW1 2618   4.274   0.906   4.958
  573SOL    HW2 2619   4.340   0.937   4.812
  574SOL     OW 2620   2.353   2.295   4.185
  574SOL    HW1 2621   2.315   2.296   4.278
  574SOL    HW2 2622   2.325   2.377   4.137
  575SOL     OW 2623   6.622   2.982   0.265
  575SOL    HW1 2624   6.711   3.017   0.294
  575SOL    HW2 2625   6.552   3.052   0.282
  576SOL     OW 2626   1.004   2.459   2.591
  576SOL    HW1 2627   1.066   2.538   2.584
  576SOL    HW2 2628   1.052   2.383   2.634
  577SOL     OW 2629   2.258   1.884   3.652
  577SOL    HW1 2630   2.220   1.816   3.590
  577SOL    HW2 2631   2.232   1.975   3.621
  578SOL     OW 2632   0.450   3.423   3.393
  578SOL    HW1 2633   0.478   3.480   3.470
  578SOL    HW2 2634   0.405   3.340   3.427
  579SOL     OW 2635   4.114   1.710   0.514
  579SOL    HW1 2636   4.076   1.803   0.517
  579SOL    HW2 2637   4.039   1.645   0.503
  580SOL     OW 2638   1.141   5.206   6.866
  580SOL    HW1 2639   1.172   5.257   6.945
  580SOL    HW2 2640   1.107   5.116   6.895
  581SOL     OW 2641   3.876   3.496   2.808
  581SOL    HW1 2642   3.826   3.420   2.767
  581SOL    HW2 2643   3.820   3.579   2.803
  582SOL     OW 2644   5.124   3.940   2.715
  582SOL    HW1 2645   5.202   3.998   2.738
  582SOL    HW2 2646   5.058   3.941   2.789
  583SOL     OW 2647   2.252   4.361   0.207
  583SOL    HW1 2648   2.320   4.423   0.247
  583SOL    HW2 2649   2.191   4.412   0.147
  584SOL     OW 2650   0.345   4.539   5.188
  584SOL    HW1 2651   0.345   4.605   5.263
  584SOL    HW2 2652   0.379   4.451   5.220
  585SOL     OW 2653   0.414   2.559   6.035
  585SOL    HW1 2654   0.415   2.540   6.133
  585SOL    HW2 2655   0.470   2.491   5.988
  586SOL     OW 2656   2.877   6.522   1.232
  586SOL    HW1 2657   2.963   6.517   1.282
  586SOL    HW2 2658   2.805   6.554   1.293
  587SOL     OW 2659   1.302   3.090   6.054
  587SOL    HW1 2660   1.395   3.055   6.054
  587SOL    HW2 2661   1.238   3.014   6.066
  588SOL     OW 2662   3.419   6.490   1.704
  588SOL    HW1 2663   3.425   6.412   1.642
  588SOL    HW2 2664   3.510   6.529   1.718
  589SOL     OW 2665   3.844   4.913   2.611
  589SOL    HW1 2666   3.794   4.980   2.556
  589SOL    HW2 2667   3.801   4.904   2.700
  590SOL     OW 2668   0.662   2.255   1.873
  590SOL    HW1 2669   0.647   2.328   1.940
  590SOL    HW2 2670   0.624   2.169   1.908
  591SOL     OW 2671   3.504   0.292   3.459
  591SOL    HW1 2672   3.543   0.202   3.442
  591SOL    HW2 2673   3.566   0.345   3.518
  592SOL     OW 2674   4.538   0.506   0.471
  592SOL    HW1 2675   4.481   0.567   0.526
  592SOL    HW2 2676   4.511   0.411   0.487
  593SOL     OW 2677   4.713   2.315   3.906
  593SOL    HW1 2678   4.797   2.369   3.915
  593SOL    HW2 2679   4.734   2.219   3.926
  594SOL     OW 2680   4.036   3.982   1.122
  594SOL    HW1 2681   4.114   4.036   1.092
  594SOL    HW2 2682   3.984   3.950   1.043
  595SOL     OW 2683   3.860   6.071   4.021
  595SOL    HW1 2684   3.902   6.017   4.094
  595SOL    HW2 2685   3.761   6.070   4.031
  596SOL     OW 2686   0.813   4.544   2.560
  596SOL    HW1 2687   0.890   4.533   2.623
  596SOL    HW2 2688   0.727   4.541   2.610
  597SOL     OW 2689   4.592   0.422   5.919
  597SOL    HW1 2690   4.525   0.377   5.978
  597SOL    HW2 2691   4.585   0.383   5.826
  598SOL     OW 2692   3.855   4.534   0.529
  598SOL    HW1 2693   3.859   4.587   0.445
  598SOL    HW2 2694   3.888   4.441   0.512
  599SOL     OW 2695   6.722   0.134   2.699
  599SOL    HW1 2696   6.719   0.158   2.796
  599SOL    HW2 2697   6.704   0.215   2.644
  600SOL     OW 2698   1.115   6.827   0.111
  600SOL    HW1 2699   1.023   6.847   0.075
  600SOL    HW2 2700   1.107   6.787   0.202
  601SOL     OW 2701   2.903   6.086   3.736
  601SOL    HW1 2702   2.874   6.024   3.663
  601SOL    HW2 2703   2.907   6.179   3.700
  602SOL     OW 2704   1.601   0.496   1.342
  602SOL    HW1 2705   1.616   0.547   1.258
  602SOL    HW2 2706   1.525   0.433   1.330
  603SOL     OW 2707   4.097   2.203   3.263
  603SOL    HW1 2708   4.157   2.249   3.328
  603SOL    HW2 2709   4.136   2.212   3.171
  604SOL     OW 2710   1.130   3.520   6.674
  604SOL    HW1 2711   1.209   3.510   6.615
  604SOL    HW2 2712   1.121   3.439   6.733
  605SOL     OW 2713   6.225   6.627   3.154
  605SOL    HW1 2714   6.210   6.649   3.058
  605SOL    HW2 2715   6.195   6.704   3.211
  606SOL     OW 2716   3.689   0.487   3.621
  606SOL    HW1 2717   3.648   0.574   3.649
  606SOL    HW2 2718   3.720   0.437   3.702
  607SOL     OW 2719   5.104   1.724   4.500
  607SOL    HW1 2720   5.202   1.705   4.498
  607SOL    HW2 2721   5.085   1.797   4.566
  608SOL     OW 2722   3.799   0.869   0.606
  608SOL    HW1 2723   3.866   0.823   0.665
  608SOL    HW2 2724   3.707   0.837   0.628
  609SOL     OW 2725   3.184   2.990   3.983
  609SOL    HW1 2726   3.268   2.963   4.030
  609SOL    HW2 2727   3.105   2.973   4.042
  610SOL     OW 2728   5.465   2.558   4.430
  610SOL    HW1 2729   5.538   2.489   4.439
  610SOL    HW2 2730   5.405   2.533   4.354
  611SOL     OW 2731   0.373   0.339   0.633
  611SOL    HW1 2732   0.442   0.405   0.602
  611SOL    HW2 2733   0.384   0.254   0.582
  612SOL     OW 2734   3.164   5.252   6.069
  612SOL    HW1 2735   3.077   5.282   6.030
  612SOL    HW2 2736   3.171   5.284   6.163
  613SOL     OW 2737   3.829   1.471   6.290
  613SOL    HW1 2738   3.922   1.436   6.276
  613SOL    HW2 2739   3.833   1.564   6.325
  614SOL     OW 2740   5.248   4.640   1.106
  614SOL    HW1 2741   5.195   4.557   1.093
  614SOL    HW2 2742   5.198   4.703   1.165
  615SOL     OW 2743   0.231   6.730   0.811
  615SOL    HW1 2744   0.180   6.706   0.894
  615SOL    HW2 2745   0.252   6.827   0.812
  616SOL     OW 2746   5.818   1.506   4.267
  616SOL    HW1 2747   5.901   1.455   4.244
  616SOL    HW2 2748   5.740   1.469   4.216
  617SOL     OW 2749   0.476   4.791   5.672
  617SOL    HW1 2750   0.466   4.891   5.664
  617SOL    HW2 2751   0.429   4.760   5.755
  618SOL     OW 2752   5.863   3.416   0.410
  618SOL    HW1 2753   5.767   3.389   0.419
  618SOL    HW2 2754   5.903   3.429   0.501
  619SOL     OW 2755   3.039   0.599   0.690
  619SOL    HW1 2756   3.046   0.553   0.779
  619SOL    HW2 2757   3.046   0.698   0.704
  620SOL     OW 2758   5.779   2.108   1.945
  620SOL    HW1 2759   5.729   2.123   1.860
  620SOL    HW2 2760   5.717   2.075   2.016
  621SOL     OW 2761   2.938   0.826   6.594
  621SOL    HW1 2762   3.023   0.807   6.546
  621SOL    HW2 2763   2.958   0.862   6.685
  622SOL     OW 2764   1.554   1.432   4.908
  622SOL    HW1 2765   1.535   1.495   4.833
  622SOL    HW2 2766   1.641   1.385   4.891
  623SOL     OW 2767   5.726   7.020   4.150
  623SOL    HW1 2768   5.802   6.962   4.120
  623SOL    HW2 2769   5.639   6.971   4.135
  624SOL     OW 2770   6.732   1.115   6.657
  624SOL    HW1 2771   6.747   1.152   6.749
  624SOL    HW2 2772   6.774   1.175   6.590
  625SOL     OW 2773   2.764   0.872   0.733
  625SOL    HW1 2774   2.842   0.890   0.673
  625SOL    HW2 2775   2.796   0.833   0.819
  626SOL     OW 2776   0.670   5.313   3.695
  626SOL    HW1 2777   0.747   5.346   3.751
  626SOL    HW2 2778   0.706   5.272   3.611
  627SOL     OW 2779   6.758   0.239   6.992
  627SOL    HW1 2780   6.679   0.261   6.935
  627SOL    HW2 2781   6.825   0.188   6.939
  628SOL     OW 2782   5.146   4.699   5.018
  628SOL    HW1 2783   5.184   4.789   4.997
  628SOL    HW2 2784   5.219   4.631   5.021
  629SOL     OW 2785   0.119   0.081   6.282
  629SOL    HW1 2786   0.041   0.019   6.270
  629SOL    HW2 2787   0.160   0.065   6.372
  630SOL     OW 2788   6.524   1.442   1.004
  630SOL    HW1 2789   6.548   1.498   1.083
  630SOL    HW2 2790   6.592   1.456   0.932
  631SOL     OW 2791   1.885   2.395   4.963
  631SOL    HW1 2792   1.913   2.381   4.868
  631SOL    HW2 2793   1.952   2.454   5.009
  632SOL     OW 2794   3.687   3.338   6.604
  632SOL    HW1 2795   3.680   3.303   6.698
  632SOL    HW2 2796   3.636   3.278   6.543
  633SOL     OW 2797   1.616   6.015   1.752
  633SOL    HW1 2798   1.688   6.069   1.707
  633SOL    HW2 2799   1.658   5.940   1.802
  634SOL     OW 2800   3.103   3.298   4.431
  634SOL    HW1 2801   3.078   3.328   4.522
  634SOL    HW2 2802   3.119   3.377   4.372
  635SOL     OW 2803   5.898   0.732   6.475
  635SOL    HW1 2804   5.904   0.801   6.548
  635SOL    HW2 2805   5.823   0.670   6.494
  636SOL     OW 2806   2.867   0.504   6.910
  636SOL    HW1 2807   2.944   0.453   6.949
  636SOL    HW2 2808   2.783   0.479   6.959
  637SOL     OW 2809   6.278   1.165   1.318
  637SOL    HW1 2810   6.342   1.126   1.385
  637SOL    HW2 2811   6.306   1.258   1.295
  638SOL     OW 2812   6.517   3.575   4.249
  638SOL    HW1 2813   6.565   3.557   4.335
  638SOL    HW2 2814   6.549   3.661   4.210
  639SOL     OW 2815   5.118   4.935   3.307
  639SOL    HW1 2816   5.041   4.986   3.269
  639SOL    HW2 2817   5.091   4.893   3.393
  640SOL     OW 2818   0.532   2.709   2.368
  640SOL    HW1 2819   0.439   2.714   2.332
  640SOL    HW2 2820   0.529   2.696   2.467
  641SOL     OW 2821   1.987   4.868   4.527
  641SOL    HW1 2822   2.052   4.795   4.547
  641SOL    HW2 2823   1.936   4.844   4.444
  642SOL     OW 2824   1.104   3.733   5.006
  642SOL    HW1 2825   1.088   3.643   5.047
  642SOL    HW2 2826   1.096   3.804   5.076
  643SOL     OW 2827   4.888   5.090   6.959
  643SOL    HW1 2828   4.909   5.003   6.914
  643SOL    HW2 2829   4.804   5.128   6.920
  644SOL     OW 2830   6.673   0.149   4.567
  644SOL    HW1 2831   6.694   0.053   4.549
  644SOL    HW2 2832   6.685   0.202   4.484
  645SOL     OW 2833   4.260   4.680   2.382
  645SOL    HW1 2834   4.305   4.731   2.309
  645SOL    HW2 2835   4.185   4.735   2.420
  646SOL     OW 2836   4.190   0.657   5.255
  646SOL    HW1 2837   4.207   0.751   5.227
  646SOL    HW2 2838   4.277   0.610   5.269
  647SOL     OW 2839   4.762   2.145   5.224
  647SOL    HW1 2840   4.824   2.067   5.234
  647SOL    HW2 2841   4.773   2.206   5.303
  648SOL     OW 2842   6.067   2.303   2.927
  648SOL    HW1 2843   6.080   2.230   2.994
  648SOL    HW2 2844   6.032   2.385   2.973
  649SOL     OW 2845   2.370   5.064   0.561
  649SOL    HW1 2846   2.302   4.995   0.587
  649SOL    HW2 2847   2.338   5.114   0.480
  650SOL     OW 2848   6.843   5.600   0.881
  650SOL    HW1 2849   6.918   5.642   0.932
  650SOL    HW2 2850   6.757   5.641   0.910
  651SOL     OW 2851   1.157   0.217   5.185
  651SOL    HW1 2852   1.141   0.286   5.115
  651SOL    HW2 2853   1.255   0.197   5.190
  652SOL     OW 2854   3.805   6.692   1.327
  652SOL    HW1 2855   3.719   6.702   1.278
  652SOL    HW2 2856   3.840   6.783   1.351
  653SOL     OW 2857   0.580   6.223   1.510
  653SOL    HW1 2858   0.656   6.236   1.574
  653SOL    HW2 2859   0.606   6.258   1.420
  654SOL     OW 2860   0.057   6.802   5.346
  654SOL    HW1 2861   0.099   6.862   5.414
  654SOL    HW2 2862   7.013   6.745   5.390
  655SOL     OW 2863   6.905   4.403   2.198
  655SOL    HW1 2864   6.943   4.319   2.237
  655SOL    HW2 2865   6.975   4.475   2.200
  656SOL     OW 2866   3.383   6.700   0.368
  656SOL    HW1 2867   3.384   6.751   0.454
  656SOL    HW2 2868   3.382   6.602   0.387
  657SOL     OW 2869   3.510   2.673   1.796
  657SOL    HW1 2870   3.415   2.686   1.770
  657SOL    HW2 2871   3.534   2.737   1.869
  658SOL     OW 2872   2.298   4.156   4.183
  658SOL    HW1 2873   2.221   4.140   4.121
  658SOL    HW2 2874   2.382   4.125   4.139
  659SOL     OW 2875   2.116   6.823   5.712
  659SOL    HW1 2876   2.042   6.821   5.645
  659SOL    HW2 2877   2.196   6.776   5.675
  660SOL     OW 2878   4.795   4.175   2.044
  660SOL    HW1 2879   4.713   4.232   2.042
  660SOL    HW2 2880   4.827   4.165   2.138
  661SOL     OW 2881   4.231   4.730   4.093
  661SOL    HW1 2882   4.135   4.709   4.078
  661SOL    HW2 2883   4.264   4.794   4.023
  662SOL     OW 2884   4.761   3.173   0.676
  662SOL    HW1 2885   4.837   3.148   0.735
  662SOL    HW2 2886   4.743   3.099   0.611
  663SOL     OW 2887   0.497   4.669   0.503
  663SOL    HW1 2888   0.493   4.635   0.409
  663SOL    HW2 2889   0.433   4.745   0.513
  664SOL     OW 2890   1.613   6.703   6.829
  664SOL    HW1 2891   1.538   6.706   6.763
  664SOL    HW2 2892   1.611   6.616   6.877
  665SOL     OW 2893   4.250   5.759   1.044
  665SOL    HW1 2894   4.227   5.778   1.139
  665SOL    HW2 2895   4.281   5.843   1.000
  666SOL     OW 2896   3.555   2.025   0.218
  666SOL    HW1 2897   3.531   2.113   0.176
  666SOL    HW2 2898   3.619   2.041   0.293
  667SOL     OW 2899   0.972   3.381   3.183
  667SOL    HW1 2900   1.072   3.377   3.177
  667SOL    HW2 2901   0.932   3.318   3.117
  668SOL     OW 2902   4.877   6.558   0.448
  668SOL    HW1 2903   4.791   6.526   0.409
  668SOL    HW2 2904   4.906   6.642   0.400
  669SOL     OW 2905   1.525   6.515   3.248
  669SOL    HW1 2906   1.584   6.572   3.306
  669SOL    HW2 2907   1.582   6.449   3.199
  670SOL     OW 2908   3.144   4.031   3.795
  670SOL    HW1 2909   3.220   4.025   3.859
  670SOL    HW2 2910   3.164   4.101   3.726
  671SOL     OW 2911   2.297   0.131   5.518
  671SOL    HW1 2912   2.303   0.068   5.441
  671SOL    HW2 2913   2.291   0.080   5.604
  672SOL     OW 2914   2.075   3.389   3.878
  672SOL    HW1 2915   2.083   3.475   3.928
  672SOL    HW2 2916   2.033   3.320   3.937
  673SOL     OW 2917   4.971   0.330   0.369
  673SOL    HW1 2918   4.957   0.274   0.451
  673SOL    HW2 2919   4.917   0.414   0.377
  674SOL     OW 2920   0.518   1.335   3.524
  674SOL    HW1 2921   0.476   1.311   3.611
  674SOL    HW2 2922   0.510   1.259   3.460
  675SOL     OW 2923   6.939   2.618   4.423
  675SOL    HW1 2924   0.003   2.645   4.387
  675SOL    HW2 2925   6.894   2.697   4.463
  676SOL     OW 2926   2.399   4.709   4.255
  676SOL    HW1 2927   2.492   4.675   4.268
  676SOL    HW2 2928   2.390   4.799   4.296
  677SOL     OW 2929   6.098   0.144   0.633
  677SOL    HW1 2930   6.090   0.102   0.724
  677SOL    HW2 2931   6.007   0.149   0.591
  678SOL     OW 2932   2.126   1.019   6.551
  678SOL    HW1 2933   2.194   0.945   6.549
  678SOL    HW2 2934   2.065   1.006   6.629
  679SOL     OW 2935   4.418   0.516   2.407
  679SOL    HW1 2936   4.454   0.608   2.422
  679SOL    HW2 2937   4.335   0.521   2.351
  680SOL     OW 2938   4.530   4.527   5.461
  680SOL    HW1 2939   4.570   4.532   5.552
  680SOL    HW2 2940   4.596   4.562   5.394
  681SOL     OW 2941   0.554   6.723   1.148
  681SOL    HW1 2942   0.606   6.660   1.090
  681SOL    HW2 2943   0.489   6.671   1.203
  682SOL     OW 2944   1.343   5.881   0.247
  682SOL    HW1 2945   1.324   5.923   0.335
  682SOL    HW2 2946   1.442   5.881   0.230
  683SOL     OW 2947   4.180   1.288   0.046
  683SOL    HW1 2948   4.116   1.215   0.068
  683SOL    HW2 2949   4.190   1.349   0.124
  684SOL     OW 2950   0.396   5.858   5.802
  684SOL    HW1 2951   0.478   5.893   5.759
  684SOL    HW2 2952   0.385   5.761   5.779
  685SOL     OW 2953   5.754   0.163   5.644
  685SOL    HW1 2954   5.676   0.182   5.584
  685SOL    HW2 2955   5.740   0.076   5.690
  686SOL     OW 2956   5.159   3.899   3.247
  686SOL    HW1 2957   5.096   3.822   3.234
  686SOL    HW2 2958   5.186   3.935   3.157
  687SOL     OW 2959   0.216   3.502   5.702
  687SOL    HW1 2960   0.144   3.562   5.666
  687SOL    HW2 2961   0.274   3.554   5.765
  688SOL     OW 2962   0.514   3.791   6.297
  688SOL    HW1 2963   0.591   3.780   6.235
  688SOL    HW2 2964   0.547   3.803   6.391
  689SOL     OW 2965   6.557   3.626   6.049
  689SOL    HW1 2966   6.626   3.698   6.036
  689SOL    HW2 2967   6.481   3.642   5.986
  690SOL     OW 2968   1.230   2.153   3.596
  690SOL    HW1 2969   1.284   2.166   3.512
  690SOL    HW2 2970   1.268   2.210   3.669
  691SOL     OW 2971   1.029   2.457   6.736
  691SOL    HW1 2972   1.111   2.513   6.741
  691SOL    HW2 2973   0.988   2.449   6.827
  692SOL     OW 2974   2.475   0.196   2.378
  692SOL    HW1 2975   2.409   0.188   2.303
  692SOL    HW2 2976   2.431   0.166   2.464
  693SOL     OW 2977   6.609   2.683   2.842
  693SOL    HW1 2978   6.634   2.604   2.785
  693SOL    HW2 2979   6.527   2.726   2.805
  694SOL     OW 2980   1.716   6.455   1.346
  694SOL    HW1 2981   1.809   6.482   1.321
  694SOL    HW2 2982   1.684   6.382   1.286
  695SOL     OW 2983   5.336   5.867   5.198
  695SOL    HW1 2984   5.368   5.933   5.266
  695SOL    HW2 2985   5.315   5.780   5.242
  696SOL     OW 2986   4.349   4.838   2.177
  696SOL    HW1 2987   4.363   4.874   2.085
  696SOL    HW2 2988   4.436   4.840   2.226
  697SOL     OW 2989   1.071   4.404   4.456
  697SOL    HW1 2990   1.114   4.492   4.474
  697SOL    HW2 2991   0.974   4.418   4.433
  698SOL     OW 2992   4.575   0.354   3.489
  698SOL    HW1 2993   4.572   0.274   3.429
  698SOL    HW2 2994   4.559   0.436   3.435
  699SOL     OW 2995   1.361   3.828   0.961
  699SOL    HW1 2996   1.352   3.877   1.048
  699SOL    HW2 2997   1.370   3.894   0.886
  700SOL     OW 2998   2.748   2.385   4.624
  700SOL    HW1 2999   2.708   2.350   4.540
  700SOL    HW2 3000   2.729   2.483   4.632
  701SOL     OW 3001   0.775   4.028   6.288
  701SOL    HW1 3002   0.679   4.042   6.313
  701SOL    HW2 3003   0.781   4.011   6.189
  702SOL     OW 3004   4.939   6.986   3.978
  702SOL    HW1 3005   5.036   6.980   3.952
  702SOL    HW2 3006   4.897   0.037   3.930
  703SOL     OW 3007   4.118   3.906   6.315
  703SOL    HW1 3008   4.032   3.856   6.322
  703SOL    HW2 3009   4.102   4.003   6.335
  704SOL     OW 3010   1.470   7.016   6.854
  704SOL    HW1 3011   1.483   0.085   6.885
  704SOL    HW2 3012   1.556   6.966   6.866
  705SOL     OW 3013   5.810   1.540   2.575
  705SOL    HW1 3014   5.834   1.637   2.569
  705SOL    HW2 3015   5.893   1.485   2.570
  706SOL     OW 3016   3.602   1.856   3.745
  706SOL    HW1 3017   3.623   1.945   3.705
  706SOL    HW2 3018   3.514   1.861   3.793
  707SOL     OW 3019   5.424   0.272   1.541
  707SOL    HW1 3020   5.463   0.228   1.460
  707SOL    HW2 3021   5.341   0.223   1.568
  708SOL     OW 3022   4.046   0.670   1.022
  708SOL    HW1 3023   4.002   0.687   1.109
  708SOL    HW2 3024   3.977   0.652   0.952
  709SOL     OW 3025   1.061   5.066   1.000
  709SOL    HW1 3026   1.144   5.021   1.033
  709SOL    HW2 3027   1.085   5.152   0.956
  710SOL     OW 3028   3.116   4.025   2.546
  710SOL    HW1 3029   3.080   4.085   2.617
  710SOL    HW2 3030   3.039   3.984   2.495
  711SOL     OW 3031   6.879   1.562   4.128
  711SOL    HW1 3032   6.802   1.606   4.081
  711SOL    HW2 3033   6.964   1.608   4.102
  712SOL     OW 3034   1.336   3.683   1.721
  712SOL    HW1 3035   1.363   3.653   1.630
  712SOL    HW2 3036   1.241   3.715   1.720
  713SOL     OW 3037   4.078   3.471   2.276
  713SOL    HW1 3038   4.096   3.395   2.338
  713SOL    HW2 3039   4.121   3.453   2.188
  714SOL     OW 3040   5.743   4.489   4.983
  714SOL    HW1 3041   5.649   4.522   4.990
  714SOL    HW2 3042   5.750   4.422   4.909
  715SOL     OW 3043   4.462   0.102   6.293
  715SOL    HW1 3044   4.518   0.046   6.233
  715SOL    HW2 3045   4.520   0.143   6.364
  716SOL     OW 3046   0.318   4.683   1.492
  716SOL    HW1 3047   0.337   4.712   1.398
  716SOL    HW2 3048   0.263   4.753   1.538
  717SOL     OW 3049   6.516   3.186   6.963
  717SOL    HW1 3050   6.615   3.195   6.973
  717SOL    HW2 3051   6.471   3.218   0.021
  718SOL     OW 3052   3.663   3.597   6.297
  718SOL    HW1 3053   3.600   3.520   6.292
  718SOL    HW2 3054   3.702   3.614   6.206
  719SOL     OW 3055   6.483   4.151   0.925
  719SOL    HW1 3056   6.497   4.243   0.963
  719SOL    HW2 3057   6.387   4.141   0.899
  720SOL     OW 3058   2.222   1.846   6.507
  720SOL    HW1 3059   2.215   1.935   6.462
  720SOL    HW2 3060   2.226   1.773   6.439
  721SOL     OW 3061   1.442   0.165   5.772
  721SOL    HW1 3062   1.387   0.083   5.787
  721SOL    HW2 3063   1.475   0.199   5.860
  722SOL     OW 3064   4.052   0.251   4.830
  722SOL    HW1 3065   3.983   0.212   4.769
  722SOL    HW2 3066   4.142   0.212   4.807
  723SOL     OW 3067   1.499   2.498   2.575
  723SOL    HW1 3068   1.532   2.585   2.611
  723SOL    HW2 3069   1.519   2.492   2.477
  724SOL     OW 3070   0.296   0.737   4.521
  724SOL    HW1 3071   0.310   0.670   4.447
  724SOL    HW2 3072   0.202   0.771   4.518
  725SOL     OW 3073   2.180   4.809   2.506
  725SOL    HW1 3074   2.243   4.812   2.584
  725SOL    HW2 3075   2.217   4.864   2.432
  726SOL     OW 3076   3.625   6.576   6.820
  726SOL    HW1 3077   3.605   6.587   6.723
  726SOL    HW2 3078   3.705   6.516   6.831
  727SOL     OW 3079   3.188   5.489   4.353
  727SOL    HW1 3080   3.192   5.416   4.421
  727SOL    HW2 3081   3.277   5.535   4.347
  728SOL     OW 3082   0.048   4.082   5.031
  728SOL    HW1 3083   0.008   4.012   5.090
  728SOL    HW2 3084   7.001   4.126   4.978
  729SOL     OW 3085   2.534   0.937   1.304
  729SOL    HW1 3086   2.550   1.032   1.331
  729SOL    HW2 3087   2.453   0.902   1.352
  730SOL     OW 3088   6.136   0.842   3.461
  730SOL    HW1 3089   6.057   0.869   3.405
  730SOL    HW2 3090   6.160   0.917   3.522
  731SOL     OW 3091   5.804   3.782   4.603
  731SOL    HW1 3092   5.806   3.778   4.503
  731SOL    HW2 3093   5.762   3.699   4.639
  732SOL     OW 3094   6.940   3.178   1.332
  732SOL    HW1 3095   6.868   3.243   1.307
  732SOL    HW2 3096   6.920   3.089   1.289
  733SOL     OW 3097   4.782   4.338   3.996
  733SOL    HW1 3098   4.693   4.385   3.996
  733SOL    HW2 3099   4.854   4.404   4.017
  734SOL     OW 3100   6.796   4.282   1.141
  734SOL    HW1 3101   6.712   4.332   1.120
  734SOL    HW2 3102   6.805   4.273   1.240
  735SOL     OW 3103   1.390   3.622   6.537
  735SOL    HW1 3104   1.320   3.693   6.542
  735SOL    HW2 3105   1.451   3.629   6.616
  736SOL     OW 3106   6.800   0.465   3.221
  736SOL    HW1 3107   6.835   0.527   3.151
  736SOL    HW2 3108   6.726   0.410   3.182
  737SOL     OW 3109   5.311   3.746   0.983
  737SOL    HW1 3110   5.226   3.701   0.956
  737SOL    HW2 3111   5.377   3.678   1.015
  738SOL     OW 3112   0.082   4.232   4.307
  738SOL    HW1 3113   0.149   4.273   4.245
  738SOL    HW2 3114   7.016   4.246   4.271
  739SOL     OW 3115   4.300   6.426   5.911
  739SOL    HW1 3116   4.293   6.482   5.993
  739SOL    HW2 3117   4.235   6.460   5.842
  740SOL     OW 3118   6.227   6.958   1.551
  740SOL    HW1 3119   6.209   6.869   1.510
  740SOL    HW2 3120   6.279   7.015   1.487
  741SOL     OW 3121   1.531   6.486   2.919
  741SOL    HW1 3122   1.447   6.539   2.934
  741SOL    HW2 3123   1.575   6.468   3.007
  742SOL     OW 3124   1.341   6.875   3.451
  742SOL    HW1 3125   1.439   6.890   3.445
  742SOL    HW2 3126   1.317   6.791   3.402
  743SOL     OW 3127   1.672   3.828   4.148
  743SOL    HW1 3128   1.637   3.798   4.059
  743SOL    HW2 3129   1.600   3.878   4.197
  744SOL     OW 3130   6.959   5.642   6.970
  744SOL    HW1 3131   6.867   5.604   6.964
  744SOL    HW2 3132   6.989   5.643   0.039
  745SOL     OW 3133   1.315   6.159   3.044
  745SOL    HW1 3134   1.377   6.222   2.998
  745SOL    HW2 3135   1.368   6.093   3.097
  746SOL     OW 3136   1.107   0.159   4.829
  746SOL    HW1 3137   1.019   0.135   4.870
  746SOL    HW2 3138   1.163   0.076   4.819
  747SOL     OW 3139   4.721   4.670   3.213
  747SOL    HW1 3140   4.755   4.687   3.305
  747SOL    HW2 3141   4.632   4.625   3.218
  748SOL     OW 3142   4.002   3.586   0.973
  748SOL    HW1 3143   3.973   3.504   1.023
  748SOL    HW2 3144   4.063   3.640   1.031
  749SOL     OW 3145   0.521   2.342   5.257
  749SOL    HW1 3146   0.609   2.364   5.215
  749SOL    HW2 3147   0.525   2.252   5.299
  750SOL     OW 3148   2.080   3.620   0.102
  750SOL    HW1 3149   2.039   3.630   0.012
  750SOL    HW2 3150   2.144   3.695   0.118
  751SOL     OW 3151   4.774   0.926   0.207
  751SOL    HW1 3152   4.783   0.959   0.113
  751SOL    HW2 3153   4.849   0.961   0.263
  752SOL     OW 3154   4.238   2.244   1.809
  752SOL    HW1 3155   4.327   2.285   1.790
  752SOL    HW2 3156   4.166   2.311   1.791
  753SOL     OW 3157   2.001   3.075   4.787
  753SOL    HW1 3158   2.022   3.143   4.857
  753SOL    HW2 3159   1.906   3.086   4.757
  754SOL     OW 3160   4.405   4.303   6.476
  754SOL    HW1 3161   4.312   4.336   6.459
  754SOL    HW2 3162   4.416   4.283   6.573
  755SOL     OW 3163   0.535   5.745   0.212
  755SOL    HW1 3164   0.623   5.786   0.185
  755SOL    HW2 3165   0.540   5.716   0.308
  756SOL     OW 3166   4.908   0.266   1.737
  756SOL    HW1 3167   4.984   0.286   1.674
  756SOL    HW2 3168   4.853   0.348   1.750
  757SOL     OW 3169   0.536   6.359   3.694
  757SOL    HW1 3170   0.454   6.308   3.668
  757SOL    HW2 3171   0.510   6.448   3.732
  758SOL     OW 3172   3.564   2.340   0.989
  758SOL    HW1 3173   3.658   2.334   1.023
  758SOL    HW2 3174   3.509   2.268   1.032
  759SOL     OW 3175   1.099   1.891   6.994
  759SOL    HW1 3176   1.137   1.822   6.933
  759SOL    HW2 3177   1.044   1.956   6.941
  760SOL     OW 3178   5.497   1.479   7.020
  760SOL    HW1 3179   5.436   1.439   6.951
  760SOL    HW2 3180   5.463   1.569   0.020
  761SOL     OW 3181   6.381   2.568   0.315
  761SOL    HW1 3182   6.285   2.567   0.342
  761SOL    HW2 3183   6.389   2.602   0.221
  762SOL     OW 3184   2.496   5.738   3.373
  762SOL    HW1 3185   2.485   5.671   3.300
  762SOL    HW2 3186   2.580   5.790   3.358
  763SOL     OW 3187   4.248   5.651   6.826
  763SOL    HW1 3188   4.256   5.553   6.843
  763SOL    HW2 3189   4.192   5.666   6.744
  764SOL     OW 3190   3.768   1.801   2.217
  764SOL    HW1 3191   3.839   1.771   2.281
  764SOL    HW2 3192   3.773   1.746   2.133
  765SOL     OW 3193   0.008   6.783   2.467
  765SOL    HW1 3194   6.966   6.828   2.525
  765SOL    HW2 3195   0.046   6.849   2.402
  766SOL     OW 3196   6.799   6.926   0.038
  766SOL    HW1 3197   6.880   6.983   0.053
  766SOL    HW2 3198   6.733   6.942   0.111
  767SOL     OW 3199   6.853   6.282   2.241
  767SOL    HW1 3200   6.788   6.356   2.223
  767SOL    HW2 3201   6.924   6.282   2.171
  768SOL     OW 3202   2.727   0.635   2.666
  768SOL    HW1 3203   2.741   0.720   2.616
  768SOL    HW2 3204   2.792   0.630   2.742
  769SOL     OW 3205   4.462   0.256   5.071
  769SOL    HW1 3206   4.437   0.170   5.116
  769SOL    HW2 3207   4.462   0.242   4.972
  770SOL     OW 3208   3.053   5.247   3.892
  770SOL    HW1 3209   2.985   5.192   3.843
  770SOL    HW2 3210   3.037   5.241   3.990
  771SOL     OW 3211   1.533   5.526   3.674
  771SOL    HW1 3212   1.608   5.492   3.616
  771SOL    HW2 3213   1.479   5.449   3.707
  772SOL     OW 3214   6.573   4.530   6.922
  772SOL    HW1 3215   6.561   4.437   6.886
  772SOL    HW2 3216   6.518   4.540   7.005
  773SOL     OW 3217   6.997   4.070   3.275
  773SOL    HW1 3218   6.900   4.051   3.263
  773SOL    HW2 3219   0.019   3.985   3.300
  774SOL     OW 3220   1.248   1.199   1.671
  774SOL    HW1 3221   1.182   1.155   1.731
  774SOL    HW2 3222   1.207   1.281   1.630
  775SOL     OW 3223   1.382   1.991   4.163
  775SOL    HW1 3224   1.307   1.932   4.132
  775SOL    HW2 3225   1.397   2.064   4.096
  776SOL     OW 3226   1.823   0.753   6.335
  776SOL    HW1 3227   1.724   0.746   6.320
  776SOL    HW2 3228   1.862   0.662   6.344
  777SOL     OW 3229   4.638   1.459   0.301
  777SOL    HW1 3230   4.603   1.473   0.208
  777SOL    HW2 3231   4.738   1.464   0.299
  778SOL     OW 3232   4.300   0.635   3.535
  778SOL    HW1 3233   4.219   0.677   3.576
  778SOL    HW2 3234   4.298   0.537   3.552
  779SOL     OW 3235   0.961   2.098   2.291
  779SOL    HW1 3236   0.865   2.125   2.288
  779SOL    HW2 3237   0.979   2.032   2.218
  780SOL     OW 3238   6.335   2.849   4.053
  780SOL    HW1 3239   6.278   2.771   4.079
  780SOL    HW2 3240   6.286   2.934   4.070
  781SOL     OW 3241   6.742   0.903   6.102
  781SOL    HW1 3242   6.804   0.857   6.039
  781SOL    HW2 3243   6.763   0.874   6.196
  782SOL     OW 3244   0.543   2.978   1.037
  782SOL    HW1 3245   0.591   2.890   1.040
  782SOL    HW2 3246   0.522   3.008   1.130
  783SOL     OW 3247   3.128   5.634   0.649
  783SOL    HW1 3248   3.171   5.642   0.739
  783SOL    HW2 3249   3.032   5.660   0.656
  784SOL     OW 3250   3.978   0.476   5.179
  784SOL    HW1 3251   4.057   0.514   5.227
  784SOL    HW2 3252   3.931   0.411   5.238
  785SOL     OW 3253   6.231   1.687   2.884
  785SOL    HW1 3254   6.132   1.679   2.899
  785SOL    HW2 3255   6.249   1.746   2.805
  786SOL     OW 3256   0.067   6.902   0.169
  786SOL    HW1 3257   7.011   6.845   0.178
  786SOL    HW2 3258   0.144   6.857   0.214
  787SOL     OW 3259   2.467   1.618   6.388
  787SOL    HW1 3260   2.543   1.559   6.361
  787SOL    HW2 3261   2.502   1.691   6.448
  788SOL     OW 3262   2.032   3.848   4.464
  788SOL    HW1 3263   2.039   3.759   4.508
  788SOL    HW2 3264   1.963   3.904   4.511
  789SOL     OW 3265   5.590   3.314   1.641
  789SOL    HW1 3266   5.533   3.260   1.704
  789SOL    HW2 3267   5.533   3.352   1.569
  790SOL     OW 3268   2.761   1.344   3.801
  790SOL    HW1 3269   2.685   1.357   3.738
  790SOL    HW2 3270   2.799   1.434   3.826
  791SOL     OW 3271   3.986   0.912   3.948
  791SOL    HW1 3272   3.890   0.888   3.937
  791SOL    HW2 3273   3.999   0.963   4.033
  792SOL     OW 3274   6.098   0.712   2.148
  792SOL    HW1 3275   6.054   0.643   2.091
  792SOL    HW2 3276   6.083   0.690   2.244
  793SOL     OW 3277   5.036   6.833   0.677
  793SOL    HW1 3278   5.088   6.763   0.727
  793SOL    HW2 3279   5.098   6.885   0.619
  794SOL     OW 3280   2.518   4.762   5.633
  794SOL    HW1 3281   2.543   4.681   5.580
  794SOL    HW2 3282   2.425   4.751   5.669
  795SOL     OW 3283   3.831   5.037   5.460
  795SOL    HW1 3284   3.832   4.986   5.374
  795SOL    HW2 3285   3.806   4.976   5.535
  796SOL     OW 3286   0.124   2.687   5.655
  796SOL    HW1 3287   0.178   2.726   5.729
  796SOL    HW2 3288   0.041   2.645   5.693
  797SOL     OW 3289   6.158   2.304   3.790
  797SOL    HW1 3290   6.111   2.379   3.743
  797SOL    HW2 3291   6.221   2.258   3.727
  798SOL     OW 3292   5.116   0.629   0.178
  798SOL    HW1 3293   5.205   0.598   0.210
  798SOL    HW2 3294   5.063   0.664   0.255
  799SOL     OW 3295   6.765   1.889   3.420
  799SOL    HW1 3296   6.816   1.944   3.354
  799SOL    HW2 3297   6.827   1.827   3.468
  800SOL     OW 3298   4.948   0.888   2.543
  800SOL    HW1 3299   4.866   0.909   2.489
  800SOL    HW2 3300   4.961   0.960   2.612
  801SOL     OW 3301   0.485   2.271   3.506
  801SOL    HW1 3302   0.576   2.311   3.500
  801SOL    HW2 3303   0.493   2.172   3.517
  802SOL     OW 3304   5.593   1.989   0.167
  802SOL    HW1 3305   5.594   2.085   0.137
  802SOL    HW2 3306   5.502   1.965   0.200
  803SOL     OW 3307   6.278   5.507   3.975
  803SOL    HW1 3308   6.370   5.526   3.941
  803SOL    HW2 3309   6.221   5.588   3.966
  804SOL     OW 3310   0.076   6.105   0.435
  804SOL    HW1 3311   0.048   6.143   0.523
  804SOL    HW2 3312   0.084   6.179   0.368
  805SOL     OW 3313   3.628   2.662   5.644
  805SOL    HW1 3314   3.717   2.625   5.619
  805SOL    HW2 3315   3.634   2.762   5.649
  806SOL     OW 3316   4.821   2.502   6.740
  806SOL    HW1 3317   4.805   2.468   6.648
  806SOL    HW2 3318   4.771   2.445   6.806
  807SOL     OW 3319   0.880   0.695   3.267
  807SOL    HW1 3320   0.803   0.675   3.326
  807SOL    HW2 3321   0.915   0.787   3.285
  808SOL     OW 3322   5.326   3.259   5.845
  808SOL    HW1 3323   5.278   3.250   5.932
  808SOL    HW2 3324   5.418   3.294   5.861
  809SOL     OW 3325   1.123   4.579   0.662
  809SOL    HW1 3326   1.035   4.616   0.690
  809SOL    HW2 3327   1.165   4.531   0.740
  810SOL     OW 3328   4.938   3.631   0.683
  810SOL    HW1 3329   4.868   3.562   0.699
  810SOL    HW2 3330   4.898   3.707   0.631
  811SOL     OW 3331   5.158   5.243   3.836
  811SOL    HW1 3332   5.251   5.214   3.856
  811SOL    HW2 3333   5.119   5.185   3.764
  812SOL     OW 3334   6.904   0.423   1.356
  812SOL    HW1 3335   6.975   0.376   1.303
  812SOL    HW2 3336   6.869   0.361   1.427
  813SOL     OW 3337   4.422   5.583   3.206
  813SOL    HW1 3338   4.333   5.558   3.244
  813SOL    HW2 3339   4.452   5.512   3.142
  814SOL     OW 3340   5.797   6.414   1.921
  814SOL    HW1 3341   5.738   6.426   2.001
  814SOL    HW2 3342   5.872   6.479   1.924
  815SOL     OW 3343   6.753   2.669   0.893
  815SOL    HW1 3344   6.795   2.698   0.807
  815SOL    HW2 3345   6.676   2.608   0.874
  816SOL     OW 3346   6.874   6.268   0.735
  816SOL    HW1 3347   6.905   6.331   0.663
  816SOL    HW2 3348   6.923   6.181   0.728
  817SOL     OW 3349   1.925   3.444   2.406
  817SOL    HW1 3350   1.888   3.536   2.390
  817SOL    HW2 3351   2.002   3.428   2.344
  818SOL     OW 3352   6.145   2.325   0.577
  818SOL    HW1 3353   6.105   2.407   0.618
  818SOL    HW2 3354   6.136   2.248   0.640
  819SOL     OW 3355   6.748   2.029   3.672
  819SOL    HW1 3356   6.670   1.975   3.704
  819SOL    HW2 3357   6.781   1.993   3.585
  820SOL     OW 3358   0.539   2.572   4.029
  820SOL    HW1 3359   0.460   2.517   4.057
  820SOL    HW2 3360   0.616   2.552   4.088
  821SOL     OW 3361   1.418   4.000   0.756
  821SOL    HW1 3362   1.419   3.917   0.700
  821SOL    HW2 3363   1.476   4.070   0.712
  822SOL     OW 3364   0.817   4.344   5.096
  822SOL    HW1 3365   0.893   4.285   5.124
  822SOL    HW2 3366   0.779   4.311   5.010
  823SOL     OW 3367   5.144   3.841   6.390
  823SOL    HW1 3368   5.219   3.776   6.399
  823SOL    HW2 3369   5.057   3.792   6.395
  824SOL     OW 3370   4.852   2.291   5.469
  824SOL    HW1 3371   4.946   2.315   5.492
  824SOL    HW2 3372   4.801   2.375   5.448
  825SOL     OW 3373   2.099   3.387   2.215
  825SOL    HW1 3374   2.071   3.301   2.171
  825SOL    HW2 3375   2.167   3.433   2.157
  826SOL     OW 3376   5.609   3.363   0.016
  826SOL    HW1 3377   5.642   3.457   0.017
  826SOL    HW2 3378   5.530   3.355   0.077
  827SOL     OW 3379   3.696   5.596   0.130
  827SOL    HW1 3380   3.790   5.579   0.098
  827SOL    HW2 3381   3.633   5.588   0.053
  828SOL     OW 3382   6.008   0.804   5.349
  828SOL    HW1 3383   6.080   0.834   5.412
  828SOL    HW2 3384   5.995   0.705   5.357
  829SOL     OW 3385   3.079   3.042   4.279
  829SOL    HW1 3386   3.032   3.037   4.367
  829SOL    HW2 3387   3.117   3.134   4.267
  830SOL     OW 3388   4.594   3.997   5.259
  830SOL    HW1 3389   4.576   4.092   5.285
  830SOL    HW2 3390   4.512   3.942   5.277
  831SOL     OW 3391   5.803   0.671   5.034
  831SOL    HW1 3392   5.839   0.713   4.951
  831SOL    HW2 3393   5.791   0.741   5.104
  832SOL     OW 3394   1.994   1.977   0.231
  832SOL    HW1 3395   2.094   1.982   0.225
  832SOL    HW2 3396   1.956   1.971   0.138
  833SOL     OW 3397   6.459   6.547   6.032
  833SOL    HW1 3398   6.496   6.461   5.995
  833SOL    HW2 3399   6.531   6.617   6.030
  834SOL     OW 3400   3.124   3.431   3.963
  834SOL    HW1 3401   3.152   3.526   3.976
  834SOL    HW2 3402   3.067   3.425   3.881
  835SOL     OW 3403   3.212   6.476   4.012
  835SOL    HW1 3404   3.245   6.385   3.988
  835SOL    HW2 3405   3.120   6.469   4.051
  836SOL     OW 3406   3.154   0.028   0.032
  836SOL    HW1 3407   3.113   6.963   0.035
  836SOL    HW2 3408   3.241   0.024   7.007
  837SOL     OW 3409   5.166   0.550   6.301
  837SOL    HW1 3410   5.234   0.623   6.310
  837SOL    HW2 3411   5.075   0.588   6.317
  838SOL     OW 3412   1.987   5.931   4.464
  838SOL    HW1 3413   1.905   5.985   4.444
  838SOL    HW2 3414   1.969   5.835   4.443
  839SOL     OW 3415   2.738   1.375   3.306
  839SOL    HW1 3416   2.788   1.457   3.334
  839SOL    HW2 3417   2.658   1.402   3.252
  840SOL     OW 3418   0.861   1.122   6.753
  840SOL    HW1 3419   0.873   1.191   6.825
  840SOL    HW2 3420   0.799   1.157   6.683
  841SOL     OW 3421   0.065   3.570   6.899
  841SOL    HW1 3422   0.075   3.652   6.842
  841SOL    HW2 3423   0.064   3.489   6.841
  842SOL     OW 3424   3.975   5.258   2.896
  842SOL    HW1 3425   3.988   5.218   2.805
  842SOL    HW2 3426   4.019   5.201   2.965
  843SOL     OW 3427   6.293   2.288   2.101
  843SOL    HW1 3428   6.325   2.215   2.160
  843SOL    HW2 3429   6.226   2.344   2.150
  844SOL     OW 3430   5.084   6.077   0.256
  844SOL    HW1 3431   5.155   6.030   0.309
  844SOL    HW2 3432   5.021   6.009   0.219
  845SOL     OW 3433   0.069   4.384   4.711
  845SOL    HW1 3434   0.115   4.339   4.634
  845SOL    HW2 3435   0.041   4.476   4.685
  846SOL     OW 3436   6.322   1.215   0.086
  846SOL    HW1 3437   6.361   1.238   7.022
  846SOL    HW2 3438   6.335   1.293   0.148
  847SOL     OW 3439   5.660   3.132   1.333
  847SOL    HW1 3440   5.617   3.127   1.243
  847SOL    HW2 3441   5.626   3.057   1.391
  848SOL     OW 3442   6.398   0.200   5.846
  848SOL    HW1 3443   6.463   0.125   5.839
  848SOL    HW2 3444   6.434   0.281   5.800
  849SOL     OW 3445   0.469   5.332   5.064
  849SOL    HW1 3446   0.461   5.243   5.020
  849SOL    HW2 3447   0.558   5.372   5.043
  850SOL     OW 3448   4.206   1.282   3.140
  850SOL    HW1 3449   4.192   1.324   3.051
  850SOL    HW2 3450   4.164   1.192   3.142
  851SOL     OW 3451   0.363   1.077   0.344
  851SOL    HW1 3452   0.276   1.077   0.294
  851SOL    HW2 3453   0.430   1.020   0.295
  852SOL     OW 3454   2.545   3.198   6.199
  852SOL    HW1 3455   2.505   3.127   6.257
  852SOL    HW2 3456   2.565   3.159   6.109
  853SOL     OW 3457   1.396   2.763   1.908
  853SOL    HW1 3458   1.319   2.824   1.927
  853SOL    HW2 3459   1.367   2.688   1.849
  854SOL     OW 3460   5.292   5.799   2.666
  854SOL    HW1 3461   5.309   5.815   2.764
  854SOL    HW2 3462   5.195   5.778   2.652
  855SOL     OW 3463   5.666   0.019   1.945
  855SOL    HW1 3464   5.652   0.051   1.851
  855SOL    HW2 3465   5.689   6.947   1.944
  856SOL     OW 3466   2.011   5.987   5.272
  856SOL    HW1 3467   2.047   6.080   5.260
  856SOL    HW2 3468   1.955   5.983   5.354
  857SOL     OW 3469   5.817   3.600   0.849
  857SOL    HW1 3470   5.807   3.635   0.756
  857SOL    HW2 3471   5.887   3.653   0.897
  858SOL     OW 3472   3.214   5.124   2.001
  858SOL    HW1 3473   3.270   5.204   1.983
  858SOL    HW2 3474   3.158   5.103   1.921
  859SOL     OW 3475   0.020   4.646   6.653
  859SOL    HW1 3476   0.095   4.604   6.704
  859SOL    HW2 3477   6.958   4.620   6.695
  860SOL     OW 3478   3.090   4.445   1.050
  860SOL    HW1 3479   3.032   4.425   1.129
  860SOL    HW2 3480   3.138   4.361   1.023
  861SOL     OW 3481   3.286   6.099   5.531
  861SOL    HW1 3482   3.188   6.110   5.546
  861SOL    HW2 3483   3.333   6.088   5.619
  862SOL     OW 3484   5.445   4.301   4.992
  862SOL    HW1 3485   5.455   4.281   5.089
  862SOL    HW2 3486   5.396   4.388   4.980
  863SOL     OW 3487   0.179   1.004   0.962
  863SOL    HW1 3488   0.265   1.044   0.929
  863SOL    HW2 3489   0.200   0.931   1.027
  864SOL     OW 3490   5.590   4.193   2.552
  864SOL    HW1 3491   5.609   4.230   2.643
  864SOL    HW2 3492   5.639   4.107   2.541
  865SOL     OW 3493   1.830   7.008   3.528
  865SOL    HW1 3494   1.863   0.073   3.553
  865SOL    HW2 3495   1.780   7.013   3.441
  866SOL     OW 3496   3.546   1.953   1.969
  866SOL    HW1 3497   3.502   1.896   2.039
  866SOL    HW2 3498   3.563   2.044   2.006
  867SOL     OW 3499   2.845   2.928   6.523
  867SOL    HW1 3500   2.839   2.853   6.588
  867SOL    HW2 3501   2.858   3.014   6.572
  868SOL     OW 3502   5.549   1.098   3.155
  868SOL    HW1 3503   5.620   1.139   3.213
  868SOL    HW2 3504   5.588   1.021   3.105
  869SOL     OW 3505   5.987   6.213   1.295
  869SOL    HW1 3506   5.949   6.295   1.337
  869SOL    HW2 3507   6.059   6.176   1.354
  870SOL     OW 3508   6.267   1.751   1.365
  870SOL    HW1 3509   6.253   1.688   1.441
  870SOL    HW2 3510   6.197   1.736   1.296
  871SOL     OW 3511   5.697   2.395   1.537
  871SOL    HW1 3512   5.694   2.342   1.452
  871SOL    HW2 3513   5.638   2.476   1.528
  872SOL     OW 3514   6.424   2.485   4.045
  872SOL    HW1 3515   6.470   2.571   4.022
  872SOL    HW2 3516   6.482   2.432   4.106
  873SOL     OW 3517   3.190   0.010   3.813
  873SOL    HW1 3518   3.194   7.005   3.908
  873SOL    HW2 3519   3.094   0.023   3.786
  874SOL     OW 3520   1.382   3.921   5.464
  874SOL    HW1 3521   1.339   3.831   5.470
  874SOL    HW2 3522   1.480   3.912   5.483
  875SOL     OW 3523   5.759   3.598   0.007
  875SOL    HW1 3524   5.766   3.689   6.992
  875SOL    HW2 3525   5.845   3.575   0.053
  876SOL     OW 3526   0.142   3.476   1.966
  876SOL    HW1 3527   0.152   3.528   1.881
  876SOL    HW2 3528   0.106   3.385   1.945
  877SOL     OW 3529   4.945   6.045   6.896
  877SOL    HW1 3530   4.911   5.961   6.938
  877SOL    HW2 3531   5.043   6.054   6.916
  878SOL     OW 3532   2.904   5.115   0.655
  878SOL    HW1 3533   2.973   5.103   0.727
  878SOL    HW2 3534   2.945   5.167   0.580
  879SOL     OW 3535   3.888   2.065   2.610
  879SOL    HW1 3536   3.892   2.160   2.639
  879SOL    HW2 3537   3.924   2.056   2.517
  880SOL     OW 3538   3.426   5.087   0.496
  880SOL    HW1 3539   3.427   5.030   0.413
  880SOL    HW2 3540   3.419   5.028   0.576
  881SOL     OW 3541   3.749   5.241   4.959
  881SOL    HW1 3542   3.844   5.248   4.992
  881SOL    HW2 3543   3.736   5.302   4.881
  882SOL     OW 3544   1.594   0.442   4.579
  882SOL    HW1 3545   1.501   0.453   4.542
  882SOL    HW2 3546   1.660   0.445   4.504
  883SOL     OW 3547   3.352   5.630   6.313
  883SOL    HW1 3548   3.300   5.545   6.317
  883SOL    HW2 3549   3.440   5.617   6.359
  884SOL     OW 3550   5.556   3.129   1.844
  884SOL    HW1 3551   5.646   3.088   1.828
  884SOL    HW2 3552   5.567   3.213   1.898
  885SOL     OW 3553   5.389   6.135   0.637
  885SOL    HW1 3554   5.343   6.205   0.582
  885SOL    HW2 3555   5.424   6.177   0.721
  886SOL     OW 3556   4.654   2.230   6.644
  886SOL    HW1 3557   4.679   2.138   6.675
  886SOL    HW2 3558   4.723   2.263   6.580
  887SOL     OW 3559   4.220   6.783   5.267
  887SOL    HW1 3560   4.188   6.849   5.335
  887SOL    HW2 3561   4.149   6.769   5.198
  888SOL     OW 3562   5.855   5.770   2.855
  888SOL    HW1 3563   5.930   5.704   2.852
  888SOL    HW2 3564   5.774   5.727   2.895
  889SOL     OW 3565   0.676   6.334   5.033
  889SOL    HW1 3566   0.679   6.347   4.934
  889SOL    HW2 3567   0.746   6.268   5.060
  890SOL     OW 3568   2.726   4.757   2.215
  890SOL    HW1 3569   2.747   4.695   2.140
  890SOL    HW2 3570   2.810   4.795   2.252
  891SOL     OW 3571   5.410   3.071   0.103
  891SOL    HW1 3572   5.356   3.009   0.046
  891SOL    HW2 3573   5.504   3.038   0.107
  892SOL     OW 3574   2.695   4.698   1.184
  892SOL    HW1 3575   2.746   4.673   1.267
  892SOL    HW2 3576   2.616   4.637   1.174
  893SOL     OW 3577   1.428   0.462   0.406
  893SOL    HW1 3578   1.490   0.536   0.382
  893SOL    HW2 3579   1.336   0.500   0.421
  894SOL     OW 3580   1.057   5.490   4.576
  894SOL    HW1 3581   1.150   5.502   4.609
  894SOL    HW2 3582   1.058   5.443   4.487
  895SOL     OW 3583   2.101   6.682   4.539
  895SOL    HW1 3584   2.024   6.671   4.601
  895SOL    HW2 3585   2.072   6.665   4.445
  896SOL     OW 3586   5.861   6.751   2.757
  896SOL    HW1 3587   5.777   6.709   2.724
  896SOL    HW2 3588   5.931   6.680   2.768
  897SOL     OW 3589   5.006   1.994   6.854
  897SOL    HW1 3590   4.911   2.018   6.834
  897SOL    HW2 3591   5.047   1.950   6.774
  898SOL     OW 3592   5.431   6.232   2.900
  898SOL    HW1 3593   5.454   6.236   2.803
  898SOL    HW2 3594   5.332   6.225   2.911
  899SOL     OW 3595   0.534   4.342   6.252
  899SOL    HW1 3596   0.436   4.354   6.269
  899SOL    HW2 3597   0.581   4.429   6.270
  900SOL     OW 3598   0.573   6.055   3.563
  900SOL    HW1 3599   0.638   6.115   3.610
  900SOL    HW2 3600   0.487   6.054   3.613
  901SOL     OW 3601   6.003   1.053   4.124
  901SOL    HW1 3602   6.036   0.988   4.192
  901SOL    HW2 3603   6.017   1.147   4.157
  902SOL     OW 3604   6.929   6.388   0.500
  902SOL    HW1 3605   6.990   6.459   0.535
  902SOL    HW2 3606   6.933   6.387   0.400
  903SOL     OW 3607   1.073   4.998   0.644
  903SOL    HW1 3608   1.122   5.083   0.624
  903SOL    HW2 3609   1.056   4.949   0.558
  904SOL     OW 3610   1.941   1.832   3.327
  904SOL    HW1 3611   2.023   1.776   3.339
  904SOL    HW2 3612   1.906   1.821   3.234
  905SOL     OW 3613   5.380   1.597   4.975
  905SOL    HW1 3614   5.386   1.497   4.966
  905SOL    HW2 3615   5.306   1.620   5.038
  906SOL     OW 3616   6.863   3.225   5.815
  906SOL    HW1 3617   6.782   3.272   5.848
  906SOL    HW2 3618   6.934   3.292   5.792
  907SOL     OW 3619   6.445   2.398   2.599
  907SOL    HW1 3620   6.496   2.320   2.635
  907SOL    HW2 3621   6.356   2.403   2.644
  908SOL     OW 3622   1.999   0.956   4.214
  908SOL    HW1 3623   1.908   0.945   4.173
  908SOL    HW2 3624   1.990   0.960   4.314
  909SOL     OW 3625   4.282   0.978   1.568
  909SOL    HW1 3626   4.288   1.031   1.652
  909SOL    HW2 3627   4.361   0.999   1.510
  910SOL     OW 3628   1.883   1.308   0.826
  910SOL    HW1 3629   1.803   1.325   0.768
  910SOL    HW2 3630   1.955   1.372   0.801
  911SOL     OW 3631   0.239   4.768   1.802
  911SOL    HW1 3632   0.169   4.830   1.836
  911SOL    HW2 3633   0.319   4.772   1.861
  912SOL     OW 3634   0.771   6.665   5.946
  912SOL    HW1 3635   0.774   6.735   6.017
  912SOL    HW2 3636   0.735   6.704   5.862
  913SOL     OW 3637   2.922   1.188   2.420
  913SOL    HW1 3638   2.979   1.164   2.499
  913SOL    HW2 3639   2.860   1.112   2.400
  914SOL     OW 3640   2.976   6.274   2.555
  914SOL    HW1 3641   3.041   6.267   2.479
  914SOL    HW2 3642   2.965   6.184   2.598
  915SOL     OW 3643   0.706   2.721   1.057
  915SOL    HW1 3644   0.657   2.684   1.135
  915SOL    HW2 3645   0.798   2.749   1.085
  916SOL     OW 3646   2.096   3.049   2.917
  916SOL    HW1 3647   2.111   3.079   3.011
  916SOL    HW2 3648   2.060   2.955   2.917
  917SOL     OW 3649   3.829   1.574   0.795
  917SOL    HW1 3650   3.830   1.568   0.696
  917SOL    HW2 3651   3.892   1.507   0.834
  918SOL     OW 3652   2.235   0.462   6.252
  918SOL    HW1 3653   2.232   0.382   6.312
  918SOL    HW2 3654   2.146   0.508   6.253
  919SOL     OW 3655   2.479   5.764   2.467
  919SOL    HW1 3656   2.388   5.730   2.442
  919SOL    HW2 3657   2.519   5.813   2.390
  920SOL     OW 3658   2.241   0.881   4.128
  920SOL    HW1 3659   2.143   0.892   4.143
  920SOL    HW2 3660   2.258   0.798   4.075
  921SOL     OW 3661   5.585   5.297   4.861
  921SOL    HW1 3662   5.499   5.317   4.908
  921SOL    HW2 3663   5.633   5.383   4.843
  922SOL     OW 3664   2.830   3.631   6.969
  922SOL    HW1 3665   2.776   3.707   6.935
  922SOL    HW2 3666   2.925   3.641   6.939
  923SOL     OW 3667   3.229   0.045   6.332
  923SOL    HW1 3668   3.313   0.010   6.291
  923SOL    HW2 3669   3.157   7.001   6.323
  924SOL     OW 3670   5.527   2.951   3.501
  924SOL    HW1 3671   5.569   2.986   3.417
  924SOL    HW2 3672   5.588   2.884   3.543
  925SOL     OW 3673   0.294   1.705   3.869
  925SOL    HW1 3674   0.232   1.766   3.918
  925SOL    HW2 3675   0.344   1.649   3.935
  926SOL     OW 3676   5.244   5.967   0.811
  926SOL    HW1 3677   5.145   5.980   0.813
  926SOL    HW2 3678   5.282   6.018   0.733
  927SOL     OW 3679   3.768   4.994   4.518
  927SOL    HW1 3680   3.743   5.085   4.484
  927SOL    HW2 3681   3.717   4.975   4.602
  928SOL     OW 3682   1.832   1.597   0.921
  928SOL    HW1 3683   1.836   1.538   1.002
  928SOL    HW2 3684   1.769   1.672   0.938
  929SOL     OW 3685   0.014   2.559   2.742
  929SOL    HW1 3686   0.031   2.657   2.755
  929SOL    HW2 3687   0.096   2.507   2.769
  930SOL     OW 3688   5.125   6.054   4.213
  930SOL    HW1 3689   5.090   6.051   4.120
  930SOL    HW2 3690   5.110   5.965   4.257
  931SOL     OW 3691   1.766   2.623   2.830
  931SOL    HW1 3692   1.734   2.665   2.745
  931SOL    HW2 3693   1.734   2.528   2.834
  932SOL     OW 3694   4.529   6.871   0.552
  932SOL    HW1 3695   4.626   6.880   0.530
  932SOL    HW2 3696   4.488   6.800   0.495
  933SOL     OW 3697   1.694   6.339   3.118
  933SOL    HW1 3698   1.776   6.379   3.160
  933SOL    HW2 3699   1.721   6.269   3.052
  934SOL     OW 3700   3.204   1.105   5.202
  934SOL    HW1 3701   3.296   1.064   5.199
  934SOL    HW2 3702   3.137   1.037   5.171
  935SOL     OW 3703   3.989   3.208   6.153
  935SOL    HW1 3704   3.968   3.306   6.151
  935SOL    HW2 3705   3.926   3.159   6.093
  936SOL     OW 3706   1.111   1.240   1.279
  936SOL    HW1 3707   1.116   1.242   1.180
  936SOL    HW2 3708   1.136   1.330   1.316
  937SOL     OW 3709   4.796   2.143   4.651
  937SOL    HW1 3710   4.766   2.238   4.640
  937SOL    HW2 3711   4.717   2.084   4.666
  938SOL     OW 3712   0.483   2.705   6.651
  938SOL    HW1 3713   0.577   2.681   6.676
  938SOL    HW2 3714   0.444   2.766   6.720
  939SOL     OW 3715   5.897   1.225   5.424
  939SOL    HW1 3716   5.864   1.249   5.332
  939SOL    HW2 3717   5.992   1.196   5.418
  940SOL     OW 3718   6.766   1.182   3.927
  940SOL    HW1 3719   6.853   1.223   3.957
  940SOL    HW2 3720   6.785   1.106   3.864
  941SOL     OW 3721   5.555   2.142   4.473
  941SOL    HW1 3722   5.586   2.235   4.456
  941SOL    HW2 3723   5.556   2.090   4.387
  942SOL     OW 3724   6.218   0.191   5.620
  942SOL    HW1 3725   6.272   0.204   5.702
  942SOL    HW2 3726   6.211   0.094   5.599
  943SOL     OW 3727   5.494   1.830   1.534
  943SOL    HW1 3728   5.401   1.865   1.521
  943SOL    HW2 3729   5.529   1.862   1.621
  944SOL     OW 3730   5.378   4.465   3.931
  944SOL    HW1 3731   5.435   4.397   3.978
  944SOL    HW2 3732   5.404   4.557   3.962
  945SOL     OW 3733   5.788   4.520   4.529
  945SOL    HW1 3734   5.723   4.462   4.480
  945SOL    HW2 3735   5.882   4.490   4.509
  946SOL     OW 3736   5.701   2.349   5.218
  946SOL    HW1 3737   5.643   2.394   5.150
  946SOL    HW2 3738   5.747   2.418   5.274
  947SOL     OW 3739   2.043   2.517   6.213
  947SOL    HW1 3740   2.040   2.540   6.311
  947SOL    HW2 3741   1.950   2.521   6.176
  948SOL     OW 3742   4.169   2.007   0.547
  948SOL    HW1 3743   4.136   2.041   0.459
  948SOL    HW2 3744   4.251   1.951   0.532
  949SOL     OW 3745   6.063   5.901   6.443
  949SOL    HW1 3746   6.131   5.936   6.378
  949SOL    HW2 3747   6.025   5.977   6.495
  950SOL     OW 3748   4.280   5.103   0.883
  950SOL    HW1 3749   4.286   5.165   0.961
  950SOL    HW2 3750   4.330   5.019   0.904
  951SOL     OW 3751   1.044   1.574   2.398
  951SOL    HW1 3752   1.117   1.531   2.451
  951SOL    HW2 3753   1.058   1.556   2.301
  952SOL     OW 3754   5.590   1.068   2.739
  952SOL    HW1 3755   5.576   1.075   2.640
  952SOL    HW2 3756   5.623   0.977   2.761
  953SOL     OW 3757   4.774   6.432   6.330
  953SOL    HW1 3758   4.746   6.336   6.330
  953SOL    HW2 3759   4.839   6.447   6.256
  954SOL     OW 3760   6.429   6.844   0.360
  954SOL    HW1 3761   6.500   6.828   0.428
  954SOL    HW2 3762   6.344   6.869   0.407
  955SOL     OW 3763   0.420   6.745   2.680
  955SOL    HW1 3764   0.501   6.717   2.732
  955SOL    HW2 3765   0.432   6.720   2.584
  956SOL     OW 3766   1.296   2.319   1.388
  956SOL    HW1 3767   1.312   2.417   1.398
  956SOL    HW2 3768   1.200   2.303   1.365
  957SOL     OW 3769   1.899   5.055   4.260
  957SOL    HW1 3770   1.827   5.090   4.200
  957SOL    HW2 3771   1.894   5.100   4.349
  958SOL     OW 3772   4.848   2.382   1.168
  958SOL    HW1 3773   4.777   2.447   1.196
  958SOL    HW2 3774   4.938   2.422   1.185
  959SOL     OW 3775   2.492   4.440   2.813
  959SOL    HW1 3776   2.501   4.418   2.716
  959SOL    HW2 3777   2.412   4.392   2.850
  960SOL     OW 3778   1.658   5.210   4.530
  960SOL    HW1 3779   1.605   5.129   4.554
  960SOL    HW2 3780   1.658   5.274   4.606
  961SOL     OW 3781   3.985   6.854   1.784
  961SOL    HW1 3782   3.986   6.848   1.884
  961SOL    HW2 3783   4.049   6.923   1.754
  962SOL     OW 3784   1.917   0.255   3.624
  962SOL    HW1 3785   1.858   0.332   3.602
  962SOL    HW2 3786   1.952   0.265   3.717
  963SOL     OW 3787   6.486   0.101   0.678
  963SOL    HW1 3788   6.578   0.082   0.644
  963SOL    HW2 3789   6.436   0.154   0.610
  964SOL     OW 3790   5.846   3.289   1.736
  964SOL    HW1 3791   5.884   3.196   1.735
  964SOL    HW2 3792   5.760   3.291   1.687
  965SOL     OW 3793   0.517   2.281   6.883
  965SOL    HW1 3794   0.499   2.376   6.910
  965SOL    HW2 3795   0.536   2.226   6.965
  966SOL     OW 3796   6.679   2.307   2.836
  966SOL    HW1 3797   6.733   2.344   2.912
  966SOL    HW2 3798   6.684   2.370   2.759
  967SOL     OW 3799   1.408   5.932   1.566
  967SOL    HW1 3800   1.453   5.966   1.649
  967SOL    HW2 3801   1.444   5.842   1.542
  968SOL     OW 3802   5.097   3.063   2.818
  968SOL    HW1 3803   5.137   3.155   2.825
  968SOL    HW2 3804   4.998   3.069   2.831
  969SOL     OW 3805   4.774   5.630   5.795
  969SOL    HW1 3806   4.761   5.696   5.720
  969SOL    HW2 3807   4.686   5.601   5.830
  970SOL     OW 3808   4.334   2.374   5.312
  970SOL    HW1 3809   4.417   2.418   5.344
  970SOL    HW2 3810   4.275   2.442   5.268
  971SOL     OW 3811   6.933   1.671   1.421
  971SOL    HW1 3812   6.865   1.625   1.478
  971SOL    HW2 3813   7.024   1.644   1.451
  972SOL     OW 3814   6.335   4.958   0.701
  972SOL    HW1 3815   6.293   4.909   0.625
  972SOL    HW2 3816   6.265   5.011   0.749
  973SOL     OW 3817   5.922   4.657   5.921
  973SOL    HW1 3818   5.904   4.680   6.017
  973SOL    HW2 3819   5.920   4.557   5.910
  974SOL     OW 3820   2.549   1.121   3.687
  974SOL    HW1 3821   2.537   1.095   3.782
  974SOL    HW2 3822   2.547   1.220   3.679
  975SOL     OW 3823   3.483   6.400   5.880
  975SOL    HW1 3824   3.440   6.467   5.819
  975SOL    HW2 3825   3.583   6.413   5.879
  976SOL     OW 3826   0.169   4.453   3.356
  976SOL    HW1 3827   0.197   4.446   3.261
  976SOL    HW2 3828   0.085   4.400   3.370
  977SOL     OW 3829   1.854   0.624   3.762
  977SOL    HW1 3830   1.838   0.716   3.798
  977SOL    HW2 3831   1.901   0.631   3.674
  978SOL     OW 3832   5.176   3.924   4.638
  978SOL    HW1 3833   5.209   3.862   4.567
  978SOL    HW2 3834   5.088   3.892   4.673
  979SOL     OW 3835   6.298   0.878   2.824
  979SOL    HW1 3836   6.203   0.856   2.802
  979SOL    HW2 3837   6.355   0.863   2.744
  980SOL     OW 3838   5.441   2.296   4.768
  980SOL    HW1 3839   5.411   2.359   4.696
  980SOL    HW2 3840   5.541   2.298   4.774
  981SOL     OW 3841   0.710   2.147   4.713
  981SOL    HW1 3842   0.782   2.093   4.669
  981SOL    HW2 3843   0.669   2.094   4.787
  982SOL     OW 3844   0.852   3.046   1.829
  982SOL    HW1 3845   0.943   3.039   1.789
  982SOL    HW2 3846   0.809   3.131   1.798
  983SOL     OW 3847   6.351   2.110   3.073
  983SOL    HW1 3848   6.407   2.041   3.118
  983SOL    HW2 3849   6.393   2.135   2.986
  984SOL     OW 3850   4.628   1.526   4.700
  984SOL    HW1 3851   4.721   1.563   4.700
  984SOL    HW2 3852   4.615   1.469   4.619
  985SOL     OW 3853   3.456   5.433   0.904
  985SOL    HW1 3854   3.391   5.368   0.942
  985SOL    HW2 3855   3.509   5.388   0.832
  986SOL     OW 3856   4.038   4.674   6.360
  986SOL    HW1 3857   4.062   4.590   6.409
  986SOL    HW2 3858   4.118   4.708   6.311
  987SOL     OW 3859   3.877   6.671   2.561
  987SOL    HW1 3860   3.937   6.599   2.595
  987SOL    HW2 3861   3.846   6.648   2.468
  988SOL     OW 3862   3.779   3.306   0.780
  988SOL    HW1 3863   3.787   3.282   0.683
  988SOL    HW2 3864   3.683   3.321   0.803
  989SOL     OW 3865   0.843   6.883   5.452
  989SOL    HW1 3866   0.805   6.975   5.444
  989SOL    HW2 3867   0.769   6.817   5.458
  990SOL     OW 3868   4.299   0.521   4.087
  990SOL    HW1 3869   4.304   0.424   4.113
  990SOL    HW2 3870   4.392   0.559   4.084
  991SOL     OW 3871   0.583   1.378   4.797
  991SOL    HW1 3872   0.643   1.410   4.870
  991SOL    HW2 3873   0.536   1.456   4.756
  992SOL     OW 3874   0.591   3.220   0.325
  992SOL    HW1 3875   0.544   3.145   0.280
  992SOL    HW2 3876   0.564   3.307   0.283
  993SOL     OW 3877   2.839   4.803   3.009
  993SOL    HW1 3878   2.887   4.779   3.093
  993SOL    HW2 3879   2.779   4.728   2.982
  994SOL     OW 3880   3.229   2.943   2.867
  994SOL    HW1 3881   3.142   2.988   2.848
  994SOL    HW2 3882   3.258   2.891   2.786
  995SOL     OW 3883   1.894   1.817   5.447
  995SOL    HW1 3884   1.906   1.870   5.363
  995SOL    HW2 3885   1.885   1.720   5.424
  996SOL     OW 3886   2.182   3.995   2.642
  996SOL    HW1 3887   2.202   4.076   2.588
  996SOL    HW2 3888   2.167   3.917   2.581
  997SOL     OW 3889   0.480   0.616   1.667
  997SOL    HW1 3890   0.550   0.657   1.725
  997SOL    HW2 3891   0.485   0.655   1.575
  998SOL     OW 3892   4.191   0.154   2.293
  998SOL    HW1 3893   4.277   0.104   2.291
  998SOL    HW2 3894   4.187   0.215   2.213
  999SOL     OW 3895   6.724   5.622   1.311
  999SOL    HW1 3896   6.802   5.566   1.340
  999SOL    HW2 3897   6.645   5.564   1.296
 1000SOL     OW 3898   2.884   2.289   4.319
 1000SOL    HW1 3899   2.929   2.352   4.255
 1000SOL    HW2 3900   2.951   2.261   4.388
 1001SOL     OW 3901   5.156   0.283   5.713
 1001SOL    HW1 3902   5.212   0.201   5.724
 1001SOL    HW2 3903   5.183   0.351   5.781
 1002SOL     OW 3904   6.105   1.417   0.010
 1002SOL    HW1 3905   6.098   1.397   0.108
 1002SOL    HW2 3906   6.132   1.512   7.021
 1003SOL     OW 3907   3.163   6.258   2.313
 1003SOL    HW1 3908   3.189   6.187   2.247
 1003SOL    HW2 3909   3.191   6.347   2.278
 1004SOL     OW 3910   6.476   6.704   0.046
 1004SOL    HW1 3911   6.456   6.728   6.977
 1004SOL    HW2 3912   6.482   6.787   0.101
 1005SOL     OW 3913   0.756   0.226   2.909
 1005SOL    HW1 3914   0.727   0.285   2.984
 1005SOL    HW2 3915   0.697   0.145   2.905
 1006SOL     OW 3916   2.521   5.069   1.387
 1006SOL    HW1 3917   2.598   5.013   1.416
 1006SOL    HW2 3918   2.478   5.028   1.307
 1007SOL     OW 3919   0.198   1.041   3.017
 1007SOL    HW1 3920   0.136   1.118   3.004
 1007SOL    HW2 3921   0.166   0.962   2.965
 1008SOL     OW 3922   1.015   3.518   3.898
 1008SOL    HW1 3923   1.094   3.580   3.892
 1008SOL    HW2 3924   1.046   3.425   3.881
 1009SOL     OW 3925   0.466   6.548   4.423
 1009SOL    HW1 3926   0.534   6.608   4.464
 1009SOL    HW2 3927   0.415   6.501   4.495
 1010SOL     OW 3928   4.206   2.669   0.699
 1010SOL    HW1 3929   4.246   2.731   0.632
 1010SOL    HW2 3930   4.203   2.577   0.662
 1011SOL     OW 3931   2.234   5.862   4.000
 1011SOL    HW1 3932   2.288   5.946   4.000
 1011SOL    HW2 3933   2.246   5.815   4.088
 1012SOL     OW 3934   5.528   5.395   0.395
 1012SOL    HW1 3935   5.522   5.317   0.334
 1012SOL    HW2 3936   5.439   5.411   0.438
 1013SOL     OW 3937   0.886   0.654   0.999
 1013SOL    HW1 3938   0.863   0.724   0.932
 1013SOL    HW2 3939   0.802   0.619   1.041
 1014SOL     OW 3940   4.810   6.153   5.858
 1014SOL    HW1 3941   4.782   6.057   5.852
 1014SOL    HW2 3942   4.885   6.161   5.924
 1015SOL     OW 3943   3.719   5.792   4.699
 1015SOL    HW1 3944   3.696   5.884   4.667
 1015SOL    HW2 3945   3.725   5.730   4.620
 1016SOL     OW 3946   3.692   2.691   1.215
 1016SOL    HW1 3947   3.708   2.630   1.293
 1016SOL    HW2 3948   3.599   2.677   1.181
 1017SOL     OW 3949   4.305   2.840   0.494
 1017SOL    HW1 3950   4.281   2.937   0.507
 1017SOL    HW2 3951   4.333   2.825   0.399
 1018SOL     OW 3952   0.778   3.330   3.962
 1018SOL    HW1 3953   0.853   3.394   3.978
 1018SOL    HW2 3954   0.808   3.238   3.985
 1019SOL     OW 3955   7.008   1.625   6.707
 1019SOL    HW1 3956   0.067   1.666   6.740
 1019SOL    HW2 3957   6.987   1.661   6.616
 1020SOL     OW 3958   2.691   1.185   1.175
 1020SOL    HW1 3959   2.758   1.229   1.234
 1020SOL    HW2 3960   2.718   1.089   1.160
 1021SOL     OW 3961   6.881   1.244   0.807
 1021SOL    HW1 3962   6.809   1.176   0.818
 1021SOL    HW2 3963   6.970   1.198   0.803
 1022SOL     OW 3964   4.201   3.548   6.023
 1022SOL    HW1 3965   4.152   3.572   5.939
 1022SOL    HW2 3966   4.136   3.543   6.099
 1023SOL     OW 3967   6.092   0.609   2.444
 1023SOL    HW1 3968   5.997   0.630   2.468
 1023SOL    HW2 3969   6.123   0.530   2.497
 1024SOL     OW 3970   6.666   1.677   3.962
 1024SOL    HW1 3971   6.645   1.585   3.993
 1024SOL    HW2 3972   6.583   1.733   3.963
 1025SOL     OW 3973   3.095   4.840   0.857
 1025SOL    HW1 3974   3.082   4.861   0.760
 1025SOL    HW2 3975   3.114   4.742   0.867
 1026SOL     OW 3976   2.234   2.127   6.886
 1026SOL    HW1 3977   2.158   2.162   6.940
 1026SOL    HW2 3978   2.260   2.036   6.919
 1027SOL     OW 3979   3.093   5.114   2.363
 1027SOL    HW1 3980   3.044   5.201   2.374
 1027SOL    HW2 3981   3.166   5.108   2.431
 1028SOL     OW 3982   1.622   6.046   0.800
 1028SOL    HW1 3983   1.651   6.028   0.706
 1028SOL    HW2 3984   1.545   6.110   0.800
 1029SOL     OW 3985   2.261   0.024   6.834
 1029SOL    HW1 3986   2.349   0.026   6.786
 1029SOL    HW2 3987   2.264   6.979   6.905
 1030SOL     OW 3988   4.154   3.764   5.246
 1030SOL    HW1 3989   4.162   3.673   5.207
 1030SOL    HW2 3990   4.069   3.806   5.214
 1031SOL     OW 3991   2.563   5.062   1.694
 1031SOL    HW1 3992   2.613   5.028   1.774
 1031SOL    HW2 3993   2.588   5.006   1.614
 1032SOL     OW 3994   1.559   1.204   4.577
 1032SOL    HW1 3995   1.510   1.286   4.546
 1032SOL    HW2 3996   1.497   1.126   4.574
 1033SOL     OW 3997   2.356   5.534   1.748
 1033SOL    HW1 3998   2.363   5.497   1.655
 1033SOL    HW2 3999   2.442   5.579   1.772
 1034SOL     OW 4000   2.411   5.373   3.572
 1034SOL    HW1 4001   2.341   5.440   3.598
 1034SOL    HW2 4002   2.490   5.383   3.632
 1035SOL     OW 4003   3.412   1.024   4.894
 1035SOL    HW1 4004   3.321   1.064   4.901
 1035SOL    HW2 4005   3.472   1.084   4.841
 1036SOL     OW 4006   4.279   2.519   1.162
 1036SOL    HW1 4007   4.185   2.547   1.141
 1036SOL    HW2 4008   4.278   2.429   1.205
 1037SOL     OW 4009   2.478   1.114   0.494
 1037SOL    HW1 4010   2.494   1.044   0.424
 1037SOL    HW2 4011   2.525   1.087   0.579
 1038SOL     OW 4012   1.969   1.159   5.611
 1038SOL    HW1 4013   1.998   1.254   5.600
 1038SOL    HW2 4014   1.966   1.136   5.708
 1039SOL     OW 4015   3.928   2.064   4.322
 1039SOL    HW1 4016   3.956   2.133   4.255
 1039SOL    HW2 4017   3.839   2.026   4.296
 1040SOL     OW 4018   5.693   4.078   2.821
 1040SOL    HW1 4019   5.766   4.067   2.889
 1040SOL    HW2 4020   5.649   4.167   2.833
 1041SOL     OW 4021   0.089   1.195   4.217
 1041SOL    HW1 4022   0.181   1.164   4.241
 1041SOL    HW2 4023   0.029   1.188   4.297
 1042SOL     OW 4024   5.432   5.028   0.819
 1042SOL    HW1 4025   5.423   5.126   0.800
 1042SOL    HW2 4026   5.447   5.015   0.917
 1043SOL     OW 4027   3.036   2.045   6.609
 1043SOL    HW1 4028   3.018   1.964   6.664
 1043SOL    HW2 4029   2.969   2.051   6.534
 1044SOL     OW 4030   3.739   3.207   1.706
 1044SOL    HW1 4031   3.665   3.145   1.731
 1044SOL    HW2 4032   3.818   3.154   1.675
 1045SOL     OW 4033   2.742   1.305   2.729
 1045SOL    HW1 4034   2.681   1.235   2.765
 1045SOL    HW2 4035   2.836   1.272   2.731
 1046SOL     OW 4036   3.655   6.757   1.026
 1046SOL    HW1 4037   3.740   6.705   1.027
 1046SOL    HW2 4038   3.657   6.824   0.952
 1047SOL     OW 4039   0.864   4.710   2.932
 1047SOL    HW1 4040   0.789   4.656   2.893
 1047SOL    HW2 4041   0.916   4.752   2.858
 1048SOL     OW 4042   5.080   4.317   4.820
 1048SOL    HW1 4043   5.063   4.334   4.723
 1048SOL    HW2 4044   5.121   4.227   4.832
 1049SOL     OW 4045   0.245   4.199   4.842
 1049SOL    HW1 4046   0.338   4.234   4.838
 1049SOL    HW2 4047   0.183   4.265   4.799
 1050SOL     OW 4048   3.856   7.012   6.795
 1050SOL    HW1 4049   3.826   6.957   6.874
 1050SOL    HW2 4050   3.865   0.082   6.823
 1051SOL     OW 4051   4.928   4.455   0.062
 1051SOL    HW1 4052   4.950   4.452   0.160
 1051SOL    HW2 4053   4.941   4.547   0.027
 1052SOL     OW 4054   3.693   0.225   5.204
 1052SOL    HW1 4055   3.643   0.187   5.127
 1052SOL    HW2 4056   3.673   0.322   5.212
 1053SOL     OW 4057   4.723   4.877   3.719
 1053SOL    HW1 4058   4.714   4.792   3.770
 1053SOL    HW2 4059   4.783   4.940   3.768
 1054SOL     OW 4060   3.340   5.153   5.220
 1054SOL    HW1 4061   3.341   5.165   5.320
 1054SOL    HW2 4062   3.358   5.058   5.198
 1055SOL     OW 4063   4.571   5.980   4.958
 1055SOL    HW1 4064   4.565   6.046   4.884
 1055SOL    HW2 4065   4.502   6.000   5.027
 1056SOL     OW 4066   1.903   6.269   5.392
 1056SOL    HW1 4067   1.866   6.327   5.465
 1056SOL    HW2 4068   1.888   6.173   5.416
 1057SOL     OW 4069   2.874   3.471   2.741
 1057SOL    HW1 4070   2.966   3.486   2.778
 1057SOL    HW2 4071   2.807   3.482   2.814
 1058SOL     OW 4072   3.469   1.257   1.725
 1058SOL    HW1 4073   3.398   1.194   1.756
 1058SOL    HW2 4074   3.434   1.314   1.650
 1059SOL     OW 4075   4.567   1.118   1.503
 1059SOL    HW1 4076   4.659   1.088   1.480
 1059SOL    HW2 4077   4.572   1.194   1.567
 1060SOL     OW 4078   1.188   2.329   5.847
 1060SOL    HW1 4079   1.246   2.284   5.915
 1060SOL    HW2 4080   1.176   2.269   5.768
 1061SOL     OW 4081   3.745   5.296   1.664
 1061SOL    HW1 4082   3.834   5.251   1.665
 1061SOL    HW2 4083   3.747   5.377   1.722
 1062SOL     OW 4084   6.265   6.200   5.651
 1062SOL    HW1 4085   6.294   6.129   5.715
 1062SOL    HW2 4086   6.321   6.282   5.664
 1063SOL     OW 4087   1.881   2.939   0.186
 1063SOL    HW1 4088   1.842   3.002   0.119
 1063SOL    HW2 4089   1.807   2.895   0.237
 1064SOL     OW 4090   0.331   2.979   1.938
 1064SOL    HW1 4091   0.340   3.050   1.868
 1064SOL    HW2 4092   0.387   3.003   2.017
 1065SOL     OW 4093   6.075   6.818   4.415
 1065SOL    HW1 4094   6.133   6.877   4.470
 1065SOL    HW2 4095   6.057   6.733   4.464
 1066SOL     OW 4096   4.637   0.376   3.748
 1066SOL    HW1 4097   4.625   0.362   3.650
 1066SOL    HW2 4098   4.709   0.444   3.763
 1067SOL     OW 4099   2.063   2.925   1.940
 1067SOL    HW1 4100   2.111   2.859   1.998
 1067SOL    HW2 4101   2.108   2.930   1.851
 1068SOL     OW 4102   0.313   3.919   2.372
 1068SOL    HW1 4103   0.255   3.994   2.402
 1068SOL    HW2 4104   0.302   3.841   2.433
 1069SOL     OW 4105   4.318   4.063   1.094
 1069SOL    HW1 4106   4.354   3.986   1.146
 1069SOL    HW2 4107   4.353   4.060   1.001
 1070SOL     OW 4108   2.153   0.923   0.746
 1070SOL    HW1 4109   2.076   0.965   0.794
 1070SOL    HW2 4110   2.200   0.860   0.807
 1071SOL     OW 4111   3.822   6.550   3.916
 1071SOL    HW1 4112   3.834   6.485   3.990
 1071SOL    HW2 4113   3.729   6.542   3.880
 1072SOL     OW 4114   3.164   6.398   2.696
 1072SOL    HW1 4115   3.163   6.495   2.672
 1072SOL    HW2 4116   3.076   6.358   2.672
 1073SOL     OW 4117   2.628   4.735   2.686
 1073SOL    HW1 4118   2.621   4.693   2.777
 1073SOL    HW2 4119   2.711   4.790   2.681
 1074SOL     OW 4120   0.779   4.566   1.845
 1074SOL    HW1 4121   0.722   4.569   1.763
 1074SOL    HW2 4122   0.795   4.660   1.877
 1075SOL     OW 4123   5.516   4.662   4.336
 1075SOL    HW1 4124   5.516   4.650   4.435
 1075SOL    HW2 4125   5.557   4.750   4.313
 1076SOL     OW 4126   0.495   4.373   3.882
 1076SOL    HW1 4127   0.477   4.383   3.980
 1076SOL    HW2 4128   0.517   4.278   3.861
 1077SOL     OW 4129   4.283   0.239   0.763
 1077SOL    HW1 4130   4.298   0.331   0.726
 1077SOL    HW2 4131   4.199   0.201   0.724
 1078SOL     OW 4132   1.461   2.252   1.702
 1078SOL    HW1 4133   1.524   2.328   1.689
 1078SOL    HW2 4134   1.375   2.271   1.656
 1079SOL     OW 4135   2.811   5.902   3.547
 1079SOL    HW1 4136   2.734   5.957   3.514
 1079SOL    HW2 4137   2.779   5.810   3.568
 1080SOL     OW 4138   1.787   5.246   3.867
 1080SOL    HW1 4139   1.827   5.279   3.782
 1080SOL    HW2 4140   1.744   5.322   3.916
 1081SOL     OW 4141   1.851   0.607   0.491
 1081SOL    HW1 4142   1.754   0.627   0.482
 1081SOL    HW2 4143   1.904   0.691   0.485
 1082SOL     OW 4144   1.304   6.986   5.915
 1082SOL    HW1 4145   1.385   6.964   5.969
 1082SOL    HW2 4146   1.297   6.922   5.838
 1083SOL     OW 4147   3.543   3.292   2.009
 1083SOL    HW1 4148   3.552   3.193   2.000
 1083SOL    HW2 4149   3.614   3.325   2.072
 1084SOL     OW 4150   5.608   4.229   1.123
 1084SOL    HW1 4151   5.569   4.214   1.032
 1084SOL    HW2 4152   5.536   4.221   1.192
 1085SOL     OW 4153   1.701   4.829   3.976
 1085SOL    HW1 4154   1.715   4.924   4.003
 1085SOL    HW2 4155   1.618   4.794   4.019
 1086SOL     OW 4156   4.141   4.637   1.913
 1086SOL    HW1 4157   4.092   4.594   1.989
 1086SOL    HW2 4158   4.227   4.588   1.898
 1087SOL     OW 4159   4.464   2.709   5.426
 1087SOL    HW1 4160   4.484   2.773   5.501
 1087SOL    HW2 4161   4.367   2.716   5.401
 1088SOL     OW 4162   5.038   4.479   4.317
 1088SOL    HW1 4163   5.115   4.537   4.290
 1088SOL    HW2 4164   5.065   4.422   4.395
 1089SOL     OW 4165   0.056   0.015   3.790
 1089SOL    HW1 4166   0.138   0.008   3.847
 1089SOL    HW2 4167   0.005   6.955   3.794
 1090SOL     OW 4168   1.630   1.577   6.812
 1090SOL    HW1 4169   1.722   1.597   6.847
 1090SOL    HW2 4170   1.637   1.529   6.725
 1091SOL     OW 4171   1.871   1.582   4.646
 1091SOL    HW1 4172   1.930   1.571   4.566
 1091SOL    HW2 4173   1.830   1.673   4.645
 1092SOL     OW 4174   2.557   3.915   1.582
 1092SOL    HW1 4175   2.507   3.948   1.662
 1092SOL    HW2 4176   2.553   3.984   1.510
 1093SOL     OW 4177   0.276   1.936   2.761
 1093SOL    HW1 4178   0.371   1.931   2.733
 1093SOL    HW2 4179   0.270   1.933   2.861
 1094SOL     OW 4180   0.190   6.691   1.201
 1094SOL    HW1 4181   0.150   6.706   1.291
 1094SOL    HW2 4182   0.258   6.619   1.206
 1095SOL     OW 4183   6.172   3.183   6.254
 1095SOL    HW1 4184   6.228   3.247   6.202
 1095SOL    HW2 4185   6.115   3.233   6.319
 1096SOL     OW 4186   3.531   4.317   1.791
 1096SOL    HW1 4187   3.441   4.301   1.751
 1096SOL    HW2 4188   3.550   4.415   1.793
 1097SOL     OW 4189   1.470   5.545   5.474
 1097SOL    HW1 4190   1.420   5.545   5.561
 1097SOL    HW2 4191   1.443   5.466   5.420
 1098SOL     OW 4192   4.656   2.134   2.443
 1098SOL    HW1 4193   4.619   2.090   2.361
 1098SOL    HW2 4194   4.736   2.083   2.475
 1099SOL     OW 4195   4.222   1.704   4.189
 1099SOL    HW1 4196   4.208   1.748   4.100
 1099SOL    HW2 4197   4.173   1.617   4.192
 1100SOL     OW 4198   0.578   0.966   6.882
 1100SOL    HW1 4199   0.639   0.924   6.815
 1100SOL    HW2 4200   0.485   0.933   6.868
 1101SOL     OW 4201   5.282   3.385   0.779
 1101SOL    HW1 4202   5.363   3.374   0.838
 1101SOL    HW2 4203   5.311   3.417   0.689
 1102SOL     OW 4204   0.798   4.521   3.827
 1102SOL    HW1 4205   0.703   4.492   3.842
 1102SOL    HW2 4206   0.799   4.603   3.770
 1103SOL     OW 4207   1.699   2.200   1.960
 1103SOL    HW1 4208   1.606   2.164   1.973
 1103SOL    HW2 4209   1.703   2.295   1.990
 1104SOL     OW 4210   3.450   4.994   6.125
 1104SOL    HW1 4211   3.509   4.913   6.132
 1104SOL    HW2 4212   3.439   5.019   6.029
 1105SOL     OW 4213   5.076   4.085   6.274
 1105SOL    HW1 4214   5.089   3.992   6.309
 1105SOL    HW2 4215   5.164   4.131   6.269
 1106SOL     OW 4216   0.306   2.741   5.864
 1106SOL    HW1 4217   0.273   2.815   5.923
 1106SOL    HW2 4218   0.350   2.671   5.920
 1107SOL     OW 4219   1.035   0.428   0.790
 1107SOL    HW1 4220   0.960   0.487   0.760
 1107SOL    HW2 4221   1.021   0.402   0.885
 1108SOL     OW 4222   1.702   1.161   5.481
 1108SOL    HW1 4223   1.792   1.199   5.503
 1108SOL    HW2 4224   1.631   1.226   5.507
 1109SOL     OW 4225   4.272   6.800   3.770
 1109SOL    HW1 4226   4.322   6.827   3.687
 1109SOL    HW2 4227   4.201   6.868   3.790
 1110SOL     OW 4228   2.854   3.565   1.902
 1110SOL    HW1 4229   2.756   3.584   1.907
 1110SOL    HW2 4230   2.904   3.651   1.897
 1111SOL     OW 4231   5.611   0.948   0.143
 1111SOL    HW1 4232   5.615   1.040   0.105
 1111SOL    HW2 4233   5.648   0.883   0.077
 1112SOL     OW 4234   6.691   0.901   1.976
 1112SOL    HW1 4235   6.693   0.898   2.076
 1112SOL    HW2 4236   6.785   0.898   1.941
 1113SOL     OW 4237   6.473   3.506   2.468
 1113SOL    HW1 4238   6.533   3.430   2.444
 1113SOL    HW2 4239   6.426   3.539   2.386
 1114SOL     OW 4240   4.346   1.450   5.336
 1114SOL    HW1 4241   4.414   1.377   5.332
 1114SOL    HW2 4242   4.275   1.427   5.402
 1115SOL     OW 4243   3.028   3.260   0.880
 1115SOL    HW1 4244   3.088   3.180   0.873
 1115SOL    HW2 4245   2.941   3.241   0.834
 1116SOL     OW 4246   3.959   6.689   4.273
 1116SOL    HW1 4247   3.937   6.678   4.370
 1116SOL    HW2 4248   3.876   6.712   4.222
 1117SOL     OW 4249   2.804   2.924   0.787
 1117SOL    HW1 4250   2.722   2.876   0.754
 1117SOL    HW2 4251   2.872   2.857   0.816
 1118SOL     OW 4252   2.341   4.215   3.332
 1118SOL    HW1 4253   2.358   4.304   3.289
 1118SOL    HW2 4254   2.371   4.142   3.271
 1119SOL     OW 4255   4.543   3.733   1.484
 1119SOL    HW1 4256   4.495   3.679   1.553
 1119SOL    HW2 4257   4.559   3.677   1.402
 1120SOL     OW 4258   4.432   0.533   5.221
 1120SOL    HW1 4259   4.440   0.440   5.187
 1120SOL    HW2 4260   4.523   0.571   5.238
 1121SOL     OW 4261   5.655   3.060   2.283
 1121SOL    HW1 4262   5.723   2.994   2.252
 1121SOL    HW2 4263   5.573   3.012   2.312
 1122SOL     OW 4264   5.158   3.508   6.573
 1122SOL    HW1 4265   5.222   3.571   6.529
 1122SOL    HW2 4266   5.157   3.524   6.671
 1123SOL     OW 4267   4.407   0.991   2.352
 1123SOL    HW1 4268   4.447   0.918   2.408
 1123SOL    HW2 4269   4.457   0.997   2.265
 1124SOL     OW 4270   0.274   4.213   4.503
 1124SOL    HW1 4271   0.211   4.209   4.426
 1124SOL    HW2 4272   0.336   4.291   4.492
 1125SOL     OW 4273   3.591   3.156   4.744
 1125SOL    HW1 4274   3.661   3.192   4.807
 1125SOL    HW2 4275   3.508   3.135   4.796
 1126SOL     OW 4276   5.167   6.452   1.447
 1126SOL    HW1 4277   5.183   6.431   1.351
 1126SOL    HW2 4278   5.196   6.546   1.466
 1127SOL     OW 4279   2.060   5.023   6.929
 1127SOL    HW1 4280   2.003   4.945   6.904
 1127SOL    HW2 4281   2.031   5.104   6.878
 1128SOL     OW 4282   3.203   1.587   4.249
 1128SOL    HW1 4283   3.178   1.556   4.341
 1128SOL    HW2 4284   3.152   1.535   4.181
 1129SOL     OW 4285   5.183   0.465   6.652
 1129SOL    HW1 4286   5.118   0.411   6.600
 1129SOL    HW2 4287   5.201   0.421   6.740
 1130SOL     OW 4288   1.338   4.466   6.783
 1130SOL    HW1 4289   1.362   4.561   6.760
 1130SOL    HW2 4290   1.262   4.466   6.849
 1131SOL     OW 4291   0.580   6.177   5.509
 1131SOL    HW1 4292   0.543   6.197   5.599
 1131SOL    HW2 4293   0.551   6.085   5.480
 1132SOL     OW 4294   5.067   6.676   5.474
 1132SOL    HW1 4295   5.148   6.699   5.420
 1132SOL    HW2 4296   4.985   6.709   5.428
 1133SOL     OW 4297   0.257   3.464   1.510
 1133SOL    HW1 4298   0.241   3.429   1.418
 1133SOL    HW2 4299   0.317   3.544   1.506
 1134SOL     OW 4300   5.211   2.946   6.154
 1134SOL    HW1 4301   5.116   2.949   6.187
 1134SOL    HW2 4302   5.242   3.039   6.134
 1135SOL     OW 4303   2.672   2.178   3.280
 1135SOL    HW1 4304   2.681   2.123   3.363
 1135SOL    HW2 4305   2.763   2.198   3.244
 1136SOL     OW 4306   3.230   5.558   3.700
 1136SOL    HW1 4307   3.133   5.556   3.678
 1136SOL    HW2 4308   3.243   5.602   3.789
 1137SOL     OW 4309   1.106   1.508   6.196
 1137SOL    HW1 4310   1.157   1.585   6.235
 1137SOL    HW2 4311   1.069   1.535   6.107
 1138SOL     OW 4312   1.094   3.470   6.026
 1138SOL    HW1 4313   1.040   3.549   6.054
 1138SOL    HW2 4314   1.043   3.386   6.046
 1139SOL     OW 4315   1.286   6.299   2.685
 1139SOL    HW1 4316   1.385   6.304   2.696
 1139SOL    HW2 4317   1.260   6.334   2.595
 1140SOL     OW 4318   3.424   1.537   3.835
 1140SOL    HW1 4319   3.459   1.446   3.858
 1140SOL    HW2 4320   3.472   1.573   3.755
 1141SOL     OW 4321   6.317   5.746   5.242
 1141SOL    HW1 4322   6.416   5.732   5.250
 1141SOL    HW2 4323   6.295   5.780   5.151
 1142SOL     OW 4324   5.413   0.594   3.797
 1142SOL    HW1 4325   5.423   0.528   3.871
 1142SOL    HW2 4326   5.467   0.676   3.817
 1143SOL     OW 4327   3.976   1.600   3.047
 1143SOL    HW1 4328   3.976   1.693   3.012
 1143SOL    HW2 4329   3.912   1.592   3.123
 1144SOL     OW 4330   0.191   5.194   4.289
 1144SOL    HW1 4331   0.287   5.164   4.294
 1144SOL    HW2 4332   0.188   5.294   4.292
 1145SOL     OW 4333   6.951   5.589   4.672
 1145SOL    HW1 4334   6.975   5.675   4.627
 1145SOL    HW2 4335   7.016   5.570   4.745
 1146SOL     OW 4336   5.924   1.662   0.932
 1146SOL    HW1 4337   5.992   1.607   0.882
 1146SOL    HW2 4338   5.853   1.692   0.869
 1147SOL     OW 4339   0.199   3.268   2.187
 1147SOL    HW1 4340   0.203   3.364   2.157
 1147SOL    HW2 4341   0.184   3.265   2.286
 1148SOL     OW 4342   3.613   6.576   0.077
 1148SOL    HW1 4343   3.596   6.546   7.008
 1148SOL    HW2 4344   3.613   6.496   0.137
 1149SOL     OW 4345   6.633   3.292   2.396
 1149SOL    HW1 4346   6.618   3.204   2.441
 1149SOL    HW2 4347   6.581   3.296   2.311
 1150SOL     OW 4348   1.629   4.972   0.371
 1150SOL    HW1 4349   1.546   4.926   0.405
 1150SOL    HW2 4350   1.702   4.960   0.438
 1151SOL     OW 4351   5.828   4.918   6.661
 1151SOL    HW1 4352   5.835   4.983   6.737
 1151SOL    HW2 4353   5.787   4.832   6.695
 1152SOL     OW 4354   1.806   7.018   5.206
 1152SOL    HW1 4355   1.723   6.968   5.183
 1152SOL    HW2 4356   1.828   0.056   5.131
 1153SOL     OW 4357   2.340   5.307   2.844
 1153SOL    HW1 4358   2.346   5.207   2.836
 1153SOL    HW2 4359   2.280   5.330   2.920
 1154SOL     OW 4360   0.554   3.848   1.876
 1154SOL    HW1 4361   0.534   3.789   1.799
 1154SOL    HW2 4362   0.546   3.796   1.961
 1155SOL     OW 4363   3.737   5.452   2.124
 1155SOL    HW1 4364   3.772   5.484   2.211
 1155SOL    HW2 4365   3.809   5.458   2.055
 1156SOL     OW 4366   2.320   0.157   4.285
 1156SOL    HW1 4367   2.258   0.079   4.296
 1156SOL    HW2 4368   2.409   0.135   4.325
 1157SOL     OW 4369   0.217   2.645   3.788
 1157SOL    HW1 4370   0.292   2.578   3.791
 1157SOL    HW2 4371   0.184   2.662   3.881
 1158SOL     OW 4372   5.303   5.121   5.258
 1158SOL    HW1 4373   5.229   5.176   5.220
 1158SOL    HW2 4374   5.281   5.094   5.352
 1159SOL     OW 4375   3.950   5.299   3.470
 1159SOL    HW1 4376   3.850   5.297   3.466
 1159SOL    HW2 4377   3.986   5.209   3.445
 1160SOL     OW 4378   3.608   3.549   1.624
 1160SOL    HW1 4379   3.532   3.598   1.580
 1160SOL    HW2 4380   3.650   3.487   1.558
 1161SOL     OW 4381   5.398   1.069   3.656
 1161SOL    HW1 4382   5.313   1.111   3.689
 1161SOL    HW2 4383   5.386   1.039   3.562
 1162SOL     OW 4384   3.502   4.092   2.050
 1162SOL    HW1 4385   3.595   4.074   2.082
 1162SOL    HW2 4386   3.475   4.185   2.074
 1163SOL     OW 4387   5.292   1.919   3.015
 1163SOL    HW1 4388   5.242   1.842   2.976
 1163SOL    HW2 4389   5.236   2.002   3.010
 1164SOL     OW 4390   5.814   3.049   3.569
 1164SOL    HW1 4391   5.786   3.021   3.477
 1164SOL    HW2 4392   5.808   3.149   3.577
 1165SOL     OW 4393   0.831   4.603   3.400
 1165SOL    HW1 4394   0.871   4.665   3.333
 1165SOL    HW2 4395   0.905   4.551   3.445
 1166SOL     OW 4396   4.163   2.648   6.052
 1166SOL    HW1 4397   4.071   2.614   6.033
 1166SOL    HW2 4398   4.172   2.742   6.019
 1167SOL     OW 4399   4.608   1.153   5.044
 1167SOL    HW1 4400   4.653   1.094   4.977
 1167SOL    HW2 4401   4.538   1.208   4.998
 1168SOL     OW 4402   6.637   6.886   3.142
 1168SOL    HW1 4403   6.585   6.844   3.217
 1168SOL    HW2 4404   6.715   6.827   3.120
 1169SOL     OW 4405   0.546   3.654   1.628
 1169SOL    HW1 4406   0.575   3.741   1.588
 1169SOL    HW2 4407   0.593   3.579   1.582
 1170SOL     OW 4408   3.287   1.057   1.803
 1170SOL    HW1 4409   3.197   1.021   1.783
 1170SOL    HW2 4410   3.357   0.989   1.781
 1171SOL     OW 4411   2.946   5.958   0.947
 1171SOL    HW1 4412   3.038   5.995   0.962
 1171SOL    HW2 4413   2.935   5.873   0.999
 1172SOL     OW 4414   3.140   3.551   4.859
 1172SOL    HW1 4415   3.147   3.645   4.891
 1172SOL    HW2 4416   3.157   3.488   4.935
 1173SOL     OW 4417   3.458   0.964   6.635
 1173SOL    HW1 4418   3.465   0.949   6.536
 1173SOL    HW2 4419   3.370   1.006   6.656
 1174SOL     OW 4420   3.188   6.032   1.025
 1174SOL    HW1 4421   3.214   5.940   1.055
 1174SOL    HW2 4422   3.266   6.094   1.036
 1175SOL     OW 4423   6.133   4.821   5.874
 1175SOL    HW1 4424   6.055   4.760   5.886
 1175SOL    HW2 4425   6.113   4.887   5.802
 1176SOL     OW 4426   5.529   4.598   1.016
 1176SOL    HW1 4427   5.596   4.559   1.079
 1176SOL    HW2 4428   5.438   4.593   1.056
 1177SOL     OW 4429   6.614   2.759   5.858
 1177SOL    HW1 4430   6.613   2.687   5.788
 1177SOL    HW2 4431   6.708   2.787   5.876
 1178SOL     OW 4432   6.074   3.432   1.704
 1178SOL    HW1 4433   6.130   3.455   1.784
 1178SOL    HW2 4434   5.981   3.410   1.734
 1179SOL     OW 4435   2.315   5.495   6.397
 1179SOL    HW1 4436   2.407   5.517   6.429
 1179SOL    HW2 4437   2.256   5.575   6.407
 1180SOL     OW 4438   2.664   1.967   4.027
 1180SOL    HW1 4439   2.758   1.942   4.051
 1180SOL    HW2 4440   2.664   2.017   3.941
 1181SOL     OW 4441   2.034   4.219   3.173
 1181SOL    HW1 4442   2.016   4.306   3.127
 1181SOL    HW2 4443   1.949   4.186   3.215
 1182SOL     OW 4444   2.368   4.345   3.885
 1182SOL    HW1 4445   2.297   4.325   3.953
 1182SOL    HW2 4446   2.432   4.411   3.922
 1183SOL     OW 4447   4.413   5.951   0.884
 1183SOL    HW1 4448   4.404   6.050   0.880
 1183SOL    HW2 4449   4.509   5.927   0.902
 1184SOL     OW 4450   2.947   2.843   5.661
 1184SOL    HW1 4451   3.043   2.859   5.682
 1184SOL    HW2 4452   2.890   2.898   5.722
 1185SOL     OW 4453   1.500   0.617   0.141
 1185SOL    HW1 4454   1.508   0.517   0.132
 1185SOL    HW2 4455   1.568   0.650   0.206
 1186SOL     OW 4456   4.831   1.282   4.620
 1186SOL    HW1 4457   4.868   1.269   4.528
 1186SOL    HW2 4458   4.864   1.208   4.680
 1187SOL     OW 4459   6.004   0.315   5.218
 1187SOL    HW1 4460   6.016   0.353   5.126
 1187SOL    HW2 4461   5.934   0.244   5.216
 1188SOL     OW 4462   1.931   0.524   6.261
 1188SOL    HW1 4463   1.912   0.431   6.294
 1188SOL    HW2 4464   1.896   0.534   6.168
 1189SOL     OW 4465   5.648   0.645   1.603
 1189SOL    HW1 4466   5.688   0.665   1.693
 1189SOL    HW2 4467   5.574   0.579   1.613
 1190SOL     OW 4468   4.605   5.090   2.359
 1190SOL    HW1 4469   4.590   5.050   2.268
 1190SOL    HW2 4470   4.703   5.097   2.376
 1191SOL     OW 4471   3.247   5.697   6.620
 1191SOL    HW1 4472   3.148   5.692   6.630
 1191SOL    HW2 4473   3.270   5.721   6.526
 1192SOL     OW 4474   5.552   5.047   3.057
 1192SOL    HW1 4475   5.595   4.991   3.128
 1192SOL    HW2 4476   5.476   5.098   3.097
 1193SOL     OW 4477   5.179   0.713   3.647
 1193SOL    HW1 4478   5.235   0.698   3.729
 1193SOL    HW2 4479   5.093   0.663   3.656
 1194SOL     OW 4480   6.326   0.237   0.508
 1194SOL    HW1 4481   6.249   0.185   0.545
 1194SOL    HW2 4482   6.339   0.212   0.412
 1195SOL     OW 4483   5.429   0.452   6.483
 1195SOL    HW1 4484   5.377   0.511   6.420
 1195SOL    HW2 4485   5.370   0.424   6.558
 1196SOL     OW 4486   0.206   5.234   2.542
 1196SOL    HW1 4487   0.125   5.233   2.602
 1196SOL    HW2 4488   0.263   5.313   2.565
 1197SOL     OW 4489   4.013   5.620   5.777
 1197SOL    HW1 4490   3.994   5.617   5.679
 1197SOL    HW2 4491   3.934   5.658   5.826
 1198SOL     OW 4492   3.212   2.140   2.796
 1198SOL    HW1 4493   3.290   2.086   2.764
 1198SOL    HW2 4494   3.147   2.152   2.721
 1199SOL     OW 4495   4.121   4.057   1.738
 1199SOL    HW1 4496   4.218   4.078   1.731
 1199SOL    HW2 4497   4.068   4.128   1.693
 1200SOL     OW 4498   4.176   4.230   6.849
 1200SOL    HW1 4499   4.103   4.175   6.808
 1200SOL    HW2 4500   4.201   4.190   6.938
 1201SOL     OW 4501   1.430   1.232   5.145
 1201SOL    HW1 4502   1.530   1.235   5.146
 1201SOL    HW2 4503   1.397   1.258   5.054
 1202SOL     OW 4504   6.024   0.345   4.928
 1202SOL    HW1 4505   6.091   0.368   4.858
 1202SOL    HW2 4506   5.984   0.256   4.909
 1203SOL     OW 4507   5.598   6.902   0.779
 1203SOL    HW1 4508   5.532   6.954   0.725
 1203SOL    HW2 4509   5.631   6.957   0.855
 1204SOL     OW 4510   3.442   0.652   0.600
 1204SOL    HW1 4511   3.494   0.707   0.535
 1204SOL    HW2 4512   3.379   0.592   0.549
 1205SOL     OW 4513   6.284   2.604   4.964
 1205SOL    HW1 4514   6.364   2.664   4.969
 1205SOL    HW2 4515   6.235   2.622   4.879
 1206SOL     OW 4516   2.039   1.831   4.939
 1206SOL    HW1 4517   1.962   1.857   4.880
 1206SOL    HW2 4518   2.059   1.734   4.925
 1207SOL     OW 4519   6.029   0.251   6.596
 1207SOL    HW1 4520   6.036   0.331   6.537
 1207SOL    HW2 4521   5.999   0.279   6.687
 1208SOL     OW 4522   3.535   3.428   3.056
 1208SOL    HW1 4523   3.530   3.514   3.106
 1208SOL    HW2 4524   3.513   3.352   3.117
 1209SOL     OW 4525   5.204   5.186   4.363
 1209SOL    HW1 4526   5.207   5.223   4.456
 1209SOL    HW2 4527   5.220   5.088   4.365
 1210SOL     OW 4528   3.876   6.875   2.361
 1210SOL    HW1 4529   3.807   6.829   2.417
 1210SOL    HW2 4530   3.834   6.951   2.312
 1211SOL     OW 4531   0.410   4.621   4.928
 1211SOL    HW1 4532   0.346   4.696   4.911
 1211SOL    HW2 4533   0.389   4.579   5.016
 1212SOL     OW 4534   1.888   3.596   5.136
 1212SOL    HW1 4535   1.815   3.665   5.132
 1212SOL    HW2 4536   1.976   3.641   5.144
 1213SOL     OW 4537   6.183   2.143   5.482
 1213SOL    HW1 4538   6.226   2.057   5.452
 1213SOL    HW2 4539   6.119   2.174   5.413
 1214SOL     OW 4540   1.994   3.926   3.387
 1214SOL    HW1 4541   2.044   3.865   3.325
 1214SOL    HW2 4542   2.060   3.984   3.436
 1215SOL     OW 4543   1.010   4.719   2.250
 1215SOL    HW1 4544   1.017   4.818   2.233
 1215SOL    HW2 4545   1.101   4.681   2.263
 1216SOL     OW 4546   1.981   0.043   1.993
 1216SOL    HW1 4547   1.974   7.006   1.915
 1216SOL    HW2 4548   2.076   0.074   2.002
 1217SOL     OW 4549   1.309   6.503   1.890
 1217SOL    HW1 4550   1.300   6.409   1.857
 1217SOL    HW2 4551   1.348   6.560   1.817
 1218SOL     OW 4552   0.588   3.895   4.032
 1218SOL    HW1 4553   0.531   3.905   4.114
 1218SOL    HW2 4554   0.617   3.799   4.023
 1219SOL     OW 4555   3.800   6.206   1.607
 1219SOL    HW1 4556   3.858   6.223   1.527
 1219SOL    HW2 4557   3.828   6.265   1.682
 1220SOL     OW 4558   5.789   3.680   3.780
 1220SOL    HW1 4559   5.696   3.711   3.759
 1220SOL    HW2 4560   5.855   3.738   3.733
 1221SOL     OW 4561   4.808   3.710   6.935
 1221SOL    HW1 4562   4.789   3.621   6.893
 1221SOL    HW2 4563   4.734   3.774   6.912
 1222SOL     OW 4564   6.936   6.445   1.335
 1222SOL    HW1 4565   6.996   6.369   1.361
 1222SOL    HW2 4566   6.853   6.444   1.391
 1223SOL     OW 4567   6.176   6.875   6.347
 1223SOL    HW1 4568   6.200   6.780   6.330
 1223SOL    HW2 4569   6.102   6.903   6.285
 1224SOL     OW 4570   4.936   5.226   1.530
 1224SOL    HW1 4571   5.009   5.276   1.578
 1224SOL    HW2 4572   4.851   5.278   1.537
 1225SOL     OW 4573   4.797   2.255   0.484
 1225SOL    HW1 4574   4.837   2.335   0.530
 1225SOL    HW2 4575   4.865   2.183   0.479
 1226SOL     OW 4576   5.580   6.053   1.056
 1226SOL    HW1 4577   5.628   6.047   1.144
 1226SOL    HW2 4578   5.512   5.980   1.050
 1227SOL     OW 4579   6.038   3.849   5.538
 1227SOL    HW1 4580   6.070   3.922   5.478
 1227SOL    HW2 4581   5.942   3.829   5.517
 1228SOL     OW 4582   4.160   3.534   3.064
 1228SOL    HW1 4583   4.093   3.607   3.051
 1228SOL    HW2 4584   4.183   3.493   2.976
 1229SOL     OW 4585   2.255   5.663   3.089
 1229SOL    HW1 4586   2.280   5.620   3.002
 1229SOL    HW2 4587   2.260   5.597   3.163
 1230SOL     OW 4588   5.080   4.775   1.309
 1230SOL    HW1 4589   5.093   4.745   1.403
 1230SOL    HW2 4590   5.081   4.875   1.305
 1231SOL     OW 4591   1.761   2.493   6.576
 1231SOL    HW1 4592   1.836   2.559   6.582
 1231SOL    HW2 4593   1.678   2.540   6.547
 1232SOL     OW 4594   3.209   0.722   5.817
 1232SOL    HW1 4595   3.218   0.721   5.916
 1232SOL    HW2 4596   3.274   0.788   5.778
 1233SOL     OW 4597   0.237   6.029   4.980
 1233SOL    HW1 4598   0.336   6.043   4.982
 1233SOL    HW2 4599   0.216   5.943   4.934
 1234SOL     OW 4600   6.788   3.130   6.946
 1234SOL    HW1 4601   6.828   3.050   6.992
 1234SOL    HW2 4602   6.787   3.115   6.848
 1235SOL     OW 4603   6.291   5.198   0.220
 1235SOL    HW1 4604   6.256   5.142   0.146
 1235SOL    HW2 4605   6.216   5.251   0.260
 1236SOL     OW 4606   1.463   1.811   1.845
 1236SOL    HW1 4607   1.402   1.887   1.823
 1236SOL    HW2 4608   1.533   1.803   1.774
 1237SOL     OW 4609   1.019   6.694   4.807
 1237SOL    HW1 4610   1.108   6.650   4.818
 1237SOL    HW2 4611   0.961   6.672   4.885
 1238SOL     OW 4612   6.850   0.776   4.231
 1238SOL    HW1 4613   6.859   0.764   4.330
 1238SOL    HW2 4614   6.815   0.868   4.212
 1239SOL     OW 4615   6.253   4.773   4.532
 1239SOL    HW1 4616   6.331   4.827   4.499
 1239SOL    HW2 4617   6.286   4.702   4.593
 1240SOL     OW 4618   5.858   4.252   3.677
 1240SOL    HW1 4619   5.908   4.330   3.638
 1240SOL    HW2 4620   5.923   4.189   3.720
 1241SOL     OW 4621   5.313   4.856   4.748
 1241SOL    HW1 4622   5.268   4.767   4.740
 1241SOL    HW2 4623   5.407   4.849   4.717
 1242SOL     OW 4624   1.320   4.736   0.002
 1242SOL    HW1 4625   1.340   4.664   0.067
 1242SOL    HW2 4626   1.399   4.750   6.967
 1243SOL     OW 4627   0.533   4.766   4.733
 1243SOL    HW1 4628   0.490   4.712   4.805
 1243SOL    HW2 4629   0.615   4.719   4.701
 1244SOL     OW 4630   4.897   6.997   4.688
 1244SOL    HW1 4631   4.890   0.019   4.601
 1244SOL    HW2 4632   4.828   0.009   4.751
 1245SOL     OW 4633   4.950   6.746   1.439
 1245SOL    HW1 4634   4.858   6.776   1.461
 1245SOL    HW2 4635   4.947   6.655   1.398
 1246SOL     OW 4636   4.686   1.828   0.568
 1246SOL    HW1 4637   4.725   1.899   0.626
 1246SOL    HW2 4638   4.695   1.854   0.472
 1247SOL     OW 4639   6.726   6.604   3.558
 1247SOL    HW1 4640   6.798   6.560   3.505
 1247SOL    HW2 4641   6.697   6.543   3.632
 1248SOL     OW 4642   1.299   6.664   4.836
 1248SOL    HW1 4643   1.330   6.634   4.927
 1248SOL    HW2 4644   1.375   6.658   4.772
 1249SOL     OW 4645   5.817   4.601   6.962
 1249SOL    HW1 4646   5.785   4.617   6.868
 1249SOL    HW2 4647   5.909   4.639   6.972
 1250SOL     OW 4648   6.778   3.044   4.717
 1250SOL    HW1 4649   6.767   3.022   4.620
 1250SOL    HW2 4650   6.691   3.076   4.754
 1251SOL     OW 4651   2.889   0.600   2.884
 1251SOL    HW1 4652   2.893   0.501   2.877
 1251SOL    HW2 4653   2.942   0.630   2.963
 1252SOL     OW 4654   1.315   5.541   6.910
 1252SOL    HW1 4655   1.287   5.602   6.984
 1252SOL    HW2 4656   1.359   5.459   6.949
 1253SOL     OW 4657   3.406   1.079   0.866
 1253SOL    HW1 4658   3.480   1.146   0.869
 1253SOL    HW2 4659   3.358   1.078   0.954
 1254SOL     OW 4660   6.764   1.246   1.505
 1254SOL    HW1 4661   6.764   1.160   1.556
 1254SOL    HW2 4662   6.825   1.239   1.427
 1255SOL     OW 4663   5.510   1.387   5.219
 1255SOL    HW1 4664   5.556   1.377   5.307
 1255SOL    HW2 4665   5.576   1.377   5.145
 1256SOL     OW 4666   0.860   5.903   4.639
 1256SOL    HW1 4667   0.805   5.854   4.571
 1256SOL    HW2 4668   0.925   5.840   4.681
 1257SOL     OW 4669   0.242   5.434   3.806
 1257SOL    HW1 4670   0.313   5.384   3.856
 1257SOL    HW2 4671   0.193   5.494   3.869
 1258SOL     OW 4672   3.311   6.106   4.565
 1258SOL    HW1 4673   3.349   6.169   4.633
 1258SOL    HW2 4674   3.253   6.157   4.502
 1259SOL     OW 4675   5.547   0.411   3.994
 1259SOL    HW1 4676   5.644   0.396   3.972
 1259SOL    HW2 4677   5.492   0.340   3.951
 1260SOL     OW 4678   2.046   0.793   2.030
 1260SOL    HW1 4679   2.052   0.804   2.129
 1260SOL    HW2 4680   2.067   0.880   1.985
 1261SOL     OW 4681   6.455   4.563   6.460
 1261SOL    HW1 4682   6.554   4.562   6.477
 1261SOL    HW2 4683   6.412   4.629   6.522
 1262SOL     OW 4684   4.802   5.206   0.164
 1262SOL    HW1 4685   4.883   5.250   0.204
 1262SOL    HW2 4686   4.830   5.143   0.092
 1263SOL     OW 4687   0.403   2.205   1.766
 1263SOL    HW1 4688   0.494   2.243   1.752
 1263SOL    HW2 4689   0.337   2.256   1.711
 1264SOL     OW 4690   0.180   3.641   3.566
 1264SOL    HW1 4691   0.145   3.695   3.643
 1264SOL    HW2 4692   0.175   3.544   3.588
 1265SOL     OW 4693   6.691   4.242   5.497
 1265SOL    HW1 4694   6.713   4.169   5.561
 1265SOL    HW2 4695   6.752   4.320   5.513
 1266SOL     OW 4696   3.213   1.663   5.220
 1266SOL    HW1 4697   3.189   1.650   5.124
 1266SOL    HW2 4698   3.145   1.722   5.264
 1267SOL     OW 4699   6.976   5.198   2.936
 1267SOL    HW1 4700   7.022   5.115   2.904
 1267SOL    HW2 4701   6.892   5.173   2.984
 1268SOL     OW 4702   5.342   2.492   0.059
 1268SOL    HW1 4703   5.377   2.584   0.046
 1268SOL    HW2 4704   5.396   2.427   0.006
 1269SOL     OW 4705   6.700   5.376   5.714
 1269SOL    HW1 4706   6.636   5.377   5.791
 1269SOL    HW2 4707   6.744   5.286   5.709
 1270SOL     OW 4708   1.840   3.329   4.609
 1270SOL    HW1 4709   1.759   3.337   4.667
 1270SOL    HW2 4710   1.836   3.243   4.557
 1271SOL     OW 4711   3.758   1.895   2.839
 1271SOL    HW1 4712   3.660   1.883   2.855
 1271SOL    HW2 4713   3.772   1.941   2.751
 1272SOL     OW 4714   0.116   5.416   1.700
 1272SOL    HW1 4715   0.170   5.410   1.616
 1272SOL    HW2 4716   0.123   5.330   1.751
 1273SOL     OW 4717   2.974   5.722   6.724
 1273SOL    HW1 4718   2.995   5.814   6.757
 1273SOL    HW2 4719   2.894   5.687   6.772
 1274SOL     OW 4720   6.926   2.515   2.228
 1274SOL    HW1 4721   7.001   2.568   2.268
 1274SOL    HW2 4722   6.847   2.575   2.213
 1275SOL     OW 4723   3.846   1.760   4.610
 1275SOL    HW1 4724   3.880   1.774   4.517
 1275SOL    HW2 4725   3.922   1.736   4.670
 1276SOL     OW 4726   0.811   0.098   2.556
 1276SOL    HW1 4727   0.735   0.036   2.577
 1276SOL    HW2 4728   0.886   0.081   2.619
 1277SOL     OW 4729   0.092   0.285   4.049
 1277SOL    HW1 4730   0.016   0.261   3.988
 1277SOL    HW2 4731   0.060   0.352   4.116
 1278SOL     OW 4732   2.174   1.872   5.759
 1278SOL    HW1 4733   2.074   1.870   5.758
 1278SOL    HW2 4734   2.206   1.872   5.854
 1279SOL     OW 4735   2.864   6.067   0.535
 1279SOL    HW1 4736   2.783   6.065   0.593
 1279SOL    HW2 4737   2.858   5.995   0.465
 1280SOL     OW 4738   2.504   0.221   3.473
 1280SOL    HW1 4739   2.530   0.225   3.377
 1280SOL    HW2 4740   2.434   0.151   3.487
 1281SOL     OW 4741   1.286   6.357   3.251
 1281SOL    HW1 4742   1.295   6.277   3.191
 1281SOL    HW2 4743   1.375   6.401   3.260
 1282SOL     OW 4744   0.879   1.073   1.241
 1282SOL    HW1 4745   0.782   1.093   1.251
 1282SOL    HW2 4746   0.933   1.152   1.271
 1283SOL     OW 4747   5.676   5.345   5.136
 1283SOL    HW1 4748   5.592   5.394   5.156
 1283SOL    HW2 4749   5.687   5.338   5.037
 1284SOL     OW 4750   2.985   2.681   1.749
 1284SOL    HW1 4751   2.939   2.769   1.738
 1284SOL    HW2 4752   2.948   2.634   1.829
 1285SOL     OW 4753   4.810   2.901   5.657
 1285SOL    HW1 4754   4.878   2.866   5.721
 1285SOL    HW2 4755   4.830   2.868   5.565
 1286SOL     OW 4756   5.462   3.914   1.868
 1286SOL    HW1 4757   5.463   3.977   1.946
 1286SOL    HW2 4758   5.405   3.952   1.795
 1287SOL     OW 4759   6.574   6.202   6.996
 1287SOL    HW1 4760   6.578   6.115   6.946
 1287SOL    HW2 4761   6.635   6.197   0.050
 1288SOL     OW 4762   0.019   3.280   0.738
 1288SOL    HW1 4763   0.031   3.351   0.807
 1288SOL    HW2 4764   0.017   3.322   0.647
 1289SOL     OW 4765   6.815   6.191   2.503
 1289SOL    HW1 4766   6.838   6.223   2.411
 1289SOL    HW2 4767   6.725   6.146   2.502
 1290SOL     OW 4768   0.474   6.611   0.215
 1290SOL    HW1 4769   0.546   6.603   0.285
 1290SOL    HW2 4770   0.487   6.696   0.164
 1291SOL     OW 4771   1.244   6.041   7.025
 1291SOL    HW1 4772   1.237   5.979   0.078
 1291SOL    HW2 4773   1.326   6.097   0.010
 1292SOL     OW 4774   0.646   4.907   1.042
 1292SOL    HW1 4775   0.633   4.898   0.943
 1292SOL    HW2 4776   0.728   4.960   1.060
 1293SOL     OW 4777   0.564   1.895   6.525
 1293SOL    HW1 4778   0.609   1.956   6.459
 1293SOL    HW2 4779   0.473   1.931   6.545
 1294SOL     OW 4780   6.942   2.819   1.982
 1294SOL    HW1 4781   6.952   2.867   1.895
 1294SOL    HW2 4782   0.007   2.805   2.023
 1295SOL     OW 4783   5.399   2.511   2.083
 1295SOL    HW1 4784   5.383   2.572   2.160
 1295SOL    HW2 4785   5.497   2.489   2.078
 1296SOL     OW 4786   3.310   1.875   6.310
 1296SOL    HW1 4787   3.382   1.806   6.314
 1296SOL    HW2 4788   3.307   1.925   6.397
 1297SOL     OW 4789   6.783   1.431   5.035
 1297SOL    HW1 4790   6.769   1.367   4.959
 1297SOL    HW2 4791   6.766   1.524   5.003
 1298SOL     OW 4792   6.014   3.009   2.733
 1298SOL    HW1 4793   6.002   3.103   2.763
 1298SOL    HW2 4794   6.095   2.970   2.777
 1299SOL     OW 4795   1.236   4.056   4.829
 1299SOL    HW1 4796   1.311   4.027   4.889
 1299SOL    HW2 4797   1.267   4.056   4.734
 1300SOL     OW 4798   3.226   2.843   1.996
 1300SOL    HW1 4799   3.209   2.880   1.905
 1300SOL    HW2 4800   3.173   2.759   2.009
 1301SOL     OW 4801   0.942   6.931   4.069
 1301SOL    HW1 4802   0.978   6.998   4.004
 1301SOL    HW2 4803   0.901   6.855   4.019
 1302SOL     OW 4804   2.286   6.946   5.095
 1302SOL    HW1 4805   2.282   6.910   5.002
 1302SOL    HW2 4806   2.249   0.014   5.095
 1303SOL     OW 4807   3.574   1.765   0.965
 1303SOL    HW1 4808   3.638   1.821   0.913
 1303SOL    HW2 4809   3.620   1.727   1.045
 1304SOL     OW 4810   1.923   0.232   6.598
 1304SOL    HW1 4811   1.875   0.272   6.520
 1304SOL    HW2 4812   1.897   0.279   6.682
 1305SOL     OW 4813   4.312   0.200   4.485
 1305SOL    HW1 4814   4.299   0.299   4.475
 1305SOL    HW2 4815   4.334   0.179   4.580
 1306SOL     OW 4816   0.505   4.474   4.160
 1306SOL    HW1 4817   0.592   4.471   4.111
 1306SOL    HW2 4818   0.517   4.520   4.248
 1307SOL     OW 4819   1.078   3.132   4.540
 1307SOL    HW1 4820   1.010   3.196   4.506
 1307SOL    HW2 4821   1.169   3.173   4.532
 1308SOL     OW 4822   4.414   6.213   4.121
 1308SOL    HW1 4823   4.361   6.218   4.205
 1308SOL    HW2 4824   4.428   6.118   4.095
 1309SOL     OW 4825   5.901   2.343   4.600
 1309SOL    HW1 4826   5.944   2.263   4.557
 1309SOL    HW2 4827   5.970   2.414   4.616
 1310SOL     OW 4828   5.615   3.859   4.335
 1310SOL    HW1 4829   5.715   3.857   4.336
 1310SOL    HW2 4830   5.580   3.779   4.287
 1311SOL     OW 4831   6.270   6.882   4.919
 1311SOL    HW1 4832   6.366   6.888   4.892
 1311SOL    HW2 4833   6.253   6.794   4.965
 1312SOL     OW 4834   0.374   0.167   0.374
 1312SOL    HW1 4835   0.470   0.177   0.346
 1312SOL    HW2 4836   0.316   0.222   0.314
 1313SOL     OW 4837   3.467   5.226   4.990
 1313SOL    HW1 4838   3.566   5.237   4.982
 1313SOL    HW2 4839   3.444   5.205   5.085
 1314SOL     OW 4840   1.311   1.569   5.289
 1314SOL    HW1 4841   1.316   1.574   5.389
 1314SOL    HW2 4842   1.219   1.541   5.262
 1315SOL     OW 4843   2.017   1.641   1.688
 1315SOL    HW1 4844   2.114   1.616   1.691
 1315SOL    HW2 4845   2.003   1.725   1.740
 1316SOL     OW 4846   2.764   6.952   3.975
 1316SOL    HW1 4847   2.756   6.864   3.929
 1316SOL    HW2 4848   2.692   7.013   3.942
 1317SOL     OW 4849   6.960   5.039   4.581
 1317SOL    HW1 4850   6.884   5.063   4.641
 1317SOL    HW2 4851   6.953   5.090   4.495
 1318SOL     OW 4852   0.160   0.103   0.025
 1318SOL    HW1 4853   0.135   0.048   0.104
 1318SOL    HW2 4854   0.181   0.196   0.055
 1319SOL     OW 4855   6.148   1.530   0.373
 1319SOL    HW1 4856   6.181   1.471   0.447
 1319SOL    HW2 4857   6.226   1.575   0.329
 1320SOL     OW 4858   5.927   4.617   6.216
 1320SOL    HW1 4859   5.952   4.714   6.224
 1320SOL    HW2 4860   5.986   4.563   6.276
 1321SOL     OW 4861   4.099   2.519   0.126
 1321SOL    HW1 4862   4.079   2.421   0.129
 1321SOL    HW2 4863   4.135   2.542   0.035
 1322SOL     OW 4864   6.594   1.355   3.716
 1322SOL    HW1 4865   6.693   1.354   3.725
 1322SOL    HW2 4866   6.554   1.401   3.795
 1323SOL     OW 4867   0.840   2.024   4.987
 1323SOL    HW1 4868   0.825   1.972   4.903
 1323SOL    HW2 4869   0.923   2.080   4.976
 1324SOL     OW 4870   1.576   3.144   1.695
 1324SOL    HW1 4871   1.603   3.077   1.764
 1324SOL    HW2 4872   1.514   3.102   1.629
 1325SOL     OW 4873   2.642   6.398   3.520
 1325SOL    HW1 4874   2.552   6.376   3.484
 1325SOL    HW2 4875   2.641   6.393   3.620
 1326SOL     OW 4876   5.520   2.983   4.262
 1326SOL    HW1 4877   5.517   2.939   4.352
 1326SOL    HW2 4878   5.464   2.932   4.198
 1327SOL     OW 4879   3.502   4.932   3.443
 1327SOL    HW1 4880   3.489   4.944   3.344
 1327SOL    HW2 4881   3.600   4.930   3.463
 1328SOL     OW 4882   1.604   1.820   0.262
 1328SOL    HW1 4883   1.538   1.873   0.317
 1328SOL    HW2 4884   1.578   1.824   0.166
 1329SOL     OW 4885   0.819   0.868   0.832
 1329SOL    HW1 4886   0.871   0.950   0.856
 1329SOL    HW2 4887   0.754   0.890   0.758
 1330SOL     OW 4888   6.360   0.225   0.943
 1330SOL    HW1 4889   6.417   0.207   0.862
 1330SOL    HW2 4890   6.413   0.204   1.026
 1331SOL     OW 4891   5.859   0.189   2.032
 1331SOL    HW1 4892   5.795   0.118   2.004
 1331SOL    HW2 4893   5.813   0.277   2.033
 1332SOL     OW 4894   4.518   1.074   1.171
 1332SOL    HW1 4895   4.432   1.112   1.207
 1332SOL    HW2 4896   4.545   0.995   1.226
 1333SOL     OW 4897   3.989   3.917   4.983
 1333SOL    HW1 4898   3.973   3.820   4.960
 1333SOL    HW2 4899   4.066   3.951   4.930
 1334SOL     OW 4900   0.975   3.735   5.567
 1334SOL    HW1 4901   0.887   3.691   5.555
 1334SOL    HW2 4902   0.983   3.812   5.504
 1335SOL     OW 4903   1.920   5.479   2.920
 1335SOL    HW1 4904   1.917   5.579   2.916
 1335SOL    HW2 4905   2.013   5.449   2.940
 1336SOL     OW 4906   0.696   1.035   5.341
 1336SOL    HW1 4907   0.622   1.063   5.403
 1336SOL    HW2 4908   0.716   0.938   5.355
 1337SOL     OW 4909   1.664   2.080   6.278
 1337SOL    HW1 4910   1.657   2.133   6.363
 1337SOL    HW2 4911   1.629   2.135   6.202
 1338SOL     OW 4912   4.215   4.768   6.564
 1338SOL    HW1 4913   4.294   4.779   6.504
 1338SOL    HW2 4914   4.132   4.764   6.509
 1339SOL     OW 4915   6.766   4.069   5.690
 1339SOL    HW1 4916   6.825   4.107   5.762
 1339SOL    HW2 4917   6.684   4.029   5.732
 1340SOL     OW 4918   1.588   2.235   0.257
 1340SOL    HW1 4919   1.522   2.281   0.197
 1340SOL    HW2 4920   1.549   2.149   0.289
 1341SOL     OW 4921   3.023   1.346   3.609
 1341SOL    HW1 4922   3.037   1.281   3.534
 1341SOL    HW2 4923   2.943   1.319   3.661
 1342SOL     OW 4924   0.805   5.987   0.133
 1342SOL    HW1 4925   0.821   6.011   0.037
 1342SOL    HW2 4926   0.834   6.062   0.192
 1343SOL     OW 4927   3.906   6.085   2.933
 1343SOL    HW1 4928   3.842   6.087   3.011
 1343SOL    HW2 4929   3.913   6.177   2.895
 1344SOL     OW 4930   6.554   1.039   2.463
 1344SOL    HW1 4931   6.455   1.043   2.479
 1344SOL    HW2 4932   6.580   1.111   2.398
 1345SOL     OW 4933   0.912   0.414   2.742
 1345SOL    HW1 4934   0.993   0.459   2.780
 1345SOL    HW2 4935   0.881   0.343   2.805
 1346SOL     OW 4936   6.536   0.385   3.716
 1346SOL    HW1 4937   6.561   0.306   3.771
 1346SOL    HW2 4938   6.603   0.397   3.643
 1347SOL     OW 4939   6.455   6.470   3.241
 1347SOL    HW1 4940   6.389   6.417   3.295
 1347SOL    HW2 4941   6.470   6.559   3.284
 1348SOL     OW 4942   5.794   4.540   3.965
 1348SOL    HW1 4943   5.739   4.533   4.048
 1348SOL    HW2 4944   5.738   4.513   3.886
 1349SOL     OW 4945   3.755   2.507   6.933
 1349SOL    HW1 4946   3.724   2.413   6.919
 1349SOL    HW2 4947   3.786   2.519   0.002
 1350SOL     OW 4948   3.121   0.119   6.610
 1350SOL    HW1 4949   3.128   0.032   6.657
 1350SOL    HW2 4950   3.152   0.109   6.515
 1351SOL     OW 4951   0.021   1.246   3.468
 1351SOL    HW1 4952   6.955   1.253   3.427
 1351SOL    HW2 4953   0.072   1.330   3.450
 1352SOL     OW 4954   0.541   0.968   2.362
 1352SOL    HW1 4955   0.492   0.901   2.418
 1352SOL    HW2 4956   0.536   1.058   2.406
 1353SOL     OW 4957   0.795   4.663   4.672
 1353SOL    HW1 4958   0.839   4.632   4.756
 1353SOL    HW2 4959   0.850   4.637   4.593
 1354SOL     OW 4960   0.319   0.222   1.536
 1354SOL    HW1 4961   0.282   0.216   1.443
 1354SOL    HW2 4962   0.252   0.186   1.601
 1355SOL     OW 4963   4.777   3.470   6.785
 1355SOL    HW1 4964   4.835   3.407   6.733
 1355SOL    HW2 4965   4.698   3.497   6.729
 1356SOL     OW 4966   3.561   3.578   2.633
 1356SOL    HW1 4967   3.518   3.495   2.668
 1356SOL    HW2 4968   3.635   3.606   2.694
 1357SOL     OW 4969   2.772   3.046   5.787
 1357SOL    HW1 4970   2.690   3.086   5.747
 1357SOL    HW2 4971   2.753   3.016   5.880
 1358SOL     OW 4972   2.299   3.058   6.505
 1358SOL    HW1 4973   2.289   3.157   6.518
 1358SOL    HW2 4974   2.254   3.030   6.420
 1359SOL     OW 4975   6.383   2.700   0.639
 1359SOL    HW1 4976   6.308   2.692   0.573
 1359SOL    HW2 4977   6.467   2.723   0.591
 1360SOL     OW 4978   3.481   4.067   3.353
 1360SOL    HW1 4979   3.405   4.074   3.288
 1360SOL    HW2 4980   3.489   3.972   3.384
 1361SOL     OW 4981   0.895   6.111   6.736
 1361SOL    HW1 4982   0.852   6.184   6.787
 1361SOL    HW2 4983   0.870   6.023   6.776
 1362SOL     OW 4984   2.735   3.418   6.012
 1362SOL    HW1 4985   2.796   3.361   5.957
 1362SOL    HW2 4986   2.775   3.430   6.103
 1363SOL     OW 4987   6.379   5.572   2.421
 1363SOL    HW1 4988   6.451   5.641   2.431
 1363SOL    HW2 4989   6.323   5.570   2.503
 1364SOL     OW 4990   0.051   3.420   1.000
 1364SOL    HW1 4991   0.090   3.475   1.074
 1364SOL    HW2 4992   0.103   3.335   0.991
 1365SOL     OW 4993   0.567   3.511   6.423
 1365SOL    HW1 4994   0.593   3.441   6.357
 1365SOL    HW2 4995   0.573   3.601   6.381
 1366SOL     OW 4996   6.971   1.987   0.357
 1366SOL    HW1 4997   0.000   2.071   0.352
 1366SOL    HW2 4998   6.909   1.983   0.279
 1367SOL     OW 4999   0.125   5.625   3.951
 1367SOL    HW1 5000   0.073   5.649   4.033
 1367SOL    HW2 5001   0.080   5.663   3.870
 1368SOL     OW 5002   6.712   6.895   3.921
 1368SOL    HW1 5003   6.748   6.947   3.998
 1368SOL    HW2 5004   6.639   6.834   3.952
 1369SOL     OW 5005   2.882   6.205   2.979
 1369SOL    HW1 5006   2.978   6.196   2.951
 1369SOL    HW2 5007   2.826   6.227   2.899
 1370SOL     OW 5008   6.853   2.428   3.031
 1370SOL    HW1 5009   6.855   2.394   3.126
 1370SOL    HW2 5010   6.907   2.512   3.025
 1371SOL     OW 5011   5.572   1.360   4.437
 1371SOL    HW1 5012   5.573   1.398   4.529
 1371SOL    HW2 5013   5.484   1.314   4.421
 1372SOL     OW 5014   6.354   2.656   0.051
 1372SOL    HW1 5015   6.445   2.632   0.019
 1372SOL    HW2 5016   6.285   2.607   7.022
 1373SOL     OW 5017   4.755   2.724   2.078
 1373SOL    HW1 5018   4.745   2.823   2.063
 1373SOL    HW2 5019   4.696   2.696   2.154
 1374SOL     OW 5020   5.351   4.335   6.990
 1374SOL    HW1 5021   5.289   4.328   6.912
 1374SOL    HW2 5022   5.303   4.309   0.048
 1375SOL     OW 5023   5.834   5.885   4.806
 1375SOL    HW1 5024   5.892   5.844   4.736
 1375SOL    HW2 5025   5.891   5.914   4.884
 1376SOL     OW 5026   2.378   5.112   6.954
 1376SOL    HW1 5027   2.389   5.187   6.888
 1376SOL    HW2 5028   2.301   5.132   7.014
 1377SOL     OW 5029   1.686   2.182   3.002
 1377SOL    HW1 5030   1.765   2.190   3.064
 1377SOL    HW2 5031   1.602   2.182   3.055
 1378SOL     OW 5032   4.407   2.177   4.513
 1378SOL    HW1 5033   4.498   2.200   4.480
 1378SOL    HW2 5034   4.392   2.079   4.503
 1379SOL     OW 5035   5.771   5.257   1.251
 1379SOL    HW1 5036   5.765   5.158   1.242
 1379SOL    HW2 5037   5.806   5.296   1.166
 1380SOL     OW 5038   0.035   5.720   1.126
 1380SOL    HW1 5039   0.109   5.661   1.159
 1380SOL    HW2 5040   6.988   5.725   1.195
 1381SOL     OW 5041   6.291   2.232   5.938
 1381SOL    HW1 5042   6.372   2.239   5.998
 1381SOL    HW2 5043   6.230   2.161   5.973
 1382SOL     OW 5044   4.117   2.709   1.334
 1382SOL    HW1 5045   4.209   2.743   1.312
 1382SOL    HW2 5046   4.070   2.682   1.250
 1383SOL     OW 5047   1.145   0.676   1.977
 1383SOL    HW1 5048   1.167   0.686   1.880
 1383SOL    HW2 5049   1.192   0.596   2.014
 1384SOL     OW 5050   5.820   0.103   0.562
 1384SOL    HW1 5051   5.753   0.177   0.571
 1384SOL    HW2 5052   5.800   0.032   0.629
 1385SOL     OW 5053   1.749   5.415   2.691
 1385SOL    HW1 5054   1.825   5.443   2.750
 1385SOL    HW2 5055   1.701   5.339   2.733
 1386SOL     OW 5056   2.747   6.110   4.214
 1386SOL    HW1 5057   2.651   6.118   4.240
 1386SOL    HW2 5058   2.758   6.033   4.151
 1387SOL     OW 5059   4.018   6.026   1.715
 1387SOL    HW1 5060   4.111   6.060   1.696
 1387SOL    HW2 5061   3.951   6.094   1.685
 1388SOL     OW 5062   6.338   0.367   1.406
 1388SOL    HW1 5063   6.386   0.290   1.365
 1388SOL    HW2 5064   6.351   0.366   1.506
 1389SOL     OW 5065   6.697   0.885   2.977
 1389SOL    HW1 5066   6.680   0.967   3.032
 1389SOL    HW2 5067   6.675   0.904   2.882
 1390SOL     OW 5068   0.537   3.029   5.362
 1390SOL    HW1 5069   0.565   3.000   5.453
 1390SOL    HW2 5070   0.617   3.049   5.306
 1391SOL     OW 5071   6.953   1.736   3.583
 1391SOL    HW1 5072   0.027   1.727   3.580
 1391SOL    HW2 5073   6.927   1.781   3.669
 1392SOL     OW 5074   5.128   5.291   5.159
 1392SOL    HW1 5075   5.144   5.385   5.130
 1392SOL    HW2 5076   5.101   5.236   5.080
 1393SOL     OW 5077   4.752   6.188   6.293
 1393SOL    HW1 5078   4.848   6.166   6.310
 1393SOL    HW2 5079   4.716   6.127   6.222
 1394SOL     OW 5080   3.036   5.887   5.596
 1394SOL    HW1 5081   3.094   5.865   5.518
 1394SOL    HW2 5082   2.979   5.967   5.574
 1395SOL     OW 5083   2.998   4.512   5.625
 1395SOL    HW1 5084   3.093   4.493   5.601
 1395SOL    HW2 5085   2.993   4.599   5.674
 1396SOL     OW 5086   6.704   6.784   4.301
 1396SOL    HW1 5087   6.632   6.768   4.232
 1396SOL    HW2 5088   6.662   6.815   4.386
 1397SOL     OW 5089   5.956   0.531   4.577
 1397SOL    HW1 5090   5.937   0.433   4.587
 1397SOL    HW2 5091   6.054   0.548   4.590
 1398SOL     OW 5092   1.409   1.171   4.866
 1398SOL    HW1 5093   1.334   1.176   4.799
 1398SOL    HW2 5094   1.461   1.256   4.863
 1399SOL     OW 5095   3.157   6.228   1.610
 1399SOL    HW1 5096   3.124   6.261   1.698
 1399SOL    HW2 5097   3.237   6.169   1.625
 1400SOL     OW 5098   0.076   1.336   1.892
 1400SOL    HW1 5099   0.009   1.351   1.964
 1400SOL    HW2 5100   0.028   1.315   1.806
 1401SOL     OW 5101   0.593   2.049   5.140
 1401SOL    HW1 5102   0.609   2.050   5.239
 1401SOL    HW2 5103   0.680   2.054   5.092
 1402SOL     OW 5104   0.024   3.277   6.820
 1402SOL    HW1 5105   6.968   3.295   6.767
 1402SOL    HW2 5106   0.103   3.268   6.759
 1403SOL     OW 5107   3.091   0.504   2.161
 1403SOL    HW1 5108   3.167   0.546   2.112
 1403SOL    HW2 5109   3.056   0.426   2.110
 1404SOL     OW 5110   4.957   0.660   0.397
 1404SOL    HW1 5111   4.909   0.633   0.480
 1404SOL    HW2 5112   4.969   0.759   0.396
 1405SOL     OW 5113   1.741   3.930   1.128
 1405SOL    HW1 5114   1.707   3.962   1.040
 1405SOL    HW2 5115   1.832   3.890   1.116
 1406SOL     OW 5116   1.390   4.806   1.662
 1406SOL    HW1 5117   1.455   4.770   1.729
 1406SOL    HW2 5118   1.431   4.884   1.615
 1407SOL     OW 5119   6.514   1.291   1.902
 1407SOL    HW1 5120   6.470   1.253   1.820
 1407SOL    HW2 5121   6.515   1.221   1.974
 1408SOL     OW 5122   5.388   0.686   6.295
 1408SOL    HW1 5123   5.453   0.731   6.356
 1408SOL    HW2 5124   5.391   0.730   6.205
 1409SOL     OW 5125   0.241   0.428   4.732
 1409SOL    HW1 5126   0.189   0.343   4.731
 1409SOL    HW2 5127   0.188   0.498   4.780
 1410SOL     OW 5128   1.531   3.189   6.787
 1410SOL    HW1 5129   1.498   3.260   6.850
 1410SOL    HW2 5130   1.553   3.231   6.699
 1411SOL     OW 5131   2.092   6.698   3.124
 1411SOL    HW1 5132   2.177   6.747   3.104
 1411SOL    HW2 5133   2.015   6.760   3.115
 1412SOL     OW 5134   1.588   3.065   0.583
 1412SOL    HW1 5135   1.572   3.038   0.487
 1412SOL    HW2 5136   1.512   3.031   0.639
 1413SOL     OW 5137   2.429   0.590   4.509
 1413SOL    HW1 5138   2.383   0.624   4.427
 1413SOL    HW2 5139   2.407   0.650   4.586
 1414SOL     OW 5140   2.710   1.599   1.887
 1414SOL    HW1 5141   2.660   1.602   1.801
 1414SOL    HW2 5142   2.798   1.645   1.877
 1415SOL     OW 5143   2.820   6.247   4.669
 1415SOL    HW1 5144   2.856   6.219   4.580
 1415SOL    HW2 5145   2.728   6.207   4.681
 1416SOL     OW 5146   4.714   4.340   2.540
 1416SOL    HW1 5147   4.705   4.389   2.627
 1416SOL    HW2 5148   4.655   4.382   2.471
 1417SOL     OW 5149   2.606   2.382   6.547
 1417SOL    HW1 5150   2.689   2.423   6.510
 1417SOL    HW2 5151   2.529   2.445   6.532
 1418SOL     OW 5152   3.142   3.550   2.849
 1418SOL    HW1 5153   3.130   3.607   2.768
 1418SOL    HW2 5154   3.170   3.607   2.926
 1419SOL     OW 5155   2.524   6.819   4.659
 1419SOL    HW1 5156   2.434   6.782   4.685
 1419SOL    HW2 5157   2.594   6.750   4.676
 1420SOL     OW 5158   1.144   6.395   2.458
 1420SOL    HW1 5159   1.049   6.378   2.432
 1420SOL    HW2 5160   1.182   6.467   2.399
 1421SOL     OW 5161   1.714   2.868   3.272
 1421SOL    HW1 5162   1.670   2.842   3.186
 1421SOL    HW2 5163   1.754   2.959   3.264
 1422SOL     OW 5164   2.418   4.431   2.203
 1422SOL    HW1 5165   2.466   4.396   2.283
 1422SOL    HW2 5166   2.474   4.499   2.157
 1423SOL     OW 5167   5.943   6.401   1.507
 1423SOL    HW1 5168   5.954   6.368   1.600
 1423SOL    HW2 5169   5.889   6.486   1.508
 1424SOL     OW 5170   5.484   4.633   5.019
 1424SOL    HW1 5171   5.526   4.723   5.026
 1424SOL    HW2 5172   5.458   4.615   4.925
 1425SOL     OW 5173   1.458   6.027   4.078
 1425SOL    HW1 5174   1.381   5.994   4.134
 1425SOL    HW2 5175   1.480   5.960   4.008
 1426SOL     OW 5176   0.891   2.001   5.420
 1426SOL    HW1 5177   0.895   2.080   5.359
 1426SOL    HW2 5178   0.912   1.918   5.369
 1427SOL     OW 5179   7.004   0.201   2.949
 1427SOL    HW1 5180   6.911   0.182   2.982
 1427SOL    HW2 5181   7.016   0.160   2.858
 1428SOL     OW 5182   6.040   2.584   0.647
 1428SOL    HW1 5183   5.959   2.582   0.588
 1428SOL    HW2 5184   6.085   2.673   0.640
 1429SOL     OW 5185   5.937   1.636   0.523
 1429SOL    HW1 5186   5.851   1.587   0.511
 1429SOL    HW2 5187   6.000   1.612   0.449
 1430SOL     OW 5188   1.142   4.240   4.205
 1430SOL    HW1 5189   1.132   4.151   4.249
 1430SOL    HW2 5190   1.140   4.312   4.274
 1431SOL     OW 5191   2.074   1.908   1.621
 1431SOL    HW1 5192   2.001   1.966   1.587
 1431SOL    HW2 5193   2.139   1.890   1.547
 1432SOL     OW 5194   2.357   1.438   3.412
 1432SOL    HW1 5195   2.307   1.517   3.446
 1432SOL    HW2 5196   2.343   1.429   3.313
 1433SOL     OW 5197   4.282   1.055   3.979
 1433SOL    HW1 5198   4.332   1.109   3.911
 1433SOL    HW2 5199   4.285   0.958   3.952
 1434SOL     OW 5200   0.426   1.315   5.337
 1434SOL    HW1 5201   0.400   1.328   5.242
 1434SOL    HW2 5202   0.442   1.218   5.355
 1435SOL     OW 5203   6.111   1.123   2.176
 1435SOL    HW1 5204   6.059   1.057   2.231
 1435SOL    HW2 5205   6.094   1.215   2.211
 1436SOL     OW 5206   4.247   4.096   0.044
 1436SOL    HW1 5207   4.211   4.080   0.136
 1436SOL    HW2 5208   4.304   4.019   0.016
 1437SOL     OW 5209   2.943   1.795   3.991
 1437SOL    HW1 5210   2.922   1.884   3.950
 1437SOL    HW2 5211   3.042   1.785   4.000
 1438SOL     OW 5212   3.901   5.971   1.319
 1438SOL    HW1 5213   3.864   6.062   1.338
 1438SOL    HW2 5214   3.835   5.919   1.264
 1439SOL     OW 5215   0.160   5.935   1.390
 1439SOL    HW1 5216   0.225   6.001   1.428
 1439SOL    HW2 5217   0.198   5.895   1.307
 1440SOL     OW 5218   3.153   3.986   1.478
 1440SOL    HW1 5219   3.236   3.985   1.533
 1440SOL    HW2 5220   3.093   3.912   1.507
 1441SOL     OW 5221   6.374   0.791   1.371
 1441SOL    HW1 5222   6.445   0.858   1.393
 1441SOL    HW2 5223   6.394   0.748   1.283
 1442SOL     OW 5224   6.284   6.201   6.604
 1442SOL    HW1 5225   6.366   6.148   6.582
 1442SOL    HW2 5226   6.210   6.175   6.542
 1443SOL     OW 5227   0.358   2.600   2.706
 1443SOL    HW1 5228   0.334   2.611   2.803
 1443SOL    HW2 5229   0.395   2.509   2.691
 1444SOL     OW 5230   5.270   6.666   1.234
 1444SOL    HW1 5231   5.346   6.698   1.177
 1444SOL    HW2 5232   5.193   6.642   1.175
 1445SOL     OW 5233   0.745   3.649   2.904
 1445SOL    HW1 5234   0.695   3.687   2.982
 1445SOL    HW2 5235   0.712   3.557   2.886
 1446SOL     OW 5236   6.289   0.310   6.265
 1446SOL    HW1 5237   6.380   0.350   6.266
 1446SOL    HW2 5238   6.229   0.364   6.206
 1447SOL     OW 5239   5.355   5.220   3.136
 1447SOL    HW1 5240   5.294   5.248   3.063
 1447SOL    HW2 5241   5.390   5.300   3.184
 1448SOL     OW 5242   0.378   3.328   4.799
 1448SOL    HW1 5243   0.442   3.259   4.834
 1448SOL    HW2 5244   0.423   3.418   4.801
 1449SOL     OW 5245   1.867   3.932   5.360
 1449SOL    HW1 5246   1.890   4.014   5.413
 1449SOL    HW2 5247   1.951   3.891   5.324
 1450SOL     OW 5248   0.943   2.057   5.689
 1450SOL    HW1 5249   1.036   2.090   5.675
 1450SOL    HW2 5250   0.899   2.040   5.601
 1451SOL     OW 5251   1.582   6.204   1.998
 1451SOL    HW1 5252   1.618   6.296   1.987
 1451SOL    HW2 5253   1.643   6.138   1.954
 1452SOL     OW 5254   4.382   3.159   5.651
 1452SOL    HW1 5255   4.290   3.120   5.656
 1452SOL    HW2 5256   4.394   3.226   5.724
 1453SOL     OW 5257   0.792   4.767   5.478
 1453SOL    HW1 5258   0.811   4.703   5.404
 1453SOL    HW2 5259   0.761   4.717   5.559
 1454SOL     OW 5260   2.651   1.918   3.146
 1454SOL    HW1 5261   2.666   2.015   3.163
 1454SOL    HW2 5262   2.739   1.872   3.135
 1455SOL     OW 5263   1.045   6.026   3.000
 1455SOL    HW1 5264   1.047   6.102   2.934
 1455SOL    HW2 5265   1.120   6.036   3.064
 1456SOL     OW 5266   6.766   6.055   6.240
 1456SOL    HW1 5267   6.761   6.152   6.218
 1456SOL    HW2 5268   6.759   6.001   6.156
 1457SOL     OW 5269   0.632   4.062   0.568
 1457SOL    HW1 5270   0.580   4.040   0.650
 1457SOL    HW2 5271   0.570   4.096   0.497
 1458SOL     OW 5272   5.796   5.023   5.547
 1458SOL    HW1 5273   5.825   5.110   5.508
 1458SOL    HW2 5274   5.822   4.948   5.486
 1459SOL     OW 5275   4.973   6.977   5.850
 1459SOL    HW1 5276   5.042   7.014   5.913
 1459SOL    HW2 5277   4.962   6.879   5.868
 1460SOL     OW 5278   1.793   6.429   5.596
 1460SOL    HW1 5279   1.694   6.417   5.610
 1460SOL    HW2 5280   1.809   6.509   5.539
 1461SOL     OW 5281   0.246   3.426   2.958
 1461SOL    HW1 5282   0.283   3.474   3.038
 1461SOL    HW2 5283   0.212   3.336   2.986
 1462SOL     OW 5284   0.857   0.780   6.942
 1462SOL    HW1 5285   0.822   0.697   6.986
 1462SOL    HW2 5286   0.805   0.797   6.858
 1463SOL     OW 5287   1.590   5.641   6.674
 1463SOL    HW1 5288   1.619   5.723   6.724
 1463SOL    HW2 5289   1.490   5.637   6.671
 1464SOL     OW 5290   6.304   4.177   3.709
 1464SOL    HW1 5291   6.254   4.254   3.749
 1464SOL    HW2 5292   6.329   4.112   3.782
 1465SOL     OW 5293   2.001   1.633   3.832
 1465SOL    HW1 5294   1.920   1.585   3.865
 1465SOL    HW2 5295   2.082   1.579   3.853
 1466SOL     OW 5296   3.652   2.467   1.686
 1466SOL    HW1 5297   3.596   2.544   1.718
 1466SOL    HW2 5298   3.655   2.396   1.756
 1467SOL     OW 5299   1.190   1.052   3.956
 1467SOL    HW1 5300   1.142   1.088   3.876
 1467SOL    HW2 5301   1.145   0.967   3.985
 1468SOL     OW 5302   3.074   5.697   1.988
 1468SOL    HW1 5303   3.094   5.659   2.078
 1468SOL    HW2 5304   3.146   5.670   1.924
 1469SOL     OW 5305   6.323   6.312   3.390
 1469SOL    HW1 5306   6.232   6.349   3.368
 1469SOL    HW2 5307   6.319   6.212   3.392
 1470SOL     OW 5308   0.087   2.908   1.021
 1470SOL    HW1 5309   0.141   2.830   1.053
 1470SOL    HW2 5310   0.012   2.925   1.086
 1471SOL     OW 5311   0.011   6.987   0.671
 1471SOL    HW1 5312   0.082   6.984   0.742
 1471SOL    HW2 5313   6.971   0.033   0.693
 1472SOL     OW 5314   2.730   6.778   6.345
 1472SOL    HW1 5315   2.813   6.724   6.329
 1472SOL    HW2 5316   2.721   6.798   6.442
 1473SOL     OW 5317   3.365   4.874   5.087
 1473SOL    HW1 5318   3.403   4.923   5.008
 1473SOL    HW2 5319   3.268   4.897   5.097
 1474SOL     OW 5320   4.373   5.238   1.578
 1474SOL    HW1 5321   4.338   5.154   1.619
 1474SOL    HW2 5322   4.457   5.217   1.527
 1475SOL     OW 5323   5.149   1.213   0.398
 1475SOL    HW1 5324   5.196   1.132   0.433
 1475SOL    HW2 5325   5.117   1.268   0.476
 1476SOL     OW 5326   3.179   1.389   1.353
 1476SOL    HW1 5327   3.219   1.329   1.283
 1476SOL    HW2 5328   3.161   1.479   1.313
 1477SOL     OW 5329   4.413   6.684   0.392
 1477SOL    HW1 5330   4.338   6.699   0.327
 1477SOL    HW2 5331   4.477   6.618   0.354
 1478SOL     OW 5332   5.047   6.834   5.115
 1478SOL    HW1 5333   5.115   6.899   5.149
 1478SOL    HW2 5334   5.062   6.820   5.017
 1479SOL     OW 5335   3.811   3.985   1.974
 1479SOL    HW1 5336   3.814   4.037   1.888
 1479SOL    HW2 5337   3.847   3.893   1.958
 1480SOL     OW 5338   2.636   0.973   6.285
 1480SOL    HW1 5339   2.543   0.985   6.250
 1480SOL    HW2 5340   2.668   1.059   6.325
 1481SOL     OW 5341   5.374   2.869   5.206
 1481SOL    HW1 5342   5.420   2.803   5.147
 1481SOL    HW2 5343   5.329   2.939   5.150
 1482SOL     OW 5344   4.625   0.460   0.767
 1482SOL    HW1 5345   4.529   0.435   0.762
 1482SOL    HW2 5346   4.679   0.381   0.793
 1483SOL     OW 5347   4.342   1.629   5.635
 1483SOL    HW1 5348   4.299   1.713   5.601
 1483SOL    HW2 5349   4.321   1.553   5.573
 1484SOL     OW 5350   3.517   4.952   4.642
 1484SOL    HW1 5351   3.461   4.884   4.689
 1484SOL    HW2 5352   3.502   4.946   4.544
 1485SOL     OW 5353   4.856   1.177   3.175
 1485SOL    HW1 5354   4.916   1.219   3.242
 1485SOL    HW2 5355   4.888   1.199   3.083
 1486SOL     OW 5356   4.972   6.917   3.654
 1486SOL    HW1 5357   5.044   6.883   3.715
 1486SOL    HW2 5358   4.897   6.852   3.651
 1487SOL     OW 5359   0.059   0.790   0.188
 1487SOL    HW1 5360   7.022   0.865   0.166
 1487SOL    HW2 5361   0.028   0.745   0.272
 1488SOL     OW 5362   6.215   0.403   2.593
 1488SOL    HW1 5363   6.229   0.420   2.691
 1488SOL    HW2 5364   6.147   0.331   2.581
 1489SOL     OW 5365   4.250   4.651   6.804
 1489SOL    HW1 5366   4.343   4.636   6.838
 1489SOL    HW2 5367   4.254   4.692   6.713
 1490SOL     OW 5368   0.582   2.528   1.998
 1490SOL    HW1 5369   0.643   2.597   1.958
 1490SOL    HW2 5370   0.591   2.530   2.098
 1491SOL     OW 5371   6.849   3.522   1.786
 1491SOL    HW1 5372   6.839   3.550   1.882
 1491SOL    HW2 5373   6.933   3.561   1.749
 1492SOL     OW 5374   6.496   0.761   2.300
 1492SOL    HW1 5375   6.473   0.665   2.316
 1492SOL    HW2 5376   6.413   0.817   2.309
 1493SOL     OW 5377   4.136   1.450   5.521
 1493SOL    HW1 5378   4.088   1.519   5.467
 1493SOL    HW2 5379   4.086   1.435   5.606
 1494SOL     OW 5380   5.374   2.422   6.116
 1494SOL    HW1 5381   5.425   2.361   6.055
 1494SOL    HW2 5382   5.364   2.511   6.073
 1495SOL     OW 5383   6.008   3.478   3.735
 1495SOL    HW1 5384   6.065   3.438   3.807
 1495SOL    HW2 5385   5.925   3.516   3.776
 1496SOL     OW 5386   0.114   6.280   0.237
 1496SOL    HW1 5387   0.048   6.353   0.219
 1496SOL    HW2 5388   0.202   6.304   0.195
 1497SOL     OW 5389   5.281   2.011   3.270
 1497SOL    HW1 5390   5.201   1.957   3.244
 1497SOL    HW2 5391   5.363   1.954   3.266
 1498SOL     OW 5392   2.838   4.312   1.531
 1498SOL    HW1 5393   2.790   4.373   1.595
 1498SOL    HW2 5394   2.937   4.322   1.544
 1499SOL     OW 5395   0.052   3.820   5.760
 1499SOL    HW1 5396   0.050   3.807   5.859
 1499SOL    HW2 5397   6.985   3.815   5.723
 1500SOL     OW 5398   0.933   5.693   0.429
 1500SOL    HW1 5399   0.887   5.619   0.479
 1500SOL    HW2 5400   0.934   5.671   0.331
 1501SOL     OW 5401   5.803   1.618   6.276
 1501SOL    HW1 5402   5.897   1.645   6.255
 1501SOL    HW2 5403   5.756   1.592   6.192
 1502SOL     OW 5404   0.211   1.036   5.907
 1502SOL    HW1 5405   0.139   1.090   5.862
 1502SOL    HW2 5406   0.178   0.943   5.923
 1503SOL     OW 5407   0.538   3.697   2.105
 1503SOL    HW1 5408   0.574   3.604   2.105
 1503SOL    HW2 5409   0.573   3.746   2.185
 1504SOL     OW 5410   0.684   6.927   3.715
 1504SOL    HW1 5411   0.778   6.895   3.700
 1504SOL    HW2 5412   0.634   6.925   3.629
 1505SOL     OW 5413   5.936   6.686   5.113
 1505SOL    HW1 5414   6.032   6.656   5.112
 1505SOL    HW2 5415   5.877   6.609   5.135
 1506SOL     OW 5416   1.663   0.584   1.082
 1506SOL    HW1 5417   1.629   0.533   1.003
 1506SOL    HW2 5418   1.687   0.677   1.053
 1507SOL     OW 5419   1.313   1.715   4.346
 1507SOL    HW1 5420   1.311   1.714   4.246
 1507SOL    HW2 5421   1.406   1.736   4.376
 1508SOL     OW 5422   0.564   1.434   0.333
 1508SOL    HW1 5423   0.498   1.406   0.403
 1508SOL    HW2 5424   0.524   1.420   0.242
 1509SOL     OW 5425   5.416   1.326   4.934
 1509SOL    HW1 5426   5.467   1.273   5.001
 1509SOL    HW2 5427   5.320   1.329   4.961
 1510SOL     OW 5428   3.806   6.807   4.000
 1510SOL    HW1 5429   3.803   6.866   3.919
 1510SOL    HW2 5430   3.837   6.716   3.975
 1511SOL     OW 5431   3.147   3.976   4.285
 1511SOL    HW1 5432   3.215   4.032   4.332
 1511SOL    HW2 5433   3.073   3.953   4.348
 1512SOL     OW 5434   6.302   5.659   1.089
 1512SOL    HW1 5435   6.229   5.653   1.021
 1512SOL    HW2 5436   6.344   5.750   1.086
 1513SOL     OW 5437   3.223   6.806   5.907
 1513SOL    HW1 5438   3.158   6.747   5.955
 1513SOL    HW2 5439   3.197   6.812   5.810
 1514SOL     OW 5440   3.555   2.391   5.701
 1514SOL    HW1 5441   3.575   2.485   5.672
 1514SOL    HW2 5442   3.581   2.328   5.628
 1515SOL     OW 5443   6.602   1.698   2.787
 1515SOL    HW1 5444   6.567   1.777   2.737
 1515SOL    HW2 5445   6.586   1.711   2.885
 1516SOL     OW 5446   6.555   6.124   4.609
 1516SOL    HW1 5447   6.465   6.143   4.571
 1516SOL    HW2 5448   6.624   6.136   4.538
 1517SOL     OW 5449   3.350   6.533   3.477
 1517SOL    HW1 5450   3.414   6.588   3.529
 1517SOL    HW2 5451   3.267   6.585   3.460
 1518SOL     OW 5452   6.615   2.611   6.986
 1518SOL    HW1 5453   6.682   2.676   6.951
 1518SOL    HW2 5454   6.662   2.538   0.009
 1519SOL     OW 5455   7.005   5.002   0.416
 1519SOL    HW1 5456   0.003   5.091   0.455
 1519SOL    HW2 5457   0.030   4.931   0.463
 1520SOL     OW 5458   1.152   5.022   1.367
 1520SOL    HW1 5459   1.062   5.023   1.412
 1520SOL    HW2 5460   1.200   4.937   1.389
 1521SOL     OW 5461   2.809   4.464   0.043
 1521SOL    HW1 5462   2.750   4.408   7.010
 1521SOL    HW2 5463   2.853   4.534   7.013
 1522SOL     OW 5464   5.435   5.809   4.923
 1522SOL    HW1 5465   5.389   5.731   4.880
 1522SOL    HW2 5466   5.401   5.820   5.016
 1523SOL     OW 5467   3.719   6.861   6.591
 1523SOL    HW1 5468   3.766   6.925   6.653
 1523SOL    HW2 5469   3.621   6.881   6.591
 1524SOL     OW 5470   2.521   2.293   3.092
 1524SOL    HW1 5471   2.597   2.272   3.155
 1524SOL    HW2 5472   2.438   2.307   3.145
 1525SOL     OW 5473   6.229   2.850   0.838
 1525SOL    HW1 5474   6.278   2.839   0.924
 1525SOL    HW2 5475   6.288   2.825   0.761
 1526SOL     OW 5476   0.491   1.859   6.998
 1526SOL    HW1 5477   0.563   1.835   6.934
 1526SOL    HW2 5478   0.491   1.794   0.049
 1527SOL     OW 5479   3.698   1.326   5.060
 1527SOL    HW1 5480   3.710   1.310   4.962
 1527SOL    HW2 5481   3.602   1.351   5.078
 1528SOL     OW 5482   4.565   3.837   0.879
 1528SOL    HW1 5483   4.495   3.909   0.874
 1528SOL    HW2 5484   4.606   3.825   0.789
 1529SOL     OW 5485   5.589   1.256   6.536
 1529SOL    HW1 5486   5.580   1.212   6.447
 1529SOL    HW2 5487   5.575   1.355   6.526
 1530SOL     OW 5488   3.276   0.175   1.472
 1530SOL    HW1 5489   3.215   0.107   1.511
 1530SOL    HW2 5490   3.237   0.266   1.484
 1531SOL     OW 5491   4.164   0.395   3.858
 1531SOL    HW1 5492   4.103   0.338   3.911
 1531SOL    HW2 5493   4.194   0.473   3.913
 1532SOL     OW 5494   3.421   4.787   5.886
 1532SOL    HW1 5495   3.338   4.731   5.877
 1532SOL    HW2 5496   3.485   4.762   5.813
 1533SOL     OW 5497   5.294   5.601   0.947
 1533SOL    HW1 5498   5.228   5.594   0.873
 1533SOL    HW2 5499   5.367   5.534   0.933
 1534SOL     OW 5500   3.780   5.859   0.190
 1534SOL    HW1 5501   3.726   5.777   0.208
 1534SOL    HW2 5502   3.755   5.897   0.102
 1535SOL     OW 5503   6.204   0.056   5.068
 1535SOL    HW1 5504   6.110   0.089   5.071
 1535SOL    HW2 5505   6.210   7.003   5.006
 1536SOL     OW 5506   4.085   4.450   6.715
 1536SOL    HW1 5507   4.121   4.364   6.752
 1536SOL    HW2 5508   4.139   4.526   6.749
 1537SOL     OW 5509   3.663   5.159   3.937
 1537SOL    HW1 5510   3.669   5.158   4.037
 1537SOL    HW2 5511   3.593   5.093   3.907
 1538SOL     OW 5512   3.531   1.343   0.248
 1538SOL    HW1 5513   3.612   1.313   0.197
 1538SOL    HW2 5514   3.512   1.439   0.227
 1539SOL     OW 5515   5.118   2.973   1.623
 1539SOL    HW1 5516   5.166   3.019   1.697
 1539SOL    HW2 5517   5.112   2.875   1.643
 1540SOL     OW 5518   1.569   6.901   5.116
 1540SOL    HW1 5519   1.493   6.888   5.180
 1540SOL    HW2 5520   1.536   6.948   5.034
 1541SOL     OW 5521   4.087   3.263   5.043
 1541SOL    HW1 5522   4.005   3.224   5.084
 1541SOL    HW2 5523   4.121   3.202   4.972
 1542SOL     OW 5524   6.626   6.441   2.233
 1542SOL    HW1 5525   6.580   6.461   2.320
 1542SOL    HW2 5526   6.588   6.357   2.194
 1543SOL     OW 5527   3.673   5.652   6.074
 1543SOL    HW1 5528   3.617   5.731   6.050
 1543SOL    HW2 5529   3.614   5.579   6.109
 1544SOL     OW 5530   3.764   3.711   4.144
 1544SOL    HW1 5531   3.766   3.618   4.181
 1544SOL    HW2 5532   3.837   3.721   4.076
 1545SOL     OW 5533   6.013   0.509   1.590
 1545SOL    HW1 5534   6.024   0.587   1.528
 1545SOL    HW2 5535   6.084   0.512   1.660
 1546SOL     OW 5536   5.317   0.087   5.778
 1546SOL    HW1 5537   5.300   7.018   5.805
 1546SOL    HW2 5538   5.401   0.120   5.821
 1547SOL     OW 5539   1.207   4.207   0.777
 1547SOL    HW1 5540   1.275   4.155   0.725
 1547SOL    HW2 5541   1.117   4.168   0.762
 1548SOL     OW 5542   6.424   3.178   0.320
 1548SOL    HW1 5543   6.418   3.159   0.418
 1548SOL    HW2 5544   6.338   3.150   0.276
 1549SOL     OW 5545   3.849   1.354   4.458
 1549SOL    HW1 5546   3.909   1.381   4.383
 1549SOL    HW2 5547   3.898   1.294   4.521
 1550SOL     OW 5548   4.076   3.177   2.705
 1550SOL    HW1 5549   4.078   3.166   2.804
 1550SOL    HW2 5550   4.017   3.106   2.665
 1551SOL     OW 5551   1.286   4.995   0.201
 1551SOL    HW1 5552   1.279   4.932   0.123
 1551SOL    HW2 5553   1.205   5.054   0.204
 1552SOL     OW 5554   2.818   4.876   1.042
 1552SOL    HW1 5555   2.778   4.801   1.094
 1552SOL    HW2 5556   2.916   4.858   1.027
 1553SOL     OW 5557   0.446   1.782   6.293
 1553SOL    HW1 5558   0.381   1.707   6.305
 1553SOL    HW2 5559   0.463   1.825   6.382
 1554SOL     OW 5560   3.026   1.825   3.634
 1554SOL    HW1 5561   2.954   1.797   3.571
 1554SOL    HW2 5562   2.985   1.879   3.708
 1555SOL     OW 5563   5.643   2.764   5.887
 1555SOL    HW1 5564   5.707   2.818   5.833
 1555SOL    HW2 5565   5.551   2.774   5.849
 1556SOL     OW 5566   1.879   1.016   6.414
 1556SOL    HW1 5567   1.858   0.933   6.362
 1556SOL    HW2 5568   1.976   1.017   6.439
 1557SOL     OW 5569   1.783   3.517   6.140
 1557SOL    HW1 5570   1.881   3.529   6.159
 1557SOL    HW2 5571   1.771   3.485   6.047
 1558SOL     OW 5572   6.327   0.816   4.670
 1558SOL    HW1 5573   6.306   0.838   4.765
 1558SOL    HW2 5574   6.294   0.724   4.649
 1559SOL     OW 5575   0.916   2.581   6.507
 1559SOL    HW1 5576   0.986   2.571   6.437
 1559SOL    HW2 5577   0.950   2.544   6.593
 1560SOL     OW 5578   0.197   1.147   6.690
 1560SOL    HW1 5579   0.285   1.188   6.666
 1560SOL    HW2 5580   0.127   1.218   6.697
 1561SOL     OW 5581   4.611   6.290   2.788
 1561SOL    HW1 5582   4.627   6.281   2.689
 1561SOL    HW2 5583   4.521   6.251   2.810
 1562SOL     OW 5584   4.260   6.670   1.973
 1562SOL    HW1 5585   4.194   6.738   2.007
 1562SOL    HW2 5586   4.352   6.710   1.974
 1563SOL     OW 5587   3.466   0.639   6.165
 1563SOL    HW1 5588   3.526   0.600   6.095
 1563SOL    HW2 5589   3.462   0.578   6.244
 1564SOL     OW 5590   1.700   0.612   2.179
 1564SOL    HW1 5591   1.657   0.700   2.157
 1564SOL    HW2 5592   1.791   0.609   2.139
 1565SOL     OW 5593   4.878   3.892   2.094
 1565SOL    HW1 5594   4.818   3.971   2.086
 1565SOL    HW2 5595   4.874   3.838   2.010
 1566SOL     OW 5596   5.241   4.088   3.708
 1566SOL    HW1 5597   5.295   4.005   3.724
 1566SOL    HW2 5598   5.180   4.074   3.630
 1567SOL     OW 5599   5.987   6.144   6.543
 1567SOL    HW1 5600   5.964   6.159   6.447
 1567SOL    HW2 5601   5.949   6.218   6.598
 1568SOL     OW 5602   1.061   0.238   0.455
 1568SOL    HW1 5603   0.987   0.302   0.477
 1568SOL    HW2 5604   1.080   0.181   0.535
 1569SOL     OW 5605   4.178   6.451   4.420
 1569SOL    HW1 5606   4.147   6.454   4.325
 1569SOL    HW2 5607   4.260   6.508   4.430
 1570SOL     OW 5608   2.906   1.782   1.806
 1570SOL    HW1 5609   2.875   1.872   1.777
 1570SOL    HW2 5610   2.953   1.737   1.730
 1571SOL     OW 5611   6.115   3.119   1.714
 1571SOL    HW1 5612   6.186   3.182   1.743
 1571SOL    HW2 5613   6.116   3.111   1.615
 1572SOL     OW 5614   0.463   0.446   2.416
 1572SOL    HW1 5615   0.492   0.448   2.512
 1572SOL    HW2 5616   0.536   0.481   2.358
 1573SOL     OW 5617   5.196   6.525   1.745
 1573SOL    HW1 5618   5.114   6.566   1.704
 1573SOL    HW2 5619   5.254   6.597   1.782
 1574SOL     OW 5620   0.587   2.024   1.982
 1574SOL    HW1 5621   0.493   1.996   1.961
 1574SOL    HW2 5622   0.617   1.980   2.066
 1575SOL     OW 5623   2.524   2.602   0.618
 1575SOL    HW1 5624   2.525   2.592   0.518
 1575SOL    HW2 5625   2.432   2.583   0.653
 1576SOL     OW 5626   5.324   6.254   3.870
 1576SOL    HW1 5627   5.404   6.308   3.845
 1576SOL    HW2 5628   5.341   6.158   3.848
 1577SOL     OW 5629   2.502   0.944   5.440
 1577SOL    HW1 5630   2.437   0.922   5.512
 1577SOL    HW2 5631   2.587   0.978   5.480
 1578SOL     OW 5632   5.754   3.983   5.414
 1578SOL    HW1 5633   5.726   4.000   5.320
 1578SOL    HW2 5634   5.738   4.065   5.469
 1579SOL     OW 5635   0.663   1.341   2.964
 1579SOL    HW1 5636   0.583   1.341   2.903
 1579SOL    HW2 5637   0.672   1.430   3.008
 1580SOL     OW 5638   2.836   4.259   5.353
 1580SOL    HW1 5639   2.737   4.249   5.363
 1580SOL    HW2 5640   2.856   4.342   5.301
 1581SOL     OW 5641   6.395   4.094   4.181
 1581SOL    HW1 5642   6.475   4.078   4.124
 1581SOL    HW2 5643   6.419   4.156   4.256
 1582SOL     OW 5644   0.146   5.132   4.713
 1582SOL    HW1 5645   0.194   5.192   4.649
 1582SOL    HW2 5646   0.063   5.097   4.670
 1583SOL     OW 5647   2.167   2.989   4.090
 1583SOL    HW1 5648   2.247   2.942   4.053
 1583SOL    HW2 5649   2.148   2.955   4.182
 1584SOL     OW 5650   2.660   6.596   5.245
 1584SOL    HW1 5651   2.707   6.649   5.315
 1584SOL    HW2 5652   2.676   6.499   5.260
 1585SOL     OW 5653   5.485   2.138   3.144
 1585SOL    HW1 5654   5.476   2.236   3.160
 1585SOL    HW2 5655   5.394   2.095   3.146
 1586SOL     OW 5656   3.721   4.034   2.227
 1586SOL    HW1 5657   3.753   4.009   2.136
 1586SOL    HW2 5658   3.785   4.000   2.296
 1587SOL     OW 5659   3.460   6.180   6.741
 1587SOL    HW1 5660   3.401   6.111   6.782
 1587SOL    HW2 5661   3.452   6.266   6.792
 1588SOL     OW 5662   5.561   1.444   2.652
 1588SOL    HW1 5663   5.644   1.488   2.619
 1588SOL    HW2 5664   5.498   1.513   2.688
 1589SOL     OW 5665   5.445   4.553   3.637
 1589SOL    HW1 5666   5.378   4.494   3.683
 1589SOL    HW2 5667   5.525   4.563   3.695
 1590SOL     OW 5668   1.704   6.767   0.248
 1590SOL    HW1 5669   1.794   6.804   0.270
 1590SOL    HW2 5670   1.655   6.830   0.187
 1591SOL     OW 5671   1.059   5.066   2.291
 1591SOL    HW1 5672   1.020   5.062   2.383
 1591SOL    HW2 5673   1.062   5.161   2.260
 1592SOL     OW 5674   3.000   3.144   2.602
 1592SOL    HW1 5675   2.976   3.196   2.520
 1592SOL    HW2 5676   3.097   3.154   2.621
 1593SOL     OW 5677   0.270   6.162   4.466
 1593SOL    HW1 5678   0.172   6.177   4.454
 1593SOL    HW2 5679   0.312   6.143   4.378
 1594SOL     OW 5680   6.531   5.507   2.762
 1594SOL    HW1 5681   6.432   5.516   2.777
 1594SOL    HW2 5682   6.570   5.449   2.833
 1595SOL     OW 5683   0.490   4.519   6.522
 1595SOL    HW1 5684   0.420   4.486   6.459
 1595SOL    HW2 5685   0.520   4.443   6.580
 1596SOL     OW 5686   1.696   5.169   6.142
 1596SOL    HW1 5687   1.776   5.120   6.175
 1596SOL    HW2 5688   1.720   5.265   6.127
 1597SOL     OW 5689   1.981   6.499   2.420
 1597SOL    HW1 5690   2.000   6.406   2.387
 1597SOL    HW2 5691   1.999   6.564   2.347
 1598SOL     OW 5692   0.435   4.362   1.158
 1598SOL    HW1 5693   0.533   4.371   1.175
 1598SOL    HW2 5694   0.399   4.448   1.120
 1599SOL     OW 5695   3.863   4.464   6.502
 1599SOL    HW1 5696   3.864   4.400   6.578
 1599SOL    HW2 5697   3.788   4.442   6.440
 1600SOL     OW 5698   5.157   1.653   5.127
 1600SOL    HW1 5699   5.117   1.735   5.084
 1600SOL    HW2 5700   5.085   1.596   5.164
 1601SOL     OW 5701   1.547   4.688   5.275
 1601SOL    HW1 5702   1.515   4.775   5.239
 1601SOL    HW2 5703   1.597   4.639   5.203
 1602SOL     OW 5704   1.434   6.003   3.245
 1602SOL    HW1 5705   1.533   5.998   3.228
 1602SOL    HW2 5706   1.400   5.913   3.271
 1603SOL     OW 5707   0.589   6.428   2.074
 1603SOL    HW1 5708   0.505   6.482   2.069
 1603SOL    HW2 5709   0.610   6.389   1.984
 1604SOL     OW 5710   6.892   5.422   6.790
 1604SOL    HW1 5711   6.957   5.401   6.716
 1604SOL    HW2 5712   6.936   5.406   6.878
 1605SOL     OW 5713   6.355   0.113   2.843
 1605SOL    HW1 5714   6.425   0.041   2.845
 1605SOL    HW2 5715   6.376   0.178   2.769
 1606SOL     OW 5716   4.693   7.019   5.278
 1606SOL    HW1 5717   4.709   0.039   5.190
 1606SOL    HW2 5718   4.621   6.950   5.266
 1607SOL     OW 5719   3.994   2.049   1.255
 1607SOL    HW1 5720   4.009   2.030   1.352
 1607SOL    HW2 5721   3.902   2.017   1.230
 1608SOL     OW 5722   2.531   6.902   0.364
 1608SOL    HW1 5723   2.601   6.856   0.417
 1608SOL    HW2 5724   2.452   6.921   0.423
 1609SOL     OW 5725   5.458   2.179   5.858
 1609SOL    HW1 5726   5.492   2.182   5.952
 1609SOL    HW2 5727   5.511   2.112   5.805
 1610SOL     OW 5728   6.294   6.160   4.516
 1610SOL    HW1 5729   6.311   6.066   4.487
 1610SOL    HW2 5730   6.199   6.170   4.543
 1611SOL     OW 5731   4.056   3.297   2.461
 1611SOL    HW1 5732   4.046   3.217   2.401
 1611SOL    HW2 5733   4.071   3.266   2.555
 1612SOL     OW 5734   2.375   1.427   5.118
 1612SOL    HW1 5735   2.394   1.335   5.152
 1612SOL    HW2 5736   2.449   1.457   5.058
 1613SOL     OW 5737   2.139   6.068   0.829
 1613SOL    HW1 5738   2.127   6.166   0.814
 1613SOL    HW2 5739   2.091   6.041   0.912
 1614SOL     OW 5740   5.974   2.262   6.689
 1614SOL    HW1 5741   5.888   2.290   6.732
 1614SOL    HW2 5742   5.953   2.209   6.606
 1615SOL     OW 5743   6.854   4.402   6.525
 1615SOL    HW1 5744   6.797   4.324   6.498
 1615SOL    HW2 5745   6.849   4.414   6.624
 1616SOL     OW 5746   3.578   1.794   5.984
 1616SOL    HW1 5747   3.643   1.853   5.937
 1616SOL    HW2 5748   3.615   1.702   5.991
 1617SOL     OW 5749   5.851   0.709   2.458
 1617SOL    HW1 5750   5.848   0.733   2.555
 1617SOL    HW2 5751   5.773   0.650   2.436
 1618SOL     OW 5752   6.697   3.689   1.186
 1618SOL    HW1 5753   6.734   3.710   1.277
 1618SOL    HW2 5754   6.603   3.655   1.196
 1619SOL     OW 5755   1.395   3.616   4.119
 1619SOL    HW1 5756   1.477   3.577   4.159
 1619SOL    HW2 5757   1.419   3.670   4.038
 1620SOL     OW 5758   2.511   5.822   1.515
 1620SOL    HW1 5759   2.555   5.735   1.535
 1620SOL    HW2 5760   2.547   5.860   1.430
 1621SOL     OW 5761   0.709   0.366   1.005
 1621SOL    HW1 5762   0.645   0.437   1.032
 1621SOL    HW2 5763   0.684   0.330   0.915
 1622SOL     OW 5764   1.873   1.844   4.410
 1622SOL    HW1 5765   1.972   1.835   4.420
 1622SOL    HW2 5766   1.853   1.887   4.321
 1623SOL     OW 5767   2.293   2.706   6.273
 1623SOL    HW1 5768   2.264   2.659   6.190
 1623SOL    HW2 5769   2.216   2.755   6.314
 1624SOL     OW 5770   3.335   1.128   6.939
 1624SOL    HW1 5771   3.429   1.094   6.927
 1624SOL    HW2 5772   3.334   1.227   6.925
 1625SOL     OW 5773   0.906   5.333   2.314
 1625SOL    HW1 5774   0.906   5.287   2.403
 1625SOL    HW2 5775   0.833   5.295   2.257
 1626SOL     OW 5776   1.972   3.144   6.668
 1626SOL    HW1 5777   1.969   3.162   6.570
 1626SOL    HW2 5778   2.050   3.086   6.689
 1627SOL     OW 5779   6.344   1.989   3.591
 1627SOL    HW1 5780   6.350   1.945   3.502
 1627SOL    HW2 5781   6.359   2.087   3.582
 1628SOL     OW 5782   3.283   4.983   1.010
 1628SOL    HW1 5783   3.205   4.925   0.988
 1628SOL    HW2 5784   3.330   4.946   1.091
 1629SOL     OW 5785   3.594   2.051   4.578
 1629SOL    HW1 5786   3.606   1.964   4.625
 1629SOL    HW2 5787   3.673   2.110   4.598
 1630SOL     OW 5788   0.813   4.979   5.780
 1630SOL    HW1 5789   0.741   5.041   5.749
 1630SOL    HW2 5790   0.880   5.029   5.834
 1631SOL     OW 5791   0.101   0.309   5.450
 1631SOL    HW1 5792   0.144   0.312   5.540
 1631SOL    HW2 5793   0.167   0.336   5.380
 1632SOL     OW 5794   6.907   0.991   0.247
 1632SOL    HW1 5795   6.849   1.028   0.320
 1632SOL    HW2 5796   6.999   1.027   0.255
 1633SOL     OW 5797   5.741   1.743   2.987
 1633SOL    HW1 5798   5.698   1.798   2.916
 1633SOL    HW2 5799   5.806   1.800   3.038
 1634SOL     OW 5800   3.038   6.364   6.187
 1634SOL    HW1 5801   3.107   6.329   6.250
 1634SOL    HW2 5802   2.964   6.297   6.178
 1635SOL     OW 5803   0.266   5.799   4.811
 1635SOL    HW1 5804   0.255   5.710   4.766
 1635SOL    HW2 5805   0.323   5.858   4.754
 1636SOL     OW 5806   2.649   5.566   1.564
 1636SOL    HW1 5807   2.570   5.517   1.528
 1636SOL    HW2 5808   2.643   5.570   1.664
 1637SOL     OW 5809   6.902   3.329   2.445
 1637SOL    HW1 5810   6.891   3.296   2.539
 1637SOL    HW2 5811   6.812   3.335   2.402
 1638SOL     OW 5812   0.306   3.434   4.192
 1638SOL    HW1 5813   0.270   3.509   4.136
 1638SOL    HW2 5814   0.396   3.407   4.158
 1639SOL     OW 5815   4.583   5.889   2.762
 1639SOL    HW1 5816   4.591   5.802   2.811
 1639SOL    HW2 5817   4.615   5.878   2.668
 1640SOL     OW 5818   6.507   1.448   0.515
 1640SOL    HW1 5819   6.433   1.389   0.550
 1640SOL    HW2 5820   6.539   1.412   0.428
 1641SOL     OW 5821   6.172   3.284   4.314
 1641SOL    HW1 5822   6.115   3.252   4.237
 1641SOL    HW2 5823   6.113   3.306   4.391
 1642SOL     OW 5824   6.607   2.392   0.246
 1642SOL    HW1 5825   6.516   2.416   0.279
 1642SOL    HW2 5826   6.606   2.297   0.214
 1643SOL     OW 5827   3.429   6.563   5.373
 1643SOL    HW1 5828   3.415   6.473   5.413
 1643SOL    HW2 5829   3.355   6.583   5.310
 1644SOL     OW 5830   3.115   1.640   1.290
 1644SOL    HW1 5831   3.080   1.672   1.377
 1644SOL    HW2 5832   3.074   1.692   1.215
 1645SOL     OW 5833   3.355   6.213   6.055
 1645SOL    HW1 5834   3.377   6.294   6.001
 1645SOL    HW2 5835   3.320   6.142   5.995
 1646SOL     OW 5836   1.259   4.464   0.863
 1646SOL    HW1 5837   1.246   4.367   0.841
 1646SOL    HW2 5838   1.331   4.502   0.805
 1647SOL     OW 5839   5.672   3.042   3.916
 1647SOL    HW1 5840   5.602   3.013   3.851
 1647SOL    HW2 5841   5.723   2.961   3.947
 1648SOL     OW 5842   4.462   0.162   1.787
 1648SOL    HW1 5843   4.536   0.097   1.770
 1648SOL    HW2 5844   4.500   0.254   1.792
 1649SOL     OW 5845   2.934   0.565   3.307
 1649SOL    HW1 5846   2.994   0.618   3.367
 1649SOL    HW2 5847   2.965   0.573   3.212
 1650SOL     OW 5848   2.845   0.779   4.106
 1650SOL    HW1 5849   2.890   0.698   4.068
 1650SOL    HW2 5850   2.856   0.779   4.205
 1651SOL     OW 5851   0.200   0.332   0.180
 1651SOL    HW1 5852   0.103   0.309   0.191
 1651SOL    HW2 5853   0.220   0.418   0.227
 1652SOL     OW 5854   2.879   2.488   1.534
 1652SOL    HW1 5855   2.931   2.550   1.593
 1652SOL    HW2 5856   2.781   2.510   1.540
 1653SOL     OW 5857   0.062   5.372   0.497
 1653SOL    HW1 5858   0.156   5.398   0.473
 1653SOL    HW2 5859   0.015   5.449   0.539
 1654SOL     OW 5860   6.955   3.481   2.886
 1654SOL    HW1 5861   6.955   3.549   2.960
 1654SOL    HW2 5862   6.929   3.525   2.800
 1655SOL     OW 5863   5.353   4.186   6.255
 1655SOL    HW1 5864   5.379   4.270   6.302
 1655SOL    HW2 5865   5.416   4.113   6.280
 1656SOL     OW 5866   1.158   4.661   3.682
 1656SOL    HW1 5867   1.111   4.634   3.766
 1656SOL    HW2 5868   1.130   4.600   3.607
 1657SOL     OW 5869   1.692   0.909   5.638
 1657SOL    HW1 5870   1.646   0.938   5.722
 1657SOL    HW2 5871   1.693   0.985   5.572
 1658SOL     OW 5872   5.860   6.265   2.544
 1658SOL    HW1 5873   5.835   6.318   2.625
 1658SOL    HW2 5874   5.798   6.287   2.469
 1659SOL     OW 5875   3.459   2.032   6.492
 1659SOL    HW1 5876   3.559   2.028   6.491
 1659SOL    HW2 5877   3.424   1.981   6.571
 1660SOL     OW 5878   0.971   5.791   3.868
 1660SOL    HW1 5879   1.006   5.881   3.894
 1660SOL    HW2 5880   1.035   5.748   3.805
 1661SOL     OW 5881   3.053   1.785   2.560
 1661SOL    HW1 5882   2.969   1.812   2.513
 1661SOL    HW2 5883   3.032   1.715   2.628
 1662SOL     OW 5884   0.148   1.447   3.026
 1662SOL    HW1 5885   0.122   1.387   2.951
 1662SOL    HW2 5886   0.169   1.538   2.990
 1663SOL     OW 5887   2.989   6.883   2.897
 1663SOL    HW1 5888   3.022   6.795   2.931
 1663SOL    HW2 5889   2.918   6.867   2.828
 1664SOL     OW 5890   1.797   6.650   4.418
 1664SOL    HW1 5891   1.828   6.650   4.513
 1664SOL    HW2 5892   1.736   6.572   4.403
 1665SOL     OW 5893   0.768   1.531   2.334
 1665SOL    HW1 5894   0.865   1.544   2.356
 1665SOL    HW2 5895   0.731   1.614   2.293
 1666SOL     OW 5896   5.778   2.593   5.571
 1666SOL    HW1 5897   5.835   2.599   5.490
 1666SOL    HW2 5898   5.831   2.620   5.651
 1667SOL     OW 5899   6.356   6.811   6.081
 1667SOL    HW1 5900   6.366   6.714   6.103
 1667SOL    HW2 5901   6.401   6.831   5.994
 1668SOL     OW 5902   3.939   0.403   4.189
 1668SOL    HW1 5903   3.875   0.431   4.118
 1668SOL    HW2 5904   4.026   0.376   4.147
 1669SOL     OW 5905   5.874   6.928   6.210
 1669SOL    HW1 5906   5.955   6.941   6.154
 1669SOL    HW2 5907   5.868   7.003   6.277
 1670SOL     OW 5908   5.398   4.597   5.608
 1670SOL    HW1 5909   5.395   4.526   5.679
 1670SOL    HW2 5910   5.350   4.678   5.639
 1671SOL     OW 5911   4.577   3.265   0.191
 1671SOL    HW1 5912   4.660   3.295   0.237
 1671SOL    HW2 5913   4.593   3.259   0.093
 1672SOL     OW 5914   1.986   4.440   2.342
 1672SOL    HW1 5915   2.009   4.423   2.246
 1672SOL    HW2 5916   2.068   4.468   2.391
 1673SOL     OW 5917   6.950   3.640   4.569
 1673SOL    HW1 5918   6.967   3.703   4.493
 1673SOL    HW2 5919   0.005   3.636   4.628
 1674SOL     OW 5920   0.842   3.933   0.802
 1674SOL    HW1 5921   0.900   4.008   0.771
 1674SOL    HW2 5922   0.831   3.939   0.902
 1675SOL     OW 5923   4.693   1.523   6.607
 1675SOL    HW1 5924   4.637   1.454   6.561
 1675SOL    HW2 5925   4.786   1.488   6.620
 1676SOL     OW 5926   2.263   0.993   2.450
 1676SOL    HW1 5927   2.281   0.895   2.442
 1676SOL    HW2 5928   2.171   1.007   2.487
 1677SOL     OW 5929   5.899   1.624   5.075
 1677SOL    HW1 5930   5.805   1.658   5.075
 1677SOL    HW2 5931   5.912   1.562   4.997
 1678SOL     OW 5932   4.963   6.291   2.269
 1678SOL    HW1 5933   4.947   6.375   2.321
 1678SOL    HW2 5934   4.909   6.293   2.184
 1679SOL     OW 5935   1.121   2.972   5.755
 1679SOL    HW1 5936   1.219   2.991   5.769
 1679SOL    HW2 5937   1.104   2.875   5.771
 1680SOL     OW 5938   0.750   1.246   3.807
 1680SOL    HW1 5939   0.713   1.229   3.899
 1680SOL    HW2 5940   0.695   1.196   3.740
 1681SOL     OW 5941   6.483   5.203   0.848
 1681SOL    HW1 5942   6.435   5.227   0.764
 1681SOL    HW2 5943   6.471   5.276   0.915
 1682SOL     OW 5944   0.139   3.359   4.943
 1682SOL    HW1 5945   0.213   3.316   4.892
 1682SOL    HW2 5946   0.132   3.317   5.033
 1683SOL     OW 5947   4.740   5.402   1.182
 1683SOL    HW1 5948   4.692   5.339   1.121
 1683SOL    HW2 5949   4.726   5.496   1.151
 1684SOL     OW 5950   0.626   6.700   5.454
 1684SOL    HW1 5951   0.531   6.722   5.429
 1684SOL    HW2 5952   0.660   6.628   5.393
 1685SOL     OW 5953   1.924   1.127   0.516
 1685SOL    HW1 5954   2.023   1.129   0.500
 1685SOL    HW2 5955   1.885   1.215   0.491
 1686SOL     OW 5956   1.318   5.592   5.679
 1686SOL    HW1 5957   1.243   5.658   5.680
 1686SOL    HW2 5958   1.356   5.584   5.772
 1687SOL     OW 5959   1.585   4.787   2.328
 1687SOL    HW1 5960   1.637   4.853   2.383
 1687SOL    HW2 5961   1.503   4.832   2.291
 1688SOL     OW 5962   1.644   1.850   3.022
 1688SOL    HW1 5963   1.654   1.896   2.933
 1688SOL    HW2 5964   1.735   1.836   3.062
 1689SOL     OW 5965   2.968   1.628   2.775
 1689SOL    HW1 5966   2.970   1.633   2.875
 1689SOL    HW2 5967   3.024   1.550   2.745
 1690SOL     OW 5968   1.562   1.347   2.053
 1690SOL    HW1 5969   1.468   1.378   2.041
 1690SOL    HW2 5970   1.589   1.290   1.975
 1691SOL     OW 5971   5.291   3.184   3.150
 1691SOL    HW1 5972   5.357   3.174   3.224
 1691SOL    HW2 5973   5.221   3.113   3.158
 1692SOL     OW 5974   0.550   0.155   1.694
 1692SOL    HW1 5975   0.470   0.119   1.646
 1692SOL    HW2 5976   0.607   0.207   1.631
 1693SOL     OW 5977   2.492   2.565   3.637
 1693SOL    HW1 5978   2.447   2.514   3.711
 1693SOL    HW2 5979   2.589   2.574   3.657
 1694SOL     OW 5980   4.369   5.776   4.997
 1694SOL    HW1 5981   4.391   5.869   4.967
 1694SOL    HW2 5982   4.345   5.720   4.918
 1695SOL     OW 5983   2.927   2.821   5.384
 1695SOL    HW1 5984   2.930   2.839   5.482
 1695SOL    HW2 5985   2.942   2.724   5.367
 1696SOL     OW 5986   4.797   5.164   0.530
 1696SOL    HW1 5987   4.755   5.095   0.471
 1696SOL    HW2 5988   4.753   5.253   0.513
 1697SOL     OW 5989   1.321   0.374   1.552
 1697SOL    HW1 5990   1.313   0.320   1.468
 1697SOL    HW2 5991   1.253   0.447   1.551
 1698SOL     OW 5992   4.850   2.192   1.988
 1698SOL    HW1 5993   4.840   2.290   2.005
 1698SOL    HW2 5994   4.931   2.157   2.034
 1699SOL     OW 5995   2.824   3.190   0.722
 1699SOL    HW1 5996   2.752   3.217   0.659
 1699SOL    HW2 5997   2.812   3.094   0.747
 1700SOL     OW 5998   6.784   2.858   2.975
 1700SOL    HW1 5999   6.852   2.890   2.909
 1700SOL    HW2 6000   6.717   2.801   2.928
 1701SOL     OW 6001   6.194   2.690   4.381
 1701SOL    HW1 6002   6.160   2.671   4.289
 1701SOL    HW2 6003   6.268   2.757   4.377
 1702SOL     OW 6004   5.887   3.279   1.312
 1702SOL    HW1 6005   5.803   3.235   1.343
 1702SOL    HW2 6006   5.885   3.290   1.212
 1703SOL     OW 6007   2.232   3.782   0.657
 1703SOL    HW1 6008   2.300   3.826   0.716
 1703SOL    HW2 6009   2.156   3.750   0.714
 1704SOL     OW 6010   6.878   0.699   1.338
 1704SOL    HW1 6011   6.945   0.725   1.268
 1704SOL    HW2 6012   6.893   0.604   1.365
 1705SOL     OW 6013   3.742   2.481   1.428
 1705SOL    HW1 6014   3.695   2.506   1.512
 1705SOL    HW2 6015   3.839   2.466   1.448
 1706SOL     OW 6016   3.725   0.653   0.093
 1706SOL    HW1 6017   3.812   0.606   0.102
 1706SOL    HW2 6018   3.671   0.611   0.020
 1707SOL     OW 6019   5.625   2.001   2.916
 1707SOL    HW1 6020   5.701   2.043   2.964
 1707SOL    HW2 6021   5.539   2.043   2.945
 1708SOL     OW 6022   6.346   6.331   2.562
 1708SOL    HW1 6023   6.388   6.303   2.648
 1708SOL    HW2 6024   6.371   6.426   2.542
 1709SOL     OW 6025   2.777   6.467   2.568
 1709SOL    HW1 6026   2.854   6.403   2.558
 1709SOL    HW2 6027   2.734   6.454   2.657
 1710SOL     OW 6028   0.494   4.906   3.951
 1710SOL    HW1 6029   0.547   4.906   4.036
 1710SOL    HW2 6030   0.548   4.946   3.877
 1711SOL     OW 6031   1.409   4.810   5.938
 1711SOL    HW1 6032   1.475   4.880   5.965
 1711SOL    HW2 6033   1.457   4.726   5.913
 1712SOL     OW 6034   6.976   4.081   0.134
 1712SOL    HW1 6035   7.020   4.061   0.047
 1712SOL    HW2 6036   7.019   4.160   0.176
 1713SOL     OW 6037   1.551   2.707   1.419
 1713SOL    HW1 6038   1.571   2.783   1.357
 1713SOL    HW2 6039   1.605   2.718   1.503
 1714SOL     OW 6040   3.410   1.808   0.093
 1714SOL    HW1 6041   3.439   1.881   0.155
 1714SOL    HW2 6042   3.428   1.720   0.135
 1715SOL     OW 6043   0.876   3.281   2.762
 1715SOL    HW1 6044   0.885   3.263   2.860
 1715SOL    HW2 6045   0.901   3.199   2.710
 1716SOL     OW 6046   6.929   6.485   0.222
 1716SOL    HW1 6047   6.865   6.544   0.272
 1716SOL    HW2 6048   6.912   6.492   0.124
 1717SOL     OW 6049   2.532   6.642   6.877
 1717SOL    HW1 6050   2.501   6.698   6.800
 1717SOL    HW2 6051   2.474   6.660   6.956
 1718SOL     OW 6052   2.482   4.195   0.470
 1718SOL    HW1 6053   2.406   4.203   0.533
 1718SOL    HW2 6054   2.458   4.237   0.383
 1719SOL     OW 6055   1.881   3.437   1.369
 1719SOL    HW1 6056   1.884   3.378   1.289
 1719SOL    HW2 6057   1.971   3.479   1.383
 1720SOL     OW 6058   6.830   1.550   0.533
 1720SOL    HW1 6059   6.782   1.602   0.462
 1720SOL    HW2 6060   6.913   1.599   0.559
 1721SOL     OW 6061   1.703   6.681   3.386
 1721SOL    HW1 6062   1.705   6.741   3.306
 1721SOL    HW2 6063   1.715   6.736   3.469
 1722SOL     OW 6064   5.927   0.271   2.296
 1722SOL    HW1 6065   6.025   0.253   2.305
 1722SOL    HW2 6066   5.896   0.241   2.205
 1723SOL     OW 6067   0.248   1.792   3.026
 1723SOL    HW1 6068   0.266   1.774   3.122
 1723SOL    HW2 6069   0.316   1.745   2.969
 1724SOL     OW 6070   4.983   1.167   6.667
 1724SOL    HW1 6071   4.890   1.192   6.693
 1724SOL    HW2 6072   5.008   1.216   6.584
 1725SOL     OW 6073   3.369   4.158   1.374
 1725SOL    HW1 6074   3.298   4.126   1.313
 1725SOL    HW2 6075   3.362   4.257   1.385
 1726SOL     OW 6076   6.729   4.865   5.273
 1726SOL    HW1 6077   6.659   4.798   5.246
 1726SOL    HW2 6078   6.687   4.955   5.282
 1727SOL     OW 6079   4.186   3.508   5.178
 1727SOL    HW1 6080   4.163   3.411   5.183
 1727SOL    HW2 6081   4.285   3.518   5.169
 1728SOL     OW 6082   4.529   4.468   3.983
 1728SOL    HW1 6083   4.522   4.529   4.062
 1728SOL    HW2 6084   4.455   4.488   3.919
 1729SOL     OW 6085   1.245   4.094   3.099
 1729SOL    HW1 6086   1.341   4.099   3.125
 1729SOL    HW2 6087   1.234   4.030   3.023
 1730SOL     OW 6088   6.823   1.772   4.622
 1730SOL    HW1 6089   6.886   1.844   4.593
 1730SOL    HW2 6090   6.738   1.813   4.657
 1731SOL     OW 6091   2.022   4.890   1.243
 1731SOL    HW1 6092   1.955   4.823   1.275
 1731SOL    HW2 6093   1.980   4.950   1.176
 1732SOL     OW 6094   2.087   4.555   0.125
 1732SOL    HW1 6095   2.029   4.521   0.199
 1732SOL    HW2 6096   2.032   4.569   0.043
 1733SOL     OW 6097   1.507   3.801   1.871
 1733SOL    HW1 6098   1.429   3.748   1.837
 1733SOL    HW2 6099   1.475   3.890   1.903
 1734SOL     OW 6100   4.046   2.839   0.831
 1734SOL    HW1 6101   4.107   2.774   0.787
 1734SOL    HW2 6102   3.951   2.816   0.809
 1735SOL     OW 6103   5.953   4.927   1.405
 1735SOL    HW1 6104   6.033   4.972   1.365
 1735SOL    HW2 6105   5.967   4.917   1.504
 1736SOL     OW 6106   3.224   3.121   0.034
 1736SOL    HW1 6107   3.173   3.046   7.018
 1736SOL    HW2 6108   3.322   3.105   0.025
 1737SOL     OW 6109   2.358   0.413   4.175
 1737SOL    HW1 6110   2.332   0.318   4.189
 1737SOL    HW2 6111   2.397   0.423   4.083
 1738SOL     OW 6112   2.164   3.057   2.220
 1738SOL    HW1 6113   2.177   3.063   2.121
 1738SOL    HW2 6114   2.070   3.083   2.243
 1739SOL     OW 6115   4.568   2.262   4.791
 1739SOL    HW1 6116   4.548   2.170   4.758
 1739SOL    HW2 6117   4.625   2.256   4.874
 1740SOL     OW 6118   6.961   0.750   6.813
 1740SOL    HW1 6119   6.988   0.654   6.814
 1740SOL    HW2 6120   0.006   0.804   6.767
 1741SOL     OW 6121   2.308   0.724   2.440
 1741SOL    HW1 6122   2.223   0.700   2.487
 1741SOL    HW2 6123   2.332   0.652   2.376
 1742SOL     OW 6124   5.745   0.395   5.033
 1742SOL    HW1 6125   5.766   0.490   5.012
 1742SOL    HW2 6126   5.821   0.337   5.005
 1743SOL     OW 6127   3.402   1.685   1.376
 1743SOL    HW1 6128   3.411   1.619   1.450
 1743SOL    HW2 6129   3.352   1.644   1.300
 1744SOL     OW 6130   2.468   0.817   1.823
 1744SOL    HW1 6131   2.396   0.878   1.792
 1744SOL    HW2 6132   2.556   0.864   1.820
 1745SOL     OW 6133   0.010   1.590   3.205
 1745SOL    HW1 6134   0.053   1.675   3.234
 1745SOL    HW2 6135   0.064   1.548   3.132
 1746SOL     OW 6136   2.974   0.574   6.670
 1746SOL    HW1 6137   2.931   0.572   6.761
 1746SOL    HW2 6138   2.936   0.649   6.616
 1747SOL     OW 6139   3.518   0.021   1.140
 1747SOL    HW1 6140   3.516   6.982   1.063
 1747SOL    HW2 6141   3.612   0.044   1.162
 1748SOL     OW 6142   6.092   1.897   3.669
 1748SOL    HW1 6143   6.087   1.797   3.674
 1748SOL    HW2 6144   6.183   1.925   3.638
 1749SOL     OW 6145   4.464   6.681   6.458
 1749SOL    HW1 6146   4.424   6.769   6.485
 1749SOL    HW2 6147   4.397   6.609   6.468
 1750SOL     OW 6148   5.234   1.187   2.274
 1750SOL    HW1 6149   5.216   1.089   2.278
 1750SOL    HW2 6150   5.299   1.212   2.346
 1751SOL     OW 6151   1.919   5.131   4.514
 1751SOL    HW1 6152   1.824   5.158   4.533
 1751SOL    HW2 6153   1.926   5.032   4.514
 1752SOL     OW 6154   6.865   2.022   0.759
 1752SOL    HW1 6155   6.929   2.023   0.837
 1752SOL    HW2 6156   6.796   2.093   0.772
 1753SOL     OW 6157   0.892   6.976   0.375
 1753SOL    HW1 6158   0.856   6.919   0.300
 1753SOL    HW2 6159   0.952   0.021   0.337
 1754SOL     OW 6160   3.298   3.074   1.131
 1754SOL    HW1 6161   3.380   3.018   1.121
 1754SOL    HW2 6162   3.248   3.076   1.044
 1755SOL     OW 6163   5.253   5.079   1.694
 1755SOL    HW1 6164   5.173   5.053   1.641
 1755SOL    HW2 6165   5.311   5.140   1.639
 1756SOL     OW 6166   6.340   4.971   4.324
 1756SOL    HW1 6167   6.267   4.926   4.272
 1756SOL    HW2 6168   6.305   5.058   4.361
 1757SOL     OW 6169   2.765   6.498   4.430
 1757SOL    HW1 6170   2.758   6.472   4.526
 1757SOL    HW2 6171   2.694   6.565   4.409
 1758SOL     OW 6172   2.984   1.169   3.372
 1758SOL    HW1 6173   2.980   1.214   3.283
 1758SOL    HW2 6174   2.897   1.181   3.419
 1759SOL     OW 6175   7.022   4.507   6.078
 1759SOL    HW1 6176   6.952   4.437   6.090
 1759SOL    HW2 6177   6.982   4.597   6.094
 1760SOL     OW 6178   6.076   1.547   1.571
 1760SOL    HW1 6179   6.025   1.492   1.638
 1760SOL    HW2 6180   6.170   1.513   1.564
 1761SOL     OW 6181   5.680   0.930   0.997
 1761SOL    HW1 6182   5.745   0.959   1.067
 1761SOL    HW2 6183   5.623   1.008   0.971
 1762SOL     OW 6184   6.616   2.115   5.654
 1762SOL    HW1 6185   6.641   2.166   5.737
 1762SOL    HW2 6186   6.623   2.176   5.575
 1763SOL     OW 6187   1.843   4.063   4.147
 1763SOL    HW1 6188   1.780   3.987   4.166
 1763SOL    HW2 6189   1.810   4.144   4.195
 1764SOL     OW 6190   1.354   3.012   3.262
 1764SOL    HW1 6191   1.396   3.050   3.180
 1764SOL    HW2 6192   1.414   3.030   3.341
 1765SOL     OW 6193   2.632   1.448   0.336
 1765SOL    HW1 6194   2.539   1.411   0.341
 1765SOL    HW2 6195   2.681   1.404   0.261
 1766SOL     OW 6196   5.357   3.138   4.762
 1766SOL    HW1 6197   5.335   3.167   4.855
 1766SOL    HW2 6198   5.313   3.200   4.697
 1767SOL     OW 6199   5.370   3.659   2.296
 1767SOL    HW1 6200   5.385   3.563   2.319
 1767SOL    HW2 6201   5.309   3.700   2.364
 1768SOL     OW 6202   4.228   0.355   3.588
 1768SOL    HW1 6203   4.199   0.369   3.683
 1768SOL    HW2 6204   4.293   0.279   3.584
 1769SOL     OW 6205   3.830   1.369   3.721
 1769SOL    HW1 6206   3.870   1.350   3.810
 1769SOL    HW2 6207   3.876   1.448   3.680
 1770SOL     OW 6208   1.872   5.472   5.347
 1770SOL    HW1 6209   1.952   5.504   5.397
 1770SOL    HW2 6210   1.818   5.551   5.317
 1771SOL     OW 6211   3.189   6.420   0.041
 1771SOL    HW1 6212   3.162   6.344   7.008
 1771SOL    HW2 6213   3.125   6.428   0.117
 1772SOL     OW 6214   3.448   6.935   3.645
 1772SOL    HW1 6215   3.523   6.869   3.636
 1772SOL    HW2 6216   3.376   6.897   3.703
 1773SOL     OW 6217   2.503   5.043   6.323
 1773SOL    HW1 6218   2.526   5.005   6.233
 1773SOL    HW2 6219   2.416   5.092   6.317
 1774SOL     OW 6220   3.960   5.465   1.969
 1774SOL    HW1 6221   4.000   5.385   2.015
 1774SOL    HW2 6222   4.028   5.538   1.967
 1775SOL     OW 6223   0.642   4.038   2.412
 1775SOL    HW1 6224   0.698   4.088   2.478
 1775SOL    HW2 6225   0.628   4.094   2.330
 1776SOL     OW 6226   4.279   6.188   4.343
 1776SOL    HW1 6227   4.246   6.272   4.386
 1776SOL    HW2 6228   4.222   6.111   4.372
 1777SOL     OW 6229   3.595   5.913   6.964
 1777SOL    HW1 6230   3.577   5.969   0.019
 1777SOL    HW2 6231   3.637   5.970   6.893
 1778SOL     OW 6232   4.467   3.233   5.407
 1778SOL    HW1 6233   4.454   3.187   5.495
 1778SOL    HW2 6234   4.398   3.200   5.342
 1779SOL     OW 6235   3.796   0.362   4.937
 1779SOL    HW1 6236   3.879   0.403   4.974
 1779SOL    HW2 6237   3.716   0.411   4.972
 1780SOL     OW 6238   3.328   3.004   6.119
 1780SOL    HW1 6239   3.369   2.952   6.194
 1780SOL    HW2 6240   3.231   3.018   6.139
 1781SOL     OW 6241   4.120   6.328   3.144
 1781SOL    HW1 6242   4.103   6.418   3.184
 1781SOL    HW2 6243   4.127   6.336   3.045
 1782SOL     OW 6244   3.095   1.534   3.073
 1782SOL    HW1 6245   3.144   1.580   3.147
 1782SOL    HW2 6246   3.069   1.442   3.102
 1783SOL     OW 6247   2.916   5.246   6.377
 1783SOL    HW1 6248   2.985   5.316   6.362
 1783SOL    HW2 6249   2.826   5.288   6.383
 1784SOL     OW 6250   4.097   0.804   5.886
 1784SOL    HW1 6251   4.197   0.799   5.888
 1784SOL    HW2 6252   4.066   0.829   5.794
 1785SOL     OW 6253   6.398   4.076   2.651
 1785SOL    HW1 6254   6.464   4.013   2.691
 1785SOL    HW2 6255   6.316   4.080   2.709
 1786SOL     OW 6256   2.306   2.676   6.970
 1786SOL    HW1 6257   2.247   2.649   0.019
 1786SOL    HW2 6258   2.301   2.776   6.958
 1787SOL     OW 6259   3.191   1.188   5.454
 1787SOL    HW1 6260   3.160   1.174   5.360
 1787SOL    HW2 6261   3.170   1.282   5.482
 1788SOL     OW 6262   2.188   4.752   6.469
 1788SOL    HW1 6263   2.213   4.696   6.390
 1788SOL    HW2 6264   2.230   4.714   6.551
 1789SOL     OW 6265   5.835   2.084   0.801
 1789SOL    HW1 6266   5.823   1.996   0.847
 1789SOL    HW2 6267   5.817   2.074   0.703
 1790SOL     OW 6268   4.108   6.312   3.802
 1790SOL    HW1 6269   4.050   6.322   3.882
 1790SOL    HW2 6270   4.149   6.400   3.779
 1791SOL     OW 6271   6.883   0.701   2.378
 1791SOL    HW1 6272   6.835   0.658   2.454
 1791SOL    HW2 6273   6.942   0.774   2.413
 1792SOL     OW 6274   0.121   3.957   4.784
 1792SOL    HW1 6275   0.131   3.900   4.865
 1792SOL    HW2 6276   0.148   4.051   4.806
 1793SOL     OW 6277   6.078   0.334   3.950
 1793SOL    HW1 6278   6.097   0.284   4.034
 1793SOL    HW2 6279   6.132   0.295   3.875
 1794SOL     OW 6280   5.083   5.803   5.880
 1794SOL    HW1 6281   5.063   5.866   5.806
 1794SOL    HW2 6282   5.003   5.795   5.940
 1795SOL     OW 6283   0.856   2.882   1.243
 1795SOL    HW1 6284   0.820   2.851   1.331
 1795SOL    HW2 6285   0.830   2.977   1.228
 1796SOL     OW 6286   3.164   1.260   5.856
 1796SOL    HW1 6287   3.101   1.336   5.873
 1796SOL    HW2 6288   3.155   1.193   5.929
 1797SOL     OW 6289   1.273   0.321   0.041
 1797SOL    HW1 6290   1.236   0.237   0.000
 1797SOL    HW2 6291   1.208   0.357   0.108
 1798SOL     OW 6292   4.378   2.422   4.385
 1798SOL    HW1 6293   4.288   2.462   4.368
 1798SOL    HW2 6294   4.367   2.335   4.434
 1799SOL     OW 6295   7.018   2.980   4.330
 1799SOL    HW1 6296   0.036   2.952   4.416
 1799SOL    HW2 6297   6.925   3.011   4.349
 1800SOL     OW 6298   4.312   4.071   1.453
 1800SOL    HW1 6299   4.345   4.165   1.459
 1800SOL    HW2 6300   4.364   4.014   1.516
 1801SOL     OW 6301   0.228   0.734   2.163
 1801SOL    HW1 6302   0.154   0.801   2.165
 1801SOL    HW2 6303   0.236   0.690   2.252
 1802SOL     OW 6304   5.720   5.972   4.210
 1802SOL    HW1 6305   5.710   5.960   4.111
 1802SOL    HW2 6306   5.715   6.069   4.233
 1803SOL     OW 6307   0.594   5.433   6.731
 1803SOL    HW1 6308   0.567   5.429   6.634
 1803SOL    HW2 6309   0.605   5.528   6.758
 1804SOL     OW 6310   2.458   4.262   5.289
 1804SOL    HW1 6311   2.494   4.254   5.382
 1804SOL    HW2 6312   2.465   4.174   5.242
 1805SOL     OW 6313   5.089   3.598   6.206
 1805SOL    HW1 6314   5.018   3.604   6.276
 1805SOL    HW2 6315   5.055   3.544   6.129
 1806SOL     OW 6316   0.229   0.183   6.790
 1806SOL    HW1 6317   0.186   0.258   6.840
 1806SOL    HW2 6318   0.212   0.097   6.839
 1807SOL     OW 6319   5.383   2.854   4.752
 1807SOL    HW1 6320   5.303   2.800   4.776
 1807SOL    HW2 6321   5.367   2.950   4.773
 1808SOL     OW 6322   0.050   4.696   5.627
 1808SOL    HW1 6323   0.035   4.731   5.719
 1808SOL    HW2 6324   0.139   4.725   5.594
 1809SOL     OW 6325   2.693   2.250   5.503
 1809SOL    HW1 6326   2.716   2.253   5.405
 1809SOL    HW2 6327   2.642   2.333   5.528
 1810SOL     OW 6328   2.737   0.240   4.058
 1810SOL    HW1 6329   2.797   0.192   4.123
 1810SOL    HW2 6330   2.649   0.194   4.054
 1811SOL     OW 6331   5.818   5.632   3.766
 1811SOL    HW1 6332   5.911   5.598   3.779
 1811SOL    HW2 6333   5.773   5.642   3.854
 1812SOL     OW 6334   3.903   5.829   5.001
 1812SOL    HW1 6335   3.914   5.804   4.905
 1812SOL    HW2 6336   3.867   5.922   5.007
 1813SOL     OW 6337   5.655   3.979   0.482
 1813SOL    HW1 6338   5.659   3.999   0.580
 1813SOL    HW2 6339   5.729   3.917   0.458
 1814SOL     OW 6340   4.756   0.200   1.477
 1814SOL    HW1 6341   4.826   0.157   1.534
 1814SOL    HW2 6342   4.795   0.278   1.429
 1815SOL     OW 6343   0.501   1.673   2.444
 1815SOL    HW1 6344   0.404   1.651   2.455
 1815SOL    HW2 6345   0.519   1.692   2.347
 1816SOL     OW 6346   3.130   2.815   0.714
 1816SOL    HW1 6347   3.053   2.764   0.753
 1816SOL    HW2 6348   3.208   2.754   0.701
 1817SOL     OW 6349   1.456   6.366   2.343
 1817SOL    HW1 6350   1.479   6.452   2.389
 1817SOL    HW2 6351   1.382   6.382   2.277
 1818SOL     OW 6352   1.036   0.283   3.501
 1818SOL    HW1 6353   0.971   0.298   3.576
 1818SOL    HW2 6354   0.993   0.227   3.430
 1819SOL     OW 6355   1.239   4.237   2.277
 1819SOL    HW1 6356   1.299   4.239   2.198
 1819SOL    HW2 6357   1.145   4.256   2.249
 1820SOL     OW 6358   4.688   1.212   2.364
 1820SOL    HW1 6359   4.719   1.304   2.340
 1820SOL    HW2 6360   4.618   1.182   2.299
 1821SOL     OW 6361   1.900   1.262   2.785
 1821SOL    HW1 6362   1.841   1.182   2.794
 1821SOL    HW2 6363   1.877   1.329   2.855
 1822SOL     OW 6364   3.264   2.641   1.761
 1822SOL    HW1 6365   3.173   2.676   1.785
 1822SOL    HW2 6366   3.261   2.541   1.759
 1823SOL     OW 6367   3.472   6.311   2.734
 1823SOL    HW1 6368   3.381   6.313   2.691
 1823SOL    HW2 6369   3.535   6.367   2.681
 1824SOL     OW 6370   4.199   2.225   1.273
 1824SOL    HW1 6371   4.289   2.213   1.231
 1824SOL    HW2 6372   4.142   2.145   1.254
 1825SOL     OW 6373   1.018   0.065   1.201
 1825SOL    HW1 6374   1.022   7.020   1.272
 1825SOL    HW2 6375   0.937   0.123   1.216
 1826SOL     OW 6376   3.171   1.626   1.709
 1826SOL    HW1 6377   3.116   1.671   1.638
 1826SOL    HW2 6378   3.211   1.695   1.769
 1827SOL     OW 6379   7.014   4.845   1.984
 1827SOL    HW1 6380   7.025   4.922   2.047
 1827SOL    HW2 6381   6.930   4.857   1.930
 1828SOL     OW 6382   0.917   3.078   7.025
 1828SOL    HW1 6383   0.895   3.125   0.086
 1828SOL    HW2 6384   0.888   2.983   0.005
 1829SOL     OW 6385   5.319   6.354   3.146
 1829SOL    HW1 6386   5.403   6.386   3.190
 1829SOL    HW2 6387   5.341   6.287   3.075
 1830SOL     OW 6388   4.591   0.062   3.748
 1830SOL    HW1 6389   4.642   7.005   3.771
 1830SOL    HW2 6390   4.646   0.142   3.770
 1831SOL     OW 6391   6.153   6.814   2.480
 1831SOL    HW1 6392   6.120   6.722   2.502
 1831SOL    HW2 6393   6.234   6.834   2.534
 1832SOL     OW 6394   4.464   2.583   1.421
 1832SOL    HW1 6395   4.405   2.526   1.363
 1832SOL    HW2 6396   4.420   2.597   1.510
 1833SOL     OW 6397   5.109   0.134   4.959
 1833SOL    HW1 6398   5.099   0.061   4.892
 1833SOL    HW2 6399   5.071   0.105   5.047
 1834SOL     OW 6400   3.141   3.763   0.887
 1834SOL    HW1 6401   3.141   3.701   0.965
 1834SOL    HW2 6402   3.108   3.853   0.917
 1835SOL     OW 6403   1.900   4.393   1.495
 1835SOL    HW1 6404   1.842   4.316   1.469
 1835SOL    HW2 6405   1.949   4.370   1.580
 1836SOL     OW 6406   7.018   1.638   0.685
 1836SOL    HW1 6407   6.952   1.606   0.753
 1836SOL    HW2 6408   0.075   1.670   0.732
 1837SOL     OW 6409   1.006   2.103   4.211
 1837SOL    HW1 6410   1.091   2.150   4.235
 1837SOL    HW2 6411   0.939   2.170   4.176
 1838SOL     OW 6412   6.934   2.431   3.754
 1838SOL    HW1 6413   6.888   2.518   3.738
 1838SOL    HW2 6414   6.867   2.363   3.783
 1839SOL     OW 6415   5.736   3.025   4.976
 1839SOL    HW1 6416   5.719   2.928   4.957
 1839SOL    HW2 6417   5.690   3.051   5.060
 1840SOL     OW 6418   2.367   6.021   1.085
 1840SOL    HW1 6419   2.350   5.923   1.098
 1840SOL    HW2 6420   2.466   6.038   1.083
 1841SOL     OW 6421   2.178   3.815   4.229
 1841SOL    HW1 6422   2.139   3.855   4.145
 1841SOL    HW2 6423   2.131   3.853   4.309
 1842SOL     OW 6424   0.414   5.013   1.157
 1842SOL    HW1 6425   0.383   5.081   1.089
 1842SOL    HW2 6426   0.489   4.960   1.118
 1843SOL     OW 6427   1.922   1.925   5.181
 1843SOL    HW1 6428   1.909   2.024   5.186
 1843SOL    HW2 6429   1.993   1.904   5.115
 1844SOL     OW 6430   4.029   2.174   5.008
 1844SOL    HW1 6431   3.995   2.081   5.022
 1844SOL    HW2 6432   4.006   2.231   5.086
 1845SOL     OW 6433   2.834   0.078   6.574
 1845SOL    HW1 6434   2.931   0.091   6.557
 1845SOL    HW2 6435   2.781   0.117   6.499
 1846SOL     OW 6436   4.308   2.118   6.801
 1846SOL    HW1 6437   4.367   2.040   6.823
 1846SOL    HW2 6438   4.272   2.156   6.886
 1847SOL     OW 6439   0.647   0.257   0.363
 1847SOL    HW1 6440   0.684   0.227   0.451
 1847SOL    HW2 6441   0.650   0.356   0.357
 1848SOL     OW 6442   2.554   5.956   2.687
 1848SOL    HW1 6443   2.507   6.033   2.646
 1848SOL    HW2 6444   2.582   5.892   2.615
 1849SOL     OW 6445   4.008   0.553   0.160
 1849SOL    HW1 6446   4.065   0.599   0.092
 1849SOL    HW2 6447   3.994   0.613   0.238
 1850SOL     OW 6448   5.993   1.805   3.135
 1850SOL    HW1 6449   6.001   1.709   3.111
 1850SOL    HW2 6450   6.025   1.819   3.229
 1851SOL     OW 6451   0.177   1.676   1.486
 1851SOL    HW1 6452   0.251   1.668   1.420
 1851SOL    HW2 6453   0.186   1.762   1.536
 1852SOL     OW 6454   4.603   3.856   0.455
 1852SOL    HW1 6455   4.604   3.757   0.472
 1852SOL    HW2 6456   4.669   3.878   0.383
 1853SOL     OW 6457   0.720   3.935   1.627
 1853SOL    HW1 6458   0.695   3.896   1.715
 1853SOL    HW2 6459   0.819   3.952   1.626
 1854SOL     OW 6460   2.936   6.016   3.995
 1854SOL    HW1 6461   2.940   6.048   3.900
 1854SOL    HW2 6462   2.973   5.923   4.000
 1855SOL     OW 6463   5.066   5.289   0.588
 1855SOL    HW1 6464   5.094   5.201   0.626
 1855SOL    HW2 6465   4.982   5.277   0.536
 1856SOL     OW 6466   5.580   2.371   5.497
 1856SOL    HW1 6467   5.513   2.301   5.472
 1856SOL    HW2 6468   5.572   2.449   5.435
 1857SOL     OW 6469   4.127   1.074   4.398
 1857SOL    HW1 6470   4.151   0.995   4.341
 1857SOL    HW2 6471   4.096   1.042   4.488
 1858SOL     OW 6472   5.564   3.625   4.193
 1858SOL    HW1 6473   5.642   3.633   4.130
 1858SOL    HW2 6474   5.530   3.531   4.192
 1859SOL     OW 6475   4.306   2.285   3.585
 1859SOL    HW1 6476   4.352   2.339   3.656
 1859SOL    HW2 6477   4.334   2.318   3.495
 1860SOL     OW 6478   6.618   1.405   4.006
 1860SOL    HW1 6479   6.524   1.376   4.028
 1860SOL    HW2 6480   6.676   1.325   3.993
 1861SOL     OW 6481   4.752   6.458   1.959
 1861SOL    HW1 6482   4.681   6.479   2.026
 1861SOL    HW2 6483   4.816   6.392   1.998
 1862SOL     OW 6484   2.041   0.587   7.014
 1862SOL    HW1 6485   2.099   0.538   6.950
 1862SOL    HW2 6486   2.091   0.664   0.028
 1863SOL     OW 6487   2.756   2.377   0.882
 1863SOL    HW1 6488   2.816   2.302   0.911
 1863SOL    HW2 6489   2.750   2.378   0.783
 1864SOL     OW 6490   0.600   6.616   4.813
 1864SOL    HW1 6491   0.602   6.660   4.723
 1864SOL    HW2 6492   0.525   6.656   4.867
 1865SOL     OW 6493   3.556   1.724   5.676
 1865SOL    HW1 6494   3.537   1.727   5.578
 1865SOL    HW2 6495   3.538   1.813   5.716
 1866SOL     OW 6496   4.445   4.572   1.923
 1866SOL    HW1 6497   4.521   4.636   1.935
 1866SOL    HW2 6498   4.466   4.486   1.971
 1867SOL     OW 6499   0.306   3.981   0.008
 1867SOL    HW1 6500   0.291   3.941   0.098
 1867SOL    HW2 6501   0.348   3.912   6.973
 1868SOL     OW 6502   5.939   4.356   6.787
 1868SOL    HW1 6503   5.853   4.384   6.743
 1868SOL    HW2 6504   5.928   4.357   6.886
 1869SOL     OW 6505   6.739   2.265   5.142
 1869SOL    HW1 6506   6.720   2.168   5.126
 1869SOL    HW2 6507   6.828   2.275   5.186
 1870SOL     OW 6508   2.124   4.622   5.733
 1870SOL    HW1 6509   2.084   4.615   5.642
 1870SOL    HW2 6510   2.079   4.556   5.794
 1871SOL     OW 6511   2.084   0.043   1.005
 1871SOL    HW1 6512   2.018   6.994   1.002
 1871SOL    HW2 6513   2.087   0.089   0.916
 1872SOL     OW 6514   2.992   4.483   0.333
 1872SOL    HW1 6515   3.061   4.551   0.359
 1872SOL    HW2 6516   2.936   4.520   0.259
 1873SOL     OW 6517   4.055   0.867   5.603
 1873SOL    HW1 6518   4.009   0.944   5.561
 1873SOL    HW2 6519   4.080   0.800   5.533
 1874SOL     OW 6520   2.317   1.741   1.921
 1874SOL    HW1 6521   2.390   1.793   1.878
 1874SOL    HW2 6522   2.232   1.794   1.920
 1875SOL     OW 6523   0.611   0.058   6.229
 1875SOL    HW1 6524   0.630   6.985   6.225
 1875SOL    HW2 6525   0.680   0.103   6.286
 1876SOL     OW 6526   2.923   6.959   4.872
 1876SOL    HW1 6527   2.959   0.003   4.811
 1876SOL    HW2 6528   2.826   6.974   4.887
 1877SOL     OW 6529   0.629   0.156   4.058
 1877SOL    HW1 6530   0.669   0.193   3.974
 1877SOL    HW2 6531   0.618   0.057   4.049
 1878SOL     OW 6532   0.102   1.731   4.079
 1878SOL    HW1 6533   0.059   1.789   4.148
 1878SOL    HW2 6534   0.166   1.668   4.123
 1879SOL     OW 6535   1.307   3.262   4.385
 1879SOL    HW1 6536   1.279   3.357   4.400
 1879SOL    HW2 6537   1.233   3.211   4.342
 1880SOL     OW 6538   6.770   1.682   4.991
 1880SOL    HW1 6539   6.858   1.718   5.021
 1880SOL    HW2 6540   6.700   1.704   5.059
 1881SOL     OW 6541   6.323   1.853   1.098
 1881SOL    HW1 6542   6.361   1.872   1.189
 1881SOL    HW2 6543   6.327   1.936   1.042
 1882SOL     OW 6544   1.475   4.134   6.508
 1882SOL    HW1 6545   1.500   4.143   6.605
 1882SOL    HW2 6546   1.507   4.046   6.474
 1883SOL     OW 6547   6.543   2.467   2.332
 1883SOL    HW1 6548   6.635   2.427   2.333
 1883SOL    HW2 6549   6.497   2.447   2.418
 1884SOL     OW 6550   0.837   1.383   0.727
 1884SOL    HW1 6551   0.846   1.368   0.825
 1884SOL    HW2 6552   0.873   1.474   0.704
 1885SOL     OW 6553   1.994   1.568   5.776
 1885SOL    HW1 6554   2.045   1.534   5.698
 1885SOL    HW2 6555   2.033   1.531   5.860
 1886SOL     OW 6556   2.219   6.909   2.183
 1886SOL    HW1 6557   2.306   6.862   2.198
 1886SOL    HW2 6558   2.172   6.921   2.271
 1887SOL     OW 6559   0.890   5.554   6.085
 1887SOL    HW1 6560   0.905   5.505   5.999
 1887SOL    HW2 6561   0.829   5.632   6.069
 1888SOL     OW 6562   3.295   2.229   0.326
 1888SOL    HW1 6563   3.229   2.304   0.330
 1888SOL    HW2 6564   3.250   2.143   0.348
 1889SOL     OW 6565   0.826   3.598   4.398
 1889SOL    HW1 6566   0.733   3.612   4.363
 1889SOL    HW2 6567   0.891   3.600   4.322
 1890SOL     OW 6568   0.621   5.431   4.494
 1890SOL    HW1 6569   0.702   5.392   4.537
 1890SOL    HW2 6570   0.596   5.376   4.414
 1891SOL     OW 6571   3.849   2.911   1.891
 1891SOL    HW1 6572   3.904   2.899   1.809
 1891SOL    HW2 6573   3.829   2.822   1.932
 1892SOL     OW 6574   7.007   0.337   1.873
 1892SOL    HW1 6575   0.046   0.347   1.798
 1892SOL    HW2 6576   0.024   0.286   1.948
 1893SOL     OW 6577   3.857   2.932   2.211
 1893SOL    HW1 6578   3.872   2.849   2.159
 1893SOL    HW2 6579   3.943   2.981   2.224
 1894SOL     OW 6580   3.426   3.706   4.166
 1894SOL    HW1 6581   3.521   3.696   4.137
 1894SOL    HW2 6582   3.423   3.723   4.265
 1895SOL     OW 6583   4.298   0.610   0.911
 1895SOL    HW1 6584   4.205   0.613   0.947
 1895SOL    HW2 6585   4.307   0.675   0.835
 1896SOL     OW 6586   6.346   1.617   0.881
 1896SOL    HW1 6587   6.373   1.535   0.930
 1896SOL    HW2 6588   6.346   1.695   0.943
 1897SOL     OW 6589   1.512   5.505   2.310
 1897SOL    HW1 6590   1.591   5.526   2.368
 1897SOL    HW2 6591   1.542   5.493   2.216
 1898SOL     OW 6592   2.006   5.053   2.968
 1898SOL    HW1 6593   1.966   5.064   2.877
 1898SOL    HW2 6594   1.957   4.982   3.018
 1899SOL     OW 6595   0.542   0.378   1.534
 1899SOL    HW1 6596   0.467   0.313   1.518
 1899SOL    HW2 6597   0.521   0.433   1.615
 1900SOL     OW 6598   2.762   0.174   6.987
 1900SOL    HW1 6599   2.781   0.139   0.053
 1900SOL    HW2 6600   2.835   0.236   6.959
 1901SOL     OW 6601   2.347   2.923   1.252
 1901SOL    HW1 6602   2.247   2.913   1.258
 1901SOL    HW2 6603   2.385   2.849   1.198
 1902SOL     OW 6604   2.841   0.347   4.737
 1902SOL    HW1 6605   2.777   0.388   4.803
 1902SOL    HW2 6606   2.923   0.317   4.785
 1903SOL     OW 6607   0.423   2.908   3.678
 1903SOL    HW1 6608   0.388   2.853   3.754
 1903SOL    HW2 6609   0.523   2.903   3.676
 1904SOL     OW 6610   5.901   5.165   2.739
 1904SOL    HW1 6611   5.946   5.100   2.801
 1904SOL    HW2 6612   5.810   5.131   2.717
 1905SOL     OW 6613   0.781   0.362   3.609
 1905SOL    HW1 6614   0.747   0.446   3.652
 1905SOL    HW2 6615   0.708   0.322   3.553
 1906SOL     OW 6616   2.931   0.700   5.879
 1906SOL    HW1 6617   2.931   0.637   5.957
 1906SOL    HW2 6618   3.021   0.702   5.837
 1907SOL     OW 6619   4.977   2.393   0.658
 1907SOL    HW1 6620   4.887   2.399   0.701
 1907SOL    HW2 6621   5.034   2.328   0.709
 1908SOL     OW 6622   4.012   6.757   6.974
 1908SOL    HW1 6623   4.006   6.657   6.976
 1908SOL    HW2 6624   3.936   6.796   0.000
 1909SOL     OW 6625   0.122   3.561   4.726
 1909SOL    HW1 6626   0.152   3.476   4.770
 1909SOL    HW2 6627   0.193   3.631   4.737
 1910SOL     OW 6628   6.498   5.979   5.835
 1910SOL    HW1 6629   6.571   5.990   5.767
 1910SOL    HW2 6630   6.518   5.902   5.895
 1911SOL     OW 6631   6.948   4.763   4.422
 1911SOL    HW1 6632   6.965   4.666   4.408
 1911SOL    HW2 6633   0.006   4.815   4.405
 1912SOL     OW 6634   2.611   5.030   2.562
 1912SOL    HW1 6635   2.682   4.976   2.607
 1912SOL    HW2 6636   2.641   5.055   2.470
 1913SOL     OW 6637   1.992   5.531   4.983
 1913SOL    HW1 6638   2.067   5.544   4.918
 1913SOL    HW2 6639   2.030   5.523   5.075
 1914SOL     OW 6640   2.977   4.025   5.925
 1914SOL    HW1 6641   2.977   4.104   5.863
 1914SOL    HW2 6642   2.926   4.048   6.008
 1915SOL     OW 6643   4.292   2.897   5.983
 1915SOL    HW1 6644   4.251   2.969   6.039
 1915SOL    HW2 6645   4.385   2.924   5.957
 1916SOL     OW 6646   3.762   0.027   1.252
 1916SOL    HW1 6647   3.779   0.080   1.335
 1916SOL    HW2 6648   3.846   0.021   1.199
 1917SOL     OW 6649   2.799   4.551   0.825
 1917SOL    HW1 6650   2.815   4.467   0.877
 1917SOL    HW2 6651   2.733   4.533   0.752
 1918SOL     OW 6652   1.028   0.921   4.874
 1918SOL    HW1 6653   1.006   0.893   4.781
 1918SOL    HW2 6654   0.945   0.921   4.929
 1919SOL     OW 6655   1.662   2.256   1.165
 1919SOL    HW1 6656   1.670   2.214   1.255
 1919SOL    HW2 6657   1.664   2.356   1.174
 1920SOL     OW 6658   5.754   2.551   2.134
 1920SOL    HW1 6659   5.792   2.544   2.042
 1920SOL    HW2 6660   5.798   2.628   2.182
 1921SOL     OW 6661   1.316   2.553   0.206
 1921SOL    HW1 6662   1.252   2.505   0.265
 1921SOL    HW2 6663   1.360   2.627   0.257
 1922SOL     OW 6664   3.262   3.206   1.888
 1922SOL    HW1 6665   3.215   3.130   1.843
 1922SOL    HW2 6666   3.220   3.292   1.861
 1923SOL     OW 6667   5.314   0.385   6.140
 1923SOL    HW1 6668   5.237   0.321   6.133
 1923SOL    HW2 6669   5.297   0.450   6.214
 1924SOL     OW 6670   4.298   0.341   1.013
 1924SOL    HW1 6671   4.285   0.282   0.933
 1924SOL    HW2 6672   4.310   0.435   0.982
 1925SOL     OW 6673   1.269   4.510   1.405
 1925SOL    HW1 6674   1.269   4.479   1.500
 1925SOL    HW2 6675   1.250   4.432   1.345
 1926SOL     OW 6676   3.908   0.266   1.685
 1926SOL    HW1 6677   3.991   0.309   1.720
 1926SOL    HW2 6678   3.846   0.336   1.649
 1927SOL     OW 6679   2.426   4.584   1.378
 1927SOL    HW1 6680   2.366   4.659   1.351
 1927SOL    HW2 6681   2.384   4.496   1.355
 1928SOL     OW 6682   4.607   4.406   4.308
 1928SOL    HW1 6683   4.526   4.443   4.263
 1928SOL    HW2 6684   4.678   4.477   4.310
 1929SOL     OW 6685   2.996   1.159   2.701
 1929SOL    HW1 6686   3.031   1.151   2.794
 1929SOL    HW2 6687   2.983   1.068   2.661
 1930SOL     OW 6688   4.765   3.286   6.557
 1930SOL    HW1 6689   4.699   3.245   6.620
 1930SOL    HW2 6690   4.731   3.375   6.527
 1931SOL     OW 6691   1.002   1.630   5.938
 1931SOL    HW1 6692   0.980   1.672   5.851
 1931SOL    HW2 6693   0.979   1.693   6.013
 1932SOL     OW 6694   4.466   2.106   3.208
 1932SOL    HW1 6695   4.400   2.030   3.217
 1932SOL    HW2 6696   4.552   2.070   3.172
 1933SOL     OW 6697   0.553   2.099   0.077
 1933SOL    HW1 6698   0.528   2.012   0.034
 1933SOL    HW2 6699   0.614   2.081   0.155
 1934SOL     OW 6700   0.043   0.453   5.130
 1934SOL    HW1 6701   7.021   0.389   5.070
 1934SOL    HW2 6702   7.011   0.474   5.208
 1935SOL     OW 6703   5.296   4.720   3.488
 1935SOL    HW1 6704   5.355   4.662   3.545
 1935SOL    HW2 6705   5.278   4.675   3.401
 1936SOL     OW 6706   5.605   3.254   4.694
 1936SOL    HW1 6707   5.561   3.320   4.755
 1936SOL    HW2 6708   5.543   3.178   4.677
 1937SOL     OW 6709   4.915   5.326   6.635
 1937SOL    HW1 6710   4.847   5.256   6.659
 1937SOL    HW2 6711   4.943   5.375   6.717
 1938SOL     OW 6712   0.871   2.252   6.687
 1938SOL    HW1 6713   0.925   2.333   6.710
 1938SOL    HW2 6714   0.788   2.280   6.639
 1939SOL     OW 6715   1.095   5.716   5.088
 1939SOL    HW1 6716   1.118   5.795   5.145
 1939SOL    HW2 6717   1.056   5.644   5.145
 1940SOL     OW 6718   6.000   4.864   1.670
 1940SOL    HW1 6719   6.097   4.850   1.650
 1940SOL    HW2 6720   5.984   4.851   1.768
 1941SOL     OW 6721   0.380   2.845   4.036
 1941SOL    HW1 6722   0.364   2.747   4.051
 1941SOL    HW2 6723   0.477   2.860   4.017
 1942SOL     OW 6724   5.309   3.256   2.603
 1942SOL    HW1 6725   5.299   3.291   2.696
 1942SOL    HW2 6726   5.221   3.259   2.557
 1943SOL     OW 6727   1.499   1.099   2.274
 1943SOL    HW1 6728   1.462   1.066   2.361
 1943SOL    HW2 6729   1.534   1.193   2.286
 1944SOL     OW 6730   0.409   3.158   0.859
 1944SOL    HW1 6731   0.439   3.158   0.763
 1944SOL    HW2 6732   0.442   3.075   0.904
 1945SOL     OW 6733   4.121   6.823   0.629
 1945SOL    HW1 6734   4.059   6.766   0.574
 1945SOL    HW2 6735   4.174   6.882   0.568
 1946SOL     OW 6736   6.866   6.088   1.324
 1946SOL    HW1 6737   6.785   6.140   1.352
 1946SOL    HW2 6738   6.944   6.116   1.380
 1947SOL     OW 6739   5.571   3.843   3.120
 1947SOL    HW1 6740   5.607   3.844   3.213
 1947SOL    HW2 6741   5.536   3.934   3.097
 1948SOL     OW 6742   5.566   3.320   3.047
 1948SOL    HW1 6743   5.547   3.240   2.990
 1948SOL    HW2 6744   5.528   3.402   3.004
 1949SOL     OW 6745   3.785   4.911   0.537
 1949SOL    HW1 6746   3.774   4.833   0.476
 1949SOL    HW2 6747   3.798   4.994   0.483
 1950SOL     OW 6748   3.490   4.210   3.879
 1950SOL    HW1 6749   3.412   4.251   3.834
 1950SOL    HW2 6750   3.563   4.194   3.813
 1951SOL     OW 6751   6.401   4.939   5.762
 1951SOL    HW1 6752   6.494   4.906   5.779
 1951SOL    HW2 6753   6.347   4.931   5.846
 1952SOL     OW 6754   5.241   3.958   0.262
 1952SOL    HW1 6755   5.339   3.943   0.249
 1952SOL    HW2 6756   5.192   3.872   0.250
 1953SOL     OW 6757   0.751   1.360   6.306
 1953SOL    HW1 6758   0.715   1.448   6.274
 1953SOL    HW2 6759   0.787   1.308   6.229
 1954SOL     OW 6760   3.460   6.870   1.427
 1954SOL    HW1 6761   3.506   6.900   1.510
 1954SOL    HW2 6762   3.435   6.950   1.372
 1955SOL     OW 6763   0.967   1.819   2.190
 1955SOL    HW1 6764   0.947   1.877   2.111
 1955SOL    HW2 6765   0.987   1.726   2.159
 1956SOL     OW 6766   6.303   0.810   1.719
 1956SOL    HW1 6767   6.243   0.846   1.646
 1956SOL    HW2 6768   6.274   0.847   1.807
 1957SOL     OW 6769   5.245   2.412   3.924
 1957SOL    HW1 6770   5.292   2.369   3.847
 1957SOL    HW2 6771   5.302   2.485   3.961
 1958SOL     OW 6772   4.620   1.729   0.916
 1958SOL    HW1 6773   4.700   1.788   0.929
 1958SOL    HW2 6774   4.558   1.772   0.850
 1959SOL     OW 6775   6.644   0.124   3.826
 1959SOL    HW1 6776   6.661   0.097   3.731
 1959SOL    HW2 6777   6.663   0.047   3.886
 1960SOL     OW 6778   5.724   3.327   2.766
 1960SOL    HW1 6779   5.812   3.321   2.813
 1960SOL    HW2 6780   5.661   3.260   2.804
 1961SOL     OW 6781   6.416   4.345   5.469
 1961SOL    HW1 6782   6.367   4.366   5.385
 1961SOL    HW2 6783   6.514   4.341   5.450
 1962SOL     OW 6784   1.131   6.871   2.827
 1962SOL    HW1 6785   1.055   6.927   2.794
 1962SOL    HW2 6786   1.125   6.862   2.926
 1963SOL     OW 6787   0.944   1.832   1.755
 1963SOL    HW1 6788   0.895   1.852   1.669
 1963SOL    HW2 6789   1.019   1.769   1.736
 1964SOL     OW 6790   5.506   4.432   2.057
 1964SOL    HW1 6791   5.479   4.493   2.132
 1964SOL    HW2 6792   5.470   4.340   2.074
 1965SOL     OW 6793   0.336   4.697   4.087
 1965SOL    HW1 6794   0.400   4.630   4.125
 1965SOL    HW2 6795   0.386   4.761   4.029
 1966SOL     OW 6796   1.642   4.562   1.002
 1966SOL    HW1 6797   1.700   4.580   1.082
 1966SOL    HW2 6798   1.590   4.644   0.980
 1967SOL     OW 6799   6.244   2.773   3.245
 1967SOL    HW1 6800   6.194   2.821   3.316
 1967SOL    HW2 6801   6.338   2.809   3.240
 1968SOL     OW 6802   2.321   1.176   5.520
 1968SOL    HW1 6803   2.364   1.117   5.588
 1968SOL    HW2 6804   2.229   1.201   5.551
 1969SOL     OW 6805   2.860   6.679   0.729
 1969SOL    HW1 6806   2.940   6.668   0.669
 1969SOL    HW2 6807   2.889   6.722   0.814
 1970SOL     OW 6808   6.291   5.812   4.981
 1970SOL    HW1 6809   6.328   5.900   4.951
 1970SOL    HW2 6810   6.221   5.781   4.917
 1971SOL     OW 6811   1.559   6.757   5.575
 1971SOL    HW1 6812   1.579   6.739   5.671
 1971SOL    HW2 6813   1.606   6.841   5.546
 1972SOL     OW 6814   6.067   2.687   1.596
 1972SOL    HW1 6815   6.098   2.668   1.503
 1972SOL    HW2 6816   6.141   2.668   1.660
 1973SOL     OW 6817   2.003   4.193   0.841
 1973SOL    HW1 6818   1.978   4.156   0.752
 1973SOL    HW2 6819   2.094   4.159   0.867
 1974SOL     OW 6820   3.685   6.709   5.081
 1974SOL    HW1 6821   3.749   6.777   5.047
 1974SOL    HW2 6822   3.727   6.658   5.157
 1975SOL     OW 6823   1.532   3.102   3.080
 1975SOL    HW1 6824   1.537   3.202   3.081
 1975SOL    HW2 6825   1.618   3.064   3.046
 1976SOL     OW 6826   0.056   0.309   5.908
 1976SOL    HW1 6827   6.994   0.354   5.923
 1976SOL    HW2 6828   0.106   0.302   5.995
 1977SOL     OW 6829   1.787   4.004   6.673
 1977SOL    HW1 6830   1.725   3.930   6.648
 1977SOL    HW2 6831   1.772   4.083   6.613
 1978SOL     OW 6832   2.446   6.782   2.229
 1978SOL    HW1 6833   2.472   6.690   2.200
 1978SOL    HW2 6834   2.451   6.788   2.329
 1979SOL     OW 6835   6.143   5.622   6.477
 1979SOL    HW1 6836   6.113   5.717   6.467
 1979SOL    HW2 6837   6.083   5.575   6.542
 1980SOL     OW 6838   2.952   1.788   2.075
 1980SOL    HW1 6839   3.012   1.860   2.109
 1980SOL    HW2 6840   2.950   1.789   1.975
 1981SOL     OW 6841   4.513   2.556   3.244
 1981SOL    HW1 6842   4.592   2.608   3.278
 1981SOL    HW2 6843   4.436   2.618   3.229
 1982SOL     OW 6844   6.565   2.697   3.968
 1982SOL    HW1 6845   6.654   2.718   4.007
 1982SOL    HW2 6846   6.494   2.749   4.015
 1983SOL     OW 6847   6.968   0.086   1.317
 1983SOL    HW1 6848   7.013   0.162   1.270
 1983SOL    HW2 6849   6.875   0.075   1.280
 1984SOL     OW 6850   5.981   3.118   5.556
 1984SOL    HW1 6851   6.055   3.066   5.512
 1984SOL    HW2 6852   6.002   3.129   5.653
 1985SOL     OW 6853   6.342   4.777   2.050
 1985SOL    HW1 6854   6.382   4.796   1.960
 1985SOL    HW2 6855   6.416   4.763   2.116
 1986SOL     OW 6856   3.446   1.766   0.697
 1986SOL    HW1 6857   3.416   1.823   0.621
 1986SOL    HW2 6858   3.475   1.824   0.773
 1987SOL     OW 6859   1.766   0.027   3.122
 1987SOL    HW1 6860   1.798   0.120   3.143
 1987SOL    HW2 6861   1.683   0.032   3.067
 1988SOL     OW 6862   0.079   2.155   1.572
 1988SOL    HW1 6863   0.002   2.147   1.635
 1988SOL    HW2 6864   0.055   2.114   1.484
 1989SOL     OW 6865   3.015   5.074   5.153
 1989SOL    HW1 6866   2.921   5.094   5.126
 1989SOL    HW2 6867   3.026   4.975   5.164
 1990SOL     OW 6868   3.566   0.374   0.362
 1990SOL    HW1 6869   3.512   0.458   0.366
 1990SOL    HW2 6870   3.572   0.342   0.267
 1991SOL     OW 6871   3.147   5.449   0.427
 1991SOL    HW1 6872   3.124   5.522   0.491
 1991SOL    HW2 6873   3.247   5.436   0.427
 1992SOL     OW 6874   0.572   6.231   0.412
 1992SOL    HW1 6875   0.506   6.157   0.417
 1992SOL    HW2 6876   0.544   6.305   0.473
 1993SOL     OW 6877   2.104   3.593   4.557
 1993SOL    HW1 6878   2.024   3.536   4.539
 1993SOL    HW2 6879   2.183   3.558   4.505
 1994SOL     OW 6880   3.365   3.547   0.210
 1994SOL    HW1 6881   3.373   3.647   0.204
 1994SOL    HW2 6882   3.401   3.516   0.298
 1995SOL     OW 6883   5.501   2.839   4.515
 1995SOL    HW1 6884   5.448   2.849   4.600
 1995SOL    HW2 6885   5.517   2.742   4.497
 1996SOL     OW 6886   3.567   1.450   0.875
 1996SOL    HW1 6887   3.628   1.528   0.890
 1996SOL    HW2 6888   3.522   1.460   0.786
 1997SOL     OW 6889   3.274   1.143   3.432
 1997SOL    HW1 6890   3.178   1.170   3.424
 1997SOL    HW2 6891   3.283   1.074   3.503
 1998SOL     OW 6892   1.220   3.174   1.746
 1998SOL    HW1 6893   1.309   3.217   1.761
 1998SOL    HW2 6894   1.152   3.217   1.806
 1999SOL     OW 6895   1.061   7.003   5.082
 1999SOL    HW1 6896   1.126   6.983   5.008
 1999SOL    HW2 6897   1.087   0.062   5.128
 2000SOL     OW 6898   3.627   3.580   6.758
 2000SOL    HW1 6899   3.691   3.503   6.750
 2000SOL    HW2 6900   3.611   3.601   6.854
 2001SOL     OW 6901   2.202   1.591   6.373
 2001SOL    HW1 6902   2.153   1.506   6.352
 2001SOL    HW2 6903   2.300   1.573   6.376
 2002SOL     OW 6904   6.688   5.084   1.053
 2002SOL    HW1 6905   6.633   5.006   1.084
 2002SOL    HW2 6906   6.642   5.169   1.079
 2003SOL     OW 6907   6.433   5.135   2.300
 2003SOL    HW1 6908   6.521   5.180   2.285
 2003SOL    HW2 6909   6.359   5.202   2.289
 2004SOL     OW 6910   3.406   0.885   3.225
 2004SOL    HW1 6911   3.471   0.956   3.253
 2004SOL    HW2 6912   3.445   0.832   3.149
 2005SOL     OW 6913   1.180   6.224   0.537
 2005SOL    HW1 6914   1.104   6.163   0.511
 2005SOL    HW2 6915   1.158   6.318   0.510
 2006SOL     OW 6916   5.086   6.909   3.177
 2006SOL    HW1 6917   5.043   6.830   3.221
 2006SOL    HW2 6918   5.042   6.993   3.210
 2007SOL     OW 6919   5.382   4.389   0.309
 2007SOL    HW1 6920   5.374   4.442   0.224
 2007SOL    HW2 6921   5.298   4.338   0.325
 2008SOL     OW 6922   2.177   4.100   3.501
 2008SOL    HW1 6923   2.216   4.101   3.593
 2008SOL    HW2 6924   2.241   4.141   3.437
 2009SOL     OW 6925   6.754   6.041   2.036
 2009SOL    HW1 6926   6.785   6.115   2.097
 2009SOL    HW2 6927   6.827   6.019   1.972
 2010SOL     OW 6928   1.576   2.498   1.665
 2010SOL    HW1 6929   1.668   2.528   1.690
 2010SOL    HW2 6930   1.545   2.548   1.584
 2011SOL     OW 6931   0.230   6.086   5.721
 2011SOL    HW1 6932   0.135   6.077   5.750
 2011SOL    HW2 6933   0.277   5.998   5.731
 2012SOL     OW 6934   1.261   3.110   2.930
 2012SOL    HW1 6935   1.180   3.052   2.941
 2012SOL    HW2 6936   1.340   3.053   2.906
 2013SOL     OW 6937   0.635   3.250   3.227
 2013SOL    HW1 6938   0.694   3.201   3.291
 2013SOL    HW2 6939   0.590   3.325   3.275
 2014SOL     OW 6940   2.962   0.573   4.012
 2014SOL    HW1 6941   2.871   0.531   4.001
 2014SOL    HW2 6942   3.030   0.502   4.025
 2015SOL     OW 6943   3.899   0.609   1.600
 2015SOL    HW1 6944   3.911   0.632   1.696
 2015SOL    HW2 6945   3.979   0.559   1.567
 2016SOL     OW 6946   1.738   0.040   6.205
 2016SOL    HW1 6947   1.644   0.028   6.238
 2016SOL    HW2 6948   1.737   0.061   6.107
 2017SOL     OW 6949   3.825   0.147   2.769
 2017SOL    HW1 6950   3.836   0.205   2.688
 2017SOL    HW2 6951   3.823   0.051   2.741
 2018SOL     OW 6952   0.810   1.255   3.186
 2018SOL    HW1 6953   0.773   1.288   3.098
 2018SOL    HW2 6954   0.796   1.325   3.256
 2019SOL     OW 6955   6.077   4.822   6.408
 2019SOL    HW1 6956   6.010   4.778   6.467
 2019SOL    HW2 6957   6.030   4.860   6.327
 2020SOL     OW 6958   1.660   6.622   6.238
 2020SOL    HW1 6959   1.620   6.547   6.291
 2020SOL    HW2 6960   1.641   6.709   6.284
 2021SOL     OW 6961   6.031   6.198   3.513
 2021SOL    HW1 6962   6.095   6.130   3.478
 2021SOL    HW2 6963   5.963   6.220   3.443
 2022SOL     OW 6964   2.184   4.362   4.939
 2022SOL    HW1 6965   2.259   4.412   4.983
 2022SOL    HW2 6966   2.222   4.287   4.885
 2023SOL     OW 6967   0.063   6.896   6.886
 2023SOL    HW1 6968   0.078   6.949   6.969
 2023SOL    HW2 6969   0.030   6.804   6.911
 2024SOL     OW 6970   0.583   5.675   4.843
 2024SOL    HW1 6971   0.658   5.619   4.878
 2024SOL    HW2 6972   0.541   5.725   4.918
 2025SOL     OW 6973   2.469   0.197   4.891
 2025SOL    HW1 6974   2.529   0.269   4.854
 2025SOL    HW2 6975   2.380   0.236   4.913
 2026SOL     OW 6976   6.502   1.169   6.204
 2026SOL    HW1 6977   6.436   1.112   6.253
 2026SOL    HW2 6978   6.453   1.234   6.147
 2027SOL     OW 6979   0.350   6.007   2.582
 2027SOL    HW1 6980   0.300   5.996   2.496
 2027SOL    HW2 6981   0.327   6.095   2.623
 2028SOL     OW 6982   4.064   5.888   2.872
 2028SOL    HW1 6983   4.009   5.968   2.894
 2028SOL    HW2 6984   4.094   5.894   2.776
 2029SOL     OW 6985   6.490   2.898   6.075
 2029SOL    HW1 6986   6.523   2.871   5.984
 2029SOL    HW2 6987   6.467   2.995   6.074
 2030SOL     OW 6988   2.373   6.109   3.335
 2030SOL    HW1 6989   2.473   6.115   3.336
 2030SOL    HW2 6990   2.343   6.063   3.251
 2031SOL     OW 6991   6.320   5.480   3.364
 2031SOL    HW1 6992   6.265   5.409   3.321
 2031SOL    HW2 6993   6.350   5.448   3.454
 2032SOL     OW 6994   3.012   1.852   6.243
 2032SOL    HW1 6995   3.024   1.753   6.255
 2032SOL    HW2 6996   3.096   1.891   6.206
 2033SOL     OW 6997   1.851   1.464   1.173
 2033SOL    HW1 6998   1.789   1.526   1.221
 2033SOL    HW2 6999   1.854   1.377   1.221
 2034SOL     OW 7000   6.926   4.171   5.887
 2034SOL    HW1 7001   7.001   4.114   5.921
 2034SOL    HW2 7002   6.895   4.233   5.959
 2035SOL     OW 7003   5.781   6.872   2.371
 2035SOL    HW1 7004   5.770   6.777   2.400
 2035SOL    HW2 7005   5.725   6.931   2.429
 2036SOL     OW 7006   0.997   3.891   2.317
 2036SOL    HW1 7007   1.022   3.956   2.245
 2036SOL    HW2 7008   1.066   3.818   2.321
 2037SOL     OW 7009   0.380   3.096   6.598
 2037SOL    HW1 7010   0.354   3.010   6.641
 2037SOL    HW2 7011   0.441   3.147   6.659
 2038SOL     OW 7012   2.214   1.073   0.508
 2038SOL    HW1 7013   2.197   1.027   0.595
 2038SOL    HW2 7014   2.313   1.082   0.494
 2039SOL     OW 7015   6.424   5.966   2.289
 2039SOL    HW1 7016   6.505   5.961   2.230
 2039SOL    HW2 7017   6.349   5.915   2.245
 2040SOL     OW 7018   2.304   2.951   6.979
 2040SOL    HW1 7019   2.385   3.006   6.962
 2040SOL    HW2 7020   2.248   2.993   0.025
 2041SOL     OW 7021   1.813   0.268   6.337
 2041SOL    HW1 7022   1.734   0.329   6.336
 2041SOL    HW2 7023   1.783   0.173   6.327
 2042SOL     OW 7024   4.865   1.166   5.151
 2042SOL    HW1 7025   4.925   1.101   5.105
 2042SOL    HW2 7026   4.793   1.196   5.088
 2043SOL     OW 7027   6.214   4.127   0.845
 2043SOL    HW1 7028   6.200   4.087   0.754
 2043SOL    HW2 7029   6.135   4.182   0.870
 2044SOL     OW 7030   4.826   0.600   0.629
 2044SOL    HW1 7031   4.772   0.684   0.634
 2044SOL    HW2 7032   4.768   0.523   0.657
 2045SOL     OW 7033   1.801   6.186   6.566
 2045SOL    HW1 7034   1.828   6.275   6.530
 2045SOL    HW2 7035   1.841   6.114   6.510
 2046SOL     OW 7036   1.177   2.555   4.830
 2046SOL    HW1 7037   1.152   2.523   4.738
 2046SOL    HW2 7038   1.224   2.482   4.879
 2047SOL     OW 7039   6.848   1.302   6.873
 2047SOL    HW1 7040   6.862   1.256   6.961
 2047SOL    HW2 7041   6.790   1.382   6.886
 2048SOL     OW 7042   1.092   1.532   4.268
 2048SOL    HW1 7043   1.002   1.575   4.266
 2048SOL    HW2 7044   1.154   1.586   4.324
 2049SOL     OW 7045   4.932   1.498   4.936
 2049SOL    HW1 7046   4.942   1.576   4.998
 2049SOL    HW2 7047   4.957   1.526   4.843
 2050SOL     OW 7048   0.592   1.117   4.024
 2050SOL    HW1 7049   0.495   1.095   4.030
 2050SOL    HW2 7050   0.644   1.034   4.006
 2051SOL     OW 7051   3.454   6.103   1.009
 2051SOL    HW1 7052   3.494   6.153   0.932
 2051SOL    HW2 7053   3.468   6.156   1.093
 2052SOL     OW 7054   1.570   4.168   6.776
 2052SOL    HW1 7055   1.566   4.267   6.789
 2052SOL    HW2 7056   1.664   4.136   6.784
 2053SOL     OW 7057   1.039   5.150   4.009
 2053SOL    HW1 7058   0.963   5.100   3.967
 2053SOL    HW2 7059   1.081   5.093   4.080
 2054SOL     OW 7060   3.474   3.178   3.484
 2054SOL    HW1 7061   3.487   3.081   3.507
 2054SOL    HW2 7062   3.462   3.187   3.385
 2055SOL     OW 7063   2.801   2.278   5.752
 2055SOL    HW1 7064   2.771   2.275   5.657
 2055SOL    HW2 7065   2.779   2.368   5.791
 2056SOL     OW 7066   4.071   4.804   1.087
 2056SOL    HW1 7067   4.048   4.719   1.039
 2056SOL    HW2 7068   4.167   4.826   1.072
 2057SOL     OW 7069   5.975   2.405   4.300
 2057SOL    HW1 7070   5.947   2.424   4.206
 2057SOL    HW2 7071   5.949   2.481   4.359
 2058SOL     OW 7072   0.403   5.771   3.263
 2058SOL    HW1 7073   0.442   5.768   3.355
 2058SOL    HW2 7074   0.444   5.700   3.207
 2059SOL     OW 7075   1.501   6.907   6.064
 2059SOL    HW1 7076   1.589   6.953   6.050
 2059SOL    HW2 7077   1.475   6.913   6.161
 2060SOL     OW 7078   1.297   3.597   6.982
 2060SOL    HW1 7079   1.277   3.673   6.920
 2060SOL    HW2 7080   1.268   3.621   0.049
 2061SOL     OW 7081   2.058   2.382   2.688
 2061SOL    HW1 7082   2.111   2.430   2.759
 2061SOL    HW2 7083   2.039   2.446   2.613
 2062SOL     OW 7084   6.443   5.143   5.268
 2062SOL    HW1 7085   6.391   5.149   5.353
 2062SOL    HW2 7086   6.394   5.192   5.196
 2063SOL     OW 7087   1.554   0.764   5.431
 2063SOL    HW1 7088   1.604   0.812   5.502
 2063SOL    HW2 7089   1.496   0.829   5.381
 2064SOL     OW 7090   0.440   3.113   3.479
 2064SOL    HW1 7091   0.429   3.035   3.541
 2064SOL    HW2 7092   0.354   3.127   3.429
 2065SOL     OW 7093   4.550   2.921   5.596
 2065SOL    HW1 7094   4.644   2.911   5.628
 2065SOL    HW2 7095   4.502   2.987   5.654
 2066SOL     OW 7096   6.404   3.014   5.223
 2066SOL    HW1 7097   6.409   3.112   5.202
 2066SOL    HW2 7098   6.479   2.988   5.283
 2067SOL     OW 7099   6.513   4.891   1.109
 2067SOL    HW1 7100   6.510   4.880   1.010
 2067SOL    HW2 7101   6.422   4.877   1.147
 2068SOL     OW 7102   3.745   0.658   4.206
 2068SOL    HW1 7103   3.835   0.701   4.202
 2068SOL    HW2 7104   3.714   0.653   4.301
 2069SOL     OW 7105   0.154   2.410   3.622
 2069SOL    HW1 7106   0.214   2.481   3.659
 2069SOL    HW2 7107   0.062   2.422   3.659
 2070SOL     OW 7108   0.457   4.414   1.878
 2070SOL    HW1 7109   0.520   4.454   1.945
 2070SOL    HW2 7110   0.477   4.316   1.868
 2071SOL     OW 7111   6.775   1.411   5.754
 2071SOL    HW1 7112   6.785   1.454   5.843
 2071SOL    HW2 7113   6.846   1.446   5.692
 2072SOL     OW 7114   4.065   4.743   5.676
 2072SOL    HW1 7115   4.037   4.726   5.770
 2072SOL    HW2 7116   4.161   4.718   5.664
 2073SOL     OW 7117   3.371   6.102   0.319
 2073SOL    HW1 7118   3.407   6.101   0.413
 2073SOL    HW2 7119   3.272   6.091   0.322
 2074SOL     OW 7120   1.266   3.692   5.537
 2074SOL    HW1 7121   1.296   3.692   5.632
 2074SOL    HW2 7122   1.166   3.699   5.533
 2075SOL     OW 7123   6.585   1.921   1.487
 2075SOL    HW1 7124   6.551   2.009   1.520
 2075SOL    HW2 7125   6.511   1.854   1.484
 2076SOL     OW 7126   5.075   6.784   4.602
 2076SOL    HW1 7127   5.017   6.861   4.628
 2076SOL    HW2 7128   5.060   6.708   4.666
 2077SOL     OW 7129   6.947   4.211   0.893
 2077SOL    HW1 7130   6.874   4.238   0.830
 2077SOL    HW2 7131   6.921   4.238   0.986
 2078SOL     OW 7132   1.310   3.258   5.730
 2078SOL    HW1 7133   1.330   3.321   5.806
 2078SOL    HW2 7134   1.386   3.194   5.719
 2079SOL     OW 7135   4.927   1.981   2.286
 2079SOL    HW1 7136   4.945   2.022   2.197
 2079SOL    HW2 7137   4.972   1.892   2.291
 2080SOL     OW 7138   2.371   3.372   5.601
 2080SOL    HW1 7139   2.394   3.334   5.512
 2080SOL    HW2 7140   2.405   3.466   5.607
 2081SOL     OW 7141   6.287   0.025   3.096
 2081SOL    HW1 7142   6.280   6.951   3.095
 2081SOL    HW2 7143   6.332   0.056   3.012
 2082SOL     OW 7144   0.138   6.406   2.501
 2082SOL    HW1 7145   0.231   6.379   2.526
 2082SOL    HW2 7146   0.072   6.350   2.552
 2083SOL     OW 7147   0.181   6.028   4.132
 2083SOL    HW1 7148   0.120   6.092   4.179
 2083SOL    HW2 7149   0.272   6.031   4.173
 2084SOL     OW 7150   0.263   2.631   2.256
 2084SOL    HW1 7151   0.231   2.669   2.169
 2084SOL    HW2 7152   0.188   2.627   2.321
 2085SOL     OW 7153   5.088   5.500   0.770
 2085SOL    HW1 7154   5.045   5.462   0.852
 2085SOL    HW2 7155   5.092   5.431   0.698
 2086SOL     OW 7156   4.449   0.193   6.827
 2086SOL    HW1 7157   4.363   0.165   6.786
 2086SOL    HW2 7158   4.432   0.263   6.896
 2087SOL     OW 7159   4.587   2.399   6.851
 2087SOL    HW1 7160   4.518   2.463   6.817
 2087SOL    HW2 7161   4.619   2.342   6.776
 2088SOL     OW 7162   0.231   5.791   5.222
 2088SOL    HW1 7163   0.256   5.695   5.232
 2088SOL    HW2 7164   0.312   5.845   5.199
 2089SOL     OW 7165   3.240   3.537   6.805
 2089SOL    HW1 7166   3.282   3.528   6.714
 2089SOL    HW2 7167   3.159   3.595   6.799
 2090SOL     OW 7168   4.441   3.525   5.262
 2090SOL    HW1 7169   4.527   3.545   5.216
 2090SOL    HW2 7170   4.438   3.428   5.287
 2091SOL     OW 7171   6.075   5.650   1.739
 2091SOL    HW1 7172   6.005   5.718   1.760
 2091SOL    HW2 7173   6.134   5.638   1.819
 2092SOL     OW 7174   4.805   3.530   1.502
 2092SOL    HW1 7175   4.837   3.447   1.455
 2092SOL    HW2 7176   4.881   3.595   1.507
 2093SOL     OW 7177   3.930   1.899   3.043
 2093SOL    HW1 7178   3.871   1.885   2.964
 2093SOL    HW2 7179   4.025   1.906   3.013
 2094SOL     OW 7180   5.441   2.515   6.410
 2094SOL    HW1 7181   5.431   2.480   6.317
 2094SOL    HW2 7182   5.362   2.573   6.432
 2095SOL     OW 7183   5.341   6.474   3.606
 2095SOL    HW1 7184   5.316   6.551   3.548
 2095SOL    HW2 7185   5.313   6.389   3.562
 2096SOL     OW 7186   4.860   6.640   2.455
 2096SOL    HW1 7187   4.924   6.565   2.472
 2096SOL    HW2 7188   4.895   6.723   2.499
 2097SOL     OW 7189   1.262   4.936   6.548
 2097SOL    HW1 7190   1.275   5.020   6.600
 2097SOL    HW2 7191   1.239   4.958   6.453
 2098SOL     OW 7192   3.318   6.246   3.273
 2098SOL    HW1 7193   3.372   6.314   3.224
 2098SOL    HW2 7194   3.350   6.240   3.368
 2099SOL     OW 7195   5.522   1.142   6.980
 2099SOL    HW1 7196   5.463   1.157   0.034
 2099SOL    HW2 7197   5.537   1.229   6.933
 2100SOL     OW 7198   5.574   0.714   1.150
 2100SOL    HW1 7199   5.608   0.784   1.087
 2100SOL    HW2 7200   5.489   0.744   1.192
 2101SOL     OW 7201   6.998   6.553   1.911
 2101SOL    HW1 7202   0.071   6.544   1.902
 2101SOL    HW2 7203   6.976   6.640   1.956
 2102SOL     OW 7204   3.492   3.514   0.451
 2102SOL    HW1 7205   3.525   3.536   0.543
 2102SOL    HW2 7206   3.569   3.514   0.387
 2103SOL     OW 7207   2.968   6.249   1.058
 2103SOL    HW1 7208   3.012   6.163   1.033
 2103SOL    HW2 7209   2.955   6.305   0.976
 2104SOL     OW 7210   1.294   5.199   2.673
 2104SOL    HW1 7211   1.341   5.239   2.752
 2104SOL    HW2 7212   1.308   5.100   2.672
 2105SOL     OW 7213   5.947   3.983   6.456
 2105SOL    HW1 7214   5.980   4.007   6.364
 2105SOL    HW2 7215   5.859   4.026   6.472
 2106SOL     OW 7216   4.968   3.744   1.574
 2106SOL    HW1 7217   5.038   3.779   1.636
 2106SOL    HW2 7218   4.896   3.813   1.562
 2107SOL     OW 7219   5.698   3.399   5.593
 2107SOL    HW1 7220   5.635   3.388   5.516
 2107SOL    HW2 7221   5.780   3.446   5.562
 2108SOL     OW 7222   5.969   0.694   5.903
 2108SOL    HW1 7223   6.011   0.718   5.990
 2108SOL    HW2 7224   5.872   0.672   5.917
 2109SOL     OW 7225   2.119   6.097   3.515
 2109SOL    HW1 7226   2.192   6.136   3.458
 2109SOL    HW2 7227   2.160   6.037   3.583
 2110SOL     OW 7228   4.581   0.557   6.751
 2110SOL    HW1 7229   4.678   0.536   6.750
 2110SOL    HW2 7230   4.539   0.527   6.665
 2111SOL     OW 7231   1.215   2.102   5.606
 2111SOL    HW1 7232   1.186   2.161   5.531
 2111SOL    HW2 7233   1.315   2.101   5.611
 2112SOL     OW 7234   0.123   1.114   0.216
 2112SOL    HW1 7235   0.138   1.213   0.225
 2112SOL    HW2 7236   0.134   1.088   0.120
 2113SOL     OW 7237   1.098   0.017   4.509
 2113SOL    HW1 7238   1.136   0.109   4.518
 2113SOL    HW2 7239   1.005   0.024   4.473
 2114SOL     OW 7240   1.923   2.174   6.026
 2114SOL    HW1 7241   2.021   2.167   6.045
 2114SOL    HW2 7242   1.872   2.129   6.099
 2115SOL     OW 7243   6.268   5.734   3.017
 2115SOL    HW1 7244   6.239   5.777   3.102
 2115SOL    HW2 7245   6.326   5.655   3.037
 2116SOL     OW 7246   0.272   2.539   6.901
 2116SOL    HW1 7247   0.362   2.551   6.943
 2116SOL    HW2 7248   0.242   2.445   6.913
 2117SOL     OW 7249   5.956   1.131   1.929
 2117SOL    HW1 7250   5.993   1.187   2.003
 2117SOL    HW2 7251   6.030   1.102   1.868
 2118SOL     OW 7252   6.366   2.570   2.112
 2118SOL    HW1 7253   6.341   2.485   2.066
 2118SOL    HW2 7254   6.395   2.551   2.206
 2119SOL     OW 7255   3.139   0.977   0.147
 2119SOL    HW1 7256   3.212   0.910   0.158
 2119SOL    HW2 7257   3.173   1.055   0.094
 2120SOL     OW 7258   5.601   1.773   0.917
 2120SOL    HW1 7259   5.672   1.795   0.850
 2120SOL    HW2 7260   5.580   1.675   0.914
 2121SOL     OW 7261   1.540   0.338   6.708
 2121SOL    HW1 7262   1.549   0.437   6.700
 2121SOL    HW2 7263   1.568   0.310   6.799
 2122SOL     OW 7264   6.062   1.189   4.512
 2122SOL    HW1 7265   6.069   1.091   4.498
 2122SOL    HW2 7266   5.966   1.215   4.520
 2123SOL     OW 7267   1.740   5.951   3.238
 2123SOL    HW1 7268   1.766   5.856   3.223
 2123SOL    HW2 7269   1.818   6.002   3.275
 2124SOL     OW 7270   3.909   3.421   5.854
 2124SOL    HW1 7271   3.828   3.465   5.815
 2124SOL    HW2 7272   3.992   3.464   5.818
 2125SOL     OW 7273   1.317   5.692   3.774
 2125SOL    HW1 7274   1.401   5.650   3.740
 2125SOL    HW2 7275   1.244   5.680   3.707
 2126SOL     OW 7276   3.497   4.224   6.754
 2126SOL    HW1 7277   3.480   4.260   6.845
 2126SOL    HW2 7278   3.509   4.124   6.759
 2127SOL     OW 7279   0.769   2.437   5.149
 2127SOL    HW1 7280   0.868   2.451   5.148
 2127SOL    HW2 7281   0.727   2.495   5.079
 2128SOL     OW 7282   5.223   2.898   2.154
 2128SOL    HW1 7283   5.237   2.924   2.058
 2128SOL    HW2 7284   5.163   2.819   2.159
 2129SOL     OW 7285   5.114   4.654   3.725
 2129SOL    HW1 7286   5.072   4.564   3.734
 2129SOL    HW2 7287   5.151   4.665   3.633
 2130SOL     OW 7288   2.495   0.803   2.974
 2130SOL    HW1 7289   2.463   0.815   2.880
 2130SOL    HW2 7290   2.486   0.707   3.000
 2131SOL     OW 7291   5.723   1.556   5.480
 2131SOL    HW1 7292   5.649   1.613   5.515
 2131SOL    HW2 7293   5.696   1.460   5.483
 2132SOL     OW 7294   3.003   2.318   0.016
 2132SOL    HW1 7295   3.033   2.410   7.017
 2132SOL    HW2 7296   3.042   2.252   6.976
 2133SOL     OW 7297   2.762   2.166   1.905
 2133SOL    HW1 7298   2.830   2.234   1.933
 2133SOL    HW2 7299   2.761   2.091   1.971
 2134SOL     OW 7300   0.844   6.682   5.003
 2134SOL    HW1 7301   0.822   6.731   5.087
 2134SOL    HW2 7302   0.759   6.660   4.954
 2135SOL     OW 7303   0.896   0.973   3.249
 2135SOL    HW1 7304   0.974   0.937   3.198
 2135SOL    HW2 7305   0.889   1.071   3.233
 2136SOL     OW 7306   0.659   4.175   3.586
 2136SOL    HW1 7307   0.650   4.190   3.684
 2136SOL    HW2 7308   0.586   4.114   3.554
 2137SOL     OW 7309   1.356   0.474   5.024
 2137SOL    HW1 7310   1.365   0.535   5.103
 2137SOL    HW2 7311   1.259   0.452   5.011
 2138SOL     OW 7312   0.634   2.711   0.737
 2138SOL    HW1 7313   0.682   2.687   0.821
 2138SOL    HW2 7314   0.639   2.635   0.672
 2139SOL     OW 7315   2.906   1.261   5.657
 2139SOL    HW1 7316   2.919   1.337   5.593
 2139SOL    HW2 7317   2.995   1.231   5.691
 2140SOL     OW 7318   2.310   5.571   2.832
 2140SOL    HW1 7319   2.348   5.478   2.829
 2140SOL    HW2 7320   2.223   5.572   2.783
 2141SOL     OW 7321   5.499   2.408   0.887
 2141SOL    HW1 7322   5.584   2.365   0.856
 2141SOL    HW2 7323   5.442   2.339   0.932
 2142SOL     OW 7324   1.909   2.231   3.168
 2142SOL    HW1 7325   1.945   2.204   3.258
 2142SOL    HW2 7326   1.980   2.280   3.117
 2143SOL     OW 7327   2.815   6.882   1.088
 2143SOL    HW1 7328   2.909   6.907   1.110
 2143SOL    HW2 7329   2.761   6.879   1.173
 2144SOL     OW 7330   0.453   1.110   3.000
 2144SOL    HW1 7331   0.464   1.161   3.086
 2144SOL    HW2 7332   0.359   1.077   2.993
 2145SOL     OW 7333   4.069   5.134   3.116
 2145SOL    HW1 7334   4.007   5.059   3.140
 2145SOL    HW2 7335   4.073   5.200   3.191
 2146SOL     OW 7336   4.032   3.181   2.998
 2146SOL    HW1 7337   4.059   3.141   3.086
 2146SOL    HW2 7338   3.960   3.249   3.013
 2147SOL     OW 7339   1.132   0.707   5.290
 2147SOL    HW1 7340   1.087   0.691   5.378
 2147SOL    HW2 7341   1.119   0.803   5.263
 2148SOL     OW 7342   4.921   3.397   2.739
 2148SOL    HW1 7343   4.969   3.444   2.813
 2148SOL    HW2 7344   4.901   3.461   2.666
 2149SOL     OW 7345   4.176   0.928   2.890
 2149SOL    HW1 7346   4.187   0.927   2.791
 2149SOL    HW2 7347   4.157   0.835   2.923
 2150SOL     OW 7348   3.146   2.008   3.315
 2150SOL    HW1 7349   3.219   1.981   3.377
 2150SOL    HW2 7350   3.186   2.032   3.226
 2151SOL     OW 7351   3.698   2.965   5.471
 2151SOL    HW1 7352   3.605   2.979   5.436
 2151SOL    HW2 7353   3.761   2.953   5.395
 2152SOL     OW 7354   6.109   6.043   1.498
 2152SOL    HW1 7355   6.025   6.075   1.541
 2152SOL    HW2 7356   6.100   5.946   1.474
 2153SOL     OW 7357   4.724   2.697   3.314
 2153SOL    HW1 7358   4.747   2.752   3.234
 2153SOL    HW2 7359   4.787   2.717   3.389
 2154SOL     OW 7360   3.986   6.249   5.174
 2154SOL    HW1 7361   4.051   6.173   5.173
 2154SOL    HW2 7362   3.965   6.274   5.268
 2155SOL     OW 7363   6.913   3.907   0.320
 2155SOL    HW1 7364   6.929   3.966   0.240
 2155SOL    HW2 7365   6.925   3.811   0.293
 2156SOL     OW 7366   2.209   0.238   1.866
 2156SOL    HW1 7367   2.167   0.231   1.775
 2156SOL    HW2 7368   2.167   0.314   1.916
 2157SOL     OW 7369   1.256   1.548   4.971
 2157SOL    HW1 7370   1.353   1.523   4.978
 2157SOL    HW2 7371   1.245   1.624   4.907
 2158SOL     OW 7372   3.158   6.590   1.845
 2158SOL    HW1 7373   3.242   6.569   1.795
 2158SOL    HW2 7374   3.167   6.678   1.891
 2159SOL     OW 7375   1.598   6.426   4.765
 2159SOL    HW1 7376   1.576   6.521   4.745
 2159SOL    HW2 7377   1.689   6.420   4.804
 2160SOL     OW 7378   3.018   3.970   1.014
 2160SOL    HW1 7379   2.966   3.951   1.097
 2160SOL    HW2 7380   2.968   4.036   0.958
 2161SOL     OW 7381   5.246   2.425   3.359
 2161SOL    HW1 7382   5.223   2.335   3.395
 2161SOL    HW2 7383   5.190   2.494   3.405
 2162SOL     OW 7384   1.008   0.571   6.792
 2162SOL    HW1 7385   1.095   0.551   6.835
 2162SOL    HW2 7386   0.936   0.571   6.861
 2163SOL     OW 7387   1.866   1.747   0.681
 2163SOL    HW1 7388   1.831   1.685   0.612
 2163SOL    HW2 7389   1.869   1.701   0.769
 2164SOL     OW 7390   0.935   1.036   0.350
 2164SOL    HW1 7391   0.905   1.082   0.433
 2164SOL    HW2 7392   1.035   1.036   0.346
 2165SOL     OW 7393   2.350   0.100   2.643
 2165SOL    HW1 7394   2.393   0.019   2.684
 2165SOL    HW2 7395   2.364   0.179   2.702
 2166SOL     OW 7396   6.989   2.909   6.471
 2166SOL    HW1 7397   7.025   2.996   6.439
 2166SOL    HW2 7398   0.030   2.837   6.452
 2167SOL     OW 7399   3.308   0.373   2.573
 2167SOL    HW1 7400   3.258   0.460   2.572
 2167SOL    HW2 7401   3.299   0.328   2.484
 2168SOL     OW 7402   5.614   4.868   4.995
 2168SOL    HW1 7403   5.673   4.869   4.915
 2168SOL    HW2 7404   5.653   4.925   5.067
 2169SOL     OW 7405   5.033   1.894   6.030
 2169SOL    HW1 7406   5.016   1.894   6.128
 2169SOL    HW2 7407   5.120   1.938   6.011
 2170SOL     OW 7408   4.052   4.912   4.507
 2170SOL    HW1 7409   4.107   4.915   4.423
 2170SOL    HW2 7410   3.958   4.941   4.487
 2171SOL     OW 7411   0.306   2.665   0.163
 2171SOL    HW1 7412   0.310   2.704   0.255
 2171SOL    HW2 7413   0.286   2.736   0.096
 2172SOL     OW 7414   3.171   0.843   1.084
 2172SOL    HW1 7415   3.145   0.906   1.010
 2172SOL    HW2 7416   3.269   0.852   1.103
 2173SOL     OW 7417   5.630   1.282   5.452
 2173SOL    HW1 7418   5.718   1.239   5.472
 2173SOL    HW2 7419   5.556   1.229   5.495
 2174SOL     OW 7420   0.120   5.502   4.839
 2174SOL    HW1 7421   0.203   5.486   4.785
 2174SOL    HW2 7422   0.098   5.419   4.890
 2175SOL     OW 7423   1.873   6.663   4.692
 2175SOL    HW1 7424   1.815   6.737   4.726
 2175SOL    HW2 7425   1.884   6.594   4.764
 2176SOL     OW 7426   1.730   2.513   3.141
 2176SOL    HW1 7427   1.693   2.598   3.102
 2176SOL    HW2 7428   1.830   2.519   3.145
 2177SOL     OW 7429   0.074   2.496   1.371
 2177SOL    HW1 7430   0.011   2.503   1.293
 2177SOL    HW2 7431   0.151   2.437   1.347
 2178SOL     OW 7432   0.503   4.563   0.173
 2178SOL    HW1 7433   0.547   4.637   0.123
 2178SOL    HW2 7434   0.404   4.578   0.175
 2179SOL     OW 7435   1.690   5.388   4.292
 2179SOL    HW1 7436   1.591   5.392   4.282
 2179SOL    HW2 7437   1.714   5.320   4.361
 2180SOL     OW 7438   3.914   3.000   2.571
 2180SOL    HW1 7439   3.827   2.964   2.606
 2180SOL    HW2 7440   3.930   2.964   2.479
 2181SOL     OW 7441   5.118   5.196   5.726
 2181SOL    HW1 7442   5.025   5.213   5.691
 2181SOL    HW2 7443   5.171   5.281   5.722
 2182SOL     OW 7444   6.400   3.138   6.436
 2182SOL    HW1 7445   6.321   3.150   6.375
 2182SOL    HW2 7446   6.368   3.138   6.531
 2183SOL     OW 7447   3.513   3.286   0.932
 2183SOL    HW1 7448   3.504   3.368   0.989
 2183SOL    HW2 7449   3.556   3.213   0.985
 2184SOL     OW 7450   4.014   2.690   6.474
 2184SOL    HW1 7451   4.111   2.715   6.468
 2184SOL    HW2 7452   3.958   2.772   6.463
 2185SOL     OW 7453   1.305   1.388   1.441
 2185SOL    HW1 7454   1.397   1.426   1.451
 2185SOL    HW2 7455   1.307   1.290   1.457
 2186SOL     OW 7456   0.567   6.073   2.931
 2186SOL    HW1 7457   0.651   6.052   2.981
 2186SOL    HW2 7458   0.489   6.067   2.993
 2187SOL     OW 7459   0.253   1.166   6.322
 2187SOL    HW1 7460   0.316   1.124   6.257
 2187SOL    HW2 7461   0.185   1.221   6.272
 2188SOL     OW 7462   5.695   0.222   2.977
 2188SOL    HW1 7463   5.608   0.203   2.932
 2188SOL    HW2 7464   5.679   0.280   3.057
 2189SOL     OW 7465   2.284   0.231   6.489
 2189SOL    HW1 7466   2.352   0.187   6.547
 2189SOL    HW2 7467   2.202   0.174   6.485
 2190SOL     OW 7468   5.131   2.087   2.033
 2190SOL    HW1 7469   5.191   2.026   2.085
 2190SOL    HW2 7470   5.182   2.166   2.000
 2191SOL     OW 7471   3.142   2.715   6.711
 2191SOL    HW1 7472   3.088   2.744   6.631
 2191SOL    HW2 7473   3.218   2.658   6.681
 2192SOL     OW 7474   4.986   5.736   4.675
 2192SOL    HW1 7475   5.001   5.683   4.592
 2192SOL    HW2 7476   4.978   5.833   4.652
 2193SOL     OW 7477   1.077   4.745   6.471
 2193SOL    HW1 7478   1.033   4.686   6.539
 2193SOL    HW2 7479   1.145   4.803   6.516
 2194SOL     OW 7480   2.687   0.430   1.727
 2194SOL    HW1 7481   2.622   0.368   1.771
 2194SOL    HW2 7482   2.778   0.415   1.765
 2195SOL     OW 7483   1.608   4.861   2.673
 2195SOL    HW1 7484   1.662   4.919   2.611
 2195SOL    HW2 7485   1.517   4.901   2.684
 2196SOL     OW 7486   3.338   2.529   6.253
 2196SOL    HW1 7487   3.301   2.492   6.168
 2196SOL    HW2 7488   3.425   2.483   6.274
 2197SOL     OW 7489   4.532   4.906   0.676
 2197SOL    HW1 7490   4.568   4.876   0.764
 2197SOL    HW2 7491   4.583   4.860   0.602
 2198SOL     OW 7492   6.213   3.922   0.199
 2198SOL    HW1 7493   6.227   3.833   0.243
 2198SOL    HW2 7494   6.125   3.960   0.227
 2199SOL     OW 7495   5.042   0.579   1.368
 2199SOL    HW1 7496   5.119   0.539   1.318
 2199SOL    HW2 7497   4.957   0.554   1.322
 2200SOL     OW 7498   2.957   0.606   4.713
 2200SOL    HW1 7499   2.983   0.551   4.793
 2200SOL    HW2 7500   2.878   0.564   4.667
 2201SOL     OW 7501   5.623   3.359   1.980
 2201SOL    HW1 7502   5.613   3.334   2.077
 2201SOL    HW2 7503   5.538   3.401   1.948
 2202SOL     OW 7504   4.621   6.226   3.646
 2202SOL    HW1 7505   4.523   6.227   3.668
 2202SOL    HW2 7506   4.633   6.187   3.554
 2203SOL     OW 7507   3.288   2.100   3.070
 2203SOL    HW1 7508   3.265   2.110   2.973
 2203SOL    HW2 7509   3.382   2.066   3.079
 2204SOL     OW 7510   3.376   2.632   0.306
 2204SOL    HW1 7511   3.463   2.602   0.346
 2204SOL    HW2 7512   3.306   2.633   0.377
 2205SOL     OW 7513   3.083   6.810   0.433
 2205SOL    HW1 7514   3.117   6.899   0.461
 2205SOL    HW2 7515   3.069   6.809   0.334
 2206SOL     OW 7516   2.172   2.962   6.717
 2206SOL    HW1 7517   2.209   2.982   6.808
 2206SOL    HW2 7518   2.241   2.984   6.648
 2207SOL     OW 7519   0.882   3.965   5.430
 2207SOL    HW1 7520   0.893   4.021   5.513
 2207SOL    HW2 7521   0.793   3.986   5.388
 2208SOL     OW 7522   0.769   4.155   2.136
 2208SOL    HW1 7523   0.751   4.072   2.083
 2208SOL    HW2 7524   0.715   4.230   2.098
 2209SOL     OW 7525   1.066   5.893   0.562
 2209SOL    HW1 7526   1.149   5.845   0.591
 2209SOL    HW2 7527   1.011   5.831   0.506
 2210SOL     OW 7528   0.564   5.878   4.177
 2210SOL    HW1 7529   0.502   5.825   4.119
 2210SOL    HW2 7530   0.658   5.864   4.147
 2211SOL     OW 7531   6.298   1.440   5.532
 2211SOL    HW1 7532   6.276   1.443   5.435
 2211SOL    HW2 7533   6.232   1.495   5.583
 2212SOL     OW 7534   1.448   0.162   6.124
 2212SOL    HW1 7535   1.419   0.203   6.210
 2212SOL    HW2 7536   1.492   0.231   6.067
 2213SOL     OW 7537   3.567   1.540   3.375
 2213SOL    HW1 7538   3.662   1.550   3.345
 2213SOL    HW2 7539   3.564   1.538   3.475
 2214SOL     OW 7540   4.077   0.095   4.388
 2214SOL    HW1 7541   4.085   0.002   4.352
 2214SOL    HW2 7542   4.167   0.127   4.417
 2215SOL     OW 7543   5.944   2.527   5.336
 2215SOL    HW1 7544   5.971   2.615   5.297
 2215SOL    HW2 7545   5.966   2.454   5.271
 2216SOL     OW 7546   2.069   6.937   1.558
 2216SOL    HW1 7547   1.996   6.988   1.513
 2216SOL    HW2 7548   2.041   6.914   1.652
 2217SOL     OW 7549   3.855   0.409   1.284
 2217SOL    HW1 7550   3.848   0.490   1.226
 2217SOL    HW2 7551   3.767   0.362   1.285
 2218SOL     OW 7552   0.877   5.573   1.041
 2218SOL    HW1 7553   0.831   5.536   1.121
 2218SOL    HW2 7554   0.819   5.562   0.960
 2219SOL     OW 7555   1.218   3.331   3.158
 2219SOL    HW1 7556   1.232   3.258   3.090
 2219SOL    HW2 7557   1.300   3.339   3.214
 2220SOL     OW 7558   0.123   1.089   6.960
 2220SOL    HW1 7559   0.030   1.061   6.981
 2220SOL    HW2 7560   0.128   1.124   6.866
 2221SOL     OW 7561   0.082   2.512   1.029
 2221SOL    HW1 7562   0.078   2.419   1.066
 2221SOL    HW2 7563   0.017   2.519   0.953
 2222SOL     OW 7564   5.383   6.450   2.595
 2222SOL    HW1 7565   5.385   6.519   2.522
 2222SOL    HW2 7566   5.311   6.473   2.660
 2223SOL     OW 7567   5.103   5.533   2.350
 2223SOL    HW1 7568   5.013   5.493   2.330
 2223SOL    HW2 7569   5.156   5.468   2.404
 2224SOL     OW 7570   1.485   5.130   1.226
 2224SOL    HW1 7571   1.398   5.108   1.182
 2224SOL    HW2 7572   1.488   5.228   1.246
 2225SOL     OW 7573   6.424   4.929   1.456
 2225SOL    HW1 7574   6.508   4.970   1.420
 2225SOL    HW2 7575   6.360   5.002   1.482
 2226SOL     OW 7576   4.439   3.868   1.249
 2226SOL    HW1 7577   4.443   3.868   1.349
 2226SOL    HW2 7578   4.419   3.776   1.216
 2227SOL     OW 7579   0.694   4.199   4.892
 2227SOL    HW1 7580   0.673   4.103   4.913
 2227SOL    HW2 7581   0.698   4.211   4.793
 2228SOL     OW 7582   2.775   4.801   5.617
 2228SOL    HW1 7583   2.854   4.795   5.679
 2228SOL    HW2 7584   2.692   4.777   5.668
 2229SOL     OW 7585   4.748   0.576   3.018
 2229SOL    HW1 7586   4.777   0.613   2.930
 2229SOL    HW2 7587   4.696   0.645   3.068
 2230SOL     OW 7588   1.291   6.310   0.253
 2230SOL    HW1 7589   1.376   6.261   0.232
 2230SOL    HW2 7590   1.256   6.352   0.170
 2231SOL     OW 7591   2.696   6.895   1.762
 2231SOL    HW1 7592   2.784   6.853   1.739
 2231SOL    HW2 7593   2.629   6.823   1.782
 2232SOL     OW 7594   6.615   3.068   3.040
 2232SOL    HW1 7595   6.670   3.002   2.988
 2232SOL    HW2 7596   6.674   3.141   3.074
 2233SOL     OW 7597   3.862   0.606   6.801
 2233SOL    HW1 7598   3.951   0.567   6.826
 2233SOL    HW2 7599   3.789   0.550   6.838
 2234SOL     OW 7600   3.153   1.723   0.706
 2234SOL    HW1 7601   3.140   1.626   0.688
 2234SOL    HW2 7602   3.250   1.746   0.698
 2235SOL     OW 7603   1.815   6.832   1.291
 2235SOL    HW1 7604   1.887   6.765   1.308
 2235SOL    HW2 7605   1.850   6.924   1.310
 2236SOL     OW 7606   6.537   4.264   0.518
 2236SOL    HW1 7607   6.526   4.185   0.578
 2236SOL    HW2 7608   6.474   4.337   0.547
 2237SOL     OW 7609   6.392   1.999   4.035
 2237SOL    HW1 7610   6.479   2.027   4.077
 2237SOL    HW2 7611   6.323   2.070   4.051
 2238SOL     OW 7612   0.704   6.030   2.083
 2238SOL    HW1 7613   0.799   6.042   2.111
 2238SOL    HW2 7614   0.672   5.940   2.112
 2239SOL     OW 7615   4.466   4.880   3.103
 2239SOL    HW1 7616   4.544   4.864   3.043
 2239SOL    HW2 7617   4.395   4.813   3.086
 2240SOL     OW 7618   5.502   3.751   2.613
 2240SOL    HW1 7619   5.529   3.676   2.674
 2240SOL    HW2 7620   5.559   3.749   2.531
 2241SOL     OW 7621   0.523   0.182   2.240
 2241SOL    HW1 7622   0.534   0.207   2.144
 2241SOL    HW2 7623   0.536   0.264   2.297
 2242SOL     OW 7624   5.132   2.359   2.541
 2242SOL    HW1 7625   5.043   2.382   2.581
 2242SOL    HW2 7626   5.156   2.425   2.471
 2243SOL     OW 7627   2.313   5.914   5.411
 2243SOL    HW1 7628   2.404   5.875   5.425
 2243SOL    HW2 7629   2.313   5.972   5.330
 2244SOL     OW 7630   2.833   0.613   5.410
 2244SOL    HW1 7631   2.801   0.708   5.408
 2244SOL    HW2 7632   2.757   0.552   5.386
 2245SOL     OW 7633   1.161   1.993   1.572
 2245SOL    HW1 7634   1.174   1.932   1.494
 2245SOL    HW2 7635   1.244   1.995   1.627
 2246SOL     OW 7636   1.339   3.664   4.873
 2246SOL    HW1 7637   1.249   3.701   4.898
 2246SOL    HW2 7638   1.402   3.674   4.950
 2247SOL     OW 7639   1.899   1.830   5.718
 2247SOL    HW1 7640   1.945   1.746   5.747
 2247SOL    HW2 7641   1.890   1.832   5.619
 2248SOL     OW 7642   5.487   3.677   5.257
 2248SOL    HW1 7643   5.569   3.715   5.299
 2248SOL    HW2 7644   5.447   3.743   5.193
 2249SOL     OW 7645   4.744   5.464   4.350
 2249SOL    HW1 7646   4.765   5.369   4.374
 2249SOL    HW2 7647   4.647   5.472   4.330
 2250SOL     OW 7648   5.734   4.979   0.128
 2250SOL    HW1 7649   5.802   4.908   0.144
 2250SOL    HW2 7650   5.705   5.019   0.215
 2251SOL     OW 7651   6.482   0.794   6.843
 2251SOL    HW1 7652   6.445   0.701   6.852
 2251SOL    HW2 7653   6.446   0.836   6.759
 2252SOL     OW 7654   3.823   1.725   5.804
 2252SOL    HW1 7655   3.735   1.730   5.756
 2252SOL    HW2 7656   3.895   1.762   5.746
 2253SOL     OW 7657   2.265   2.667   6.690
 2253SOL    HW1 7658   2.209   2.741   6.654
 2253SOL    HW2 7659   2.296   2.689   6.782
 2254SOL     OW 7660   2.286   3.336   6.502
 2254SOL    HW1 7661   2.338   3.357   6.419
 2254SOL    HW2 7662   2.191   3.365   6.490
 2255SOL     OW 7663   5.885   2.724   1.819
 2255SOL    HW1 7664   5.868   2.634   1.857
 2255SOL    HW2 7665   5.957   2.718   1.750
 2256SOL     OW 7666   4.263   4.984   1.690
 2256SOL    HW1 7667   4.184   4.989   1.752
 2256SOL    HW2 7668   4.262   4.896   1.642
 2257SOL     OW 7669   2.020   4.168   3.988
 2257SOL    HW1 7670   1.946   4.126   4.040
 2257SOL    HW2 7671   2.019   4.267   4.000
 2258SOL     OW 7672   1.655   5.425   4.001
 2258SOL    HW1 7673   1.602   5.504   3.972
 2258SOL    HW2 7674   1.693   5.442   4.092
 2259SOL     OW 7675   5.703   2.565   6.542
 2259SOL    HW1 7676   5.609   2.561   6.507
 2259SOL    HW2 7677   5.767   2.560   6.466
 2260SOL     OW 7678   5.450   5.327   0.964
 2260SOL    HW1 7679   5.543   5.303   0.993
 2260SOL    HW2 7680   5.442   5.319   0.865
 2261SOL     OW 7681   4.453   6.222   6.182
 2261SOL    HW1 7682   4.529   6.158   6.167
 2261SOL    HW2 7683   4.372   6.189   6.134
 2262SOL     OW 7684   4.174   1.459   2.933
 2262SOL    HW1 7685   4.266   1.496   2.947
 2262SOL    HW2 7686   4.110   1.503   2.997
 2263SOL     OW 7687   0.022   4.793   6.403
 2263SOL    HW1 7688   0.058   4.740   6.480
 2263SOL    HW2 7689   0.093   4.803   6.333
 2264SOL     OW 7690   3.365   4.187   3.625
 2264SOL    HW1 7691   3.377   4.264   3.562
 2264SOL    HW2 7692   3.435   4.118   3.607
 2265SOL     OW 7693   0.028   0.690   1.668
 2265SOL    HW1 7694   0.063   0.614   1.613
 2265SOL    HW2 7695   0.031   0.666   1.765
 2266SOL     OW 7696   5.962   6.562   0.750
 2266SOL    HW1 7697   5.922   6.471   0.759
 2266SOL    HW2 7698   5.889   6.631   0.755
 2267SOL     OW 7699   5.300   1.940   5.901
 2267SOL    HW1 7700   5.351   2.019   5.869
 2267SOL    HW2 7701   5.355   1.857   5.892
 2268SOL     OW 7702   6.341   5.641   0.363
 2268SOL    HW1 7703   6.261   5.696   0.388
 2268SOL    HW2 7704   6.375   5.593   0.444
 2269SOL     OW 7705   0.027   5.465   5.241
 2269SOL    HW1 7706   6.997   5.486   5.160
 2269SOL    HW2 7707   7.011   5.388   5.291
 2270SOL     OW 7708   4.183   3.575   1.777
 2270SOL    HW1 7709   4.261   3.525   1.740
 2270SOL    HW2 7710   4.202   3.673   1.777
 2271SOL     OW 7711   5.591   4.321   2.857
 2271SOL    HW1 7712   5.610   4.407   2.904
 2271SOL    HW2 7713   5.492   4.307   2.851
 2272SOL     OW 7714   5.500   1.901   6.265
 2272SOL    HW1 7715   5.415   1.850   6.256
 2272SOL    HW2 7716   5.499   1.953   6.350
 2273SOL     OW 7717   1.648   1.558   3.561
 2273SOL    HW1 7718   1.650   1.471   3.609
 2273SOL    HW2 7719   1.558   1.572   3.520
 2274SOL     OW 7720   1.716   3.551   3.613
 2274SOL    HW1 7721   1.710   3.476   3.680
 2274SOL    HW2 7722   1.808   3.589   3.615
 2275SOL     OW 7723   4.963   6.688   3.269
 2275SOL    HW1 7724   5.016   6.606   3.246
 2275SOL    HW2 7725   4.866   6.665   3.272
 2276SOL     OW 7726   5.051   5.048   1.330
 2276SOL    HW1 7727   4.972   5.082   1.279
 2276SOL    HW2 7728   5.032   5.053   1.428
 2277SOL     OW 7729   3.251   3.838   0.441
 2277SOL    HW1 7730   3.213   3.751   0.409
 2277SOL    HW2 7731   3.177   3.902   0.462
 2278SOL     OW 7732   5.528   6.467   0.785
 2278SOL    HW1 7733   5.450   6.453   0.725
 2278SOL    HW2 7734   5.553   6.381   0.829
 2279SOL     OW 7735   5.802   4.307   4.800
 2279SOL    HW1 7736   5.882   4.362   4.773
 2279SOL    HW2 7737   5.830   4.212   4.812
 2280SOL     OW 7738   5.622   6.775   6.090
 2280SOL    HW1 7739   5.697   6.837   6.112
 2280SOL    HW2 7740   5.605   6.714   6.167
 2281SOL     OW 7741   3.320   3.220   0.758
 2281SOL    HW1 7742   3.307   3.286   0.684
 2281SOL    HW2 7743   3.398   3.248   0.814
 2282SOL     OW 7744   3.784   5.359   3.066
 2282SOL    HW1 7745   3.823   5.335   2.977
 2282SOL    HW2 7746   3.704   5.418   3.052
 2283SOL     OW 7747   0.139   3.724   3.142
 2283SOL    HW1 7748   0.145   3.771   3.230
 2283SOL    HW2 7749   0.219   3.666   3.130
 2284SOL     OW 7750   2.379   2.759   1.943
 2284SOL    HW1 7751   2.390   2.833   1.877
 2284SOL    HW2 7752   2.463   2.705   1.947
 2285SOL     OW 7753   2.035   4.575   0.497
 2285SOL    HW1 7754   1.989   4.522   0.426
 2285SOL    HW2 7755   2.104   4.517   0.541
 2286SOL     OW 7756   5.848   6.575   4.692
 2286SOL    HW1 7757   5.922   6.633   4.725
 2286SOL    HW2 7758   5.776   6.632   4.653
 2287SOL     OW 7759   1.937   3.169   1.931
 2287SOL    HW1 7760   1.966   3.077   1.958
 2287SOL    HW2 7761   2.017   3.222   1.904
 2288SOL     OW 7762   0.786   6.467   4.050
 2288SOL    HW1 7763   0.876   6.423   4.055
 2288SOL    HW2 7764   0.714   6.397   4.051
 2289SOL     OW 7765   4.714   2.570   1.296
 2289SOL    HW1 7766   4.775   2.634   1.343
 2289SOL    HW2 7767   4.628   2.562   1.348
 2290SOL     OW 7768   3.237   3.295   2.807
 2290SOL    HW1 7769   3.185   3.229   2.863
 2290SOL    HW2 7770   3.209   3.388   2.831
 2291SOL     OW 7771   1.819   2.329   6.813
 2291SOL    HW1 7772   1.850   2.401   6.875
 2291SOL    HW2 7773   1.822   2.363   6.719
 2292SOL     OW 7774   4.397   2.049   2.915
 2292SOL    HW1 7775   4.421   1.970   2.859
 2292SOL    HW2 7776   4.478   2.081   2.964
 2293SOL     OW 7777   6.662   1.572   0.087
 2293SOL    HW1 7778   6.701   1.635   0.154
 2293SOL    HW2 7779   6.701   1.590   7.023
 2294SOL     OW 7780   0.255   2.053   5.758
 2294SOL    HW1 7781   0.270   2.127   5.824
 2294SOL    HW2 7782   0.209   1.977   5.804
 2295SOL     OW 7783   5.842   6.283   0.776
 2295SOL    HW1 7784   5.830   6.268   0.678
 2295SOL    HW2 7785   5.923   6.234   0.808
 2296SOL     OW 7786   2.923   5.623   4.374
 2296SOL    HW1 7787   3.004   5.566   4.360
 2296SOL    HW2 7788   2.916   5.648   4.471
 2297SOL     OW 7789   4.167   4.548   5.341
 2297SOL    HW1 7790   4.183   4.451   5.327
 2297SOL    HW2 7791   4.075   4.562   5.378
 2298SOL     OW 7792   3.884   3.551   4.517
 2298SOL    HW1 7793   3.825   3.532   4.439
 2298SOL    HW2 7794   3.899   3.650   4.525
 2299SOL     OW 7795   5.400   3.472   4.797
 2299SOL    HW1 7796   5.362   3.429   4.879
 2299SOL    HW2 7797   5.367   3.566   4.790
 2300SOL     OW 7798   4.532   6.503   2.151
 2300SOL    HW1 7799   4.473   6.579   2.177
 2300SOL    HW2 7800   4.476   6.429   2.113
 2301SOL     OW 7801   3.823   2.994   4.266
 2301SOL    HW1 7802   3.912   3.038   4.269
 2301SOL    HW2 7803   3.790   2.977   4.359
 2302SOL     OW 7804   4.324   2.202   0.599
 2302SOL    HW1 7805   4.294   2.280   0.545
 2302SOL    HW2 7806   4.260   2.126   0.587
 2303SOL     OW 7807   4.006   1.995   6.786
 2303SOL    HW1 7808   4.021   1.901   6.754
 2303SOL    HW2 7809   4.080   2.053   6.752
 2304SOL     OW 7810   5.172   5.908   2.145
 2304SOL    HW1 7811   5.231   5.987   2.160
 2304SOL    HW2 7812   5.229   5.827   2.129
 2305SOL     OW 7813   2.244   0.986   5.303
 2305SOL    HW1 7814   2.330   0.971   5.351
 2305SOL    HW2 7815   2.262   0.998   5.205
 2306SOL     OW 7816   2.012   5.026   3.996
 2306SOL    HW1 7817   1.978   4.985   4.080
 2306SOL    HW2 7818   1.973   5.117   3.984
 2307SOL     OW 7819   6.959   3.441   6.077
 2307SOL    HW1 7820   6.950   3.465   5.980
 2307SOL    HW2 7821   7.001   3.518   6.127
 2308SOL     OW 7822   2.022   4.895   1.718
 2308SOL    HW1 7823   2.068   4.898   1.629
 2308SOL    HW2 7824   2.052   4.972   1.774
 2309SOL     OW 7825   2.342   6.472   5.570
 2309SOL    HW1 7826   2.249   6.478   5.607
 2309SOL    HW2 7827   2.403   6.434   5.639
 2310SOL     OW 7828   4.978   6.676   1.156
 2310SOL    HW1 7829   4.920   6.607   1.200
 2310SOL    HW2 7830   4.942   6.767   1.177
 2311SOL     OW 7831   2.935   5.749   1.621
 2311SOL    HW1 7832   3.029   5.781   1.634
 2311SOL    HW2 7833   2.893   5.734   1.711
 2312SOL     OW 7834   3.132   4.865   2.787
 2312SOL    HW1 7835   3.040   4.825   2.787
 2312SOL    HW2 7836   3.148   4.912   2.874
 2313SOL     OW 7837   4.606   5.691   1.353
 2313SOL    HW1 7838   4.547   5.620   1.391
 2313SOL    HW2 7839   4.598   5.774   1.409
 2314SOL     OW 7840   2.136   5.544   4.460
 2314SOL    HW1 7841   2.066   5.512   4.523
 2314SOL    HW2 7842   2.112   5.518   4.366
 2315SOL     OW 7843   4.400   3.019   6.563
 2315SOL    HW1 7844   4.309   3.058   6.574
 2315SOL    HW2 7845   4.442   3.054   6.479
 2316SOL     OW 7846   5.370   3.395   2.373
 2316SOL    HW1 7847   5.364   3.332   2.451
 2316SOL    HW2 7848   5.456   3.379   2.324
 2317SOL     OW 7849   0.755   4.792   4.147
 2317SOL    HW1 7850   0.759   4.692   4.156
 2317SOL    HW2 7851   0.729   4.832   4.235
 2318SOL     OW 7852   6.891   1.375   3.732
 2318SOL    HW1 7853   6.916   1.282   3.760
 2318SOL    HW2 7854   6.973   1.425   3.704
 2319SOL     OW 7855   0.834   4.056   3.858
 2319SOL    HW1 7856   0.891   4.072   3.777
 2319SOL    HW2 7857   0.792   3.966   3.852
 2320SOL     OW 7858   6.440   4.279   4.919
 2320SOL    HW1 7859   6.496   4.319   4.846
 2320SOL    HW2 7860   6.406   4.190   4.891
 2321SOL     OW 7861   2.571   5.804   5.451
 2321SOL    HW1 7862   2.612   5.736   5.512
 2321SOL    HW2 7863   2.636   5.825   5.378
 2322SOL     OW 7864   2.469   0.293   6.172
 2322SOL    HW1 7865   2.403   0.369   6.173
 2322SOL    HW2 7866   2.557   0.326   6.139
 2323SOL     OW 7867   5.249   4.926   1.920
 2323SOL    HW1 7868   5.259   4.972   1.832
 2323SOL    HW2 7869   5.331   4.942   1.975
 2324SOL     OW 7870   6.493   5.062   3.724
 2324SOL    HW1 7871   6.481   5.049   3.823
 2324SOL    HW2 7872   6.424   5.009   3.675
 2325SOL     OW 7873   6.472   3.103   0.886
 2325SOL    HW1 7874   6.483   3.012   0.925
 2325SOL    HW2 7875   6.562   3.146   0.878
 2326SOL     OW 7876   1.797   5.359   7.011
 2326SOL    HW1 7877   1.755   5.450   7.013
 2326SOL    HW2 7878   1.766   5.306   0.064
 2327SOL     OW 7879   5.553   2.546   5.064
 2327SOL    HW1 7880   5.469   2.533   5.011
 2327SOL    HW2 7881   5.600   2.629   5.032
 2328SOL     OW 7882   5.275   6.693   3.466
 2328SOL    HW1 7883   5.312   6.694   3.374
 2328SOL    HW2 7884   5.178   6.718   3.463
 2329SOL     OW 7885   0.003   6.106   3.300
 2329SOL    HW1 7886   0.087   6.058   3.326
 2329SOL    HW2 7887   0.023   6.169   3.225
 2330SOL     OW 7888   0.323   3.668   2.515
 2330SOL    HW1 7889   0.359   3.582   2.477
 2330SOL    HW2 7890   0.332   3.667   2.615
 2331SOL     OW 7891   0.984   4.615   5.752
 2331SOL    HW1 7892   0.969   4.603   5.654
 2331SOL    HW2 7893   0.900   4.648   5.795
 2332SOL     OW 7894   5.810   2.726   4.694
 2332SOL    HW1 7895   5.814   2.825   4.687
 2332SOL    HW2 7896   5.901   2.687   4.678
 2333SOL     OW 7897   1.386   5.650   4.304
 2333SOL    HW1 7898   1.440   5.727   4.268
 2333SOL    HW2 7899   1.296   5.682   4.333
 2334SOL     OW 7900   2.609   0.104   0.208
 2334SOL    HW1 7901   2.552   0.141   0.134
 2334SOL    HW2 7902   2.561   0.029   0.252
 2335SOL     OW 7903   4.888   0.141   3.770
 2335SOL    HW1 7904   4.949   0.213   3.740
 2335SOL    HW2 7905   4.895   0.063   3.708
 2336SOL     OW 7906   4.643   1.470   6.292
 2336SOL    HW1 7907   4.719   1.503   6.348
 2336SOL    HW2 7908   4.620   1.538   6.223
 2337SOL     OW 7909   5.790   0.371   2.772
 2337SOL    HW1 7910   5.740   0.334   2.851
 2337SOL    HW2 7911   5.831   0.295   2.720
 2338SOL     OW 7912   0.990   0.056   6.257
 2338SOL    HW1 7913   1.003   0.074   6.355
 2338SOL    HW2 7914   1.012   0.139   6.205
 2339SOL     OW 7915   3.662   4.541   0.128
 2339SOL    HW1 7916   3.612   4.504   0.051
 2339SOL    HW2 7917   3.760   4.532   0.112
 2340SOL     OW 7918   3.398   5.235   4.718
 2340SOL    HW1 7919   3.437   5.260   4.806
 2340SOL    HW2 7920   3.426   5.142   4.694
 2341SOL     OW 7921   6.048   5.393   0.270
 2341SOL    HW1 7922   5.973   5.357   0.215
 2341SOL    HW2 7923   6.035   5.366   0.366
 2342SOL     OW 7924   6.663   0.290   5.208
 2342SOL    HW1 7925   6.760   0.280   5.231
 2342SOL    HW2 7926   6.631   0.209   5.159
 2343SOL     OW 7927   1.177   6.734   0.369
 2343SOL    HW1 7928   1.272   6.704   0.379
 2343SOL    HW2 7929   1.116   6.655   0.373
 2344SOL     OW 7930   2.028   1.642   2.507
 2344SOL    HW1 7931   2.052   1.581   2.582
 2344SOL    HW2 7932   2.079   1.728   2.516
 2345SOL     OW 7933   2.407   1.557   3.850
 2345SOL    HW1 7934   2.322   1.506   3.833
 2345SOL    HW2 7935   2.420   1.568   3.948
 2346SOL     OW 7936   4.805   3.535   5.827
 2346SOL    HW1 7937   4.739   3.610   5.821
 2346SOL    HW2 7938   4.761   3.456   5.872
 2347SOL     OW 7939   1.236   2.989   1.238
 2347SOL    HW1 7940   1.276   3.029   1.156
 2347SOL    HW2 7941   1.242   2.889   1.233
 2348SOL     OW 7942   2.780   6.652   2.317
 2348SOL    HW1 7943   2.771   6.620   2.411
 2348SOL    HW2 7944   2.830   6.739   2.317
 2349SOL     OW 7945   4.909   5.323   5.927
 2349SOL    HW1 7946   4.907   5.383   6.007
 2349SOL    HW2 7947   4.949   5.371   5.849
 2350SOL     OW 7948   2.660   6.311   5.336
 2350SOL    HW1 7949   2.597   6.269   5.271
 2350SOL    HW2 7950   2.658   6.262   5.422
 2351SOL     OW 7951   2.403   5.540   4.187
 2351SOL    HW1 7952   2.423   5.584   4.275
 2351SOL    HW2 7953   2.489   5.527   4.137
 2352SOL     OW 7954   0.139   3.255   2.436
 2352SOL    HW1 7955   0.048   3.293   2.454
 2352SOL    HW2 7956   0.206   3.302   2.494
 2353SOL     OW 7957   2.366   4.138   6.304
 2353SOL    HW1 7958   2.418   4.158   6.220
 2353SOL    HW2 7959   2.317   4.051   6.292
 2354SOL     OW 7960   3.942   2.663   1.125
 2354SOL    HW1 7961   3.977   2.733   1.064
 2354SOL    HW2 7962   3.846   2.682   1.146
 2355SOL     OW 7963   0.533   0.029   0.907
 2355SOL    HW1 7964   0.477   7.000   0.969
 2355SOL    HW2 7965   0.598   0.083   0.960
 2356SOL     OW 7966   2.841   5.121   3.301
 2356SOL    HW1 7967   2.770   5.146   3.368
 2356SOL    HW2 7968   2.801   5.119   3.210
 2357SOL     OW 7969   6.565   4.422   1.087
 2357SOL    HW1 7970   6.578   4.468   0.999
 2357SOL    HW2 7971   6.471   4.434   1.117
 2358SOL     OW 7972   3.934   1.471   5.720
 2358SOL    HW1 7973   3.903   1.558   5.758
 2358SOL    HW2 7974   3.859   1.405   5.724
 2359SOL     OW 7975   1.574   1.461   5.478
 2359SOL    HW1 7976   1.495   1.497   5.527
 2359SOL    HW2 7977   1.562   1.474   5.380
 2360SOL     OW 7978   4.278   4.394   0.430
 2360SOL    HW1 7979   4.283   4.432   0.523
 2360SOL    HW2 7980   4.371   4.377   0.397
 2361SOL     OW 7981   3.840   5.857   1.858
 2361SOL    HW1 7982   3.905   5.897   1.792
 2361SOL    HW2 7983   3.860   5.892   1.950
 2362SOL     OW 7984   4.083   5.929   3.866
 2362SOL    HW1 7985   4.039   5.842   3.843
 2362SOL    HW2 7986   4.021   5.984   3.921
 2363SOL     OW 7987   2.945   4.158   0.778
 2363SOL    HW1 7988   2.989   4.245   0.756
 2363SOL    HW2 7989   2.970   4.089   0.710
 2364SOL     OW 7990   4.483   1.539   2.517
 2364SOL    HW1 7991   4.477   1.623   2.464
 2364SOL    HW2 7992   4.561   1.544   2.580
 2365SOL     OW 7993   4.973   3.468   3.406
 2365SOL    HW1 7994   4.941   3.412   3.482
 2365SOL    HW2 7995   4.980   3.412   3.323
 2366SOL     OW 7996   2.606   4.700   5.028
 2366SOL    HW1 7997   2.558   4.732   5.109
 2366SOL    HW2 7998   2.705   4.708   5.042
 2367SOL     OW 7999   6.282   4.653   6.266
 2367SOL    HW1 8000   6.205   4.702   6.307
 2367SOL    HW2 8001   6.330   4.601   6.337
 2368SOL     OW 8002   5.471   6.888   4.141
 2368SOL    HW1 8003   5.482   6.789   4.148
 2368SOL    HW2 8004   5.382   6.909   4.101
 2369SOL     OW 8005   3.167   1.851   4.685
 2369SOL    HW1 8006   3.221   1.865   4.768
 2369SOL    HW2 8007   3.219   1.880   4.606
 2370SOL     OW 8008   5.465   2.559   1.348
 2370SOL    HW1 8009   5.512   2.642   1.319
 2370SOL    HW2 8010   5.401   2.580   1.422
 2371SOL     OW 8011   0.835   6.947   3.101
 2371SOL    HW1 8012   0.796   6.938   3.193
 2371SOL    HW2 8013   0.761   6.957   3.034
 2372SOL     OW 8014   6.349   1.010   5.778
 2372SOL    HW1 8015   6.416   0.940   5.800
 2372SOL    HW2 8016   6.393   1.084   5.727
 2373SOL     OW 8017   5.890   5.707   6.812
 2373SOL    HW1 8018   5.956   5.779   6.833
 2373SOL    HW2 8019   5.933   5.637   6.754
 2374SOL     OW 8020   5.864   6.129   1.841
 2374SOL    HW1 8021   5.959   6.125   1.870
 2374SOL    HW2 8022   5.822   6.213   1.874
 2375SOL     OW 8023   0.630   0.072   4.309
 2375SOL    HW1 8024   0.712   0.015   4.317
 2375SOL    HW2 8025   0.635   0.126   4.225
 2376SOL     OW 8026   5.996   1.253   3.206
 2376SOL    HW1 8027   5.996   1.350   3.231
 2376SOL    HW2 8028   6.090   1.219   3.203
 2377SOL     OW 8029   4.343   4.955   5.406
 2377SOL    HW1 8030   4.403   5.020   5.452
 2377SOL    HW2 8031   4.280   4.914   5.473
 2378SOL     OW 8032   6.703   1.153   0.549
 2378SOL    HW1 8033   6.781   1.202   0.509
 2378SOL    HW2 8034   6.725   1.127   0.643
 2379SOL     OW 8035   6.718   4.616   1.256
 2379SOL    HW1 8036   6.719   4.574   1.165
 2379SOL    HW2 8037   6.630   4.597   1.300
 2380SOL     OW 8038   4.796   4.909   4.975
 2380SOL    HW1 8039   4.702   4.901   5.007
 2380SOL    HW2 8040   4.849   4.830   5.006
 2381SOL     OW 8041   2.324   4.844   4.947
 2381SOL    HW1 8042   2.331   4.840   5.046
 2381SOL    HW2 8043   2.379   4.771   4.906
 2382SOL     OW 8044   0.593   6.356   2.628
 2382SOL    HW1 8045   0.607   6.257   2.627
 2382SOL    HW2 8046   0.598   6.391   2.534
 2383SOL     OW 8047   5.761   5.652   5.608
 2383SOL    HW1 8048   5.729   5.566   5.567
 2383SOL    HW2 8049   5.699   5.679   5.681
 2384SOL     OW 8050   0.786   1.839   2.411
 2384SOL    HW1 8051   0.845   1.843   2.331
 2384SOL    HW2 8052   0.817   1.767   2.472
 2385SOL     OW 8053   0.475   2.423   1.070
 2385SOL    HW1 8054   0.544   2.380   1.011
 2385SOL    HW2 8055   0.519   2.493   1.127
 2386SOL     OW 8056   5.077   6.083   3.900
 2386SOL    HW1 8057   5.160   6.138   3.900
 2386SOL    HW2 8058   5.013   6.118   3.832
 2387SOL     OW 8059   1.538   1.762   4.143
 2387SOL    HW1 8060   1.473   1.834   4.170
 2387SOL    HW2 8061   1.622   1.770   4.196
 2388SOL     OW 8062   0.058   1.858   5.505
 2388SOL    HW1 8063   0.080   1.789   5.574
 2388SOL    HW2 8064   6.995   1.899   5.527
 2389SOL     OW 8065   5.444   4.535   4.768
 2389SOL    HW1 8066   5.357   4.497   4.736
 2389SOL    HW2 8067   5.518   4.472   4.744
 2390SOL     OW 8068   4.285   4.047   5.683
 2390SOL    HW1 8069   4.266   4.095   5.598
 2390SOL    HW2 8070   4.383   4.051   5.702
 2391SOL     OW 8071   3.561   4.471   6.123
 2391SOL    HW1 8072   3.627   4.461   6.048
 2391SOL    HW2 8073   3.469   4.452   6.090
 2392SOL     OW 8074   3.826   5.423   5.495
 2392SOL    HW1 8075   3.838   5.522   5.506
 2392SOL    HW2 8076   3.780   5.405   5.407
 2393SOL     OW 8077   3.291   5.077   1.667
 2393SOL    HW1 8078   3.361   5.058   1.736
 2393SOL    HW2 8079   3.203   5.042   1.699
 2394SOL     OW 8080   0.975   2.345   3.583
 2394SOL    HW1 8081   1.060   2.293   3.578
 2394SOL    HW2 8082   0.989   2.425   3.642
 2395SOL     OW 8083   0.064   2.290   4.467
 2395SOL    HW1 8084   7.006   2.328   4.427
 2395SOL    HW2 8085   0.105   2.225   4.402
 2396SOL     OW 8086   6.962   0.867   4.965
 2396SOL    HW1 8087   6.885   0.823   5.011
 2396SOL    HW2 8088   6.948   0.966   4.964
 2397SOL     OW 8089   0.467   4.525   5.873
 2397SOL    HW1 8090   0.512   4.487   5.793
 2397SOL    HW2 8091   0.534   4.541   5.945
 2398SOL     OW 8092   3.548   6.029   3.493
 2398SOL    HW1 8093   3.483   5.956   3.515
 2398SOL    HW2 8094   3.504   6.118   3.503
 2399SOL     OW 8095   3.214   2.075   4.240
 2399SOL    HW1 8096   3.211   1.987   4.287
 2399SOL    HW2 8097   3.145   2.136   4.278
 2400SOL     OW 8098   0.682   4.296   0.752
 2400SOL    HW1 8099   0.642   4.204   0.754
 2400SOL    HW2 8100   0.614   4.360   0.716
 2401SOL     OW 8101   2.681   6.980   5.975
 2401SOL    HW1 8102   2.731   0.038   5.999
 2401SOL    HW2 8103   2.678   6.970   5.876
 2402SOL     OW 8104   1.371   4.193   2.769
 2402SOL    HW1 8105   1.464   4.157   2.778
 2402SOL    HW2 8106   1.350   4.207   2.672
 2403SOL     OW 8107   3.758   4.116   3.162
 2403SOL    HW1 8108   3.709   4.197   3.130
 2403SOL    HW2 8109   3.789   4.130   3.256
 2404SOL     OW 8110   6.315   1.881   0.668
 2404SOL    HW1 8111   6.346   1.811   0.603
 2404SOL    HW2 8112   6.215   1.885   0.669
 2405SOL     OW 8113   2.027   3.327   0.812
 2405SOL    HW1 8114   2.057   3.256   0.876
 2405SOL    HW2 8115   2.084   3.324   0.730
 2406SOL     OW 8116   2.187   6.393   4.712
 2406SOL    HW1 8117   2.215   6.456   4.784
 2406SOL    HW2 8118   2.264   6.372   4.653
 2407SOL     OW 8119   3.516   1.286   3.846
 2407SOL    HW1 8120   3.542   1.274   3.941
 2407SOL    HW2 8121   3.477   1.202   3.810
 2408SOL     OW 8122   3.144   5.602   4.956
 2408SOL    HW1 8123   3.164   5.603   4.858
 2408SOL    HW2 8124   3.067   5.539   4.973
 2409SOL     OW 8125   1.734   3.362   1.696
 2409SOL    HW1 8126   1.677   3.283   1.720
 2409SOL    HW2 8127   1.710   3.439   1.755
 2410SOL     OW 8128   0.819   3.383   5.332
 2410SOL    HW1 8129   0.790   3.440   5.409
 2410SOL    HW2 8130   0.913   3.352   5.348
 2411SOL     OW 8131   3.002   4.032   0.331
 2411SOL    HW1 8132   3.020   4.125   0.299
 2411SOL    HW2 8133   2.942   3.985   0.266
 2412SOL     OW 8134   3.612   1.517   6.952
 2412SOL    HW1 8135   3.659   1.548   0.009
 2412SOL    HW2 8136   3.657   1.556   6.872
 2413SOL     OW 8137   6.806   2.892   0.087
 2413SOL    HW1 8138   6.810   2.819   0.019
 2413SOL    HW2 8139   6.716   2.893   0.131
 2414SOL     OW 8140   6.474   2.506   4.524
 2414SOL    HW1 8141   6.476   2.466   4.432
 2414SOL    HW2 8142   6.518   2.444   4.589
 2415SOL     OW 8143   2.467   5.652   0.916
 2415SOL    HW1 8144   2.433   5.568   0.959
 2415SOL    HW2 8145   2.550   5.682   0.963
 2416SOL     OW 8146   6.883   3.562   2.316
 2416SOL    HW1 8147   6.900   3.480   2.370
 2416SOL    HW2 8148   6.952   3.630   2.337
 2417SOL     OW 8149   2.986   2.992   1.488
 2417SOL    HW1 8150   2.961   2.909   1.439
 2417SOL    HW2 8151   3.077   3.023   1.458
 2418SOL     OW 8152   4.617   3.740   5.824
 2418SOL    HW1 8153   4.580   3.796   5.899
 2418SOL    HW2 8154   4.554   3.741   5.747
 2419SOL     OW 8155   1.643   6.416   4.329
 2419SOL    HW1 8156   1.689   6.455   4.249
 2419SOL    HW2 8157   1.614   6.323   4.308
 2420SOL     OW 8158   1.558   4.575   2.586
 2420SOL    HW1 8159   1.579   4.670   2.607
 2420SOL    HW2 8160   1.640   4.529   2.551
 2421SOL     OW 8161   2.305   6.158   4.528
 2421SOL    HW1 8162   2.345   6.156   4.436
 2421SOL    HW2 8163   2.209   6.188   4.521
 2422SOL     OW 8164   4.399   6.307   0.035
 2422SOL    HW1 8165   4.362   6.216   0.016
 2422SOL    HW2 8166   4.499   6.302   0.040
 2423SOL     OW 8167   2.399   5.040   2.829
 2423SOL    HW1 8168   2.378   4.967   2.764
 2423SOL    HW2 8169   2.484   5.020   2.876
 2424SOL     OW 8170   5.697   1.473   5.774
 2424SOL    HW1 8171   5.787   1.438   5.748
 2424SOL    HW2 8172   5.677   1.555   5.721
 2425SOL     OW 8173   5.256   5.585   5.329
 2425SOL    HW1 8174   5.172   5.612   5.376
 2425SOL    HW2 8175   5.284   5.495   5.361
 2426SOL     OW 8176   2.066   3.851   6.255
 2426SOL    HW1 8177   2.037   3.874   6.348
 2426SOL    HW2 8178   2.024   3.914   6.190
 2427SOL     OW 8179   5.220   0.844   0.045
 2427SOL    HW1 8180   5.151   0.914   0.066
 2427SOL    HW2 8181   5.183   0.754   0.068
 2428SOL     OW 8182   0.359   0.596   3.480
 2428SOL    HW1 8183   0.313   0.538   3.414
 2428SOL    HW2 8184   0.375   0.686   3.440
 2429SOL     OW 8185   5.193   5.382   1.627
 2429SOL    HW1 8186   5.153   5.471   1.603
 2429SOL    HW2 8187   5.292   5.385   1.612
 2430SOL     OW 8188   6.275   1.978   6.329
 2430SOL    HW1 8189   6.319   1.954   6.242
 2430SOL    HW2 8190   6.177   1.961   6.322
 2431SOL     OW 8191   6.744   2.300   1.805
 2431SOL    HW1 8192   6.772   2.394   1.791
 2431SOL    HW2 8193   6.660   2.281   1.755
 2432SOL     OW 8194   3.515   5.203   2.824
 2432SOL    HW1 8195   3.539   5.107   2.807
 2432SOL    HW2 8196   3.563   5.261   2.758
 2433SOL     OW 8197   6.082   4.449   6.367
 2433SOL    HW1 8198   6.109   4.381   6.299
 2433SOL    HW2 8199   6.136   4.437   6.450
 2434SOL     OW 8200   4.689   1.555   3.052
 2434SOL    HW1 8201   4.736   1.641   3.035
 2434SOL    HW2 8202   4.708   1.525   3.145
 2435SOL     OW 8203   5.737   6.668   6.653
 2435SOL    HW1 8204   5.747   6.762   6.618
 2435SOL    HW2 8205   5.819   6.616   6.631
 2436SOL     OW 8206   2.124   1.940   1.882
 2436SOL    HW1 8207   2.111   1.929   1.783
 2436SOL    HW2 8208   2.036   1.960   1.925
 2437SOL     OW 8209   0.013   4.505   3.083
 2437SOL    HW1 8210   0.111   4.490   3.072
 2437SOL    HW2 8211   7.022   4.594   3.125
 2438SOL     OW 8212   3.347   1.564   4.916
 2438SOL    HW1 8213   3.257   1.605   4.930
 2438SOL    HW2 8214   3.378   1.582   4.822
 2439SOL     OW 8215   0.918   6.165   1.004
 2439SOL    HW1 8216   0.944   6.139   1.097
 2439SOL    HW2 8217   0.965   6.106   0.938
 2440SOL     OW 8218   5.401   1.086   5.134
 2440SOL    HW1 8219   5.347   1.152   5.186
 2440SOL    HW2 8220   5.461   1.035   5.196
 2441SOL     OW 8221   6.092   0.360   6.979
 2441SOL    HW1 8222   6.130   0.317   6.897
 2441SOL    HW2 8223   6.167   0.396   0.010
 2442SOL     OW 8224   5.233   3.056   1.902
 2442SOL    HW1 8225   5.320   3.096   1.875
 2442SOL    HW2 8226   5.171   3.129   1.932
 2443SOL     OW 8227   0.959   2.139   0.890
 2443SOL    HW1 8228   0.954   2.094   0.979
 2443SOL    HW2 8229   1.009   2.081   0.826
 2444SOL     OW 8230   3.832   5.646   1.449
 2444SOL    HW1 8231   3.905   5.672   1.513
 2444SOL    HW2 8232   3.752   5.615   1.501
 2445SOL     OW 8233   6.854   2.660   0.610
 2445SOL    HW1 8234   6.786   2.604   0.563
 2445SOL    HW2 8235   6.944   2.645   0.569
 2446SOL     OW 8236   1.775   4.513   1.267
 2446SOL    HW1 8237   1.718   4.492   1.346
 2446SOL    HW2 8238   1.813   4.428   1.230
 2447SOL     OW 8239   2.951   0.105   0.656
 2447SOL    HW1 8240   2.888   0.136   0.585
 2447SOL    HW2 8241   2.899   0.061   0.730
 2448SOL     OW 8242   5.987   1.627   3.770
 2448SOL    HW1 8243   6.037   1.581   3.697
 2448SOL    HW2 8244   5.889   1.629   3.747
 2449SOL     OW 8245   1.815   4.571   1.998
 2449SOL    HW1 8246   1.779   4.502   1.935
 2449SOL    HW2 8247   1.779   4.553   2.090
 2450SOL     OW 8248   1.478   6.291   6.095
 2450SOL    HW1 8249   1.514   6.285   6.188
 2450SOL    HW2 8250   1.532   6.232   6.035
 2451SOL     OW 8251   0.539   0.107   4.787
 2451SOL    HW1 8252   0.621   0.063   4.751
 2451SOL    HW2 8253   0.564   0.168   4.862
 2452SOL     OW 8254   3.161   1.864   4.382
 2452SOL    HW1 8255   3.194   1.780   4.340
 2452SOL    HW2 8256   3.061   1.863   4.386
 2453SOL     OW 8257   0.982   1.346   0.036
 2453SOL    HW1 8258   1.074   1.371   0.004
 2453SOL    HW2 8259   0.982   1.343   0.136
 2454SOL     OW 8260   3.325   5.821   1.136
 2454SOL    HW1 8261   3.417   5.851   1.163
 2454SOL    HW2 8262   3.295   5.747   1.196
 2455SOL     OW 8263   3.743   1.769   0.063
 2455SOL    HW1 8264   3.748   1.762   6.989
 2455SOL    HW2 8265   3.795   1.848   0.094
 2456SOL     OW 8266   0.934   4.529   6.679
 2456SOL    HW1 8267   0.986   4.462   6.626
 2456SOL    HW2 8268   0.952   4.515   6.776
 2457SOL     OW 8269   5.749   2.135   5.380
 2457SOL    HW1 8270   5.698   2.208   5.334
 2457SOL    HW2 8271   5.775   2.165   5.472
 2458SOL     OW 8272   1.593   6.813   1.955
 2458SOL    HW1 8273   1.640   6.771   1.877
 2458SOL    HW2 8274   1.548   6.897   1.925
 2459SOL     OW 8275   2.686   5.879   1.318
 2459SOL    HW1 8276   2.645   5.809   1.260
 2459SOL    HW2 8277   2.753   5.932   1.265
 2460SOL     OW 8278   1.690   0.537   5.746
 2460SOL    HW1 8279   1.702   0.627   5.706
 2460SOL    HW2 8280   1.593   0.512   5.743
 2461SOL     OW 8281   3.681   1.558   4.530
 2461SOL    HW1 8282   3.741   1.505   4.471
 2461SOL    HW2 8283   3.720   1.649   4.545
 2462SOL     OW 8284   0.070   4.950   1.071
 2462SOL    HW1 8285   0.015   4.950   0.988
 2462SOL    HW2 8286   0.122   5.036   1.076
 2463SOL     OW 8287   6.875   1.246   6.466
 2463SOL    HW1 8288   6.939   1.277   6.536
 2463SOL    HW2 8289   6.918   1.175   6.410
 2464SOL     OW 8290   0.760   1.426   3.406
 2464SOL    HW1 8291   0.842   1.461   3.452
 2464SOL    HW2 8292   0.691   1.403   3.474
 2465SOL     OW 8293   0.723   4.703   5.783
 2465SOL    HW1 8294   0.627   4.710   5.756
 2465SOL    HW2 8295   0.765   4.794   5.782
 2466SOL     OW 8296   1.251   2.465   2.228
 2466SOL    HW1 8297   1.270   2.433   2.136
 2466SOL    HW2 8298   1.218   2.389   2.284
 2467SOL     OW 8299   5.049   1.368   5.976
 2467SOL    HW1 8300   4.960   1.329   5.953
 2467SOL    HW2 8301   5.036   1.461   6.010
 2468SOL     OW 8302   3.560   6.771   5.757
 2468SOL    HW1 8303   3.597   6.862   5.737
 2468SOL    HW2 8304   3.581   6.747   5.852
 2469SOL     OW 8305   3.380   2.695   5.559
 2469SOL    HW1 8306   3.315   2.639   5.609
 2469SOL    HW2 8307   3.473   2.678   5.593
 2470SOL     OW 8308   3.688   4.971   0.118
 2470SOL    HW1 8309   3.672   5.070   0.120
 2470SOL    HW2 8310   3.626   4.926   0.182
 2471SOL     OW 8311   4.379   6.031   1.378
 2471SOL    HW1 8312   4.477   6.024   1.397
 2471SOL    HW2 8313   4.346   6.121   1.405
 2472SOL     OW 8314   4.838   1.716   4.714
 2472SOL    HW1 8315   4.864   1.776   4.638
 2472SOL    HW2 8316   4.781   1.767   4.779
 2473SOL     OW 8317   0.098   4.660   4.950
 2473SOL    HW1 8318   0.053   4.720   5.015
 2473SOL    HW2 8319   0.076   4.565   4.970
 2474SOL     OW 8320   0.776   5.610   1.536
 2474SOL    HW1 8321   0.819   5.533   1.584
 2474SOL    HW2 8322   0.820   5.695   1.564
 2475SOL     OW 8323   5.023   0.201   0.828
 2475SOL    HW1 8324   5.055   0.220   0.921
 2475SOL    HW2 8325   5.098   0.214   0.764
 2476SOL     OW 8326   6.088   0.427   0.445
 2476SOL    HW1 8327   6.013   0.407   0.508
 2476SOL    HW2 8328   6.147   0.346   0.436
 2477SOL     OW 8329   3.411   0.510   3.320
 2477SOL    HW1 8330   3.465   0.440   3.367
 2477SOL    HW2 8331   3.383   0.476   3.230
 2478SOL     OW 8332   4.337   1.862   3.182
 2478SOL    HW1 8333   4.383   1.779   3.214
 2478SOL    HW2 8334   4.263   1.837   3.120
 2479SOL     OW 8335   0.799   3.317   0.733
 2479SOL    HW1 8336   0.789   3.414   0.711
 2479SOL    HW2 8337   0.735   3.264   0.677
 2480SOL     OW 8338   3.053   2.433   1.343
 2480SOL    HW1 8339   2.974   2.447   1.402
 2480SOL    HW2 8340   3.137   2.442   1.398
 2481SOL     OW 8341   3.340   0.948   1.412
 2481SOL    HW1 8342   3.263   0.903   1.368
 2481SOL    HW2 8343   3.308   1.024   1.469
 2482SOL     OW 8344   5.395   3.952   6.996
 2482SOL    HW1 8345   5.312   3.996   0.004
 2482SOL    HW2 8346   5.435   3.896   0.043
 2483SOL     OW 8347   0.711   2.486   0.586
 2483SOL    HW1 8348   0.784   2.547   0.554
 2483SOL    HW2 8349   0.735   2.392   0.564
 2484SOL     OW 8350   5.189   1.401   2.706
 2484SOL    HW1 8351   5.092   1.407   2.732
 2484SOL    HW2 8352   5.203   1.318   2.652
 2485SOL     OW 8353   4.705   2.522   6.258
 2485SOL    HW1 8354   4.631   2.456   6.244
 2485SOL    HW2 8355   4.716   2.577   6.176
 2486SOL     OW 8356   0.199   4.031   5.626
 2486SOL    HW1 8357   0.149   3.965   5.681
 2486SOL    HW2 8358   0.139   4.069   5.555
 2487SOL     OW 8359   4.857   6.298   0.336
 2487SOL    HW1 8360   4.792   6.291   0.412
 2487SOL    HW2 8361   4.934   6.237   0.353
 2488SOL     OW 8362   6.688   4.540   2.134
 2488SOL    HW1 8363   6.709   4.560   2.038
 2488SOL    HW2 8364   6.760   4.481   2.172
 2489SOL     OW 8365   0.250   5.944   3.654
 2489SOL    HW1 8366   0.166   5.895   3.679
 2489SOL    HW2 8367   0.321   5.925   3.722
 2490SOL     OW 8368   2.027   6.236   2.280
 2490SOL    HW1 8369   2.104   6.178   2.254
 2490SOL    HW2 8370   1.981   6.197   2.360
 2491SOL     OW 8371   4.213   4.776   1.509
 2491SOL    HW1 8372   4.129   4.751   1.460
 2491SOL    HW2 8373   4.243   4.699   1.566
 2492SOL     OW 8374   5.107   3.583   0.890
 2492SOL    HW1 8375   5.158   3.508   0.848
 2492SOL    HW2 8376   5.038   3.616   0.825
 2493SOL     OW 8377   6.684   6.473   1.420
 2493SOL    HW1 8378   6.732   6.521   1.494
 2493SOL    HW2 8379   6.592   6.511   1.411
 2494SOL     OW 8380   5.826   2.428   1.825
 2494SOL    HW1 8381   5.918   2.391   1.844
 2494SOL    HW2 8382   5.805   2.417   1.728
 2495SOL     OW 8383   5.535   5.640   3.488
 2495SOL    HW1 8384   5.484   5.682   3.564
 2495SOL    HW2 8385   5.522   5.695   3.406
 2496SOL     OW 8386   0.014   4.098   6.876
 2496SOL    HW1 8387   6.973   4.022   6.882
 2496SOL    HW2 8388   6.991   4.182   6.850
 2497SOL     OW 8389   0.121   0.292   1.240
 2497SOL    HW1 8390   0.164   0.371   1.196
 2497SOL    HW2 8391   0.189   0.220   1.252
 2498SOL     OW 8392   2.924   3.265   5.863
 2498SOL    HW1 8393   2.958   3.230   5.951
 2498SOL    HW2 8394   2.863   3.196   5.822
 2499SOL     OW 8395   6.129   3.076   1.421
 2499SOL    HW1 8396   6.178   2.989   1.418
 2499SOL    HW2 8397   6.173   3.141   1.359
 2500SOL     OW 8398   3.448   4.177   6.210
 2500SOL    HW1 8399   3.375   4.114   6.237
 2500SOL    HW2 8400   3.442   4.193   6.111
 2501SOL     OW 8401   5.776   5.996   0.127
 2501SOL    HW1 8402   5.808   6.015   0.035
 2501SOL    HW2 8403   5.732   5.906   0.129
 2502SOL     OW 8404   2.400   5.956   5.059
 2502SOL    HW1 8405   2.468   5.898   5.014
 2502SOL    HW2 8406   2.322   5.969   4.998
 2503SOL     OW 8407   3.058   6.636   5.538
 2503SOL    HW1 8408   3.121   6.712   5.525
 2503SOL    HW2 8409   3.052   6.582   5.455
 2504SOL     OW 8410   3.036   5.858   2.849
 2504SOL    HW1 8411   2.996   5.803   2.776
 2504SOL    HW2 8412   3.110   5.806   2.894
 2505SOL     OW 8413   0.542   5.795   2.865
 2505SOL    HW1 8414   0.539   5.893   2.884
 2505SOL    HW2 8415   0.606   5.751   2.928
 2506SOL     OW 8416   6.100   3.596   6.266
 2506SOL    HW1 8417   6.154   3.641   6.337
 2506SOL    HW2 8418   6.045   3.665   6.218
 2507SOL     OW 8419   6.876   3.126   0.408
 2507SOL    HW1 8420   6.916   3.078   0.330
 2507SOL    HW2 8421   6.884   3.069   0.490
 2508SOL     OW 8422   2.848   2.319   5.061
 2508SOL    HW1 8423   2.948   2.325   5.066
 2508SOL    HW2 8424   2.808   2.385   5.126
 2509SOL     OW 8425   6.886   3.880   6.900
 2509SOL    HW1 8426   6.789   3.883   6.874
 2509SOL    HW2 8427   6.900   3.809   6.968
 2510SOL     OW 8428   3.957   4.240   1.627
 2510SOL    HW1 8429   3.926   4.225   1.533
 2510SOL    HW2 8430   3.882   4.221   1.690
 2511SOL     OW 8431   2.379   0.782   5.035
 2511SOL    HW1 8432   2.368   0.865   4.980
 2511SOL    HW2 8433   2.470   0.781   5.076
 2512SOL     OW 8434   3.754   4.423   5.409
 2512SOL    HW1 8435   3.832   4.483   5.427
 2512SOL    HW2 8436   3.777   4.361   5.333
 2513SOL     OW 8437   2.516   6.362   5.748
 2513SOL    HW1 8438   2.575   6.422   5.801
 2513SOL    HW2 8439   2.464   6.303   5.809
 2514SOL     OW 8440   0.929   3.647   4.128
 2514SOL    HW1 8441   0.836   3.685   4.122
 2514SOL    HW2 8442   0.960   3.621   4.036
 2515SOL     OW 8443   1.942   0.418   1.551
 2515SOL    HW1 8444   2.008   0.477   1.506
 2515SOL    HW2 8445   1.906   0.352   1.485
 2516SOL     OW 8446   4.987   1.387   3.294
 2516SOL    HW1 8447   5.047   1.402   3.215
 2516SOL    HW2 8448   4.894   1.417   3.271
 2517SOL     OW 8449   1.946   0.451   5.591
 2517SOL    HW1 8450   2.013   0.515   5.554
 2517SOL    HW2 8451   1.913   0.485   5.679
 2518SOL     OW 8452   2.258   5.800   1.173
 2518SOL    HW1 8453   2.285   5.704   1.178
 2518SOL    HW2 8454   2.214   5.818   1.084
 2519SOL     OW 8455   3.224   1.160   1.535
 2519SOL    HW1 8456   3.159   1.158   1.611
 2519SOL    HW2 8457   3.205   1.239   1.477
 2520SOL     OW 8458   3.402   1.883   0.445
 2520SOL    HW1 8459   3.446   1.966   0.409
 2520SOL    HW2 8460   3.305   1.886   0.423
 2521SOL     OW 8461   3.966   1.896   5.037
 2521SOL    HW1 8462   3.904   1.826   5.075
 2521SOL    HW2 8463   4.036   1.917   5.105
 2522SOL     OW 8464   1.548   1.504   5.180
 2522SOL    HW1 8465   1.458   1.531   5.216
 2522SOL    HW2 8466   1.535   1.446   5.099
 2523SOL     OW 8467   1.745   4.181   1.359
 2523SOL    HW1 8468   1.646   4.179   1.345
 2523SOL    HW2 8469   1.790   4.220   1.279
 2524SOL     OW 8470   0.202   6.839   4.356
 2524SOL    HW1 8471   0.123   6.791   4.318
 2524SOL    HW2 8472   0.281   6.826   4.296
 2525SOL     OW 8473   1.188   2.831   4.887
 2525SOL    HW1 8474   1.105   2.875   4.853
 2525SOL    HW2 8475   1.179   2.731   4.879
 2526SOL     OW 8476   1.911   4.808   6.814
 2526SOL    HW1 8477   1.949   4.718   6.835
 2526SOL    HW2 8478   1.908   4.821   6.715
 2527SOL     OW 8479   5.630   5.971   5.591
 2527SOL    HW1 8480   5.598   5.966   5.686
 2527SOL    HW2 8481   5.715   5.920   5.582
 2528SOL     OW 8482   5.558   3.890   5.831
 2528SOL    HW1 8483   5.631   3.956   5.840
 2528SOL    HW2 8484   5.475   3.935   5.799
 2529SOL     OW 8485   0.746   0.747   6.430
 2529SOL    HW1 8486   0.832   0.706   6.461
 2529SOL    HW2 8487   0.745   0.748   6.330
 2530SOL     OW 8488   2.205   5.858   5.641
 2530SOL    HW1 8489   2.253   5.891   5.560
 2530SOL    HW2 8490   2.261   5.872   5.722
 2531SOL     OW 8491   5.307   5.650   5.893
 2531SOL    HW1 8492   5.311   5.570   5.834
 2531SOL    HW2 8493   5.227   5.706   5.868
 2532SOL     OW 8494   0.531   6.137   0.909
 2532SOL    HW1 8495   0.500   6.101   0.822
 2532SOL    HW2 8496   0.551   6.234   0.900
 2533SOL     OW 8497   4.620   1.027   3.138
 2533SOL    HW1 8498   4.541   1.056   3.191
 2533SOL    HW2 8499   4.682   1.105   3.126
 2534SOL     OW 8500   5.116   1.856   1.821
 2534SOL    HW1 8501   5.065   1.790   1.876
 2534SOL    HW2 8502   5.078   1.948   1.834
 2535SOL     OW 8503   3.610   2.661   6.753
 2535SOL    HW1 8504   3.629   2.617   6.841
 2535SOL    HW2 8505   3.524   2.625   6.716
 2536SOL     OW 8506   1.569   0.777   6.044
 2536SOL    HW1 8507   1.520   0.710   5.988
 2536SOL    HW2 8508   1.539   0.869   6.020
 2537SOL     OW 8509   3.436   6.941   6.529
 2537SOL    HW1 8510   3.363   6.878   6.557
 2537SOL    HW2 8511   3.424   6.964   6.433
 2538SOL     OW 8512   0.051   3.937   4.104
 2538SOL    HW1 8513   0.023   3.931   4.200
 2538SOL    HW2 8514   7.025   3.872   4.050
 2539SOL     OW 8515   5.828   0.894   3.571
 2539SOL    HW1 8516   5.840   0.991   3.589
 2539SOL    HW2 8517   5.856   0.874   3.477
 2540SOL     OW 8518   4.172   1.902   2.952
 2540SOL    HW1 8519   4.238   1.974   2.972
 2540SOL    HW2 8520   4.169   1.885   2.854
 2541SOL     OW 8521   2.717   0.334   5.860
 2541SOL    HW1 8522   2.621   0.313   5.844
 2541SOL    HW2 8523   2.749   0.401   5.793
 2542SOL     OW 8524   3.129   4.107   6.906
 2542SOL    HW1 8525   3.087   4.195   6.930
 2542SOL    HW2 8526   3.057   4.043   6.878
 2543SOL     OW 8527   0.997   1.246   4.133
 2543SOL    HW1 8528   1.077   1.204   4.090
 2543SOL    HW2 8529   1.019   1.340   4.159
 2544SOL     OW 8530   0.798   5.878   0.734
 2544SOL    HW1 8531   0.872   5.945   0.747
 2544SOL    HW2 8532   0.820   5.795   0.785
 2545SOL     OW 8533   1.329   0.096   2.071
 2545SOL    HW1 8534   1.359   0.052   2.156
 2545SOL    HW2 8535   1.408   0.113   2.013
 2546SOL     OW 8536   6.585   1.853   0.809
 2546SOL    HW1 8537   6.560   1.948   0.826
 2546SOL    HW2 8538   6.503   1.800   0.790
 2547SOL     OW 8539   0.316   3.734   6.742
 2547SOL    HW1 8540   0.227   3.778   6.726
 2547SOL    HW2 8541   0.328   3.659   6.677
 2548SOL     OW 8542   6.967   6.730   4.244
 2548SOL    HW1 8543   6.879   6.769   4.271
 2548SOL    HW2 8544   6.959   6.692   4.152
 2549SOL     OW 8545   1.086   0.526   1.544
 2549SOL    HW1 8546   1.041   0.477   1.469
 2549SOL    HW2 8547   1.119   0.614   1.511
 2550SOL     OW 8548   6.096   6.611   0.378
 2550SOL    HW1 8549   6.095   6.650   0.286
 2550SOL    HW2 8550   6.127   6.681   0.443
 2551SOL     OW 8551   3.219   4.665   0.403
 2551SOL    HW1 8552   3.314   4.641   0.424
 2551SOL    HW2 8553   3.214   4.699   0.309
 2552SOL     OW 8554   2.767   5.062   4.999
 2552SOL    HW1 8555   2.738   5.020   5.084
 2552SOL    HW2 8556   2.696   5.125   4.967
 2553SOL     OW 8557   3.817   3.658   6.063
 2553SOL    HW1 8558   3.873   3.736   6.035
 2553SOL    HW2 8559   3.756   3.633   5.988
 2554SOL     OW 8560   2.380   1.302   0.324
 2554SOL    HW1 8561   2.327   1.263   0.250
 2554SOL    HW2 8562   2.408   1.230   0.387
 2555SOL     OW 8563   5.191   2.951   4.365
 2555SOL    HW1 8564   5.101   2.907   4.370
 2555SOL    HW2 8565   5.226   2.965   4.458
 2556SOL     OW 8566   3.667   5.888   0.546
 2556SOL    HW1 8567   3.587   5.945   0.565
 2556SOL    HW2 8568   3.637   5.800   0.509
 2557SOL     OW 8569   1.938   3.391   6.817
 2557SOL    HW1 8570   1.907   3.483   6.792
 2557SOL    HW2 8571   1.927   3.330   6.738
 2558SOL     OW 8572   4.953   1.107   5.523
 2558SOL    HW1 8573   4.998   1.158   5.450
 2558SOL    HW2 8574   5.000   1.126   5.610
 2559SOL     OW 8575   1.212   4.080   5.594
 2559SOL    HW1 8576   1.164   4.017   5.655
 2559SOL    HW2 8577   1.291   4.033   5.554
 2560SOL     OW 8578   6.936   2.714   5.945
 2560SOL    HW1 8579   6.958   2.694   6.040
 2560SOL    HW2 8580   6.989   2.794   5.915
 2561SOL     OW 8581   3.203   4.964   4.806
 2561SOL    HW1 8582   3.133   4.897   4.830
 2561SOL    HW2 8583   3.182   5.052   4.850
 2562SOL     OW 8584   2.350   4.253   1.130
 2562SOL    HW1 8585   2.402   4.180   1.174
 2562SOL    HW2 8586   2.413   4.315   1.083
 2563SOL     OW 8587   2.641   0.721   0.543
 2563SOL    HW1 8588   2.682   0.798   0.592
 2563SOL    HW2 8589   2.699   0.640   0.553
 2564SOL     OW 8590   1.137   5.348   0.943
 2564SOL    HW1 8591   1.101   5.397   1.022
 2564SOL    HW2 8592   1.122   5.402   0.860
 2565SOL     OW 8593   0.430   0.678   0.373
 2565SOL    HW1 8594   0.483   0.762   0.372
 2565SOL    HW2 8595   0.432   0.636   0.282
 2566SOL     OW 8596   2.328   6.267   1.187
 2566SOL    HW1 8597   2.305   6.179   1.146
 2566SOL    HW2 8598   2.418   6.261   1.231
 2567SOL     OW 8599   1.302   0.279   0.908
 2567SOL    HW1 8600   1.238   0.356   0.908
 2567SOL    HW2 8601   1.256   0.197   0.942
 2568SOL     OW 8602   4.646   2.569   0.046
 2568SOL    HW1 8603   4.677   2.500   0.111
 2568SOL    HW2 8604   4.637   2.528   6.981
 2569SOL     OW 8605   3.299   1.253   3.197
 2569SOL    HW1 8606   3.345   1.334   3.233
 2569SOL    HW2 8607   3.292   1.184   3.269
 2570SOL     OW 8608   5.643   1.007   5.909
 2570SOL    HW1 8609   5.711   0.959   5.854
 2570SOL    HW2 8610   5.554   1.002   5.865
 2571SOL     OW 8611   1.401   4.828   4.017
 2571SOL    HW1 8612   1.393   4.924   3.990
 2571SOL    HW2 8613   1.323   4.777   3.983
 2572SOL     OW 8614   2.821   4.929   2.764
 2572SOL    HW1 8615   2.812   4.899   2.859
 2572SOL    HW2 8616   2.840   5.027   2.761
 2573SOL     OW 8617   0.411   1.555   0.707
 2573SOL    HW1 8618   0.456   1.492   0.771
 2573SOL    HW2 8619   0.374   1.504   0.630
 2574SOL     OW 8620   5.705   3.184   0.940
 2574SOL    HW1 8621   5.797   3.222   0.949
 2574SOL    HW2 8622   5.709   3.095   0.896
 2575SOL     OW 8623   6.079   5.888   0.098
 2575SOL    HW1 8624   6.042   5.796   0.111
 2575SOL    HW2 8625   6.083   5.936   0.186
 2576SOL     OW 8626   4.348   6.337   4.694
 2576SOL    HW1 8627   4.318   6.402   4.625
 2576SOL    HW2 8628   4.301   6.355   4.781
 2577SOL     OW 8629   2.932   4.890   2.329
 2577SOL    HW1 8630   2.983   4.968   2.364
 2577SOL    HW2 8631   2.995   4.825   2.287
 2578SOL     OW 8632   3.940   1.037   4.193
 2578SOL    HW1 8633   4.003   1.071   4.262
 2578SOL    HW2 8634   3.848   1.073   4.211
 2579SOL     OW 8635   0.316   6.216   3.635
 2579SOL    HW1 8636   0.275   6.126   3.626
 2579SOL    HW2 8637   0.251   6.278   3.679
 2580SOL     OW 8638   2.335   4.654   0.165
 2580SOL    HW1 8639   2.371   4.640   0.258
 2580SOL    HW2 8640   2.247   4.607   0.156
 2581SOL     OW 8641   2.631   6.210   6.379
 2581SOL    HW1 8642   2.538   6.199   6.343
 2581SOL    HW2 8643   2.696   6.209   6.303
 2582SOL     OW 8644   6.884   3.855   1.033
 2582SOL    HW1 8645   6.804   3.916   1.034
 2582SOL    HW2 8646   6.867   3.777   1.094
 2583SOL     OW 8647   0.171   0.268   0.812
 2583SOL    HW1 8648   0.082   0.261   0.768
 2583SOL    HW2 8649   0.238   0.303   0.746
 2584SOL     OW 8650   4.004   5.229   5.579
 2584SOL    HW1 8651   3.945   5.152   5.555
 2584SOL    HW2 8652   3.962   5.314   5.549
 2585SOL     OW 8653   2.980   5.184   6.868
 2585SOL    HW1 8654   3.044   5.142   6.804
 2585SOL    HW2 8655   3.006   5.159   6.961
 2586SOL     OW 8656   2.686   1.343   5.789
 2586SOL    HW1 8657   2.765   1.287   5.766
 2586SOL    HW2 8658   2.638   1.368   5.705
 2587SOL     OW 8659   0.856   0.894   2.898
 2587SOL    HW1 8660   0.819   0.846   2.818
 2587SOL    HW2 8661   0.852   0.993   2.883
 2588SOL     OW 8662   4.179   2.090   5.379
 2588SOL    HW1 8663   4.265   2.111   5.332
 2588SOL    HW2 8664   4.190   2.106   5.477
 2589SOL     OW 8665   0.957   6.532   6.704
 2589SOL    HW1 8666   0.896   6.524   6.783
 2589SOL    HW2 8667   1.052   6.530   6.734
 2590SOL     OW 8668   2.982   4.963   0.383
 2590SOL    HW1 8669   2.962   5.056   0.414
 2590SOL    HW2 8670   2.910   4.902   0.414
 2591SOL     OW 8671   6.107   5.659   3.704
 2591SOL    HW1 8672   6.087   5.684   3.799
 2591SOL    HW2 8673   6.205   5.667   3.688
 2592SOL     OW 8674   2.497   4.077   6.704
 2592SOL    HW1 8675   2.554   4.120   6.774
 2592SOL    HW2 8676   2.532   4.099   6.613
 2593SOL     OW 8677   3.264   5.618   0.877
 2593SOL    HW1 8678   3.329   5.547   0.850
 2593SOL    HW2 8679   3.310   5.686   0.934
 2594SOL     OW 8680   2.400   4.441   5.844
 2594SOL    HW1 8681   2.462   4.378   5.797
 2594SOL    HW2 8682   2.307   4.431   5.807
 2595SOL     OW 8683   1.195   1.451   4.024
 2595SOL    HW1 8684   1.276   1.394   4.036
 2595SOL    HW2 8685   1.177   1.503   4.107
 2596SOL     OW 8686   1.879   3.058   1.289
 2596SOL    HW1 8687   1.940   3.138   1.290
 2596SOL    HW2 8688   1.833   3.050   1.378
 2597SOL     OW 8689   0.559   5.046   6.173
 2597SOL    HW1 8690   0.588   5.081   6.262
 2597SOL    HW2 8691   0.639   5.021   6.119
 2598SOL     OW 8692   5.942   1.775   1.892
 2598SOL    HW1 8693   5.934   1.816   1.983
 2598SOL    HW2 8694   6.012   1.822   1.840
 2599SOL     OW 8695   3.031   6.061   1.841
 2599SOL    HW1 8696   2.999   6.154   1.855
 2599SOL    HW2 8697   3.033   6.041   1.743
 2600SOL     OW 8698   6.346   3.728   4.731
 2600SOL    HW1 8699   6.371   3.789   4.656
 2600SOL    HW2 8700   6.420   3.726   4.799
 2601SOL     OW 8701   1.294   1.422   2.088
 2601SOL    HW1 8702   1.302   1.471   2.175
 2601SOL    HW2 8703   1.217   1.358   2.093
 2602SOL     OW 8704   2.024   4.670   4.293
 2602SOL    HW1 8705   2.055   4.644   4.385
 2602SOL    HW2 8706   2.093   4.727   4.249
 2603SOL     OW 8707   2.843   1.119   2.103
 2603SOL    HW1 8708   2.863   1.128   2.201
 2603SOL    HW2 8709   2.890   1.038   2.067
 2604SOL     OW 8710   5.619   1.565   1.792
 2604SOL    HW1 8711   5.627   1.664   1.789
 2604SOL    HW2 8712   5.697   1.526   1.841
 2605SOL     OW 8713   1.361   3.907   2.229
 2605SOL    HW1 8714   1.421   3.959   2.169
 2605SOL    HW2 8715   1.412   3.877   2.309
 2606SOL     OW 8716   5.112   4.383   1.550
 2606SOL    HW1 8717   5.149   4.318   1.616
 2606SOL    HW2 8718   5.046   4.336   1.491
 2607SOL     OW 8719   1.698   2.533   0.913
 2607SOL    HW1 8720   1.655   2.522   1.003
 2607SOL    HW2 8721   1.636   2.497   0.843
 2608SOL     OW 8722   2.153   6.218   6.541
 2608SOL    HW1 8723   2.129   6.315   6.533
 2608SOL    HW2 8724   2.073   6.162   6.520
 2609SOL     OW 8725   0.545   1.054   1.338
 2609SOL    HW1 8726   0.535   0.956   1.354
 2609SOL    HW2 8727   0.508   1.105   1.416
 2610SOL     OW 8728   0.827   4.945   4.620
 2610SOL    HW1 8729   0.915   4.973   4.659
 2610SOL    HW2 8730   0.822   4.845   4.618
 2611SOL     OW 8731   4.652   6.565   6.946
 2611SOL    HW1 8732   4.737   6.596   6.988
 2611SOL    HW2 8733   4.593   6.643   6.928
 2612SOL     OW 8734   5.306   0.327   4.665
 2612SOL    HW1 8735   5.320   0.348   4.762
 2612SOL    HW2 8736   5.384   0.362   4.612
 2613SOL     OW 8737   0.652   5.712   6.704
 2613SOL    HW1 8738   0.663   5.742   6.609
 2613SOL    HW2 8739   0.561   5.739   6.737
 2614SOL     OW 8740   6.119   1.282   5.939
 2614SOL    HW1 8741   6.092   1.303   5.845
 2614SOL    HW2 8742   6.072   1.198   5.968
 2615SOL     OW 8743   1.335   3.588   1.176
 2615SOL    HW1 8744   1.364   3.595   1.080
 2615SOL    HW2 8745   1.242   3.623   1.185
 2616SOL     OW 8746   1.396   0.660   5.219
 2616SOL    HW1 8747   1.464   0.683   5.289
 2616SOL    HW2 8748   1.305   0.672   5.257
 2617SOL     OW 8749   5.690   0.388   0.349
 2617SOL    HW1 8750   5.635   0.323   0.297
 2617SOL    HW2 8751   5.700   0.355   0.443
 2618SOL     OW 8752   1.543   5.787   5.960
 2618SOL    HW1 8753   1.546   5.852   5.884
 2618SOL    HW2 8754   1.481   5.712   5.939
 2619SOL     OW 8755   4.467   1.627   1.930
 2619SOL    HW1 8756   4.424   1.682   2.002
 2619SOL    HW2 8757   4.447   1.668   1.841
 2620SOL     OW 8758   6.751   6.122   1.698
 2620SOL    HW1 8759   6.692   6.055   1.743
 2620SOL    HW2 8760   6.697   6.173   1.631
 2621SOL     OW 8761   1.094   5.906   2.727
 2621SOL    HW1 8762   1.124   5.870   2.816
 2621SOL    HW2 8763   1.040   5.989   2.743
 2622SOL     OW 8764   2.891   3.445   6.235
 2622SOL    HW1 8765   2.988   3.424   6.239
 2622SOL    HW2 8766   2.843   3.394   6.306
 2623SOL     OW 8767   0.586   6.925   3.971
 2623SOL    HW1 8768   0.628   6.922   3.880
 2623SOL    HW2 8769   0.601   6.838   4.018
 2624SOL     OW 8770   6.767   2.149   4.579
 2624SOL    HW1 8771   6.762   2.179   4.675
 2624SOL    HW2 8772   6.763   2.230   4.520
 2625SOL     OW 8773   1.620   5.167   5.677
 2625SOL    HW1 8774   1.557   5.214   5.740
 2625SOL    HW2 8775   1.710   5.162   5.719
 2626SOL     OW 8776   6.655   6.659   5.330
 2626SOL    HW1 8777   6.596   6.616   5.262
 2626SOL    HW2 8778   6.750   6.637   5.310
 2627SOL     OW 8779   1.031   6.864   5.884
 2627SOL    HW1 8780   1.123   6.901   5.898
 2627SOL    HW2 8781   0.998   6.824   5.969
 2628SOL     OW 8782   1.618   3.873   2.970
 2628SOL    HW1 8783   1.564   3.790   2.988
 2628SOL    HW2 8784   1.706   3.847   2.930
 2629SOL     OW 8785   3.309   4.122   3.136
 2629SOL    HW1 8786   3.215   4.112   3.103
 2629SOL    HW2 8787   3.372   4.077   3.073
 2630SOL     OW 8788   3.877   1.323   3.425
 2630SOL    HW1 8789   3.795   1.278   3.459
 2630SOL    HW2 8790   3.956   1.293   3.478
 2631SOL     OW 8791   5.563   0.678   6.791
 2631SOL    HW1 8792   5.611   0.614   6.852
 2631SOL    HW2 8793   5.487   0.720   6.841
 2632SOL     OW 8794   5.672   4.864   2.186
 2632SOL    HW1 8795   5.697   4.785   2.243
 2632SOL    HW2 8796   5.755   4.917   2.165
 2633SOL     OW 8797   6.787   2.803   5.262
 2633SOL    HW1 8798   6.870   2.762   5.300
 2633SOL    HW2 8799   6.770   2.766   5.171
 2634SOL     OW 8800   6.317   0.374   4.806
 2634SOL    HW1 8801   6.379   0.401   4.732
 2634SOL    HW2 8802   6.361   0.388   4.894
 2635SOL     OW 8803   5.223   5.454   3.986
 2635SOL    HW1 8804   5.196   5.382   3.923
 2635SOL    HW2 8805   5.319   5.476   3.973
 2636SOL     OW 8806   3.846   0.405   5.812
 2636SOL    HW1 8807   3.847   0.483   5.750
 2636SOL    HW2 8808   3.915   0.419   5.884
 2637SOL     OW 8809   1.289   1.462   2.857
 2637SOL    HW1 8810   1.352   1.526   2.814
 2637SOL    HW2 8811   1.224   1.513   2.914
 2638SOL     OW 8812   1.005   0.415   4.307
 2638SOL    HW1 8813   1.029   0.503   4.266
 2638SOL    HW2 8814   1.041   0.411   4.401
 2639SOL     OW 8815   4.729   4.998   4.466
 2639SOL    HW1 8816   4.763   4.953   4.549
 2639SOL    HW2 8817   4.781   5.082   4.450
 2640SOL     OW 8818   0.902   6.807   4.595
 2640SOL    HW1 8819   0.914   6.745   4.517
 2640SOL    HW2 8820   0.928   6.759   4.679
 2641SOL     OW 8821   5.036   2.436   6.888
 2641SOL    HW1 8822   4.977   2.475   6.817
 2641SOL    HW2 8823   5.031   2.493   6.970
 2642SOL     OW 8824   0.175   1.321   3.865
 2642SOL    HW1 8825   0.098   1.327   3.928
 2642SOL    HW2 8826   0.157   1.378   3.785
 2643SOL     OW 8827   1.169   4.178   3.394
 2643SOL    HW1 8828   1.236   4.252   3.387
 2643SOL    HW2 8829   1.160   4.132   3.305
 2644SOL     OW 8830   5.238   5.644   4.815
 2644SOL    HW1 8831   5.203   5.585   4.888
 2644SOL    HW2 8832   5.160   5.685   4.767
 2645SOL     OW 8833   4.716   5.154   3.556
 2645SOL    HW1 8834   4.731   5.253   3.556
 2645SOL    HW2 8835   4.797   5.108   3.595
 2646SOL     OW 8836   0.442   3.610   5.842
 2646SOL    HW1 8837   0.455   3.588   5.938
 2646SOL    HW2 8838   0.522   3.582   5.790
 2647SOL     OW 8839   5.044   6.818   1.703
 2647SOL    HW1 8840   5.032   6.778   1.612
 2647SOL    HW2 8841   5.080   6.911   1.693
 2648SOL     OW 8842   0.386   0.214   4.155
 2648SOL    HW1 8843   0.345   0.289   4.103
 2648SOL    HW2 8844   0.481   0.202   4.128
 2649SOL     OW 8845   4.815   2.462   2.066
 2649SOL    HW1 8846   4.787   2.558   2.058
 2649SOL    HW2 8847   4.908   2.451   2.030
 2650SOL     OW 8848   3.698   6.107   5.305
 2650SOL    HW1 8849   3.610   6.149   5.286
 2650SOL    HW2 8850   3.756   6.110   5.223
 2651SOL     OW 8851   4.208   1.861   5.181
 2651SOL    HW1 8852   4.254   1.773   5.172
 2651SOL    HW2 8853   4.273   1.935   5.162
 2652SOL     OW 8854   5.245   3.593   5.378
 2652SOL    HW1 8855   5.332   3.622   5.340
 2652SOL    HW2 8856   5.207   3.518   5.323
 2653SOL     OW 8857   3.315   6.496   6.690
 2653SOL    HW1 8858   3.242   6.430   6.708
 2653SOL    HW2 8859   3.318   6.564   6.764
 2654SOL     OW 8860   5.387   0.847   0.255
 2654SOL    HW1 8861   5.324   0.819   0.183
 2654SOL    HW2 8862   5.459   0.906   0.217
 2655SOL     OW 8863   5.148   6.224   2.911
 2655SOL    HW1 8864   5.081   6.298   2.915
 2655SOL    HW2 8865   5.103   6.139   2.885
 2656SOL     OW 8866   3.482   5.395   3.681
 2656SOL    HW1 8867   3.393   5.439   3.673
 2656SOL    HW2 8868   3.479   5.327   3.755
 2657SOL     OW 8869   2.451   3.367   0.190
 2657SOL    HW1 8870   2.476   3.271   0.173
 2657SOL    HW2 8871   2.358   3.370   0.227
 2658SOL     OW 8872   4.380   4.515   5.890
 2658SOL    HW1 8873   4.324   4.437   5.863
 2658SOL    HW2 8874   4.335   4.565   5.964
 2659SOL     OW 8875   6.252   2.263   4.833
 2659SOL    HW1 8876   6.246   2.268   4.733
 2659SOL    HW2 8877   6.162   2.242   4.871
 2660SOL     OW 8878   0.910   2.070   1.479
 2660SOL    HW1 8879   1.001   2.048   1.514
 2660SOL    HW2 8880   0.858   1.986   1.467
 2661SOL     OW 8881   1.647   0.839   1.012
 2661SOL    HW1 8882   1.550   0.849   1.037
 2661SOL    HW2 8883   1.702   0.901   1.068
 2662SOL     OW 8884   3.018   0.912   2.626
 2662SOL    HW1 8885   3.105   0.886   2.669
 2662SOL    HW2 8886   3.008   0.863   2.540
 2663SOL     OW 8887   4.035   6.785   6.325
 2663SOL    HW1 8888   3.969   6.710   6.317
 2663SOL    HW2 8889   4.086   6.794   6.240
 2664SOL     OW 8890   3.993   2.727   5.783
 2664SOL    HW1 8891   3.936   2.658   5.827
 2664SOL    HW2 8892   3.940   2.810   5.769
 2665SOL     OW 8893   2.293   4.038   5.402
 2665SOL    HW1 8894   2.315   4.019   5.306
 2665SOL    HW2 8895   2.374   4.023   5.458
 2666SOL     OW 8896   2.185   3.989   2.224
 2666SOL    HW1 8897   2.173   3.905   2.170
 2666SOL    HW2 8898   2.191   4.067   2.162
 2667SOL     OW 8899   5.824   4.013   3.966
 2667SOL    HW1 8900   5.751   3.949   3.940
 2667SOL    HW2 8901   5.829   4.019   4.066
 2668SOL     OW 8902   5.969   1.469   4.504
 2668SOL    HW1 8903   5.980   1.381   4.551
 2668SOL    HW2 8904   5.894   1.463   4.438
 2669SOL     OW 8905   2.268   0.494   0.480
 2669SOL    HW1 8906   2.273   0.594   0.478
 2669SOL    HW2 8907   2.184   0.465   0.525
 2670SOL     OW 8908   0.008   1.192   5.819
 2670SOL    HW1 8909   6.975   1.153   5.748
 2670SOL    HW2 8910   7.000   1.284   5.842
 2671SOL     OW 8911   4.061   5.355   5.837
 2671SOL    HW1 8912   4.063   5.455   5.834
 2671SOL    HW2 8913   4.020   5.320   5.753
 2672SOL     OW 8914   4.194   0.652   1.780
 2672SOL    HW1 8915   4.247   0.658   1.695
 2672SOL    HW2 8916   4.257   0.646   1.858
 2673SOL     OW 8917   5.106   0.171   2.485
 2673SOL    HW1 8918   5.070   0.080   2.470
 2673SOL    HW2 8919   5.110   0.220   2.397
 2674SOL     OW 8920   1.066   5.548   2.892
 2674SOL    HW1 8921   0.968   5.563   2.903
 2674SOL    HW2 8922   1.116   5.614   2.948
 2675SOL     OW 8923   6.169   0.210   4.212
 2675SOL    HW1 8924   6.255   0.261   4.213
 2675SOL    HW2 8925   6.188   0.115   4.187
 2676SOL     OW 8926   3.226   3.653   3.099
 2676SOL    HW1 8927   3.320   3.671   3.125
 2676SOL    HW2 8928   3.164   3.703   3.160
 2677SOL     OW 8929   2.154   4.950   1.483
 2677SOL    HW1 8930   2.117   4.923   1.395
 2677SOL    HW2 8931   2.254   4.959   1.476
 2678SOL     OW 8932   5.579   2.520   2.663
 2678SOL    HW1 8933   5.611   2.429   2.691
 2678SOL    HW2 8934   5.627   2.547   2.580
 2679SOL     OW 8935   2.204   5.148   3.552
 2679SOL    HW1 8936   2.259   5.230   3.567
 2679SOL    HW2 8937   2.263   5.074   3.520
 2680SOL     OW 8938   1.279   1.908   6.551
 2680SOL    HW1 8939   1.378   1.899   6.546
 2680SOL    HW2 8940   1.254   2.004   6.562
 2681SOL     OW 8941   1.481   2.334   5.140
 2681SOL    HW1 8942   1.552   2.269   5.169
 2681SOL    HW2 8943   1.524   2.412   5.095
 2682SOL     OW 8944   4.688   4.248   1.522
 2682SOL    HW1 8945   4.680   4.171   1.584
 2682SOL    HW2 8946   4.610   4.310   1.535
 2683SOL     OW 8947   2.029   4.353   2.663
 2683SOL    HW1 8948   2.096   4.291   2.621
 2683SOL    HW2 8949   1.992   4.311   2.746
 2684SOL     OW 8950   5.638   6.084   2.249
 2684SOL    HW1 8951   5.647   5.986   2.264
 2684SOL    HW2 8952   5.542   6.108   2.235
 2685SOL     OW 8953   0.569   5.898   5.090
 2685SOL    HW1 8954   0.658   5.857   5.069
 2685SOL    HW2 8955   0.575   5.997   5.080
 2686SOL     OW 8956   1.316   1.086   4.269
 2686SOL    HW1 8957   1.400   1.041   4.238
 2686SOL    HW2 8958   1.262   1.022   4.324
 2687SOL     OW 8959   4.034   1.438   1.955
 2687SOL    HW1 8960   3.976   1.519   1.968
 2687SOL    HW2 8961   4.114   1.463   1.900
 2688SOL     OW 8962   3.533   3.085   5.981
 2688SOL    HW1 8963   3.448   3.057   6.026
 2688SOL    HW2 8964   3.611   3.058   6.037
 2689SOL     OW 8965   0.743   3.992   3.261
 2689SOL    HW1 8966   0.656   4.035   3.237
 2689SOL    HW2 8967   0.818   4.042   3.218
 2690SOL     OW 8968   3.273   1.583   5.945
 2690SOL    HW1 8969   3.354   1.538   5.909
 2690SOL    HW2 8970   3.286   1.682   5.943
 2691SOL     OW 8971   0.319   4.536   3.780
 2691SOL    HW1 8972   0.354   4.551   3.688
 2691SOL    HW2 8973   0.383   4.477   3.830
 2692SOL     OW 8974   2.897   5.715   2.655
 2692SOL    HW1 8975   2.879   5.693   2.559
 2692SOL    HW2 8976   2.823   5.676   2.711
 2693SOL     OW 8977   1.673   5.937   3.606
 2693SOL    HW1 8978   1.630   5.886   3.532
 2693SOL    HW2 8979   1.676   6.034   3.582
 2694SOL     OW 8980   2.979   6.895   4.144
 2694SOL    HW1 8981   2.911   6.902   4.071
 2694SOL    HW2 8982   3.070   6.892   4.105
 2695SOL     OW 8983   6.760   6.079   3.088
 2695SOL    HW1 8984   6.846   6.096   3.137
 2695SOL    HW2 8985   6.689   6.053   3.154
 2696SOL     OW 8986   4.781   4.339   5.787
 2696SOL    HW1 8987   4.777   4.420   5.729
 2696SOL    HW2 8988   4.852   4.351   5.857
 2697SOL     OW 8989   3.919   2.414   0.581
 2697SOL    HW1 8990   3.985   2.381   0.649
 2697SOL    HW2 8991   3.832   2.431   0.626
 2698SOL     OW 8992   1.584   4.303   6.095
 2698SOL    HW1 8993   1.659   4.354   6.053
 2698SOL    HW2 8994   1.509   4.367   6.116
 2699SOL     OW 8995   3.585   5.735   2.069
 2699SOL    HW1 8996   3.553   5.717   2.162
 2699SOL    HW2 8997   3.675   5.694   2.057
 2700SOL     OW 8998   2.835   2.020   1.683
 2700SOL    HW1 8999   2.894   2.068   1.619
 2700SOL    HW2 9000   2.803   2.084   1.753
 2701SOL     OW 9001   5.068   2.944   4.684
 2701SOL    HW1 9002   5.016   2.863   4.656
 2701SOL    HW2 9003   5.004   3.018   4.706
 2702SOL     OW 9004   2.501   1.770   4.811
 2702SOL    HW1 9005   2.512   1.869   4.814
 2702SOL    HW2 9006   2.571   1.730   4.752
 2703SOL     OW 9007   1.247   6.601   2.303
 2703SOL    HW1 9008   1.323   6.622   2.242
 2703SOL    HW2 9009   1.162   6.637   2.266
 2704SOL     OW 9010   6.106   6.461   3.349
 2704SOL    HW1 9011   6.139   6.527   3.282
 2704SOL    HW2 9012   6.022   6.419   3.315
 2705SOL     OW 9013   0.493   0.572   4.715
 2705SOL    HW1 9014   0.465   0.649   4.657
 2705SOL    HW2 9015   0.413   0.514   4.734
 2706SOL     OW 9016   6.869   4.211   4.188
 2706SOL    HW1 9017   6.820   4.128   4.162
 2706SOL    HW2 9018   6.807   4.271   4.239
 2707SOL     OW 9019   3.865   0.468   3.058
 2707SOL    HW1 9020   3.915   0.542   3.103
 2707SOL    HW2 9021   3.896   0.460   2.963
 2708SOL     OW 9022   5.327   2.828   6.845
 2708SOL    HW1 9023   5.412   2.869   6.877
 2708SOL    HW2 9024   5.253   2.849   6.909
 2709SOL     OW 9025   5.485   0.440   4.919
 2709SOL    HW1 9026   5.579   0.435   4.950
 2709SOL    HW2 9027   5.433   0.362   4.954
 2710SOL     OW 9028   1.383   3.089   3.882
 2710SOL    HW1 9029   1.409   3.033   3.960
 2710SOL    HW2 9030   1.298   3.054   3.842
 2711SOL     OW 9031   3.562   2.050   3.087
 2711SOL    HW1 9032   3.634   2.091   3.143
 2711SOL    HW2 9033   3.584   1.954   3.068
 2712SOL     OW 9034   4.026   5.327   2.539
 2712SOL    HW1 9035   4.108   5.307   2.485
 2712SOL    HW2 9036   4.008   5.252   2.603
 2713SOL     OW 9037   3.899   4.717   6.632
 2713SOL    HW1 9038   3.910   4.673   6.721
 2713SOL    HW2 9039   3.912   4.650   6.560
 2714SOL     OW 9040   3.334   4.105   0.249
 2714SOL    HW1 9041   3.362   4.113   0.345
 2714SOL    HW2 9042   3.261   4.171   0.230
 2715SOL     OW 9043   4.638   0.939   0.944
 2715SOL    HW1 9044   4.566   0.911   1.007
 2715SOL    HW2 9045   4.667   1.032   0.964
 2716SOL     OW 9046   4.055   1.852   2.682
 2716SOL    HW1 9047   3.999   1.770   2.693
 2716SOL    HW2 9048   3.996   1.930   2.662
 2717SOL     OW 9049   0.839   1.373   2.637
 2717SOL    HW1 9050   0.795   1.463   2.630
 2717SOL    HW2 9051   0.898   1.358   2.557
 2718SOL     OW 9052   0.444   0.262   6.032
 2718SOL    HW1 9053   0.386   0.271   6.113
 2718SOL    HW2 9054   0.395   0.212   5.961
 2719SOL     OW 9055   1.789   3.721   2.367
 2719SOL    HW1 9056   1.789   3.667   2.283
 2719SOL    HW2 9057   1.697   3.758   2.383
 2720SOL     OW 9058   1.298   6.786   5.289
 2720SOL    HW1 9059   1.199   6.780   5.278
 2720SOL    HW2 9060   1.320   6.858   5.355
 2721SOL     OW 9061   3.257   5.589   1.810
 2721SOL    HW1 9062   3.199   5.531   1.752
 2721SOL    HW2 9063   3.351   5.556   1.806
 2722SOL     OW 9064   4.726   5.156   6.737
 2722SOL    HW1 9065   4.723   5.058   6.753
 2722SOL    HW2 9066   4.675   5.178   6.653
 2723SOL     OW 9067   3.295   6.724   0.764
 2723SOL    HW1 9068   3.373   6.666   0.741
 2723SOL    HW2 9069   3.214   6.691   0.715
 2724SOL     OW 9070   1.212   5.917   0.916
 2724SOL    HW1 9071   1.155   5.861   0.976
 2724SOL    HW2 9072   1.298   5.938   0.962
 2725SOL     OW 9073   5.696   3.551   4.719
 2725SOL    HW1 9074   5.621   3.519   4.660
 2725SOL    HW2 9075   5.657   3.595   4.800
 2726SOL     OW 9076   0.341   1.853   1.143
 2726SOL    HW1 9077   0.329   1.945   1.105
 2726SOL    HW2 9078   0.268   1.794   1.110
 2727SOL     OW 9079   2.153   4.136   4.425
 2727SOL    HW1 9080   2.191   4.137   4.332
 2727SOL    HW2 9081   2.151   4.042   4.459
 2728SOL     OW 9082   5.065   5.399   6.439
 2728SOL    HW1 9083   5.121   5.476   6.470
 2728SOL    HW2 9084   5.003   5.372   6.513
 2729SOL     OW 9085   5.542   6.001   6.126
 2729SOL    HW1 9086   5.588   6.025   6.212
 2729SOL    HW2 9087   5.590   5.924   6.083
 2730SOL     OW 9088   0.577   5.783   2.107
 2730SOL    HW1 9089   0.499   5.777   2.169
 2730SOL    HW2 9090   0.547   5.764   2.013
 2731SOL     OW 9091   3.317   2.912   3.326
 2731SOL    HW1 9092   3.363   2.864   3.401
 2731SOL    HW2 9093   3.259   2.984   3.363
 2732SOL     OW 9094   5.402   1.340   1.692
 2732SOL    HW1 9095   5.479   1.397   1.720
 2732SOL    HW2 9096   5.356   1.383   1.614
 2733SOL     OW 9097   0.567   0.460   5.912
 2733SOL    HW1 9098   0.514   0.393   5.964
 2733SOL    HW2 9099   0.566   0.433   5.815
 2734SOL     OW 9100   3.525   5.542   1.863
 2734SOL    HW1 9101   3.624   5.529   1.858
 2734SOL    HW2 9102   3.503   5.600   1.942
 2735SOL     OW 9103   0.728   2.136   1.114
 2735SOL    HW1 9104   0.671   2.056   1.095
 2735SOL    HW2 9105   0.733   2.194   1.033
 2736SOL     OW 9106   4.243   5.660   2.939
 2736SOL    HW1 9107   4.234   5.714   3.023
 2736SOL    HW2 9108   4.228   5.718   2.859
 2737SOL     OW 9109   2.490   1.807   6.588
 2737SOL    HW1 9110   2.542   1.884   6.626
 2737SOL    HW2 9111   2.397   1.837   6.567
 2738SOL     OW 9112   5.811   0.186   1.458
 2738SOL    HW1 9113   5.862   0.104   1.432
 2738SOL    HW2 9114   5.856   0.231   1.535
 2739SOL     OW 9115   0.700   5.515   2.337
 2739SOL    HW1 9116   0.784   5.471   2.370
 2739SOL    HW2 9117   0.705   5.613   2.356
 2740SOL     OW 9118   6.804   6.145   2.832
 2740SOL    HW1 9119   6.788   6.108   2.923
 2740SOL    HW2 9120   6.895   6.121   2.801
 2741SOL     OW 9121   1.287   2.438   4.250
 2741SOL    HW1 9122   1.193   2.471   4.243
 2741SOL    HW2 9123   1.287   2.341   4.275
 2742SOL     OW 9124   3.278   4.800   1.899
 2742SOL    HW1 9125   3.371   4.771   1.922
 2742SOL    HW2 9126   3.262   4.892   1.935
 2743SOL     OW 9127   6.125   4.302   2.308
 2743SOL    HW1 9128   6.173   4.385   2.281
 2743SOL    HW2 9129   6.190   4.236   2.345
 2744SOL     OW 9130   3.401   3.763   2.826
 2744SOL    HW1 9131   3.309   3.728   2.844
 2744SOL    HW2 9132   3.407   3.795   2.731
 2745SOL     OW 9133   6.950   0.989   5.610
 2745SOL    HW1 9134   6.871   1.048   5.597
 2745SOL    HW2 9135   6.973   0.943   5.524
 2746SOL     OW 9136   1.514   0.725   3.282
 2746SOL    HW1 9137   1.536   0.759   3.190
 2746SOL    HW2 9138   1.431   0.670   3.278
 2747SOL     OW 9139   3.643   6.187   1.215
 2747SOL    HW1 9140   3.611   6.277   1.245
 2747SOL    HW2 9141   3.704   6.197   1.137
 2748SOL     OW 9142   4.358   6.725   1.079
 2748SOL    HW1 9143   4.335   6.757   0.987
 2748SOL    HW2 9144   4.429   6.655   1.074
 2749SOL     OW 9145   2.153   3.346   0.532
 2749SOL    HW1 9146   2.229   3.410   0.540
 2749SOL    HW2 9147   2.072   3.394   0.497
 2750SOL     OW 9148   2.431   5.392   2.406
 2750SOL    HW1 9149   2.456   5.461   2.473
 2750SOL    HW2 9150   2.429   5.302   2.449
 2751SOL     OW 9151   1.464   3.049   1.459
 2751SOL    HW1 9152   1.539   3.000   1.413
 2751SOL    HW2 9153   1.378   3.029   1.412
 2752SOL     OW 9154   4.104   4.619   5.934
 2752SOL    HW1 9155   4.049   4.668   6.002
 2752SOL    HW2 9156   4.066   4.528   5.920
 2753SOL     OW 9157   6.093   6.365   5.053
 2753SOL    HW1 9158   6.046   6.382   5.140
 2753SOL    HW2 9159   6.158   6.290   5.065
 2754SOL     OW 9160   0.397   6.319   6.365
 2754SOL    HW1 9161   0.460   6.386   6.326
 2754SOL    HW2 9162   0.444   6.266   6.434
 2755SOL     OW 9163   2.760   6.692   3.561
 2755SOL    HW1 9164   2.827   6.646   3.502
 2755SOL    HW2 9165   2.668   6.663   3.536
 2756SOL     OW 9166   5.181   6.649   0.267
 2756SOL    HW1 9167   5.109   6.583   0.247
 2756SOL    HW2 9168   5.261   6.629   0.210
 2757SOL     OW 9169   0.669   4.986   1.423
 2757SOL    HW1 9170   0.577   5.024   1.428
 2757SOL    HW2 9171   0.700   4.983   1.328
 2758SOL     OW 9172   4.928   0.977   5.953
 2758SOL    HW1 9173   4.887   0.940   5.870
 2758SOL    HW2 9174   4.922   0.909   6.026
 2759SOL     OW 9175   5.541   6.286   4.082
 2759SOL    HW1 9176   5.603   6.287   4.003
 2759SOL    HW2 9177   5.466   6.350   4.066
 2760SOL     OW 9178   2.152   5.303   2.262
 2760SOL    HW1 9179   2.224   5.328   2.327
 2760SOL    HW2 9180   2.192   5.298   2.170
 2761SOL     OW 9181   1.625   5.716   2.827
 2761SOL    HW1 9182   1.706   5.744   2.879
 2761SOL    HW2 9183   1.631   5.618   2.807
 2762SOL     OW 9184   1.382   6.561   5.419
 2762SOL    HW1 9185   1.363   6.647   5.373
 2762SOL    HW2 9186   1.298   6.524   5.458
 2763SOL     OW 9187   5.945   2.460   3.686
 2763SOL    HW1 9188   5.934   2.362   3.665
 2763SOL    HW2 9189   5.908   2.514   3.611
 2764SOL     OW 9190   5.589   0.348   0.901
 2764SOL    HW1 9191   5.591   0.430   0.843
 2764SOL    HW2 9192   5.683   0.323   0.925
 2765SOL     OW 9193   5.868   1.508   1.920
 2765SOL    HW1 9194   5.908   1.599   1.915
 2765SOL    HW2 9195   5.895   1.455   1.838
 2766SOL     OW 9196   5.694   1.539   1.256
 2766SOL    HW1 9197   5.793   1.544   1.271
 2766SOL    HW2 9198   5.670   1.449   1.218
 2767SOL     OW 9199   5.906   3.775   6.108
 2767SOL    HW1 9200   5.923   3.743   6.015
 2767SOL    HW2 9201   5.808   3.772   6.127
 2768SOL     OW 9202   4.969   1.466   6.685
 2768SOL    HW1 9203   5.061   1.447   6.650
 2768SOL    HW2 9204   4.969   1.459   6.784
 2769SOL     OW 9205   6.839   3.892   2.483
 2769SOL    HW1 9206   6.832   3.891   2.384
 2769SOL    HW2 9207   6.791   3.813   2.521
 2770SOL     OW 9208   1.427   5.053   2.050
 2770SOL    HW1 9209   1.359   5.014   1.987
 2770SOL    HW2 9210   1.401   5.033   2.144
 2771SOL     OW 9211   5.643   2.158   1.298
 2771SOL    HW1 9212   5.639   2.086   1.228
 2771SOL    HW2 9213   5.559   2.157   1.352
 2772SOL     OW 9214   4.264   2.765   0.203
 2772SOL    HW1 9215   4.348   2.720   0.234
 2772SOL    HW2 9216   4.205   2.698   0.157
 2773SOL     OW 9217   4.660   4.184   6.202
 2773SOL    HW1 9218   4.686   4.246   6.128
 2773SOL    HW2 9219   4.707   4.212   6.286
 2774SOL     OW 9220   5.782   2.990   1.756
 2774SOL    HW1 9221   5.844   2.960   1.683
 2774SOL    HW2 9222   5.809   2.946   1.842
 2775SOL     OW 9223   0.239   5.653   1.358
 2775SOL    HW1 9224   0.241   5.567   1.409
 2775SOL    HW2 9225   0.230   5.730   1.422
 2776SOL     OW 9226   3.867   6.503   6.062
 2776SOL    HW1 9227   3.817   6.544   6.139
 2776SOL    HW2 9228   3.904   6.415   6.090
 2777SOL     OW 9229   3.134   1.476   2.371
 2777SOL    HW1 9230   3.090   1.496   2.284
 2777SOL    HW2 9231   3.212   1.538   2.384
 2778SOL     OW 9232   2.291   1.954   6.017
 2778SOL    HW1 9233   2.269   2.007   6.099
 2778SOL    HW2 9234   2.387   1.925   6.021
 2779SOL     OW 9235   5.135   0.132   6.913
 2779SOL    HW1 9236   5.185   0.118   6.998
 2779SOL    HW2 9237   5.038   0.110   6.927
 2780SOL     OW 9238   4.608   5.205   6.499
 2780SOL    HW1 9239   4.656   5.120   6.480
 2780SOL    HW2 9240   4.652   5.280   6.448
 2781SOL     OW 9241   6.122   4.440   1.922
 2781SOL    HW1 9242   6.122   4.346   1.956
 2781SOL    HW2 9243   6.043   4.454   1.863
 2782SOL     OW 9244   3.284   2.207   6.359
 2782SOL    HW1 9245   3.357   2.163   6.412
 2782SOL    HW2 9246   3.215   2.243   6.421
 2783SOL     OW 9247   6.984   4.405   5.456
 2783SOL    HW1 9248   6.927   4.439   5.381
 2783SOL    HW2 9249   7.023   4.482   5.506
 2784SOL     OW 9250   1.960   2.857   1.157
 2784SOL    HW1 9251   1.926   2.941   1.200
 2784SOL    HW2 9252   2.024   2.811   1.220
 2785SOL     OW 9253   6.430   1.006   0.251
 2785SOL    HW1 9254   6.407   1.091   0.205
 2785SOL    HW2 9255   6.487   1.025   0.331
 2786SOL     OW 9256   4.157   6.388   0.687
 2786SOL    HW1 9257   4.091   6.449   0.644
 2786SOL    HW2 9258   4.160   6.301   0.638
 2787SOL     OW 9259   1.923   3.174   6.391
 2787SOL    HW1 9260   1.944   3.271   6.381
 2787SOL    HW2 9261   1.988   3.120   6.338
 2788SOL     OW 9262   2.816   4.333   0.480
 2788SOL    HW1 9263   2.876   4.400   0.437
 2788SOL    HW2 9264   2.752   4.380   0.541
 2789SOL     OW 9265   1.174   1.428   3.761
 2789SOL    HW1 9266   1.144   1.334   3.747
 2789SOL    HW2 9267   1.181   1.446   3.859
 2790SOL     OW 9268   3.328   5.113   3.224
 2790SOL    HW1 9269   3.337   5.209   3.199
 2790SOL    HW2 9270   3.244   5.100   3.277
 2791SOL     OW 9271   1.569   3.976   5.200
 2791SOL    HW1 9272   1.643   4.020   5.251
 2791SOL    HW2 9273   1.481   4.000   5.241
 2792SOL     OW 9274   1.290   0.914   5.022
 2792SOL    HW1 9275   1.314   0.997   4.971
 2792SOL    HW2 9276   1.192   0.897   5.014
 2793SOL     OW 9277   5.380   1.254   2.485
 2793SOL    HW1 9278   5.378   1.231   2.582
 2793SOL    HW2 9279   5.468   1.294   2.462
 2794SOL     OW 9280   0.234   2.048   0.029
 2794SOL    HW1 9281   0.165   2.000   7.001
 2794SOL    HW2 9282   0.323   2.004   0.016
 2795SOL     OW 9283   2.888   3.949   1.294
 2795SOL    HW1 9284   2.959   3.960   1.363
 2795SOL    HW2 9285   2.819   4.020   1.306
 2796SOL     OW 9286   6.078   3.807   2.853
 2796SOL    HW1 9287   6.085   3.735   2.922
 2796SOL    HW2 9288   6.012   3.781   2.784
 2797SOL     OW 9289   4.869   5.526   4.803
 2797SOL    HW1 9290   4.772   5.520   4.778
 2797SOL    HW2 9291   4.908   5.610   4.766
 2798SOL     OW 9292   1.117   3.742   3.530
 2798SOL    HW1 9293   1.045   3.791   3.482
 2798SOL    HW2 9294   1.173   3.807   3.582
 2799SOL     OW 9295   6.859   5.250   6.207
 2799SOL    HW1 9296   6.792   5.249   6.132
 2799SOL    HW2 9297   6.937   5.194   6.183
 2800SOL     OW 9298   4.107   4.841   6.910
 2800SOL    HW1 9299   4.131   4.778   6.836
 2800SOL    HW2 9300   4.068   4.925   6.871
 2801SOL     OW 9301   4.873   5.363   2.339
 2801SOL    HW1 9302   4.914   5.338   2.251
 2801SOL    HW2 9303   4.866   5.281   2.396
 2802SOL     OW 9304   3.847   1.587   5.446
 2802SOL    HW1 9305   3.824   1.503   5.495
 2802SOL    HW2 9306   3.856   1.662   5.511
 2803SOL     OW 9307   2.326   6.698   6.000
 2803SOL    HW1 9308   2.364   6.767   5.939
 2803SOL    HW2 9309   2.386   6.687   6.080
 2804SOL     OW 9310   6.570   4.603   3.956
 2804SOL    HW1 9311   6.535   4.661   3.883
 2804SOL    HW2 9312   6.638   4.655   4.009
 2805SOL     OW 9313   5.360   2.802   1.070
 2805SOL    HW1 9314   5.435   2.739   1.049
 2805SOL    HW2 9315   5.354   2.815   1.168
 2806SOL     OW 9316   6.100   5.145   3.269
 2806SOL    HW1 9317   6.043   5.157   3.188
 2806SOL    HW2 9318   6.196   5.152   3.243
 2807SOL     OW 9319   4.349   4.675   3.461
 2807SOL    HW1 9320   4.351   4.757   3.404
 2807SOL    HW2 9321   4.362   4.700   3.557
 2808SOL     OW 9322   5.451   1.523   3.104
 2808SOL    HW1 9323   5.549   1.535   3.119
 2808SOL    HW2 9324   5.417   1.449   3.162
 2809SOL     OW 9325   6.152   2.673   1.324
 2809SOL    HW1 9326   6.198   2.669   1.235
 2809SOL    HW2 9327   6.078   2.607   1.326
 2810SOL     OW 9328   2.799   6.797   5.398
 2810SOL    HW1 9329   2.867   6.726   5.415
 2810SOL    HW2 9330   2.842   6.887   5.406
 2811SOL     OW 9331   0.714   0.734   2.688
 2811SOL    HW1 9332   0.635   0.673   2.684
 2811SOL    HW2 9333   0.723   0.782   2.600
 2812SOL     OW 9334   4.921   3.881   2.910
 2812SOL    HW1 9335   4.877   3.891   2.821
 2812SOL    HW2 9336   4.928   3.784   2.934
 2813SOL     OW 9337   6.252   6.960   5.598
 2813SOL    HW1 9338   6.349   6.945   5.616
 2813SOL    HW2 9339   6.198   6.901   5.657
 2814SOL     OW 9340   4.238   4.274   5.873
 2814SOL    HW1 9341   4.146   4.307   5.853
 2814SOL    HW2 9342   4.247   4.180   5.841
 2815SOL     OW 9343   6.558   1.156   4.314
 2815SOL    HW1 9344   6.544   1.254   4.329
 2815SOL    HW2 9345   6.549   1.107   4.400
 2816SOL     OW 9346   5.921   0.020   3.740
 2816SOL    HW1 9347   5.825   0.042   3.722
 2816SOL    HW2 9348   5.943   0.043   3.835
 2817SOL     OW 9349   1.417   1.156   1.204
 2817SOL    HW1 9350   1.506   1.191   1.233
 2817SOL    HW2 9351   1.370   1.115   1.282
 2818SOL     OW 9352   6.832   4.930   6.298
 2818SOL    HW1 9353   6.773   4.980   6.362
 2818SOL    HW2 9354   6.897   4.875   6.350
 2819SOL     OW 9355   0.238   2.354   0.507
 2819SOL    HW1 9356   0.226   2.380   0.603
 2819SOL    HW2 9357   0.172   2.283   0.483
 2820SOL     OW 9358   0.190   2.358   2.787
 2820SOL    HW1 9359   0.269   2.316   2.742
 2820SOL    HW2 9360   0.130   2.287   2.822
 2821SOL     OW 9361   2.255   4.329   5.495
 2821SOL    HW1 9362   2.259   4.236   5.531
 2821SOL    HW2 9363   2.298   4.332   5.405
 2822SOL     OW 9364   4.734   2.393   0.235
 2822SOL    HW1 9365   4.673   2.357   0.306
 2822SOL    HW2 9366   4.821   2.420   0.276
 2823SOL     OW 9367   2.419   6.668   2.761
 2823SOL    HW1 9368   2.327   6.707   2.756
 2823SOL    HW2 9369   2.415   6.569   2.748
 2824SOL     OW 9370   2.454   1.189   5.250
 2824SOL    HW1 9371   2.382   1.169   5.317
 2824SOL    HW2 9372   2.542   1.192   5.296
 2825SOL     OW 9373   0.017   6.561   1.045
 2825SOL    HW1 9374   0.017   6.466   1.078
 2825SOL    HW2 9375   0.079   6.616   1.101
 2826SOL     OW 9376   5.392   2.180   5.430
 2826SOL    HW1 9377   5.338   2.194   5.347
 2826SOL    HW2 9378   5.402   2.082   5.447
 2827SOL     OW 9379   6.439   1.560   4.839
 2827SOL    HW1 9380   6.424   1.635   4.904
 2827SOL    HW2 9381   6.532   1.566   4.803
 2828SOL     OW 9382   4.248   0.914   6.299
 2828SOL    HW1 9383   4.218   0.998   6.253
 2828SOL    HW2 9384   4.184   0.840   6.278
 2829SOL     OW 9385   3.782   5.324   6.497
 2829SOL    HW1 9386   3.795   5.233   6.456
 2829SOL    HW2 9387   3.871   5.362   6.520
 2830SOL     OW 9388   5.588   3.433   6.303
 2830SOL    HW1 9389   5.501   3.456   6.260
 2830SOL    HW2 9390   5.659   3.426   6.233
 2831SOL     OW 9391   5.661   6.280   4.332
 2831SOL    HW1 9392   5.644   6.192   4.377
 2831SOL    HW2 9393   5.607   6.285   4.248
 2832SOL     OW 9394   0.233   1.418   1.004
 2832SOL    HW1 9395   0.139   1.417   0.970
 2832SOL    HW2 9396   0.250   1.336   1.059
 2833SOL     OW 9397   5.998   2.167   2.105
 2833SOL    HW1 9398   6.004   2.265   2.125
 2833SOL    HW2 9399   5.912   2.148   2.058
 2834SOL     OW 9400   3.272   1.510   6.373
 2834SOL    HW1 9401   3.237   1.449   6.302
 2834SOL    HW2 9402   3.368   1.530   6.356
 2835SOL     OW 9403   0.406   6.753   1.775
 2835SOL    HW1 9404   0.318   6.795   1.796
 2835SOL    HW2 9405   0.475   6.825   1.765
 2836SOL     OW 9406   6.874   6.849   1.548
 2836SOL    HW1 9407   6.840   6.886   1.635
 2836SOL    HW2 9408   6.864   6.750   1.547
 2837SOL     OW 9409   5.232   3.543   3.451
 2837SOL    HW1 9410   5.260   3.510   3.541
 2837SOL    HW2 9411   5.140   3.509   3.431
 2838SOL     OW 9412   2.560   4.569   2.013
 2838SOL    HW1 9413   2.528   4.655   1.973
 2838SOL    HW2 9414   2.660   4.563   2.006
 2839SOL     OW 9415   5.767   1.289   2.109
 2839SOL    HW1 9416   5.816   1.312   2.193
 2839SOL    HW2 9417   5.765   1.368   2.048
 2840SOL     OW 9418   0.188   1.710   4.782
 2840SOL    HW1 9419   0.154   1.796   4.820
 2840SOL    HW2 9420   0.115   1.667   4.728
 2841SOL     OW 9421   0.854   6.243   0.402
 2841SOL    HW1 9422   0.902   6.156   0.401
 2841SOL    HW2 9423   0.755   6.228   0.402
 2842SOL     OW 9424   6.926   3.389   3.834
 2842SOL    HW1 9425   7.015   3.386   3.789
 2842SOL    HW2 9426   6.938   3.376   3.932
 2843SOL     OW 9427   3.506   1.284   4.490
 2843SOL    HW1 9428   3.482   1.260   4.396
 2843SOL    HW2 9429   3.603   1.307   4.495
 2844SOL     OW 9430   1.354   3.948   0.033
 2844SOL    HW1 9431   1.259   3.919   0.046
 2844SOL    HW2 9432   1.357   4.047   0.020
 2845SOL     OW 9433   0.453   3.686   0.204
 2845SOL    HW1 9434   0.473   3.736   0.120
 2845SOL    HW2 9435   0.501   3.598   0.203
 2846SOL     OW 9436   5.125   1.476   6.975
 2846SOL    HW1 9437   5.048   1.434   7.022
 2846SOL    HW2 9438   5.141   1.567   7.011
 2847SOL     OW 9439   6.024   4.084   3.815
 2847SOL    HW1 9440   6.099   4.114   3.874
 2847SOL    HW2 9441   5.942   4.068   3.871
 2848SOL     OW 9442   0.335   4.377   5.460
 2848SOL    HW1 9443   0.282   4.334   5.534
 2848SOL    HW2 9444   0.295   4.351   5.372
 2849SOL     OW 9445   3.237   1.034   0.438
 2849SOL    HW1 9446   3.173   1.101   0.401
 2849SOL    HW2 9447   3.272   0.976   0.365
 2850SOL     OW 9448   2.928   0.181   1.205
 2850SOL    HW1 9449   2.917   0.119   1.282
 2850SOL    HW2 9450   2.991   0.140   1.139
 2851SOL     OW 9451   1.147   4.695   5.426
 2851SOL    HW1 9452   1.127   4.779   5.376
 2851SOL    HW2 9453   1.181   4.718   5.517
 2852SOL     OW 9454   6.079   3.310   6.462
 2852SOL    HW1 9455   6.130   3.394   6.482
 2852SOL    HW2 9456   6.027   3.283   6.543
 2853SOL     OW 9457   3.350   2.622   0.716
 2853SOL    HW1 9458   3.360   2.533   0.671
 2853SOL    HW2 9459   3.374   2.612   0.813
 2854SOL     OW 9460   2.576   0.967   4.384
 2854SOL    HW1 9461   2.603   0.877   4.418
 2854SOL    HW2 9462   2.546   0.959   4.289
 2855SOL     OW 9463   2.099   0.629   5.878
 2855SOL    HW1 9464   2.084   0.662   5.785
 2855SOL    HW2 9465   2.116   0.707   5.939
 2856SOL     OW 9466   2.316   2.498   5.749
 2856SOL    HW1 9467   2.223   2.522   5.721
 2856SOL    HW2 9468   2.350   2.424   5.692
 2857SOL     OW 9469   2.731   1.596   1.483
 2857SOL    HW1 9470   2.737   1.508   1.530
 2857SOL    HW2 9471   2.648   1.644   1.511
 2858SOL     OW 9472   6.597   2.775   2.004
 2858SOL    HW1 9473   6.509   2.734   2.031
 2858SOL    HW2 9474   6.670   2.735   2.060
 2859SOL     OW 9475   4.681   0.861   0.697
 2859SOL    HW1 9476   4.644   0.902   0.780
 2859SOL    HW2 9477   4.764   0.911   0.669
 2860SOL     OW 9478   3.893   1.827   1.854
 2860SOL    HW1 9479   3.908   1.913   1.903
 2860SOL    HW2 9480   3.809   1.834   1.799
 2861SOL     OW 9481   4.622   5.439   5.537
 2861SOL    HW1 9482   4.584   5.365   5.591
 2861SOL    HW2 9483   4.548   5.500   5.508
 2862SOL     OW 9484   5.763   1.948   3.863
 2862SOL    HW1 9485   5.849   1.996   3.846
 2862SOL    HW2 9486   5.780   1.865   3.915
 2863SOL     OW 9487   6.456   2.072   0.267
 2863SOL    HW1 9488   6.496   2.071   0.359
 2863SOL    HW2 9489   6.528   2.066   0.199
 2864SOL     OW 9490   3.852   0.497   0.896
 2864SOL    HW1 9491   3.793   0.559   0.949
 2864SOL    HW2 9492   3.826   0.403   0.915
 2865SOL     OW 9493   4.418   4.322   5.306
 2865SOL    HW1 9494   4.394   4.375   5.225
 2865SOL    HW2 9495   4.455   4.383   5.377
 2866SOL     OW 9496   6.820   6.249   6.839
 2866SOL    HW1 9497   6.792   6.324   6.778
 2866SOL    HW2 9498   6.775   6.165   6.810
 2867SOL     OW 9499   5.959   4.380   2.645
 2867SOL    HW1 9500   6.008   4.296   2.669
 2867SOL    HW2 9501   6.025   4.449   2.616
 2868SOL     OW 9502   0.368   3.794   5.494
 2868SOL    HW1 9503   0.336   3.888   5.508
 2868SOL    HW2 9504   0.433   3.769   5.566
 2869SOL     OW 9505   6.388   0.499   2.383
 2869SOL    HW1 9506   6.333   0.465   2.459
 2869SOL    HW2 9507   6.344   0.473   2.296
 2870SOL     OW 9508   6.511   1.791   3.700
 2870SOL    HW1 9509   6.503   1.730   3.622
 2870SOL    HW2 9510   6.439   1.860   3.696
 2871SOL     OW 9511   1.866   1.931   6.385
 2871SOL    HW1 9512   1.813   1.871   6.445
 2871SOL    HW2 9513   1.806   2.003   6.349
 2872SOL     OW 9514   2.643   1.164   3.989
 2872SOL    HW1 9515   2.683   1.228   3.924
 2872SOL    HW2 9516   2.585   1.214   4.054
 2873SOL     OW 9517   0.443   5.729   2.610
 2873SOL    HW1 9518   0.504   5.760   2.684
 2873SOL    HW2 9519   0.354   5.774   2.619
 2874SOL     OW 9520   5.130   3.943   2.186
 2874SOL    HW1 9521   5.045   3.911   2.145
 2874SOL    HW2 9522   5.181   3.865   2.223
 2875SOL     OW 9523   3.652   6.733   6.009
 2875SOL    HW1 9524   3.600   6.670   6.067
 2875SOL    HW2 9525   3.731   6.767   6.060
 2876SOL     OW 9526   0.691   1.211   1.631
 2876SOL    HW1 9527   0.768   1.233   1.691
 2876SOL    HW2 9528   0.607   1.207   1.685
 2877SOL     OW 9529   3.416   2.948   5.315
 2877SOL    HW1 9530   3.471   3.001   5.251
 2877SOL    HW2 9531   3.413   2.852   5.286
 2878SOL     OW 9532   2.617   4.618   4.756
 2878SOL    HW1 9533   2.623   4.646   4.852
 2878SOL    HW2 9534   2.539   4.557   4.743
 2879SOL     OW 9535   5.152   5.193   6.944
 2879SOL    HW1 9536   5.083   5.123   6.962
 2879SOL    HW2 9537   5.108   5.281   6.931
 2880SOL     OW 9538   6.974   5.823   0.527
 2880SOL    HW1 9539   0.011   5.880   0.473
 2880SOL    HW2 9540   6.919   5.881   0.587
 2881SOL     OW 9541   6.076   6.162   0.844
 2881SOL    HW1 9542   6.156   6.130   0.793
 2881SOL    HW2 9543   6.107   6.212   0.925
 2882SOL     OW 9544   0.348   3.208   2.603
 2882SOL    HW1 9545   0.274   3.144   2.623
 2882SOL    HW2 9546   0.428   3.185   2.659
 2883SOL     OW 9547   3.588   6.703   3.549
 2883SOL    HW1 9548   3.667   6.648   3.575
 2883SOL    HW2 9549   3.593   6.726   3.452
 2884SOL     OW 9550   0.755   6.882   3.344
 2884SOL    HW1 9551   0.799   6.813   3.402
 2884SOL    HW2 9552   0.659   6.891   3.369
 2885SOL     OW 9553   0.304   2.256   3.040
 2885SOL    HW1 9554   0.207   2.265   3.019
 2885SOL    HW2 9555   0.329   2.159   3.040
 2886SOL     OW 9556   1.924   2.513   6.989
 2886SOL    HW1 9557   1.967   2.434   0.006
 2886SOL    HW2 9558   1.971   2.596   7.019
 2887SOL     OW 9559   2.615   0.247   5.355
 2887SOL    HW1 9560   2.586   0.163   5.310
 2887SOL    HW2 9561   2.535   0.298   5.385
 2888SOL     OW 9562   6.795   4.569   6.764
 2888SOL    HW1 9563   6.784   4.658   6.720
 2888SOL    HW2 9564   6.720   4.553   6.827
 2889SOL     OW 9565   1.764   0.790   1.691
 2889SOL    HW1 9566   1.832   0.821   1.624
 2889SOL    HW2 9567   1.701   0.726   1.648
 2890SOL     OW 9568   3.339   0.533   1.335
 2890SOL    HW1 9569   3.261   0.574   1.288
 2890SOL    HW2 9570   3.307   0.461   1.397
 2891SOL     OW 9571   2.280   4.644   3.425
 2891SOL    HW1 9572   2.339   4.566   3.446
 2891SOL    HW2 9573   2.207   4.650   3.494
 2892SOL     OW 9574   3.967   4.140   6.434
 2892SOL    HW1 9575   3.889   4.085   6.406
 2892SOL    HW2 9576   3.975   4.138   6.534
 2893SOL     OW 9577   2.086   6.493   5.680
 2893SOL    HW1 9578   2.094   6.506   5.779
 2893SOL    HW2 9579   2.006   6.437   5.660
 2894SOL     OW 9580   2.835   2.716   6.682
 2894SOL    HW1 9581   2.865   2.769   6.761
 2894SOL    HW2 9582   2.740   2.687   6.694
 2895SOL     OW 9583   3.842   3.165   6.884
 2895SOL    HW1 9584   3.852   3.068   6.907
 2895SOL    HW2 9585   3.745   3.187   6.878
 2896SOL     OW 9586   2.696   5.312   0.338
 2896SOL    HW1 9587   2.637   5.238   0.305
 2896SOL    HW2 9588   2.661   5.347   0.424
 2897SOL     OW 9589   2.260   6.535   3.612
 2897SOL    HW1 9590   2.260   6.479   3.529
 2897SOL    HW2 9591   2.175   6.589   3.616
 2898SOL     OW 9592   4.463   5.132   2.784
 2898SOL    HW1 9593   4.383   5.102   2.835
 2898SOL    HW2 9594   4.467   5.084   2.697
 2899SOL     OW 9595   6.850   0.286   6.184
 2899SOL    HW1 9596   6.836   0.188   6.173
 2899SOL    HW2 9597   6.776   0.324   6.240
 2900SOL     OW 9598   1.154   4.841   6.047
 2900SOL    HW1 9599   1.243   4.822   6.007
 2900SOL    HW2 9600   1.101   4.900   5.985
 2901SOL     OW 9601   2.377   0.895   2.095
 2901SOL    HW1 9602   2.357   0.969   2.158
 2901SOL    HW2 9603   2.292   0.861   2.055
 2902SOL     OW 9604   5.195   6.292   0.480
 2902SOL    HW1 9605   5.180   6.262   0.386
 2902SOL    HW2 9606   5.152   6.227   0.543
 2903SOL     OW 9607   2.999   0.871   2.043
 2903SOL    HW1 9608   3.070   0.836   2.104
 2903SOL    HW2 9609   2.926   0.803   2.034
 2904SOL     OW 9610   2.449   3.332   5.323
 2904SOL    HW1 9611   2.459   3.234   5.342
 2904SOL    HW2 9612   2.370   3.347   5.265
 2905SOL     OW 9613   1.390   1.020   2.523
 2905SOL    HW1 9614   1.475   1.033   2.574
 2905SOL    HW2 9615   1.312   1.043   2.582
 2906SOL     OW 9616   4.999   5.272   2.130
 2906SOL    HW1 9617   5.044   5.280   2.041
 2906SOL    HW2 9618   5.059   5.222   2.193
 2907SOL     OW 9619   0.256   1.767   5.111
 2907SOL    HW1 9620   0.317   1.704   5.063
 2907SOL    HW2 9621   0.299   1.857   5.116
 2908SOL     OW 9622   3.854   6.753   4.561
 2908SOL    HW1 9623   3.805   6.667   4.576
 2908SOL    HW2 9624   3.888   6.788   4.649
 2909SOL     OW 9625   0.615   5.100   4.622
 2909SOL    HW1 9626   0.691   5.037   4.607
 2909SOL    HW2 9627   0.650   5.194   4.626
 2910SOL     OW 9628   3.218   6.612   5.198
 2910SOL    HW1 9629   3.193   6.697   5.152
 2910SOL    HW2 9630   3.135   6.561   5.222
 2911SOL     OW 9631   2.601   5.209   3.418
 2911SOL    HW1 9632   2.574   5.277   3.486
 2911SOL    HW2 9633   2.521   5.155   3.390
 2912SOL     OW 9634   2.864   5.803   0.427
 2912SOL    HW1 9635   2.904   5.824   0.337
 2912SOL    HW2 9636   2.769   5.771   0.415
 2913SOL     OW 9637   1.447   3.399   2.091
 2913SOL    HW1 9638   1.399   3.396   2.003
 2913SOL    HW2 9639   1.546   3.391   2.075
 2914SOL     OW 9640   5.207   4.481   5.867
 2914SOL    HW1 9641   5.144   4.498   5.791
 2914SOL    HW2 9642   5.265   4.403   5.846
 2915SOL     OW 9643   4.133   1.370   4.160
 2915SOL    HW1 9644   4.213   1.343   4.214
 2915SOL    HW2 9645   4.075   1.431   4.215
 2916SOL     OW 9646   6.218   4.502   5.547
 2916SOL    HW1 9647   6.309   4.468   5.523
 2916SOL    HW2 9648   6.157   4.424   5.560
 2917SOL     OW 9649   4.037   0.165   0.692
 2917SOL    HW1 9650   3.976   0.123   0.759
 2917SOL    HW2 9651   3.984   0.215   0.625
 2918SOL     OW 9652   0.358   3.580   3.175
 2918SOL    HW1 9653   0.371   3.520   3.254
 2918SOL    HW2 9654   0.432   3.647   3.171
 2919SOL     OW 9655   6.424   6.874   6.853
 2919SOL    HW1 9656   6.357   6.841   6.787
 2919SOL    HW2 9657   6.396   6.965   6.885
 2920SOL     OW 9658   3.600   2.112   2.542
 2920SOL    HW1 9659   3.600   2.073   2.449
 2920SOL    HW2 9660   3.693   2.111   2.578
 2921SOL     OW 9661   6.885   1.307   2.070
 2921SOL    HW1 9662   6.942   1.300   2.152
 2921SOL    HW2 9663   6.815   1.236   2.072
 2922SOL     OW 9664   5.062   6.694   5.737
 2922SOL    HW1 9665   5.037   6.602   5.768
 2922SOL    HW2 9666   5.053   6.698   5.637
 2923SOL     OW 9667   6.998   4.861   2.405
 2923SOL    HW1 9668   7.010   4.763   2.416
 2923SOL    HW2 9669   6.972   4.902   2.492
 2924SOL     OW 9670   0.874   1.364   5.875
 2924SOL    HW1 9671   0.912   1.329   5.790
 2924SOL    HW2 9672   0.916   1.452   5.896
 2925SOL     OW 9673   5.424   2.686   2.311
 2925SOL    HW1 9674   5.444   2.778   2.279
 2925SOL    HW2 9675   5.490   2.660   2.382
 2926SOL     OW 9676   0.061   1.957   4.826
 2926SOL    HW1 9677   0.032   1.957   4.921
 2926SOL    HW2 9678   0.083   2.051   4.798
 2927SOL     OW 9679   1.251   2.588   2.490
 2927SOL    HW1 9680   1.252   2.580   2.391
 2927SOL    HW2 9681   1.281   2.502   2.531
 2928SOL     OW 9682   6.810   0.356   6.623
 2928SOL    HW1 9683   6.741   0.424   6.597
 2928SOL    HW2 9684   6.838   0.372   6.718
 2929SOL     OW 9685   0.337   0.684   6.056
 2929SOL    HW1 9686   0.348   0.666   5.958
 2929SOL    HW2 9687   0.367   0.604   6.108
 2930SOL     OW 9688   5.243   0.676   4.730
 2930SOL    HW1 9689   5.314   0.706   4.667
 2930SOL    HW2 9690   5.154   0.687   4.687
 2931SOL     OW 9691   4.683   6.211   6.546
 2931SOL    HW1 9692   4.759   6.161   6.588
 2931SOL    HW2 9693   4.691   6.206   6.447
 2932SOL     OW 9694   1.319   4.480   1.967
 2932SOL    HW1 9695   1.356   4.558   2.017
 2932SOL    HW2 9696   1.230   4.503   1.930
 2933SOL     OW 9697   5.451   2.612   4.015
 2933SOL    HW1 9698   5.412   2.698   4.050
 2933SOL    HW2 9699   5.498   2.630   3.928
 2934SOL     OW 9700   3.680   6.777   0.291
 2934SOL    HW1 9701   3.607   6.842   0.311
 2934SOL    HW2 9702   3.664   6.735   0.202
 2935SOL     OW 9703   6.387   3.695   0.963
 2935SOL    HW1 9704   6.465   3.689   0.901
 2935SOL    HW2 9705   6.415   3.667   1.055
 2936SOL     OW 9706   4.716   5.789   0.643
 2936SOL    HW1 9707   4.699   5.694   0.618
 2936SOL    HW2 9708   4.678   5.849   0.573
 2937SOL     OW 9709   3.090   5.216   1.277
 2937SOL    HW1 9710   3.014   5.268   1.237
 2937SOL    HW2 9711   3.159   5.280   1.312
 2938SOL     OW 9712   4.804   5.559   5.366
 2938SOL    HW1 9713   4.727   5.518   5.414
 2938SOL    HW2 9714   4.792   5.547   5.268
 2939SOL     OW 9715   5.745   6.863   5.229
 2939SOL    HW1 9716   5.811   6.794   5.200
 2939SOL    HW2 9717   5.746   6.870   5.329
 2940SOL     OW 9718   5.383   7.012   5.472
 2940SOL    HW1 9719   5.436   0.070   5.479
 2940SOL    HW2 9720   5.308   7.014   5.538
 2941SOL     OW 9721   1.547   1.889   4.890
 2941SOL    HW1 9722   1.616   1.899   4.963
 2941SOL    HW2 9723   1.456   1.905   4.928
 2942SOL     OW 9724   3.265   0.252   2.349
 2942SOL    HW1 9725   3.203   0.184   2.310
 2942SOL    HW2 9726   3.285   0.321   2.279
 2943SOL     OW 9727   5.783   2.928   2.853
 2943SOL    HW1 9728   5.869   2.943   2.804
 2943SOL    HW2 9729   5.717   2.998   2.827
 2944SOL     OW 9730   3.130   4.902   5.514
 2944SOL    HW1 9731   3.077   4.871   5.594
 2944SOL    HW2 9732   3.118   4.837   5.440
 2945SOL     OW 9733   4.062   3.353   3.276
 2945SOL    HW1 9734   4.145   3.365   3.220
 2945SOL    HW2 9735   3.982   3.357   3.217
 2946SOL     OW 9736   6.686   6.078   5.670
 2946SOL    HW1 9737   6.762   6.142   5.664
 2946SOL    HW2 9738   6.617   6.103   5.602
 2947SOL     OW 9739   6.722   4.015   6.145
 2947SOL    HW1 9740   6.659   4.014   6.223
 2947SOL    HW2 9741   6.795   4.082   6.162
 2948SOL     OW 9742   6.563   3.686   5.441
 2948SOL    HW1 9743   6.464   3.679   5.453
 2948SOL    HW2 9744   6.605   3.596   5.456
 2949SOL     OW 9745   1.436   6.617   0.888
 2949SOL    HW1 9746   1.358   6.557   0.871
 2949SOL    HW2 9747   1.521   6.564   0.878
 2950SOL     OW 9748   5.861   3.759   4.325
 2950SOL    HW1 9749   5.842   3.704   4.243
 2950SOL    HW2 9750   5.948   3.807   4.313
 2951SOL     OW 9751   0.150   2.187   0.266
 2951SOL    HW1 9752   0.138   2.278   0.226
 2951SOL    HW2 9753   0.192   2.126   0.198
 2952SOL     OW 9754   1.303   4.493   2.691
 2952SOL    HW1 9755   1.371   4.541   2.636
 2952SOL    HW2 9756   1.349   4.432   2.755
 2953SOL     OW 9757   4.776   2.378   2.313
 2953SOL    HW1 9758   4.785   2.407   2.218
 2953SOL    HW2 9759   4.724   2.293   2.317
 2954SOL     OW 9760   0.431   6.301   1.794
 2954SOL    HW1 9761   0.502   6.370   1.777
 2954SOL    HW2 9762   0.404   6.259   1.707
 2955SOL     OW 9763   0.456   3.472   0.570
 2955SOL    HW1 9764   0.454   3.486   0.669
 2955SOL    HW2 9765   0.486   3.557   0.525
 2956SOL     OW 9766   0.279   5.671   2.969
 2956SOL    HW1 9767   0.310   5.576   2.970
 2956SOL    HW2 9768   0.350   5.728   2.928
 2957SOL     OW 9769   0.481   4.076   1.076
 2957SOL    HW1 9770   0.439   4.166   1.086
 2957SOL    HW2 9771   0.450   4.016   1.149
 2958SOL     OW 9772   1.774   4.486   5.950
 2958SOL    HW1 9773   1.790   4.584   5.940
 2958SOL    HW2 9774   1.688   4.461   5.906
 2959SOL     OW 9775   5.340   4.654   6.036
 2959SOL    HW1 9776   5.435   4.645   6.007
 2959SOL    HW2 9777   5.280   4.605   5.973
 2960SOL     OW 9778   3.007   1.897   0.574
 2960SOL    HW1 9779   3.060   1.836   0.633
 2960SOL    HW2 9780   2.920   1.920   0.618
 2961SOL     OW 9781   5.565   3.746   4.883
 2961SOL    HW1 9782   5.471   3.738   4.917
 2961SOL    HW2 9783   5.572   3.827   4.825
 2962SOL     OW 9784   4.653   1.384   3.548
 2962SOL    HW1 9785   4.574   1.327   3.571
 2962SOL    HW2 9786   4.695   1.418   3.632
 2963SOL     OW 9787   1.879   1.505   6.369
 2963SOL    HW1 9788   1.856   1.602   6.363
 2963SOL    HW2 9789   1.854   1.460   6.283
 2964SOL     OW 9790   1.744   6.682   1.760
 2964SOL    HW1 9791   1.683   6.683   1.681
 2964SOL    HW2 9792   1.830   6.638   1.734
 2965SOL     OW 9793   0.345   0.935   4.970
 2965SOL    HW1 9794   0.396   0.895   4.894
 2965SOL    HW2 9795   0.340   1.035   4.958
 2966SOL     OW 9796   5.241   4.371   3.717
 2966SOL    HW1 9797   5.245   4.271   3.707
 2966SOL    HW2 9798   5.284   4.397   3.803
 2967SOL     OW 9799   5.707   2.419   3.188
 2967SOL    HW1 9800   5.609   2.436   3.180
 2967SOL    HW2 9801   5.723   2.322   3.204
 2968SOL     OW 9802   1.064   4.209   5.139
 2968SOL    HW1 9803   1.147   4.175   5.183
 2968SOL    HW2 9804   1.075   4.205   5.040
 2969SOL     OW 9805   5.746   2.095   4.901
 2969SOL    HW1 9806   5.678   2.032   4.864
 2969SOL    HW2 9807   5.730   2.187   4.866
 2970SOL     OW 9808   1.066   4.341   6.519
 2970SOL    HW1 9809   1.158   4.350   6.480
 2970SOL    HW2 9810   1.001   4.319   6.446
 2971SOL     OW 9811   5.928   3.206   3.943
 2971SOL    HW1 9812   5.988   3.142   3.895
 2971SOL    HW2 9813   5.837   3.201   3.903
 2972SOL     OW 9814   6.319   3.477   6.522
 2972SOL    HW1 9815   6.385   3.403   6.509
 2972SOL    HW2 9816   6.296   3.484   6.619
 2973SOL     OW 9817   5.312   0.956   4.130
 2973SOL    HW1 9818   5.278   0.879   4.185
 2973SOL    HW2 9819   5.334   1.032   4.190
 2974SOL     OW 9820   5.764   4.478   3.006
 2974SOL    HW1 9821   5.824   4.398   3.009
 2974SOL    HW2 9822   5.730   4.498   3.098
 2975SOL     OW 9823   0.847   1.777   5.242
 2975SOL    HW1 9824   0.789   1.701   5.214
 2975SOL    HW2 9825   0.860   1.840   5.165
 2976SOL     OW 9826   4.019   1.304   2.436
 2976SOL    HW1 9827   3.927   1.265   2.445
 2976SOL    HW2 9828   4.054   1.328   2.526
 2977SOL     OW 9829   2.896   0.142   4.258
 2977SOL    HW1 9830   2.987   0.120   4.223
 2977SOL    HW2 9831   2.889   0.112   4.353
 2978SOL     OW 9832   4.620   5.043   0.270
 2978SOL    HW1 9833   4.663   4.962   0.308
 2978SOL    HW2 9834   4.688   5.098   0.222
 2979SOL     OW 9835   3.121   0.248   3.295
 2979SOL    HW1 9836   3.180   0.293   3.227
 2979SOL    HW2 9837   3.131   0.295   3.382
 2980SOL     OW 9838   0.354   6.634   4.173
 2980SOL    HW1 9839   0.277   6.585   4.132
 2980SOL    HW2 9840   0.386   6.586   4.254
 2981SOL     OW 9841   1.457   0.942   5.793
 2981SOL    HW1 9842   1.413   1.026   5.825
 2981SOL    HW2 9843   1.388   0.871   5.782
 2982SOL     OW 9844   4.348   6.268   2.608
 2982SOL    HW1 9845   4.444   6.275   2.581
 2982SOL    HW2 9846   4.304   6.195   2.555
 2983SOL     OW 9847   0.495   0.791   4.179
 2983SOL    HW1 9848   0.547   0.751   4.103
 2983SOL    HW2 9849   0.444   0.718   4.225
 2984SOL     OW 9850   6.520   5.328   1.546
 2984SOL    HW1 9851   6.498   5.410   1.600
 2984SOL    HW2 9852   6.569   5.263   1.603
 2985SOL     OW 9853   0.496   2.177   4.332
 2985SOL    HW1 9854   0.427   2.136   4.392
 2985SOL    HW2 9855   0.535   2.257   4.377
 2986SOL     OW 9856   2.102   3.789   5.547
 2986SOL    HW1 9857   2.100   3.826   5.454
 2986SOL    HW2 9858   2.045   3.846   5.606
 2987SOL     OW 9859   4.577   1.236   4.565
 2987SOL    HW1 9860   4.674   1.259   4.568
 2987SOL    HW2 9861   4.564   1.140   4.588
 2988SOL     OW 9862   1.371   0.396   1.840
 2988SOL    HW1 9863   1.470   0.385   1.855
 2988SOL    HW2 9864   1.349   0.371   1.746
 2989SOL     OW 9865   6.946   4.544   1.400
 2989SOL    HW1 9866   6.930   4.446   1.393
 2989SOL    HW2 9867   6.871   4.594   1.357
 2990SOL     OW 9868   3.012   0.818   2.367
 2990SOL    HW1 9869   3.070   0.871   2.305
 2990SOL    HW2 9870   3.065   0.742   2.404
 2991SOL     OW 9871   0.235   3.996   0.324
 2991SOL    HW1 9872   0.192   4.081   0.355
 2991SOL    HW2 9873   0.205   3.920   0.381
 2992SOL     OW 9874   3.241   5.890   6.272
 2992SOL    HW1 9875   3.265   5.793   6.283
 2992SOL    HW2 9876   3.324   5.944   6.260
 2993SOL     OW 9877   2.179   4.450   1.832
 2993SOL    HW1 9878   2.227   4.484   1.913
 2993SOL    HW2 9879   2.123   4.523   1.794
 2994SOL     OW 9880   4.917   0.501   0.026
 2994SOL    HW1 9881   5.002   0.540   0.061
 2994SOL    HW2 9882   4.856   0.480   0.102
 2995SOL     OW 9883   1.235   1.839   0.213
 2995SOL    HW1 9884   1.225   1.857   0.116
 2995SOL    HW2 9885   1.145   1.841   0.257
 2996SOL     OW 9886   2.805   5.105   5.590
 2996SOL    HW1 9887   2.865   5.140   5.518
 2996SOL    HW2 9888   2.802   5.006   5.586
 2997SOL     OW 9889   5.265   6.178   1.475
 2997SOL    HW1 9890   5.285   6.212   1.567
 2997SOL    HW2 9891   5.193   6.235   1.434
 2998SOL     OW 9892   5.467   6.025   3.828
 2998SOL    HW1 9893   5.541   6.021   3.760
 2998SOL    HW2 9894   5.448   5.932   3.861
 2999SOL     OW 9895   3.676   6.401   3.631
 2999SOL    HW1 9896   3.601   6.356   3.679
 2999SOL    HW2 9897   3.723   6.334   3.573
 3000SOL     OW 9898   1.631   3.539   5.360
 3000SOL    HW1 9899   1.586   3.495   5.437
 3000SOL    HW2 9900   1.686   3.472   5.310
 3001SOL     OW 9901   4.929   0.662   5.819
 3001SOL    HW1 9902   4.884   0.742   5.780
 3001SOL    HW2 9903   5.008   0.691   5.873
 3002SOL     OW 9904   4.349   0.086   5.257
 3002SOL    HW1 9905   4.400   0.063   5.340
 3002SOL    HW2 9906   4.264   0.132   5.282
 3003SOL     OW 9907   2.636   6.185   5.575
 3003SOL    HW1 9908   2.579   6.253   5.619
 3003SOL    HW2 9909   2.623   6.096   5.619
 3004SOL     OW 9910   5.977   3.854   3.660
 3004SOL    HW1 9911   5.966   3.953   3.662
 3004SOL    HW2 9912   5.983   3.823   3.565
 3005SOL     OW 9913   3.441   2.996   1.481
 3005SOL    HW1 9914   3.452   2.897   1.489
 3005SOL    HW2 9915   3.511   3.041   1.537
 3006SOL     OW 9916   5.550   1.162   0.947
 3006SOL    HW1 9917   5.494   1.218   0.886
 3006SOL    HW2 9918   5.603   1.221   1.007
 3007SOL     OW 9919   5.648   4.993   2.598
 3007SOL    HW1 9920   5.577   5.009   2.667
 3007SOL    HW2 9921   5.605   4.975   2.509
 3008SOL     OW 9922   3.353   0.002   6.007
 3008SOL    HW1 9923   3.359   0.056   5.923
 3008SOL    HW2 9924   3.309   6.940   5.987
 3009SOL     OW 9925   0.993   0.569   2.515
 3009SOL    HW1 9926   1.005   0.558   2.614
 3009SOL    HW2 9927   1.075   0.609   2.476
 3010SOL     OW 9928   4.224   5.393   2.857
 3010SOL    HW1 9929   4.234   5.468   2.922
 3010SOL    HW2 9930   4.138   5.345   2.875
 3011SOL     OW 9931   6.156   0.864   6.819
 3011SOL    HW1 9932   6.099   0.914   6.753
 3011SOL    HW2 9933   6.171   0.922   6.900
 3012SOL     OW 9934   6.989   3.700   3.990
 3012SOL    HW1 9935   6.934   3.709   3.907
 3012SOL    HW2 9936   6.939   3.648   4.059
 3013SOL     OW 9937   6.196   5.849   2.158
 3013SOL    HW1 9938   6.208   5.773   2.095
 3013SOL    HW2 9939   6.128   5.824   2.228
 3014SOL     OW 9940   5.340   1.786   4.032
 3014SOL    HW1 9941   5.328   1.853   3.958
 3014SOL    HW2 9942   5.422   1.810   4.085
 3015SOL     OW 9943   2.211   2.320   0.966
 3015SOL    HW1 9944   2.141   2.389   0.987
 3015SOL    HW2 9945   2.290   2.365   0.925
 3016SOL     OW 9946   3.574   6.093   4.115
 3016SOL    HW1 9947   3.536   6.031   4.184
 3016SOL    HW2 9948   3.562   6.187   4.144
 3017SOL     OW 9949   1.182   5.810   1.569
 3017SOL    HW1 9950   1.267   5.862   1.575
 3017SOL    HW2 9951   1.183   5.735   1.634
 3018SOL     OW 9952   4.260   0.444   6.655
 3018SOL    HW1 9953   4.354   0.425   6.626
 3018SOL    HW2 9954   4.206   0.361   6.647
 3019SOL     OW 9955   3.457   6.418   1.251
 3019SOL    HW1 9956   3.469   6.513   1.221
 3019SOL    HW2 9957   3.404   6.368   1.182
 3020SOL     OW 9958   3.225   3.540   2.005
 3020SOL    HW1 9959   3.164   3.507   1.933
 3020SOL    HW2 9960   3.319   3.545   1.969
 3021SOL     OW 9961   1.768   2.069   6.742
 3021SOL    HW1 9962   1.844   2.004   6.743
 3021SOL    HW2 9963   1.803   2.160   6.762
 3022SOL     OW 9964   3.665   6.094   3.088
 3022SOL    HW1 9965   3.680   6.015   3.147
 3022SOL    HW2 9966   3.681   6.178   3.140
 3023SOL     OW 9967   3.610   5.794   3.724
 3023SOL    HW1 9968   3.686   5.779   3.660
 3023SOL    HW2 9969   3.527   5.751   3.688
 3024SOL     OW 9970   3.214   0.711   6.773
 3024SOL    HW1 9971   3.165   0.665   6.699
 3024SOL    HW2 9972   3.198   0.810   6.768
 3025SOL     OW 9973   3.074   2.970   0.448
 3025SOL    HW1 9974   3.120   2.922   0.522
 3025SOL    HW2 9975   2.975   2.963   0.459
 3026SOL     OW 9976   1.377   3.315   1.152
 3026SOL    HW1 9977   1.315   3.261   1.095
 3026SOL    HW2 9978   1.333   3.400   1.179
 3027SOL     OW 9979   3.952   1.183   1.905
 3027SOL    HW1 9980   3.875   1.175   1.842
 3027SOL    HW2 9981   3.989   1.276   1.900
 3028SOL     OW 9982   1.510   5.144   6.861
 3028SOL    HW1 9983   1.543   5.052   6.836
 3028SOL    HW2 9984   1.483   5.193   6.778
 3029SOL     OW 9985   5.920   5.133   4.990
 3029SOL    HW1 9986   5.947   5.079   4.910
 3029SOL    HW2 9987   5.889   5.223   4.960
 3030SOL     OW 9988   0.959   0.944   5.588
 3030SOL    HW1 9989   0.910   0.962   5.674
 3030SOL    HW2 9990   0.944   1.020   5.525
 3031SOL     OW 9991   0.734   3.600   7.005
 3031SOL    HW1 9992   0.644   3.557   7.015
 3031SOL    HW2 9993   0.740   3.644   6.915
 3032SOL     OW 9994   5.021   0.347   6.458
 3032SOL    HW1 9995   5.057   0.415   6.394
 3032SOL    HW2 9996   4.973   0.276   6.407
 3033SOL     OW 9997   0.496   3.812   6.928
 3033SOL    HW1 9998   0.437   3.782   6.854
 3033SOL    HW2 9999   0.573   3.864   6.891
 3034SOL     OW10000   2.598   6.381   3.777
 3034SOL    HW110001   2.550   6.464   3.804
 3034SOL    HW210002   2.658   6.351   3.852
 3035SOL     OW10003   6.609   1.261   0.308
 3035SOL    HW110004   6.657   1.223   0.387
 3035SOL    HW210005   6.652   1.229   0.223
 3036SOL     OW10006   1.487   3.802   0.221
 3036SOL    HW110007   1.545   3.736   0.175
 3036SOL    HW210008   1.447   3.864   0.154
 3037SOL     OW10009   6.491   5.926   4.786
 3037SOL    HW110010   6.461   5.965   4.873
 3037SOL    HW210011   6.519   6.000   4.724
 3038SOL     OW10012   5.458   0.196   6.426
 3038SOL    HW110013   5.369   0.150   6.430
 3038SOL    HW210014   5.445   0.295   6.437
 3039SOL     OW10015   0.000   4.592   2.447
 3039SOL    HW110016   7.014   4.610   2.349
 3039SOL    HW210017   0.076   4.528   2.461
 3040SOL     OW10018   3.515   3.814   6.389
 3040SOL    HW110019   3.552   3.732   6.344
 3040SOL    HW210020   3.433   3.845   6.340
 3041SOL     OW10021   2.050   2.542   5.647
 3041SOL    HW110022   2.049   2.630   5.599
 3041SOL    HW210023   2.009   2.554   5.738
 3042SOL     OW10024   5.072   0.003   2.033
 3042SOL    HW110025   4.993   0.050   2.071
 3042SOL    HW210026   5.125   0.066   1.976
 3043SOL     OW10027   0.754   5.283   0.428
 3043SOL    HW110028   0.754   5.183   0.435
 3043SOL    HW210029   0.691   5.311   0.356
 3044SOL     OW10030   3.276   4.482   5.558
 3044SOL    HW110031   3.267   4.383   5.570
 3044SOL    HW210032   3.332   4.500   5.477
 3045SOL     OW10033   4.783   1.537   2.600
 3045SOL    HW110034   4.782   1.635   2.580
 3045SOL    HW210035   4.813   1.486   2.519
 3046SOL     OW10036   1.521   3.349   5.577
 3046SOL    HW110037   1.567   3.266   5.544
 3046SOL    HW210038   1.422   3.337   5.571
 3047SOL     OW10039   5.734   5.000   1.804
 3047SOL    HW110040   5.716   4.923   1.866
 3047SOL    HW210041   5.829   5.031   1.815
 3048SOL     OW10042   3.951   3.481   1.665
 3048SOL    HW110043   4.042   3.519   1.684
 3048SOL    HW210044   3.912   3.528   1.586
 3049SOL     OW10045   0.946   0.292   1.954
 3049SOL    HW110046   0.866   0.232   1.948
 3049SOL    HW210047   0.959   0.337   1.866
 3050SOL     OW10048   3.194   6.440   3.707
 3050SOL    HW110049   3.263   6.474   3.644
 3050SOL    HW210050   3.199   6.491   3.793
 3051SOL     OW10051   2.706   5.524   6.769
 3051SOL    HW110052   2.628   5.461   6.763
 3051SOL    HW210053   2.767   5.508   6.691
 3052SOL     OW10054   3.721   0.780   2.789
 3052SOL    HW110055   3.808   0.740   2.816
 3052SOL    HW210056   3.737   0.855   2.724
 3053SOL     OW10057   5.861   0.778   0.523
 3053SOL    HW110058   5.861   0.855   0.586
 3053SOL    HW210059   5.796   0.795   0.449
 3054SOL     OW10060   0.055   3.345   0.209
 3054SOL    HW110061   0.118   3.408   0.163
 3054SOL    HW210062   0.100   3.307   0.290
 3055SOL     OW10063   5.651   0.045   3.710
 3055SOL    HW110064   5.607   0.135   3.715
 3055SOL    HW210065   5.584   7.000   3.733
 3056SOL     OW10066   6.604   7.010   0.221
 3056SOL    HW110067   6.528   6.975   0.276
 3056SOL    HW210068   6.605   0.084   0.225
 3057SOL     OW10069   5.249   4.921   2.287
 3057SOL    HW110070   5.246   4.822   2.281
 3057SOL    HW210071   5.310   4.957   2.217
 3058SOL     OW10072   6.457   5.894   1.102
 3058SOL    HW110073   6.540   5.900   1.158
 3058SOL    HW210074   6.405   5.979   1.110
 3059SOL     OW10075   0.705   2.865   4.961
 3059SOL    HW110076   0.639   2.816   4.904
 3059SOL    HW210077   0.780   2.900   4.904
 3060SOL     OW10078   0.526   7.016   0.641
 3060SOL    HW110079   0.619   0.017   0.616
 3060SOL    HW210080   0.500   0.037   0.726
 3061SOL     OW10081   0.059   1.176   4.675
 3061SOL    HW110082   0.143   1.176   4.621
 3061SOL    HW210083   0.083   1.189   4.772
 3062SOL     OW10084   2.742   6.420   1.967
 3062SOL    HW110085   2.822   6.390   2.018
 3062SOL    HW210086   2.759   6.411   1.869
 3063SOL     OW10087   2.136   4.666   2.052
 3063SOL    HW110088   2.142   4.567   2.063
 3063SOL    HW210089   2.073   4.687   1.977
 3064SOL     OW10090   6.217   3.776   3.859
 3064SOL    HW110091   6.206   3.801   3.955
 3064SOL    HW210092   6.130   3.787   3.812
 3065SOL     OW10093   1.905   0.769   6.585
 3065SOL    HW110094   1.876   0.700   6.651
 3065SOL    HW210095   1.836   0.776   6.512
 3066SOL     OW10096   5.742   4.262   0.727
 3066SOL    HW110097   5.678   4.338   0.743
 3066SOL    HW210098   5.753   4.248   0.628
 3067SOL     OW10099   3.805   0.689   4.715
 3067SOL    HW110100   3.706   0.678   4.716
 3067SOL    HW210101   3.843   0.635   4.640
 3068SOL     OW10102   5.899   5.944   0.860
 3068SOL    HW110103   5.969   6.014   0.848
 3068SOL    HW210104   5.867   5.944   0.955
 3069SOL     OW10105   0.479   5.398   1.894
 3069SOL    HW110106   0.559   5.368   1.841
 3069SOL    HW210107   0.471   5.498   1.888
 3070SOL     OW10108   2.320   1.542   2.795
 3070SOL    HW110109   2.223   1.522   2.784
 3070SOL    HW210110   2.374   1.478   2.740
 3071SOL     OW10111   5.810   0.356   3.873
 3071SOL    HW110112   5.791   0.330   3.779
 3071SOL    HW210113   5.909   0.357   3.889
 3072SOL     OW10114   0.613   6.549   1.823
 3072SOL    HW110115   0.563   6.633   1.803
 3072SOL    HW210116   0.703   6.553   1.780
 3073SOL     OW10117   0.889   3.162   4.909
 3073SOL    HW110118   0.968   3.197   4.959
 3073SOL    HW210119   0.917   3.084   4.853
 3074SOL     OW10120   4.688   2.947   0.548
 3074SOL    HW110121   4.625   2.893   0.604
 3074SOL    HW210122   4.638   2.989   0.473
 3075SOL     OW10123   2.016   6.644   1.633
 3075SOL    HW110124   2.070   6.686   1.561
 3075SOL    HW210125   1.981   6.556   1.602
 3076SOL     OW10126   6.614   0.668   4.874
 3076SOL    HW110127   6.686   0.665   4.943
 3076SOL    HW210128   6.553   0.745   4.893
 3077SOL     OW10129   5.935   4.694   4.127
 3077SOL    HW110130   5.880   4.648   4.057
 3077SOL    HW210131   5.886   4.692   4.214
 3078SOL     OW10132   2.114   3.748   2.081
 3078SOL    HW110133   2.016   3.731   2.084
 3078SOL    HW210134   2.163   3.661   2.084
 3079SOL     OW10135   0.809   2.723   4.677
 3079SOL    HW110136   0.877   2.666   4.631
 3079SOL    HW210137   0.732   2.738   4.615
 3080SOL     OW10138   6.265   4.826   1.275
 3080SOL    HW110139   6.325   4.841   1.353
 3080SOL    HW210140   6.219   4.738   1.285
 3081SOL     OW10141   0.535   4.219   6.002
 3081SOL    HW110142   0.449   4.233   5.953
 3081SOL    HW210143   0.528   4.257   6.094
 3082SOL     OW10144   3.620   7.002   3.051
 3082SOL    HW110145   3.649   0.072   3.059
 3082SOL    HW210146   3.692   6.949   3.006
 3083SOL     OW10147   3.361   0.547   2.270
 3083SOL    HW110148   3.453   0.555   2.309
 3083SOL    HW210149   3.364   0.486   2.191
 3084SOL     OW10150   4.563   4.844   3.987
 3084SOL    HW110151   4.479   4.864   3.937
 3084SOL    HW210152   4.582   4.918   4.051
 3085SOL     OW10153   6.716   5.091   2.973
 3085SOL    HW110154   6.711   5.060   3.067
 3085SOL    HW210155   6.653   5.038   2.916
 3086SOL     OW10156   4.296   0.800   2.002
 3086SOL    HW110157   4.384   0.814   1.957
 3086SOL    HW210158   4.239   0.881   1.991
 3087SOL     OW10159   6.284   4.069   3.333
 3087SOL    HW110160   6.258   3.979   3.297
 3087SOL    HW210161   6.221   4.095   3.406
 3088SOL     OW10162   2.524   4.996   5.513
 3088SOL    HW110163   2.523   4.903   5.549
 3088SOL    HW210164   2.450   5.050   5.554
 3089SOL     OW10165   1.117   2.645   0.006
 3089SOL    HW110166   1.172   2.617   0.085
 3089SOL    HW210167   1.160   2.610   6.948
 3090SOL     OW10168   1.648   1.812   1.606
 3090SOL    HW110169   1.731   1.763   1.579
 3090SOL    HW210170   1.665   1.910   1.604
 3091SOL     OW10171   3.283   0.146   0.238
 3091SOL    HW110172   3.212   0.110   0.177
 3091SOL    HW210173   3.271   0.245   0.249
 3092SOL     OW10174   5.639   6.938   0.108
 3092SOL    HW110175   5.688   6.858   0.144
 3092SOL    HW210176   5.615   6.922   0.013
 3093SOL     OW10177   5.960   5.421   5.643
 3093SOL    HW110178   5.979   5.506   5.691
 3093SOL    HW210179   5.864   5.418   5.615
 3094SOL     OW10180   2.868   5.548   5.273
 3094SOL    HW110181   2.912   5.535   5.362
 3094SOL    HW210182   2.930   5.518   5.201
 3095SOL     OW10183   2.390   4.469   4.385
 3095SOL    HW110184   2.333   4.395   4.351
 3095SOL    HW210185   2.398   4.540   4.314
 3096SOL     OW10186   6.205   0.158   4.667
 3096SOL    HW110187   6.223   0.230   4.734
 3096SOL    HW210188   6.230   0.189   4.576
 3097SOL     OW10189   0.837   2.975   0.960
 3097SOL    HW110190   0.799   3.054   1.007
 3097SOL    HW210191   0.767   2.904   0.951
 3098SOL     OW10192   2.450   3.964   0.783
 3098SOL    HW110193   2.482   3.965   0.689
 3098SOL    HW210194   2.523   3.932   0.843
 3099SOL     OW10195   0.093   6.058   4.713
 3099SOL    HW110196   0.123   5.991   4.646
 3099SOL    HW210197   0.151   6.052   4.794
 3100SOL     OW10198   6.895   6.546   5.183
 3100SOL    HW110199   6.930   6.576   5.272
 3100SOL    HW210200   6.965   6.557   5.113
 3101SOL     OW10201   4.488   5.965   5.845
 3101SOL    HW110202   4.481   6.064   5.842
 3101SOL    HW210203   4.397   5.924   5.837
 3102SOL     OW10204   1.466   4.262   1.383
 3102SOL    HW110205   1.390   4.208   1.420
 3102SOL    HW210206   1.454   4.275   1.285
 3103SOL     OW10207   3.413   2.563   0.983
 3103SOL    HW110208   3.452   2.471   0.981
 3103SOL    HW210209   3.313   2.557   0.983
 3104SOL     OW10210   5.341   6.544   4.058
 3104SOL    HW110211   5.338   6.526   4.157
 3104SOL    HW210212   5.264   6.500   4.014
 3105SOL     OW10213   5.818   5.983   3.392
 3105SOL    HW110214   5.773   6.062   3.433
 3105SOL    HW210215   5.793   5.977   3.296
 3106SOL     OW10216   6.274   2.635   2.515
 3106SOL    HW110217   6.241   2.642   2.609
 3106SOL    HW210218   6.338   2.558   2.509
 3107SOL     OW10219   3.104   0.738   3.832
 3107SOL    HW110220   3.059   0.706   3.915
 3107SOL    HW210221   3.061   0.695   3.752
 3108SOL     OW10222   2.324   0.339   4.507
 3108SOL    HW110223   2.385   0.417   4.515
 3108SOL    HW210224   2.317   0.310   4.412
 3109SOL     OW10225   5.049   6.019   2.577
 3109SOL    HW110226   5.034   5.998   2.674
 3109SOL    HW210227   5.131   6.074   2.567
 3110SOL     OW10228   0.175   3.171   3.378
 3110SOL    HW110229   0.089   3.190   3.425
 3110SOL    HW210230   0.170   3.204   3.284
 3111SOL     OW10231   6.084   5.331   4.066
 3111SOL    HW110232   6.160   5.390   4.039
 3111SOL    HW210233   6.053   5.279   3.986
 3112SOL     OW10234   4.494   3.067   5.966
 3112SOL    HW110235   4.442   3.152   5.977
 3112SOL    HW210236   4.577   3.086   5.913
 3113SOL     OW10237   2.319   6.724   4.013
 3113SOL    HW110238   2.315   6.739   4.111
 3113SOL    HW210239   2.285   6.805   3.965
 3114SOL     OW10240   5.313   4.178   6.597
 3114SOL    HW110241   5.378   4.160   6.671
 3114SOL    HW210242   5.301   4.094   6.543
 3115SOL     OW10243   3.419   3.885   0.667
 3115SOL    HW110244   3.398   3.808   0.728
 3115SOL    HW210245   3.351   3.889   0.593
 3116SOL     OW10246   6.492   2.604   6.117
 3116SOL    HW110247   6.579   2.581   6.073
 3116SOL    HW210248   6.481   2.704   6.117
 3117SOL     OW10249   4.360   3.516   5.530
 3117SOL    HW110250   4.384   3.552   5.440
 3117SOL    HW210251   4.387   3.420   5.536
 3118SOL     OW10252   6.272   4.986   0.001
 3118SOL    HW110253   6.359   5.002   6.979
 3118SOL    HW210254   6.197   4.989   6.960
 3119SOL     OW10255   1.947   4.317   5.375
 3119SOL    HW110256   1.988   4.290   5.287
 3119SOL    HW210257   1.854   4.280   5.381
 3120SOL     OW10258   1.947   5.475   4.650
 3120SOL    HW110259   1.889   5.477   4.731
 3120SOL    HW210260   2.007   5.394   4.654
 3121SOL     OW10261   0.235   1.739   2.205
 3121SOL    HW110262   0.274   1.829   2.225
 3121SOL    HW210263   0.291   1.692   2.137
 3122SOL     OW10264   2.941   5.576   6.442
 3122SOL    HW110265   2.946   5.580   6.542
 3122SOL    HW210266   2.860   5.524   6.415
 3123SOL     OW10267   3.530   6.571   3.828
 3123SOL    HW110268   3.465   6.642   3.854
 3123SOL    HW210269   3.546   6.575   3.730
 3124SOL     OW10270   4.876   0.541   5.126
 3124SOL    HW110271   4.951   0.603   5.102
 3124SOL    HW210272   4.794   0.595   5.147
 3125SOL     OW10273   6.572   1.842   5.426
 3125SOL    HW110274   6.477   1.851   5.454
 3125SOL    HW210275   6.613   1.763   5.472
 3126SOL     OW10276   5.152   4.756   6.214
 3126SOL    HW110277   5.228   4.717   6.163
 3126SOL    HW210278   5.078   4.780   6.150
 3127SOL     OW10279   1.625   1.324   3.715
 3127SOL    HW110280   1.663   1.252   3.656
 3127SOL    HW210281   1.700   1.371   3.762
 3128SOL     OW10282   1.950   0.848   0.537
 3128SOL    HW110283   1.950   0.932   0.482
 3128SOL    HW210284   1.976   0.869   0.631
 3129SOL     OW10285   0.026   4.404   5.002
 3129SOL    HW110286   0.106   4.358   5.040
 3129SOL    HW210287   0.008   4.369   4.910
 3130SOL     OW10288   2.362   4.791   2.711
 3130SOL    HW110289   2.461   4.784   2.700
 3130SOL    HW210290   2.325   4.702   2.738
 3131SOL     OW10291   0.615   3.412   2.783
 3131SOL    HW110292   0.550   3.341   2.811
 3131SOL    HW210293   0.697   3.370   2.746
 3132SOL     OW10294   5.140   5.861   5.555
 3132SOL    HW110295   5.115   5.764   5.548
 3132SOL    HW210296   5.068   5.911   5.602
 3133SOL     OW10297   2.227   1.866   3.926
 3133SOL    HW110298   2.291   1.922   3.977
 3133SOL    HW210299   2.262   1.850   3.834
 3134SOL     OW10300   4.902   3.168   1.608
 3134SOL    HW110301   4.939   3.077   1.623
 3134SOL    HW210302   4.811   3.162   1.567
 3135SOL     OW10303   4.094   1.776   3.921
 3135SOL    HW110304   4.144   1.846   3.870
 3135SOL    HW210305   4.080   1.696   3.862
 3136SOL     OW10306   5.719   5.787   6.074
 3136SOL    HW110307   5.731   5.691   6.046
 3136SOL    HW210308   5.750   5.798   6.168
 3137SOL     OW10309   4.939   1.933   3.964
 3137SOL    HW110310   5.001   1.986   3.907
 3137SOL    HW210311   4.896   1.993   4.032
 3138SOL     OW10312   5.977   1.769   4.487
 3138SOL    HW110313   6.039   1.804   4.557
 3138SOL    HW210314   5.968   1.670   4.496
 3139SOL     OW10315   4.919   5.982   5.656
 3139SOL    HW110316   4.836   5.928   5.643
 3139SOL    HW210317   4.910   6.068   5.606
 3140SOL     OW10318   6.750   6.449   6.649
 3140SOL    HW110319   6.836   6.447   6.598
 3140SOL    HW210320   6.698   6.530   6.621
 3141SOL     OW10321   0.744   6.396   0.147
 3141SOL    HW110322   0.766   6.493   0.144
 3141SOL    HW210323   0.728   6.368   0.242
 3142SOL     OW10324   4.784   6.256   6.879
 3142SOL    HW110325   4.718   6.241   6.952
 3142SOL    HW210326   4.852   6.182   6.881
 3143SOL     OW10327   0.227   2.099   6.399
 3143SOL    HW110328   0.259   2.056   6.483
 3143SOL    HW210329   0.303   2.103   6.333
 3144SOL     OW10330   1.981   4.028   0.240
 3144SOL    HW110331   2.030   3.960   0.295
 3144SOL    HW210332   1.887   4.037   0.274
 3145SOL     OW10333   2.718   5.576   2.805
 3145SOL    HW110334   2.712   5.573   2.905
 3145SOL    HW210335   2.626   5.588   2.767
 3146SOL     OW10336   1.467   0.227   3.288
 3146SOL    HW110337   1.473   0.175   3.203
 3146SOL    HW210338   1.440   0.321   3.268
 3147SOL     OW10339   4.477   4.341   0.921
 3147SOL    HW110340   4.530   4.392   0.989
 3147SOL    HW210341   4.441   4.404   0.852
 3148SOL     OW10342   4.039   5.429   3.682
 3148SOL    HW110343   3.967   5.420   3.750
 3148SOL    HW210344   4.015   5.378   3.600
 3149SOL     OW10345   3.126   0.468   5.777
 3149SOL    HW110346   3.100   0.437   5.686
 3149SOL    HW210347   3.171   0.558   5.771
 3150SOL     OW10348   5.344   0.229   5.053
 3150SOL    HW110349   5.261   0.216   4.999
 3150SOL    HW210350   5.342   0.167   5.132
 3151SOL     OW10351   4.874   1.625   6.356
 3151SOL    HW110352   4.924   1.627   6.269
 3151SOL    HW210353   4.933   1.591   6.428
 3152SOL     OW10354   0.537   5.392   1.473
 3152SOL    HW110355   0.533   5.295   1.497
 3152SOL    HW210356   0.563   5.402   1.377
 3153SOL     OW10357   6.284   3.758   1.956
 3153SOL    HW110358   6.187   3.741   1.940
 3153SOL    HW210359   6.296   3.822   2.032
 3154SOL     OW10360   6.255   2.526   5.923
 3154SOL    HW110361   6.323   2.575   5.977
 3154SOL    HW210362   6.240   2.435   5.963
 3155SOL     OW10363   6.142   5.282   0.949
 3155SOL    HW110364   6.140   5.187   0.916
 3155SOL    HW210365   6.236   5.316   0.946
 3156SOL     OW10366   3.984   3.852   3.381
 3156SOL    HW110367   3.902   3.896   3.417
 3156SOL    HW210368   4.018   3.784   3.446
 3157SOL     OW10369   2.100   3.755   4.805
 3157SOL    HW110370   2.157   3.699   4.746
 3157SOL    HW210371   2.003   3.740   4.783
 3158SOL     OW10372   4.797   6.323   1.726
 3158SOL    HW110373   4.755   6.327   1.635
 3158SOL    HW210374   4.754   6.390   1.786
 3159SOL     OW10375   4.908   5.664   6.590
 3159SOL    HW110376   4.972   5.588   6.603
 3159SOL    HW210377   4.857   5.680   6.674
 3160SOL     OW10378   4.996   3.861   6.078
 3160SOL    HW110379   5.021   3.766   6.098
 3160SOL    HW210380   4.950   3.901   6.158
 3161SOL     OW10381   1.818   0.665   2.430
 3161SOL    HW110382   1.854   0.733   2.494
 3161SOL    HW210383   1.767   0.711   2.357
 3162SOL     OW10384   0.472   5.400   6.491
 3162SOL    HW110385   0.382   5.358   6.507
 3162SOL    HW210386   0.467   5.460   6.411
 3163SOL     OW10387   3.546   2.939   6.803
 3163SOL    HW110388   3.526   2.957   6.899
 3163SOL    HW210389   3.575   2.844   6.792
 3164SOL     OW10390   5.257   4.180   0.461
 3164SOL    HW110391   5.181   4.220   0.410
 3164SOL    HW210392   5.265   4.083   0.437
 3165SOL     OW10393   0.845   0.410   2.172
 3165SOL    HW110394   0.933   0.383   2.133
 3165SOL    HW210395   0.838   0.376   2.266
 3166SOL     OW10396   4.529   3.382   6.141
 3166SOL    HW110397   4.524   3.333   6.229
 3166SOL    HW210398   4.503   3.478   6.155
 3167SOL     OW10399   0.366   4.286   1.422
 3167SOL    HW110400   0.397   4.353   1.489
 3167SOL    HW210401   0.398   4.313   1.331
 3168SOL     OW10402   5.426   2.795   0.733
 3168SOL    HW110403   5.444   2.818   0.829
 3168SOL    HW210404   5.509   2.759   0.691
 3169SOL     OW10405   1.108   2.315   5.449
 3169SOL    HW110406   1.198   2.335   5.410
 3169SOL    HW210407   1.063   2.244   5.394
 3170SOL     OW10408   4.487   1.012   6.382
 3170SOL    HW110409   4.559   0.963   6.433
 3170SOL    HW210410   4.398   0.970   6.402
 3171SOL     OW10411   6.363   6.872   2.196
 3171SOL    HW110412   6.455   6.852   2.161
 3171SOL    HW210413   6.320   6.787   2.226
 3172SOL     OW10414   6.202   6.875   5.316
 3172SOL    HW110415   6.234   6.922   5.399
 3172SOL    HW210416   6.213   6.936   5.237
 3173SOL     OW10417   2.479   0.226   1.803
 3173SOL    HW110418   2.380   0.222   1.821
 3173SOL    HW210419   2.528   0.182   1.878
 3174SOL     OW10420   3.012   2.563   5.953
 3174SOL    HW110421   3.066   2.564   6.038
 3174SOL    HW210422   3.039   2.641   5.896
 3175SOL     OW10423   1.010   6.450   0.508
 3175SOL    HW110424   0.967   6.466   0.597
 3175SOL    HW210425   0.956   6.382   0.457
 3176SOL     OW10426   1.557   3.909   6.883
 3176SOL    HW110427   1.553   3.999   6.837
 3176SOL    HW210428   1.480   3.901   6.946
 3177SOL     OW10429   5.433   5.750   5.539
 3177SOL    HW110430   5.335   5.743   5.523
 3177SOL    HW210431   5.450   5.818   5.610
 3178SOL     OW10432   0.247   4.478   2.045
 3178SOL    HW110433   0.307   4.447   1.971
 3178SOL    HW210434   0.300   4.527   2.113
 3179SOL     OW10435   1.584   1.726   2.093
 3179SOL    HW110436   1.662   1.776   2.130
 3179SOL    HW210437   1.537   1.783   2.025
 3180SOL     OW10438   5.729   0.426   5.719
 3180SOL    HW110439   5.792   0.348   5.723
 3180SOL    HW210440   5.637   0.393   5.701
 3181SOL     OW10441   0.908   0.837   3.642
 3181SOL    HW110442   0.980   0.901   3.616
 3181SOL    HW210443   0.916   0.753   3.589
 3182SOL     OW10444   0.718   5.751   5.810
 3182SOL    HW110445   0.732   5.687   5.734
 3182SOL    HW210446   0.768   5.836   5.792
 3183SOL     OW10447   4.676   4.837   1.630
 3183SOL    HW110448   4.706   4.742   1.643
 3183SOL    HW210449   4.717   4.873   1.546
 3184SOL     OW10450   2.526   1.971   2.569
 3184SOL    HW110451   2.511   1.874   2.587
 3184SOL    HW210452   2.444   2.011   2.528
 3185SOL     OW10453   6.884   0.120   5.244
 3185SOL    HW110454   6.971   0.093   5.284
 3185SOL    HW210455   6.811   0.063   5.282
 3186SOL     OW10456   3.377   1.099   2.781
 3186SOL    HW110457   3.372   1.191   2.742
 3186SOL    HW210458   3.471   1.081   2.812
 3187SOL     OW10459   3.457   4.893   0.261
 3187SOL    HW110460   3.364   4.884   0.227
 3187SOL    HW210461   3.486   4.807   0.303
 3188SOL     OW10462   3.985   5.682   3.790
 3188SOL    HW110463   3.925   5.726   3.723
 3188SOL    HW210464   4.017   5.594   3.755
 3189SOL     OW10465   1.718   0.241   3.370
 3189SOL    HW110466   1.725   0.267   3.467
 3189SOL    HW210467   1.624   0.255   3.340
 3190SOL     OW10468   1.829   6.049   1.971
 3190SOL    HW110469   1.817   5.981   2.044
 3190SOL    HW210470   1.902   6.112   1.996
 3191SOL     OW10471   3.914   0.321   0.503
 3191SOL    HW110472   3.892   0.404   0.554
 3191SOL    HW210473   3.978   0.343   0.430
 3192SOL     OW10474   0.172   2.822   2.085
 3192SOL    HW110475   0.229   2.859   2.012
 3192SOL    HW210476   0.182   2.879   2.167
 3193SOL     OW10477   4.342   2.379   5.637
 3193SOL    HW110478   4.389   2.412   5.719
 3193SOL    HW210479   4.263   2.437   5.618
 3194SOL     OW10480   1.405   3.332   6.013
 3194SOL    HW110481   1.362   3.409   6.060
 3194SOL    HW210482   1.350   3.250   6.025
 3195SOL     OW10483   0.785   2.799   3.492
 3195SOL    HW110484   0.859   2.765   3.550
 3195SOL    HW210485   0.718   2.726   3.478
 3196SOL     OW10486   0.107   7.012   4.786
 3196SOL    HW110487   0.197   6.969   4.778
 3196SOL    HW210488   0.089   0.009   4.882
 3197SOL     OW10489   1.215   4.575   4.096
 3197SOL    HW110490   1.166   4.522   4.026
 3197SOL    HW210491   1.301   4.529   4.117
 3198SOL     OW10492   0.742   2.314   6.184
 3198SOL    HW110493   0.684   2.321   6.103
 3198SOL    HW210494   0.838   2.314   6.157
 3199SOL     OW10495   4.606   2.046   2.191
 3199SOL    HW110496   4.689   1.992   2.176
 3199SOL    HW210497   4.532   2.012   2.132
 3200SOL     OW10498   6.271   2.210   0.114
 3200SOL    HW110499   6.332   2.175   0.186
 3200SOL    HW210500   6.321   2.214   0.027
 3201SOL     OW10501   5.020   3.980   4.041
 3201SOL    HW110502   4.958   4.019   3.973
 3201SOL    HW210503   4.971   3.967   4.127
 3202SOL     OW10504   1.741   4.576   2.269
 3202SOL    HW110505   1.713   4.651   2.329
 3202SOL    HW210506   1.825   4.535   2.305
 3203SOL     OW10507   6.381   0.755   0.911
 3203SOL    HW110508   6.283   0.770   0.923
 3203SOL    HW210509   6.401   0.736   0.815
 3204SOL     OW10510   6.828   5.707   1.922
 3204SOL    HW110511   6.925   5.721   1.943
 3204SOL    HW210512   6.818   5.674   1.828
 3205SOL     OW10513   0.764   4.165   4.627
 3205SOL    HW110514   0.715   4.078   4.616
 3205SOL    HW210515   0.852   4.149   4.671
 3206SOL     OW10516   1.132   6.801   6.170
 3206SOL    HW110517   1.097   6.787   6.262
 3206SOL    HW210518   1.153   6.897   6.155
 3207SOL     OW10519   0.645   1.011   4.944
 3207SOL    HW110520   0.697   0.948   5.002
 3207SOL    HW210521   0.664   0.992   4.848
 3208SOL     OW10522   4.970   5.793   5.051
 3208SOL    HW110523   5.014   5.883   5.056
 3208SOL    HW210524   4.886   5.799   4.998
 3209SOL     OW10525   2.566   0.643   4.176
 3209SOL    HW110526   2.603   0.551   4.167
 3209SOL    HW210527   2.553   0.666   4.272
 3210SOL     OW10528   6.446   4.416   2.743
 3210SOL    HW110529   6.479   4.353   2.673
 3210SOL    HW210530   6.482   4.508   2.725
 3211SOL     OW10531   2.008   4.644   1.799
 3211SOL    HW110532   1.997   4.740   1.774
 3211SOL    HW210533   1.924   4.610   1.843
 3212SOL     OW10534   5.328   2.176   6.755
 3212SOL    HW110535   5.228   2.176   6.762
 3212SOL    HW210536   5.364   2.100   6.809
 3213SOL     OW10537   6.055   5.747   2.387
 3213SOL    HW110538   6.033   5.658   2.347
 3213SOL    HW210539   5.974   5.785   2.431
 3214SOL     OW10540   3.619   5.619   6.527
 3214SOL    HW110541   3.628   5.525   6.496
 3214SOL    HW210542   3.641   5.625   6.624
 3215SOL     OW10543   5.923   2.126   6.459
 3215SOL    HW110544   5.993   2.178   6.411
 3215SOL    HW210545   5.860   2.084   6.394
 3216SOL     OW10546   5.709   6.806   3.006
 3216SOL    HW110547   5.739   6.783   3.099
 3216SOL    HW210548   5.780   6.780   2.941
 3217SOL     OW10549   6.749   4.241   2.400
 3217SOL    HW110550   6.826   4.190   2.438
 3217SOL    HW210551   6.765   4.259   2.303
 3218SOL     OW10552   3.854   0.918   3.599
 3218SOL    HW110553   3.779   0.859   3.627
 3218SOL    HW210554   3.925   0.863   3.554
 3219SOL     OW10555   0.166   0.907   3.295
 3219SOL    HW110556   0.083   0.855   3.315
 3219SOL    HW210557   0.167   0.933   3.198
 3220SOL     OW10558   6.925   4.554   5.220
 3220SOL    HW110559   6.963   4.646   5.218
 3220SOL    HW210560   6.993   4.489   5.187
 3221SOL     OW10561   2.843   6.943   3.472
 3221SOL    HW110562   2.929   6.920   3.426
 3221SOL    HW210563   2.796   6.859   3.499
 3222SOL     OW10564   5.912   2.532   3.061
 3222SOL    HW110565   5.865   2.581   2.986
 3222SOL    HW210566   5.843   2.491   3.121
 3223SOL     OW10567   1.870   4.932   6.232
 3223SOL    HW110568   1.847   4.858   6.168
 3223SOL    HW210569   1.900   4.893   6.319
 3224SOL     OW10570   4.222   4.726   0.681
 3224SOL    HW110571   4.130   4.719   0.719
 3224SOL    HW210572   4.232   4.811   0.631
 3225SOL     OW10573   2.333   3.548   0.562
 3225SOL    HW110574   2.433   3.537   0.555
 3225SOL    HW210575   2.311   3.644   0.580
 3226SOL     OW10576   1.503   0.685   3.588
 3226SOL    HW110577   1.522   0.659   3.682
 3226SOL    HW210578   1.587   0.718   3.544
 3227SOL     OW10579   3.474   1.087   5.524
 3227SOL    HW110580   3.462   1.172   5.575
 3227SOL    HW210581   3.400   1.077   5.457
 3228SOL     OW10582   5.804   4.077   4.621
 3228SOL    HW110583   5.832   4.100   4.528
 3228SOL    HW210584   5.712   4.038   4.619
 3229SOL     OW10585   4.147   1.379   5.124
 3229SOL    HW110586   4.229   1.411   5.172
 3229SOL    HW210587   4.069   1.433   5.154
 3230SOL     OW10588   1.077   0.410   3.919
 3230SOL    HW110589   1.060   0.448   3.828
 3230SOL    HW210590   0.993   0.415   3.973
 3231SOL     OW10591   5.880   6.270   0.512
 3231SOL    HW110592   5.878   6.191   0.450
 3231SOL    HW210593   5.843   6.350   0.465
 3232SOL     OW10594   3.020   4.824   4.360
 3232SOL    HW110595   2.987   4.732   4.341
 3232SOL    HW210596   3.095   4.846   4.298
 3233SOL     OW10597   0.355   4.077   1.688
 3233SOL    HW110598   0.362   4.145   1.614
 3233SOL    HW210599   0.400   4.112   1.770
 3234SOL     OW10600   0.470   1.888   6.071
 3234SOL    HW110601   0.429   1.832   5.999
 3234SOL    HW210602   0.466   1.838   6.157
 3235SOL     OW10603   5.299   6.833   2.795
 3235SOL    HW110604   5.333   6.922   2.825
 3235SOL    HW210605   5.364   6.792   2.731
 3236SOL     OW10606   0.467   3.080   2.181
 3236SOL    HW110607   0.406   3.027   2.240
 3236SOL    HW210608   0.418   3.159   2.144
 3237SOL     OW10609   3.077   0.148   4.671
 3237SOL    HW110610   3.075   0.248   4.665
 3237SOL    HW210611   3.009   0.110   4.609
 3238SOL     OW10612   0.222   6.254   6.043
 3238SOL    HW110613   0.306   6.306   6.062
 3238SOL    HW210614   0.247   6.162   6.012
 3239SOL     OW10615   6.376   0.349   5.080
 3239SOL    HW110616   6.417   0.258   5.091
 3239SOL    HW210617   6.298   0.358   5.142
 3240SOL     OW10618   1.683   0.315   4.821
 3240SOL    HW110619   1.659   0.367   4.739
 3240SOL    HW210620   1.621   0.341   4.895
 3241SOL     OW10621   4.778   0.767   3.584
 3241SOL    HW110622   4.782   0.730   3.491
 3241SOL    HW210623   4.797   0.865   3.582
 3242SOL     OW10624   3.876   6.510   0.022
 3242SOL    HW110625   3.786   6.553   0.021
 3242SOL    HW210626   3.908   6.501   0.117
 3243SOL     OW10627   3.990   4.934   0.693
 3243SOL    HW110628   3.920   4.913   0.625
 3243SOL    HW210629   4.072   4.968   0.648
 3244SOL     OW10630   3.147   6.274   6.751
 3244SOL    HW110631   3.112   6.231   6.667
 3244SOL    HW210632   3.189   6.204   6.809
 3245SOL     OW10633   3.434   2.326   6.675
 3245SOL    HW110634   3.398   2.236   6.701
 3245SOL    HW210635   3.523   2.315   6.630
 3246SOL     OW10636   5.694   5.961   3.143
 3246SOL    HW110637   5.632   5.926   3.072
 3246SOL    HW210638   5.720   6.055   3.121
 3247SOL     OW10639   0.875   2.653   3.980
 3247SOL    HW110640   0.851   2.604   3.895
 3247SOL    HW210641   0.827   2.611   4.057
 3248SOL     OW10642   6.371   3.287   1.770
 3248SOL    HW110643   6.323   3.331   1.845
 3248SOL    HW210644   6.453   3.339   1.747
 3249SOL     OW10645   2.357   4.704   5.237
 3249SOL    HW110646   2.276   4.653   5.266
 3249SOL    HW210647   2.349   4.800   5.265
 3250SOL     OW10648   4.823   6.847   2.227
 3250SOL    HW110649   4.788   6.915   2.162
 3250SOL    HW210650   4.852   6.765   2.176
 3251SOL     OW10651   3.650   1.550   3.045
 3251SOL    HW110652   3.703   1.487   2.987
 3251SOL    HW210653   3.687   1.548   3.138
 3252SOL     OW10654   2.802   1.414   2.330
 3252SOL    HW110655   2.830   1.319   2.346
 3252SOL    HW210656   2.883   1.472   2.322
 3253SOL     OW10657   5.150   2.956   0.931
 3253SOL    HW110658   5.233   2.925   0.977
 3253SOL    HW210659   5.069   2.927   0.982
 3254SOL     OW10660   5.224   4.230   2.874
 3254SOL    HW110661   5.231   4.137   2.911
 3254SOL    HW210662   5.128   4.256   2.868
 3255SOL     OW10663   4.689   5.401   0.475
 3255SOL    HW110664   4.665   5.437   0.565
 3255SOL    HW210665   4.605   5.385   0.422
 3256SOL     OW10666   5.530   6.608   5.370
 3256SOL    HW110667   5.620   6.571   5.346
 3256SOL    HW210668   5.537   6.659   5.455
 3257SOL     OW10669   1.810   2.799   0.920
 3257SOL    HW110670   1.788   2.704   0.945
 3257SOL    HW210671   1.857   2.843   0.996
 3258SOL     OW10672   5.575   6.437   2.120
 3258SOL    HW110673   5.516   6.517   2.123
 3258SOL    HW210674   5.548   6.378   2.044
 3259SOL     OW10675   4.350   0.006   4.023
 3259SOL    HW110676   4.377   0.017   4.119
 3259SOL    HW210677   4.414   0.054   3.964
 3260SOL     OW10678   1.781   2.178   0.052
 3260SOL    HW110679   1.767   2.130   6.991
 3260SOL    HW210680   1.697   2.225   0.077
 3261SOL     OW10681   4.367   0.008   1.220
 3261SOL    HW110682   4.311   6.974   1.161
 3261SOL    HW210683   4.421   0.070   1.163
 3262SOL     OW10684   3.941   1.754   3.444
 3262SOL    HW110685   3.853   1.801   3.447
 3262SOL    HW210686   4.013   1.821   3.426
 3263SOL     OW10687   3.950   6.482   1.273
 3263SOL    HW110688   4.048   6.501   1.273
 3263SOL    HW210689   3.899   6.567   1.279
 3264SOL     OW10690   5.476   4.886   6.844
 3264SOL    HW110691   5.391   4.919   6.803
 3264SOL    HW210692   5.469   4.892   6.944
 3265SOL     OW10693   4.769   0.839   6.185
 3265SOL    HW110694   4.717   0.754   6.190
 3265SOL    HW210695   4.711   0.912   6.148
 3266SOL     OW10696   1.225   1.260   6.158
 3266SOL    HW110697   1.166   1.341   6.168
 3266SOL    HW210698   1.235   1.215   6.247
 3267SOL     OW10699   3.233   2.306   0.963
 3267SOL    HW110700   3.240   2.222   0.909
 3267SOL    HW210701   3.244   2.285   1.060
 3268SOL     OW10702   1.219   4.261   6.264
 3268SOL    HW110703   1.269   4.347   6.276
 3268SOL    HW210704   1.123   4.282   6.243
 3269SOL     OW10705   4.089   3.916   1.384
 3269SOL    HW110706   4.057   3.916   1.289
 3269SOL    HW210707   4.157   3.987   1.397
 3270SOL     OW10708   0.604   6.337   4.330
 3270SOL    HW110709   0.697   6.370   4.312
 3270SOL    HW210710   0.544   6.415   4.350
 3271SOL     OW10711   6.082   1.735   1.155
 3271SOL    HW110712   6.166   1.777   1.124
 3271SOL    HW210713   6.025   1.712   1.076
 3272SOL     OW10714   4.635   0.088   0.330
 3272SOL    HW110715   4.726   0.088   0.290
 3272SOL    HW210716   4.637   0.132   0.420
 3273SOL     OW10717   0.228   6.633   2.402
 3273SOL    HW110718   0.162   6.703   2.429
 3273SOL    HW210719   0.194   6.543   2.427
 3274SOL     OW10720   3.003   1.954   5.707
 3274SOL    HW110721   3.037   2.030   5.651
 3274SOL    HW210722   2.936   1.989   5.773
 3275SOL     OW10723   2.673   0.807   6.501
 3275SOL    HW110724   2.768   0.816   6.532
 3275SOL    HW210725   2.662   0.855   6.414
 3276SOL     OW10726   3.327   6.680   0.099
 3276SOL    HW110727   3.364   6.729   0.177
 3276SOL    HW210728   3.303   6.587   0.127
 3277SOL     OW10729   0.397   6.355   4.628
 3277SOL    HW110730   0.328   6.297   4.584
 3277SOL    HW210731   0.486   6.309   4.625
 3278SOL     OW10732   1.253   0.456   6.050
 3278SOL    HW110733   1.221   0.361   6.045
 3278SOL    HW210734   1.254   0.485   6.146
 3279SOL     OW10735   1.131   6.711   0.761
 3279SOL    HW110736   1.044   6.695   0.807
 3279SOL    HW210737   1.178   6.624   0.746
 3280SOL     OW10738   2.184   4.538   6.269
 3280SOL    HW110739   2.152   4.483   6.192
 3280SOL    HW210740   2.215   4.477   6.343
 3281SOL     OW10741   2.099   5.690   0.932
 3281SOL    HW110742   2.121   5.657   0.840
 3281SOL    HW210743   2.053   5.618   0.983
 3282SOL     OW10744   2.226   5.453   3.320
 3282SOL    HW110745   2.319   5.417   3.321
 3282SOL    HW210746   2.206   5.495   3.409
 3283SOL     OW10747   2.236   0.870   3.509
 3283SOL    HW110748   2.248   0.833   3.601
 3283SOL    HW210749   2.325   0.886   3.467
 3284SOL     OW10750   0.021   4.569   0.025
 3284SOL    HW110751   0.046   4.483   0.070
 3284SOL    HW210752   6.949   4.587   0.039
 3285SOL     OW10753   0.888   1.485   3.855
 3285SOL    HW110754   0.814   1.419   3.862
 3285SOL    HW210755   0.973   1.438   3.832
 3286SOL     OW10756   3.589   3.467   4.835
 3286SOL    HW110757   3.671   3.522   4.850
 3286SOL    HW210758   3.514   3.502   4.891
 3287SOL     OW10759   1.309   5.509   1.152
 3287SOL    HW110760   1.334   5.448   1.077
 3287SOL    HW210761   1.246   5.579   1.117
 3288SOL     OW10762   0.050   6.068   6.315
 3288SOL    HW110763   0.087   6.150   6.358
 3288SOL    HW210764   6.990   6.091   6.267
 3289SOL     OW10765   1.567   6.210   4.615
 3289SOL    HW110766   1.565   6.298   4.661
 3289SOL    HW210767   1.650   6.160   4.640
 3290SOL     OW10768   6.667   4.933   1.646
 3290SOL    HW110769   6.622   4.950   1.558
 3290SOL    HW210770   6.712   4.844   1.644
 3291SOL     OW10771   1.782   6.587   0.577
 3291SOL    HW110772   1.748   6.674   0.542
 3291SOL    HW210773   1.852   6.552   0.515
 3292SOL     OW10774   0.483   6.156   6.165
 3292SOL    HW110775   0.582   6.170   6.170
 3292SOL    HW210776   0.438   6.216   6.232
 3293SOL     OW10777   0.228   1.171   2.524
 3293SOL    HW110778   0.275   1.127   2.601
 3293SOL    HW210779   0.194   1.260   2.552
 3294SOL     OW10780   0.332   0.772   0.063
 3294SOL    HW110781   0.345   0.674   0.078
 3294SOL    HW210782   0.243   0.799   0.099
 3295SOL     OW10783   1.561   2.691   6.918
 3295SOL    HW110784   1.536   2.785   6.943
 3295SOL    HW210785   1.611   2.649   6.993
 3296SOL     OW10786   1.434   6.751   2.737
 3296SOL    HW110787   1.416   6.848   2.722
 3296SOL    HW210788   1.388   6.721   2.821
 3297SOL     OW10789   3.038   2.585   6.283
 3297SOL    HW110790   3.108   2.518   6.311
 3297SOL    HW210791   2.947   2.547   6.300
 3298SOL     OW10792   6.362   3.197   3.031
 3298SOL    HW110793   6.453   3.154   3.034
 3298SOL    HW210794   6.371   3.291   2.998
 3299SOL     OW10795   1.931   6.818   5.506
 3299SOL    HW110796   1.841   6.854   5.528
 3299SOL    HW210797   1.922   6.729   5.461
 3300SOL     OW10798   6.543   6.968   4.835
 3300SOL    HW110799   6.634   6.934   4.862
 3300SOL    HW210800   6.543   6.988   4.737
 3301SOL     OW10801   0.618   3.738   3.174
 3301SOL    HW110802   0.658   3.828   3.190
 3301SOL    HW210803   0.673   3.668   3.221
 3302SOL     OW10804   1.171   4.196   3.787
 3302SOL    HW110805   1.138   4.139   3.862
 3302SOL    HW210806   1.107   4.190   3.710
 3303SOL     OW10807   3.857   3.907   2.994
 3303SOL    HW110808   3.935   3.873   3.047
 3303SOL    HW210809   3.809   3.976   3.048
 3304SOL     OW10810   0.016   6.482   4.352
 3304SOL    HW110811   0.068   6.504   4.435
 3304SOL    HW210812   0.002   6.565   4.298
 3305SOL     OW10813   2.022   0.875   2.276
 3305SOL    HW110814   1.923   0.890   2.276
 3305SOL    HW210815   2.068   0.955   2.313
 3306SOL     OW10816   1.361   4.384   3.400
 3306SOL    HW110817   1.405   4.358   3.487
 3306SOL    HW210818   1.431   4.415   3.336
 3307SOL     OW10819   0.183   5.739   6.597
 3307SOL    HW110820   0.113   5.807   6.619
 3307SOL    HW210821   0.197   5.678   6.675
 3308SOL     OW10822   4.685   6.303   0.556
 3308SOL    HW110823   4.599   6.332   0.515
 3308SOL    HW210824   4.739   6.383   0.582
 3309SOL     OW10825   0.037   5.038   3.232
 3309SOL    HW110826   6.974   5.007   3.196
 3309SOL    HW210827   0.027   5.129   3.272
 3310SOL     OW10828   0.915   5.524   1.810
 3310SOL    HW110829   0.857   5.501   1.888
 3310SOL    HW210830   0.995   5.575   1.841
 3311SOL     OW10831   4.644   6.598   0.611
 3311SOL    HW110832   4.663   6.571   0.706
 3311SOL    HW210833   4.716   6.659   0.578
 3312SOL     OW10834   3.475   3.956   6.861
 3312SOL    HW110835   3.407   3.945   6.934
 3312SOL    HW210836   3.566   3.961   6.901
 3313SOL     OW10837   6.393   5.915   3.581
 3313SOL    HW110838   6.375   5.845   3.512
 3313SOL    HW210839   6.387   5.874   3.672
 3314SOL     OW10840   1.458   3.448   5.086
 3314SOL    HW110841   1.376   3.476   5.136
 3314SOL    HW210842   1.508   3.530   5.057
 3315SOL     OW10843   0.457   1.600   3.490
 3315SOL    HW110844   0.483   1.504   3.504
 3315SOL    HW210845   0.429   1.640   3.577
 3316SOL     OW10846   4.797   1.711   0.133
 3316SOL    HW110847   4.700   1.687   0.135
 3316SOL    HW210848   4.844   1.665   0.208
 3317SOL     OW10849   4.018   2.400   0.990
 3317SOL    HW110850   4.056   2.407   0.898
 3317SOL    HW210851   3.990   2.491   1.021
 3318SOL     OW10852   2.133   5.281   5.572
 3318SOL    HW110853   2.225   5.315   5.590
 3318SOL    HW210854   2.101   5.315   5.483
 3319SOL     OW10855   0.896   5.609   5.237
 3319SOL    HW110856   0.815   5.575   5.190
 3319SOL    HW210857   0.888   5.708   5.250
 3320SOL     OW10858   0.100   0.768   6.180
 3320SOL    HW110859   0.185   0.730   6.143
 3320SOL    HW210860   0.030   0.697   6.182
 3321SOL     OW10861   3.623   3.885   3.150
 3321SOL    HW110862   3.680   3.952   3.198
 3321SOL    HW210863   3.559   3.932   3.089
 3322SOL     OW10864   4.274   1.484   0.523
 3322SOL    HW110865   4.364   1.511   0.488
 3322SOL    HW210866   4.215   1.564   0.530
 3323SOL     OW10867   2.204   5.155   0.343
 3323SOL    HW110868   2.178   5.091   0.270
 3323SOL    HW210869   2.207   5.248   0.305
 3324SOL     OW10870   0.614   2.314   0.852
 3324SOL    HW110871   0.566   2.226   0.852
 3324SOL    HW210872   0.593   2.362   0.767
 3325SOL     OW10873   1.332   3.012   0.664
 3325SOL    HW110874   1.280   3.071   0.727
 3325SOL    HW210875   1.284   2.925   0.655
 3326SOL     OW10876   5.960   1.563   1.318
 3326SOL    HW110877   6.028   1.617   1.268
 3326SOL    HW210878   5.979   1.569   1.416
 3327SOL     OW10879   3.232   6.873   2.344
 3327SOL    HW110880   3.285   6.789   2.356
 3327SOL    HW210881   3.219   6.917   2.433
 3328SOL     OW10882   4.740   0.942   2.391
 3328SOL    HW110883   4.727   1.039   2.371
 3328SOL    HW210884   4.719   0.888   2.309
 3329SOL     OW10885   4.905   0.388   5.361
 3329SOL    HW110886   4.931   0.455   5.291
 3329SOL    HW210887   4.918   0.428   5.451
 3330SOL     OW10888   6.640   5.382   2.961
 3330SOL    HW110889   6.673   5.288   2.948
 3330SOL    HW210890   6.718   5.444   2.971
 3331SOL     OW10891   2.084   3.663   2.852
 3331SOL    HW110892   2.121   3.580   2.896
 3331SOL    HW210893   2.072   3.646   2.754
 3332SOL     OW10894   3.864   5.425   1.051
 3332SOL    HW110895   3.779   5.476   1.043
 3332SOL    HW210896   3.937   5.475   1.005
 3333SOL     OW10897   3.064   3.406   1.833
 3333SOL    HW110898   3.067   3.407   1.733
 3333SOL    HW210899   2.987   3.461   1.865
 3334SOL     OW10900   1.930   2.871   2.466
 3334SOL    HW110901   1.997   2.912   2.405
 3334SOL    HW210902   1.880   2.944   2.513
 3335SOL     OW10903   3.941   4.619   5.455
 3335SOL    HW110904   3.996   4.666   5.523
 3335SOL    HW210905   3.919   4.682   5.380
 3336SOL     OW10906   5.115   6.319   3.471
 3336SOL    HW110907   5.040   6.253   3.469
 3336SOL    HW210908   5.084   6.404   3.513
 3337SOL     OW10909   3.660   3.538   3.387
 3337SOL    HW110910   3.733   3.595   3.350
 3337SOL    HW210911   3.696   3.482   3.462
 3338SOL     OW10912   2.760   2.121   1.236
 3338SOL    HW110913   2.769   2.143   1.333
 3338SOL    HW210914   2.671   2.079   1.219
 3339SOL     OW10915   1.753   7.018   5.903
 3339SOL    HW110916   1.743   0.046   5.819
 3339SOL    HW210917   1.850   7.007   5.925
 3340SOL     OW10918   4.243   0.848   4.244
 3340SOL    HW110919   4.268   0.827   4.149
 3340SOL    HW210920   4.318   0.821   4.305
 3341SOL     OW10921   1.581   4.398   2.812
 3341SOL    HW110922   1.640   4.320   2.790
 3341SOL    HW210923   1.573   4.458   2.733
 3342SOL     OW10924   0.250   0.625   2.419
 3342SOL    HW110925   0.171   0.584   2.464
 3342SOL    HW210926   0.325   0.559   2.417
 3343SOL     OW10927   5.116   5.283   6.193
 3343SOL    HW110928   5.096   5.193   6.231
 3343SOL    HW210929   5.119   5.350   6.267
 3344SOL     OW10930   0.554   2.973   2.979
 3344SOL    HW110931   0.528   3.067   2.999
 3344SOL    HW210932   0.646   2.955   3.013
 3345SOL     OW10933   6.602   4.577   0.433
 3345SOL    HW110934   6.679   4.591   0.496
 3345SOL    HW210935   6.543   4.505   0.469
 3346SOL     OW10936   1.937   1.032   0.126
 3346SOL    HW110937   1.871   1.107   0.130
 3346SOL    HW210938   1.889   0.946   0.109
 3347SOL     OW10939   6.968   3.546   6.508
 3347SOL    HW110940   6.979   3.598   6.594
 3347SOL    HW210941   6.936   3.454   6.529
 3348SOL     OW10942   3.883   3.794   6.401
 3348SOL    HW110943   3.793   3.805   6.360
 3348SOL    HW210944   3.875   3.791   6.501
 3349SOL     OW10945   2.068   4.746   3.814
 3349SOL    HW110946   2.044   4.842   3.798
 3349SOL    HW210947   2.163   4.740   3.846
 3350SOL     OW10948   0.568   4.360   5.233
 3350SOL    HW110949   0.660   4.351   5.196
 3350SOL    HW210950   0.571   4.360   5.333
 3351SOL     OW10951   5.138   0.680   1.056
 3351SOL    HW110952   5.125   0.663   0.958
 3351SOL    HW210953   5.158   0.776   1.071
 3352SOL     OW10954   5.772   2.014   6.649
 3352SOL    HW110955   5.847   2.029   6.585
 3352SOL    HW210956   5.734   1.923   6.636
 3353SOL     OW10957   2.646   0.323   1.277
 3353SOL    HW110958   2.654   0.409   1.227
 3353SOL    HW210959   2.662   0.247   1.215
 3354SOL     OW10960   3.306   3.936   6.254
 3354SOL    HW110961   3.253   3.987   6.322
 3354SOL    HW210962   3.245   3.898   6.185
 3355SOL     OW10963   2.121   0.790   4.828
 3355SOL    HW110964   2.122   0.807   4.927
 3355SOL    HW210965   2.066   0.709   4.808
 3356SOL     OW10966   1.645   6.770   5.833
 3356SOL    HW110967   1.679   6.860   5.860
 3356SOL    HW210968   1.675   6.702   5.900
 3357SOL     OW10969   2.757   3.304   1.711
 3357SOL    HW110970   2.813   3.262   1.782
 3357SOL    HW210971   2.776   3.260   1.623
 3358SOL     OW10972   6.991   0.955   1.675
 3358SOL    HW110973   7.010   0.857   1.672
 3358SOL    HW210974   7.023   0.998   1.590
 3359SOL     OW10975   6.422   6.341   4.060
 3359SOL    HW110976   6.393   6.358   4.154
 3359SOL    HW210977   6.461   6.424   4.021
 3360SOL     OW10978   0.636   3.582   5.106
 3360SOL    HW110979   0.620   3.643   5.183
 3360SOL    HW210980   0.682   3.498   5.138
 3361SOL     OW10981   6.902   0.821   4.485
 3361SOL    HW110982   6.826   0.857   4.539
 3361SOL    HW210983   6.986   0.822   4.540
 3362SOL     OW10984   3.430   1.284   4.237
 3362SOL    HW110985   3.450   1.358   4.172
 3362SOL    HW210986   3.345   1.304   4.285
 3363SOL     OW10987   6.148   3.402   0.346
 3363SOL    HW110988   6.197   3.461   0.410
 3363SOL    HW210989   6.054   3.388   0.378
 3364SOL     OW10990   2.153   3.574   3.693
 3364SOL    HW110991   2.125   3.487   3.734
 3364SOL    HW210992   2.229   3.613   3.745
 3365SOL     OW10993   1.949   3.831   4.013
 3365SOL    HW110994   1.953   3.926   3.980
 3365SOL    HW210995   1.873   3.822   4.077
 3366SOL     OW10996   5.924   4.088   4.251
 3366SOL    HW110997   5.941   4.167   4.193
 3366SOL    HW210998   5.987   4.090   4.329
 3367SOL     OW10999   3.632   3.304   4.086
 3367SOL    HW111000   3.549   3.339   4.042
 3367SOL    HW211001   3.612   3.217   4.132
 3368SOL     OW11002   1.463   6.088   1.342
 3368SOL    HW111003   1.441   6.018   1.410
 3368SOL    HW211004   1.485   6.045   1.255
 3369SOL     OW11005   4.718   2.865   1.152
 3369SOL    HW111006   4.641   2.801   1.143
 3369SOL    HW211007   4.688   2.956   1.124
 3370SOL     OW11008   0.639   6.082   2.647
 3370SOL    HW111009   0.554   6.062   2.599
 3370SOL    HW211010   0.622   6.083   2.745
 3371SOL     OW11011   1.486   2.788   3.426
 3371SOL    HW111012   1.564   2.802   3.365
 3371SOL    HW211013   1.419   2.728   3.381
 3372SOL     OW11014   6.154   4.183   2.025
 3372SOL    HW111015   6.121   4.192   2.118
 3372SOL    HW211016   6.248   4.148   2.026
 3373SOL     OW11017   6.618   2.925   1.249
 3373SOL    HW111018   6.553   3.001   1.258
 3373SOL    HW211019   6.623   2.876   1.336
 3374SOL     OW11020   0.305   0.442   3.960
 3374SOL    HW111021   0.221   0.398   3.993
 3374SOL    HW211022   0.292   0.473   3.866
 3375SOL     OW11023   6.292   5.210   5.989
 3375SOL    HW111024   6.318   5.116   6.009
 3375SOL    HW211025   6.213   5.210   5.927
 3376SOL     OW11026   2.837   3.884   5.111
 3376SOL    HW111027   2.801   3.922   5.026
 3376SOL    HW211028   2.764   3.881   5.180
 3377SOL     OW11029   6.286   4.664   3.419
 3377SOL    HW111030   6.386   4.667   3.425
 3377SOL    HW211031   6.251   4.753   3.391
 3378SOL     OW11032   1.265   6.225   1.038
 3378SOL    HW111033   1.321   6.154   1.081
 3378SOL    HW211034   1.302   6.246   0.948
 3379SOL     OW11035   6.601   4.339   3.864
 3379SOL    HW111036   6.610   4.434   3.893
 3379SOL    HW211037   6.634   4.329   3.771
 3380SOL     OW11038   3.517   4.939   6.483
 3380SOL    HW111039   3.495   4.846   6.511
 3380SOL    HW211040   3.612   4.943   6.451
 3381SOL     OW11041   1.641   3.520   0.349
 3381SOL    HW111042   1.679   3.605   0.386
 3381SOL    HW211043   1.604   3.537   0.257
 3382SOL     OW11044   6.904   2.901   1.236
 3382SOL    HW111045   6.828   2.901   1.172
 3382SOL    HW211046   6.890   2.829   1.305
 3383SOL     OW11047   5.078   5.434   0.188
 3383SOL    HW111048   5.096   5.470   0.096
 3383SOL    HW211049   5.080   5.509   0.254
 3384SOL     OW11050   2.608   4.317   6.872
 3384SOL    HW111051   2.535   4.278   6.927
 3384SOL    HW211052   2.582   4.409   6.842
 3385SOL     OW11053   0.376   2.358   4.175
 3385SOL    HW111054   0.408   2.282   4.231
 3385SOL    HW211055   0.294   2.331   4.124
 3386SOL     OW11056   0.231   4.368   6.000
 3386SOL    HW111057   0.300   4.436   5.976
 3386SOL    HW211058   0.147   4.415   6.030
 3387SOL     OW11059   6.345   0.486   3.135
 3387SOL    HW111060   6.405   0.559   3.101
 3387SOL    HW211061   6.309   0.512   3.225
 3388SOL     OW11062   6.804   3.473   0.990
 3388SOL    HW111063   6.900   3.461   1.016
 3388SOL    HW211064   6.754   3.513   1.067
 3389SOL     OW11065   6.024   6.102   0.289
 3389SOL    HW111066   5.944   6.068   0.239
 3389SOL    HW211067   6.044   6.195   0.261
 3390SOL     OW11068   3.904   6.781   5.699
 3390SOL    HW111069   3.852   6.844   5.755
 3390SOL    HW211070   3.923   6.697   5.751
 3391SOL     OW11071   5.673   3.178   4.391
 3391SOL    HW111072   5.610   3.240   4.437
 3391SOL    HW211073   5.623   3.095   4.363
 3392SOL     OW11074   4.523   6.187   5.515
 3392SOL    HW111075   4.531   6.191   5.615
 3392SOL    HW211076   4.577   6.261   5.475
 3393SOL     OW11077   4.966   5.341   0.961
 3393SOL    HW111078   4.883   5.385   0.997
 3393SOL    HW211079   4.943   5.249   0.929
 3394SOL     OW11080   2.887   5.414   1.532
 3394SOL    HW111081   2.885   5.394   1.434
 3394SOL    HW211082   2.820   5.486   1.553
 3395SOL     OW11083   2.653   0.044   3.669
 3395SOL    HW111084   2.558   0.013   3.677
 3395SOL    HW211085   2.700   7.016   3.599
 3396SOL     OW11086   5.020   1.959   4.622
 3396SOL    HW111087   5.103   1.976   4.676
 3396SOL    HW211088   4.945   2.013   4.658
 3397SOL     OW11089   2.241   6.292   0.278
 3397SOL    HW111090   2.222   6.388   0.258
 3397SOL    HW211091   2.254   6.280   0.376
 3398SOL     OW11092   0.101   2.172   3.998
 3398SOL    HW111093   0.073   2.268   3.999
 3398SOL    HW211094   0.171   2.158   3.927
 3399SOL     OW11095   6.500   5.778   1.913
 3399SOL    HW111096   6.566   5.788   1.988
 3399SOL    HW211097   6.447   5.694   1.926
 3400SOL     OW11098   5.271   1.770   6.199
 3400SOL    HW111099   5.297   1.776   6.103
 3400SOL    HW211100   5.240   1.677   6.219
 3401SOL     OW11101   6.638   3.445   5.825
 3401SOL    HW111102   6.576   3.474   5.752
 3401SOL    HW211103   6.586   3.405   5.900
 3402SOL     OW11104   6.294   3.416   1.495
 3402SOL    HW111105   6.234   3.421   1.415
 3402SOL    HW211106   6.239   3.409   1.578
 3403SOL     OW11107   4.872   6.693   6.665
 3403SOL    HW111108   4.800   6.693   6.596
 3403SOL    HW211109   4.871   6.780   6.715
 3404SOL     OW11110   5.096   4.185   5.247
 3404SOL    HW111111   5.167   4.144   5.303
 3404SOL    HW211112   5.006   4.165   5.285
 3405SOL     OW11113   5.017   5.520   6.108
 3405SOL    HW111114   5.078   5.595   6.083
 3405SOL    HW211115   5.069   5.434   6.112
 3406SOL     OW11116   2.486   4.825   1.913
 3406SOL    HW111117   2.562   4.887   1.934
 3406SOL    HW211118   2.490   4.798   1.817
 3407SOL     OW11119   1.149   3.563   0.314
 3407SOL    HW111120   1.079   3.618   0.268
 3407SOL    HW211121   1.104   3.500   0.378
 3408SOL     OW11122   4.981   2.071   3.558
 3408SOL    HW111123   4.906   2.096   3.497
 3408SOL    HW211124   4.982   1.971   3.571
 3409SOL     OW11125   4.303   0.482   0.638
 3409SOL    HW111126   4.298   0.578   0.664
 3409SOL    HW211127   4.241   0.464   0.562
 3410SOL     OW11128   5.618   0.554   2.671
 3410SOL    HW111129   5.522   0.528   2.656
 3410SOL    HW211130   5.670   0.473   2.698
 3411SOL     OW11131   6.032   2.289   0.294
 3411SOL    HW111132   6.063   2.319   0.384
 3411SOL    HW211133   6.107   2.247   0.245
 3412SOL     OW11134   5.925   2.925   1.542
 3412SOL    HW111135   5.951   2.829   1.540
 3412SOL    HW211136   5.994   2.979   1.494
 3413SOL     OW11137   0.319   3.183   6.007
 3413SOL    HW111138   0.347   3.178   5.911
 3413SOL    HW211139   0.369   3.114   6.059
 3414SOL     OW11140   3.223   4.576   0.843
 3414SOL    HW111141   3.305   4.525   0.818
 3414SOL    HW211142   3.172   4.527   0.914
 3415SOL     OW11143   1.753   1.922   5.943
 3415SOL    HW111144   1.811   1.886   6.015
 3415SOL    HW211145   1.808   1.939   5.861
 3416SOL     OW11146   6.469   0.234   6.594
 3416SOL    HW111147   6.563   0.202   6.582
 3416SOL    HW211148   6.408   0.179   6.538
 3417SOL     OW11149   6.095   6.793   3.318
 3417SOL    HW111150   6.032   6.869   3.303
 3417SOL    HW211151   6.151   6.811   3.399
 3418SOL     OW11152   4.977   4.735   0.805
 3418SOL    HW111153   5.061   4.684   0.782
 3418SOL    HW211154   4.950   4.792   0.727
 3419SOL     OW11155   2.373   5.932   5.877
 3419SOL    HW111156   2.390   5.894   5.968
 3419SOL    HW211157   2.313   6.011   5.885
 3420SOL     OW11158   4.091   2.227   2.768
 3420SOL    HW111159   4.171   2.197   2.716
 3420SOL    HW211160   4.082   2.327   2.763
 3421SOL     OW11161   6.624   2.376   3.343
 3421SOL    HW111162   6.608   2.364   3.441
 3421SOL    HW211163   6.537   2.368   3.294
 3422SOL     OW11164   2.386   6.758   0.787
 3422SOL    HW111165   2.473   6.775   0.834
 3422SOL    HW211166   2.335   6.688   0.837
 3423SOL     OW11167   1.368   4.477   6.153
 3423SOL    HW111168   1.313   4.496   6.072
 3423SOL    HW211169   1.370   4.558   6.212
 3424SOL     OW11170   4.624   0.417   1.579
 3424SOL    HW111171   4.649   0.323   1.557
 3424SOL    HW211172   4.541   0.416   1.635
 3425SOL     OW11173   5.676   3.614   0.583
 3425SOL    HW111174   5.594   3.647   0.630
 3425SOL    HW211175   5.653   3.533   0.529
 3426SOL     OW11176   5.599   2.904   6.920
 3426SOL    HW111177   5.641   2.993   6.901
 3426SOL    HW211178   5.670   2.834   6.923
 3427SOL     OW11179   1.499   2.325   0.671
 3427SOL    HW111180   1.588   2.317   0.627
 3427SOL    HW211181   1.488   2.251   0.737
 3428SOL     OW11182   4.850   6.276   5.605
 3428SOL    HW111183   4.838   6.239   5.697
 3428SOL    HW211184   4.940   6.319   5.597
 3429SOL     OW11185   5.890   0.456   0.635
 3429SOL    HW111186   5.825   0.523   0.670
 3429SOL    HW211187   5.975   0.461   0.689
 3430SOL     OW11188   2.058   4.544   5.481
 3430SOL    HW111189   1.979   4.499   5.440
 3430SOL    HW211190   2.135   4.480   5.482
 3431SOL     OW11191   1.252   5.256   3.235
 3431SOL    HW111192   1.253   5.183   3.303
 3431SOL    HW211193   1.345   5.279   3.208
 3432SOL     OW11194   1.432   3.769   0.607
 3432SOL    HW111195   1.526   3.768   0.641
 3432SOL    HW211196   1.416   3.688   0.551
 3433SOL     OW11197   2.351   1.900   0.010
 3433SOL    HW111198   2.450   1.890   0.014
 3433SOL    HW211199   2.307   1.815   0.042
 3434SOL     OW11200   3.110   2.606   1.124
 3434SOL    HW111201   3.083   2.526   1.178
 3434SOL    HW211202   3.122   2.684   1.185
 3435SOL     OW11203   1.918   1.181   1.308
 3435SOL    HW111204   1.903   1.165   1.406
 3435SOL    HW211205   2.016   1.176   1.288
 3436SOL     OW11206   3.163   6.552   6.454
 3436SOL    HW111207   3.243   6.581   6.508
 3436SOL    HW211208   3.159   6.452   6.451
 3437SOL     OW11209   1.101   0.426   6.356
 3437SOL    HW111210   1.039   0.490   6.402
 3437SOL    HW211211   1.062   0.399   6.268
 3438SOL     OW11212   1.246   4.101   1.523
 3438SOL    HW111213   1.273   4.016   1.479
 3438SOL    HW211214   1.153   4.125   1.496
 3439SOL     OW11215   2.722   4.961   1.946
 3439SOL    HW111216   2.770   5.048   1.963
 3439SOL    HW211217   2.784   4.885   1.964
 3440SOL     OW11218   3.984   3.785   4.736
 3440SOL    HW111219   4.020   3.696   4.765
 3440SOL    HW211220   3.997   3.795   4.637
 3441SOL     OW11221   5.373   4.960   6.064
 3441SOL    HW111222   5.383   4.862   6.043
 3441SOL    HW211223   5.457   5.008   6.041
 3442SOL     OW11224   3.432   3.276   1.246
 3442SOL    HW111225   3.525   3.241   1.257
 3442SOL    HW211226   3.379   3.213   1.190
 3443SOL     OW11227   0.983   6.100   2.097
 3443SOL    HW111228   1.020   6.192   2.104
 3443SOL    HW211229   1.041   6.037   2.149
 3444SOL     OW11230   6.402   3.595   6.947
 3444SOL    HW111231   6.337   3.664   6.914
 3444SOL    HW211232   6.414   3.525   6.876
 3445SOL     OW11233   6.141   4.438   3.480
 3445SOL    HW111234   6.047   4.463   3.460
 3445SOL    HW211235   6.201   4.517   3.463
 3446SOL     OW11236   4.890   0.854   1.084
 3446SOL    HW111237   4.922   0.760   1.075
 3446SOL    HW211238   4.796   0.861   1.049
 3447SOL     OW11239   5.726   1.219   6.762
 3447SOL    HW111240   5.710   1.123   6.783
 3447SOL    HW211241   5.696   1.237   6.668
 3448SOL     OW11242   1.653   6.173   5.139
 3448SOL    HW111243   1.729   6.238   5.146
 3448SOL    HW211244   1.578   6.215   5.088
 3449SOL     OW11245   6.733   4.522   5.708
 3449SOL    HW111246   6.771   4.431   5.725
 3449SOL    HW211247   6.737   4.541   5.610
 3450SOL     OW11248   2.425   6.425   1.747
 3450SOL    HW111249   2.449   6.335   1.783
 3450SOL    HW211250   2.337   6.453   1.784
 3451SOL     OW11251   1.820   1.129   1.580
 3451SOL    HW111252   1.833   1.058   1.649
 3451SOL    HW211253   1.776   1.208   1.622
 3452SOL     OW11254   4.637   0.651   4.731
 3452SOL    HW111255   4.679   0.660   4.641
 3452SOL    HW211256   4.537   0.644   4.721
 3453SOL     OW11257   4.597   5.983   6.148
 3453SOL    HW111258   4.553   5.922   6.215
 3453SOL    HW211259   4.658   5.930   6.089
 3454SOL     OW11260   0.683   2.839   1.495
 3454SOL    HW111261   0.672   2.938   1.503
 3454SOL    HW211262   0.610   2.793   1.545
 3455SOL     OW11263   0.712   3.260   5.095
 3455SOL    HW111264   0.748   3.256   5.188
 3455SOL    HW211265   0.782   3.229   5.030
 3456SOL     OW11266   5.250   4.813   3.073
 3456SOL    HW111267   5.191   4.794   2.994
 3456SOL    HW211268   5.206   4.879   3.133
 3457SOL     OW11269   3.794   4.846   5.661
 3457SOL    HW111270   3.707   4.798   5.649
 3457SOL    HW211271   3.869   4.780   5.663
 3458SOL     OW11272   4.266   1.238   2.286
 3458SOL    HW111273   4.242   1.256   2.381
 3458SOL    HW211274   4.346   1.179   2.282
 3459SOL     OW11275   4.468   6.558   3.154
 3459SOL    HW111276   4.495   6.512   3.070
 3459SOL    HW211277   4.398   6.626   3.134
 3460SOL     OW11278   4.280   1.659   4.832
 3460SOL    HW111279   4.298   1.641   4.928
 3460SOL    HW211280   4.233   1.580   4.792
 3461SOL     OW11281   5.994   5.645   5.021
 3461SOL    HW111282   6.085   5.605   5.012
 3461SOL    HW211283   6.002   5.742   5.047
 3462SOL     OW11284   1.796   3.477   6.536
 3462SOL    HW111285   1.808   3.550   6.602
 3462SOL    HW211286   1.728   3.412   6.569
 3463SOL     OW11287   5.696   3.839   1.159
 3463SOL    HW111288   5.713   3.810   1.253
 3463SOL    HW211289   5.769   3.900   1.129
 3464SOL     OW11290   0.205   4.604   6.246
 3464SOL    HW111291   0.275   4.620   6.177
 3464SOL    HW211292   0.117   4.589   6.201
 3465SOL     OW11293   1.478   0.952   0.706
 3465SOL    HW111294   1.572   0.921   0.720
 3465SOL    HW211295   1.415   0.880   0.734
 3466SOL     OW11296   6.547   3.974   5.825
 3466SOL    HW111297   6.500   4.008   5.907
 3466SOL    HW211298   6.595   3.889   5.847
 3467SOL     OW11299   1.912   1.863   7.015
 3467SOL    HW111300   1.869   1.773   7.010
 3467SOL    HW211301   1.947   1.888   6.924
 3468SOL     OW11302   3.758   6.991   3.776
 3468SOL    HW111303   3.752   0.065   3.779
 3468SOL    HW211304   3.782   6.962   3.683
 3469SOL     OW11305   5.201   2.735   3.150
 3469SOL    HW111306   5.124   2.703   3.205
 3469SOL    HW211307   5.220   2.669   3.077
 3470SOL     OW11308   6.956   5.328   1.152
 3470SOL    HW111309   6.928   5.250   1.209
 3470SOL    HW211310   6.909   5.323   1.064
 3471SOL     OW11311   3.976   6.454   5.006
 3471SOL    HW111312   3.967   6.404   5.092
 3471SOL    HW211313   3.910   6.418   4.940
 3472SOL     OW11314   3.406   1.345   5.094
 3472SOL    HW111315   3.378   1.420   5.035
 3472SOL    HW211316   3.349   1.265   5.077
 3473SOL     OW11317   5.353   0.953   5.827
 3473SOL    HW111318   5.331   0.917   5.917
 3473SOL    HW211319   5.270   0.990   5.785
 3474SOL     OW11320   4.606   5.238   0.978
 3474SOL    HW111321   4.671   5.179   0.930
 3474SOL    HW211322   4.558   5.295   0.911
 3475SOL     OW11323   1.512   5.938   4.819
 3475SOL    HW111324   1.500   6.025   4.866
 3475SOL    HW211325   1.498   5.951   4.720
 3476SOL     OW11326   5.004   1.255   4.422
 3476SOL    HW111327   5.053   1.255   4.509
 3476SOL    HW211328   5.055   1.310   4.355
 3477SOL     OW11329   4.235   6.199   1.663
 3477SOL    HW111330   4.234   6.239   1.571
 3477SOL    HW211331   4.292   6.254   1.723
 3478SOL     OW11332   4.116   4.492   0.230
 3478SOL    HW111333   4.159   4.578   0.203
 3478SOL    HW211334   4.180   4.438   0.284
 3479SOL     OW11335   0.845   0.603   1.955
 3479SOL    HW111336   0.909   0.645   2.020
 3479SOL    HW211337   0.827   0.508   1.981
 3480SOL     OW11338   1.371   1.077   3.065
 3480SOL    HW111339   1.390   1.108   3.158
 3480SOL    HW211340   1.272   1.067   3.052
 3481SOL     OW11341   2.095   6.427   6.849
 3481SOL    HW111342   2.070   6.514   6.891
 3481SOL    HW211343   2.074   6.431   6.751
 3482SOL     OW11344   0.438   2.168   0.439
 3482SOL    HW111345   0.402   2.183   0.347
 3482SOL    HW211346   0.402   2.239   0.500
 3483SOL     OW11347   3.083   6.922   1.175
 3483SOL    HW111348   3.138   6.845   1.208
 3483SOL    HW211349   3.133   7.007   1.191
 3484SOL     OW11350   3.613   3.836   3.690
 3484SOL    HW111351   3.691   3.781   3.720
 3484SOL    HW211352   3.584   3.807   3.599
 3485SOL     OW11353   0.867   2.373   4.741
 3485SOL    HW111354   0.816   2.432   4.804
 3485SOL    HW211355   0.814   2.290   4.724
 3486SOL     OW11356   4.440   1.812   2.378
 3486SOL    HW111357   4.404   1.858   2.458
 3486SOL    HW211358   4.374   1.816   2.304
 3487SOL     OW11359   6.609   0.254   0.214
 3487SOL    HW111360   6.657   0.278   0.130
 3487SOL    HW211361   6.558   0.334   0.247
 3488SOL     OW11362   5.820   3.667   4.070
 3488SOL    HW111363   5.800   3.714   3.984
 3488SOL    HW211364   5.896   3.604   4.057
 3489SOL     OW11365   2.757   7.022   0.850
 3489SOL    HW111366   2.666   0.015   0.812
 3489SOL    HW211367   2.750   6.953   0.921
 3490SOL     OW11368   3.958   3.716   0.270
 3490SOL    HW111369   3.915   3.695   0.183
 3490SOL    HW211370   3.928   3.650   0.339
 3491SOL     OW11371   0.688   3.025   4.655
 3491SOL    HW111372   0.681   3.115   4.614
 3491SOL    HW211373   0.651   2.957   4.592
 3492SOL     OW11374   6.133   4.894   6.725
 3492SOL    HW111375   6.080   4.900   6.641
 3492SOL    HW211376   6.113   4.973   6.783
 3493SOL     OW11377   6.591   4.865   0.408
 3493SOL    HW111378   6.606   4.890   0.504
 3493SOL    HW211379   6.567   4.768   0.402
 3494SOL     OW11380   3.132   0.309   0.702
 3494SOL    HW111381   3.145   0.363   0.619
 3494SOL    HW211382   3.074   0.230   0.681
 3495SOL     OW11383   5.163   4.753   0.499
 3495SOL    HW111384   5.176   4.755   0.400
 3495SOL    HW211385   5.225   4.687   0.540
 3496SOL     OW11386   1.958   3.601   1.037
 3496SOL    HW111387   2.049   3.578   1.003
 3496SOL    HW211388   1.964   3.676   1.103
 3497SOL     OW11389   4.583   0.132   3.315
 3497SOL    HW111390   4.523   0.121   3.236
 3497SOL    HW211391   4.640   0.051   3.326
 3498SOL     OW11392   2.291   1.418   1.935
 3498SOL    HW111393   2.316   1.498   1.989
 3498SOL    HW211394   2.203   1.382   1.967
 3499SOL     OW11395   6.784   3.117   3.812
 3499SOL    HW111396   6.817   3.191   3.870
 3499SOL    HW211397   6.691   3.091   3.839
 3500SOL     OW11398   6.546   3.514   0.616
 3500SOL    HW111399   6.582   3.580   0.681
 3500SOL    HW211400   6.620   3.453   0.585
 3501SOL     OW11401   1.157   4.644   4.398
 3501SOL    HW111402   1.126   4.662   4.305
 3501SOL    HW211403   1.254   4.618   4.396
 3502SOL     OW11404   0.720   3.285   1.690
 3502SOL    HW111405   0.652   3.312   1.758
 3502SOL    HW211406   0.693   3.321   1.600
 3503SOL     OW11407   4.874   6.354   4.188
 3503SOL    HW111408   4.846   6.278   4.247
 3503SOL    HW211409   4.818   6.354   4.105
 3504SOL     OW11410   1.952   3.510   1.924
 3504SOL    HW111411   2.046   3.498   1.955
 3504SOL    HW211412   1.941   3.470   1.833
 3505SOL     OW11413   5.305   5.367   4.822
 3505SOL    HW111414   5.306   5.452   4.771
 3505SOL    HW211415   5.314   5.290   4.759
 3506SOL     OW11416   4.959   5.505   2.630
 3506SOL    HW111417   4.957   5.600   2.598
 3506SOL    HW211418   4.891   5.452   2.580
 3507SOL     OW11419   0.947   0.360   6.142
 3507SOL    HW111420   0.850   0.375   6.121
 3507SOL    HW211421   0.982   0.284   6.088
 3508SOL     OW11422   5.881   2.826   6.922
 3508SOL    HW111423   5.938   2.844   6.843
 3508SOL    HW211424   5.926   2.759   6.981
 3509SOL     OW11425   6.619   6.305   0.941
 3509SOL    HW111426   6.669   6.225   0.908
 3509SOL    HW211427   6.574   6.351   0.864
 3510SOL     OW11428   1.741   3.307   2.560
 3510SOL    HW111429   1.817   3.356   2.517
 3510SOL    HW211430   1.760   3.296   2.657
 3511SOL     OW11431   0.713   1.396   5.592
 3511SOL    HW111432   0.802   1.401   5.548
 3511SOL    HW211433   0.641   1.418   5.526
 3512SOL     OW11434   3.006   3.425   1.095
 3512SOL    HW111435   3.015   3.369   1.013
 3512SOL    HW211436   3.086   3.485   1.104
 3513SOL     OW11437   5.989   4.735   0.960
 3513SOL    HW111438   6.026   4.703   1.047
 3513SOL    HW211439   5.899   4.775   0.975
 3514SOL     OW11440   0.767   6.208   1.698
 3514SOL    HW111441   0.835   6.244   1.762
 3514SOL    HW211442   0.724   6.127   1.738
 3515SOL     OW11443   2.945   6.327   3.611
 3515SOL    HW111444   2.888   6.377   3.546
 3515SOL    HW211445   3.012   6.389   3.651
 3516SOL     OW11446   2.897   1.161   0.814
 3516SOL    HW111447   2.866   1.128   0.903
 3516SOL    HW211448   2.879   1.259   0.806
 3517SOL     OW11449   1.387   0.809   6.579
 3517SOL    HW111450   1.399   0.902   6.543
 3517SOL    HW211451   1.297   0.774   6.553
 3518SOL     OW11452   4.193   2.943   5.712
 3518SOL    HW111453   4.229   2.941   5.805
 3518SOL    HW211454   4.134   2.864   5.697
 3519SOL     OW11455   1.953   6.467   0.394
 3519SOL    HW111456   2.014   6.457   0.316
 3519SOL    HW211457   1.954   6.382   0.448
 3520SOL     OW11458   4.415   5.690   0.768
 3520SOL    HW111459   4.355   5.624   0.812
 3520SOL    HW211460   4.392   5.782   0.799
 3521SOL     OW11461   5.799   2.543   0.495
 3521SOL    HW111462   5.845   2.602   0.428
 3521SOL    HW211463   5.746   2.473   0.447
 3522SOL     OW11464   3.261   5.048   2.571
 3522SOL    HW111465   3.360   5.042   2.564
 3522SOL    HW211466   3.227   4.979   2.635
 3523SOL     OW11467   2.125   4.728   6.054
 3523SOL    HW111468   2.152   4.691   6.143
 3523SOL    HW211469   2.206   4.757   6.003
 3524SOL     OW11470   2.183   0.310   1.161
 3524SOL    HW111471   2.269   0.291   1.115
 3524SOL    HW211472   2.161   0.234   1.222
 3525SOL     OW11473   1.019   2.954   2.970
 3525SOL    HW111474   1.050   2.904   3.051
 3525SOL    HW211475   0.992   2.889   2.899
 3526SOL     OW11476   2.454   0.804   2.670
 3526SOL    HW111477   2.477   0.877   2.606
 3526SOL    HW211478   2.441   0.718   2.620
 3527SOL     OW11479   4.927   3.168   6.010
 3527SOL    HW111480   4.867   3.112   6.066
 3527SOL    HW211481   4.926   3.134   5.916
 3528SOL     OW11482   6.864   0.043   4.348
 3528SOL    HW111483   6.882   0.004   4.257
 3528SOL    HW211484   6.946   0.036   4.404
 3529SOL     OW11485   3.560   6.350   6.237
 3529SOL    HW111486   3.514   6.318   6.154
 3529SOL    HW211487   3.528   6.297   6.315
 3530SOL     OW11488   1.860   5.743   2.993
 3530SOL    HW111489   1.854   5.744   3.093
 3530SOL    HW211490   1.940   5.794   2.963
 3531SOL     OW11491   4.412   3.836   0.000
 3531SOL    HW111492   4.456   3.786   0.075
 3531SOL    HW211493   4.477   3.848   6.951
 3532SOL     OW11494   1.872   0.072   0.300
 3532SOL    HW111495   1.836   0.136   0.367
 3532SOL    HW211496   1.800   0.047   0.235
 3533SOL     OW11497   1.752   1.309   3.114
 3533SOL    HW111498   1.669   1.306   3.059
 3533SOL    HW211499   1.779   1.404   3.129
 3534SOL     OW11500   5.346   1.148   4.323
 3534SOL    HW111501   5.275   1.140   4.393
 3534SOL    HW211502   5.327   1.227   4.264
 3535SOL     OW11503   4.646   5.826   6.514
 3535SOL    HW111504   4.633   5.787   6.605
 3535SOL    HW211505   4.720   5.893   6.517
 3536SOL     OW11506   1.102   4.507   3.445
 3536SOL    HW111507   1.152   4.420   3.439
 3536SOL    HW211508   1.126   4.565   3.367
 3537SOL     OW11509   2.345   4.820   0.744
 3537SOL    HW111510   2.401   4.902   0.733
 3537SOL    HW211511   2.399   4.739   0.722
 3538SOL     OW11512   2.672   0.715   4.781
 3538SOL    HW111513   2.698   0.695   4.686
 3538SOL    HW211514   2.686   0.812   4.800
 3539SOL     OW11515   5.374   5.661   6.222
 3539SOL    HW111516   5.353   5.753   6.189
 3539SOL    HW211517   5.384   5.598   6.144
 3540SOL     OW11518   3.114   3.760   6.084
 3540SOL    HW111519   3.146   3.773   5.990
 3540SOL    HW211520   3.019   3.730   6.083
 3541SOL     OW11521   2.537   3.027   1.451
 3541SOL    HW111522   2.510   3.117   1.484
 3541SOL    HW211523   2.483   3.004   1.370
 3542SOL     OW11524   5.531   2.186   6.142
 3542SOL    HW111525   5.582   2.239   6.210
 3542SOL    HW211526   5.484   2.111   6.187
 3543SOL     OW11527   0.439   2.453   3.248
 3543SOL    HW111528   0.530   2.411   3.249
 3543SOL    HW211529   0.382   2.407   3.180
 3544SOL     OW11530   2.733   4.260   6.342
 3544SOL    HW111531   2.711   4.350   6.304
 3544SOL    HW211532   2.737   4.267   6.442
 3545SOL     OW11533   3.496   6.303   1.505
 3545SOL    HW111534   3.593   6.324   1.516
 3545SOL    HW211535   3.464   6.336   1.417
 3546SOL     OW11536   0.409   4.552   3.487
 3546SOL    HW111537   0.470   4.475   3.469
 3546SOL    HW211538   0.316   4.528   3.458
 3547SOL     OW11539   0.961   4.519   5.485
 3547SOL    HW111540   1.014   4.602   5.472
 3547SOL    HW211541   1.022   4.439   5.480
 3548SOL     OW11542   5.459   0.758   5.400
 3548SOL    HW111543   5.367   0.722   5.416
 3548SOL    HW211544   5.523   0.682   5.389
 3549SOL     OW11545   2.773   6.571   0.053
 3549SOL    HW111546   2.741   6.573   6.984
 3549SOL    HW211547   2.745   6.486   0.097
 3550SOL     OW11548   5.577   0.994   5.332
 3550SOL    HW111549   5.523   0.918   5.367
 3550SOL    HW211550   5.564   1.074   5.391
 3551SOL     OW11551   4.384   2.147   4.196
 3551SOL    HW111552   4.469   2.130   4.246
 3551SOL    HW211553   4.317   2.076   4.217
 3552SOL     OW11554   0.577   6.705   2.937
 3552SOL    HW111555   0.508   6.634   2.918
 3552SOL    HW211556   0.659   6.686   2.883
 3553SOL     OW11557   5.105   5.665   0.006
 3553SOL    HW111558   5.155   5.725   6.969
 3553SOL    HW211559   5.124   5.693   0.100
 3554SOL     OW11560   5.491   3.090   1.075
 3554SOL    HW111561   5.514   2.993   1.076
 3554SOL    HW211562   5.551   3.138   1.012
 3555SOL     OW11563   3.019   2.066   5.030
 3555SOL    HW111564   2.934   2.074   5.082
 3555SOL    HW211565   3.079   2.142   5.053
 3556SOL     OW11566   5.406   1.121   5.530
 3556SOL    HW111567   5.392   1.033   5.573
 3556SOL    HW211568   5.318   1.159   5.501
 3557SOL     OW11569   6.213   1.073   0.928
 3557SOL    HW111570   6.195   0.992   0.872
 3557SOL    HW211571   6.308   1.072   0.959
 3558SOL     OW11572   3.581   6.464   1.951
 3558SOL    HW111573   3.582   6.446   2.049
 3558SOL    HW211574   3.564   6.379   1.901
 3559SOL     OW11575   4.708   6.383   5.387
 3559SOL    HW111576   4.760   6.379   5.301
 3559SOL    HW211577   4.766   6.353   5.462
 3560SOL     OW11578   2.192   5.118   4.368
 3560SOL    HW111579   2.106   5.094   4.323
 3560SOL    HW211580   2.248   5.173   4.306
 3561SOL     OW11581   4.748   3.743   5.330
 3561SOL    HW111582   4.716   3.665   5.277
 3561SOL    HW211583   4.696   3.825   5.302
 3562SOL     OW11584   1.761   1.415   5.708
 3562SOL    HW111585   1.701   1.435   5.631
 3562SOL    HW211586   1.820   1.494   5.726
 3563SOL     OW11587   6.348   2.753   5.257
 3563SOL    HW111588   6.361   2.850   5.238
 3563SOL    HW211589   6.315   2.707   5.174
 3564SOL     OW11590   5.962   3.849   2.160
 3564SOL    HW111591   5.922   3.758   2.164
 3564SOL    HW211592   5.899   3.915   2.201
 3565SOL     OW11593   3.804   5.931   3.276
 3565SOL    HW111594   3.852   6.009   3.318
 3565SOL    HW211595   3.867   5.882   3.216
 3566SOL     OW11596   1.097   0.436   5.594
 3566SOL    HW111597   1.056   0.528   5.602
 3566SOL    HW211598   1.195   0.442   5.609
 3567SOL     OW11599   0.009   3.649   6.264
 3567SOL    HW111600   7.009   3.604   6.350
 3567SOL    HW211601   0.108   3.647   6.253
 3568SOL     OW11602   6.259   3.919   5.845
 3568SOL    HW111603   6.266   3.985   5.920
 3568SOL    HW211604   6.279   3.827   5.880
 3569SOL     OW11605   2.036   0.861   5.093
 3569SOL    HW111606   2.021   0.870   5.191
 3569SOL    HW211607   1.951   0.834   5.048
 3570SOL     OW11608   6.557   1.696   3.423
 3570SOL    HW111609   6.619   1.629   3.464
 3570SOL    HW211610   6.607   1.779   3.399
 3571SOL     OW11611   6.653   6.329   6.045
 3571SOL    HW111612   6.717   6.330   5.968
 3571SOL    HW211613   6.583   6.259   6.029
 3572SOL     OW11614   5.844   5.409   4.549
 3572SOL    HW111615   5.927   5.463   4.532
 3572SOL    HW211616   5.787   5.407   4.467
 3573SOL     OW11617   1.340   2.587   3.274
 3573SOL    HW111618   1.290   2.640   3.207
 3573SOL    HW211619   1.404   2.525   3.227
 3574SOL     OW11620   6.813   3.874   0.774
 3574SOL    HW111621   6.853   3.871   0.866
 3574SOL    HW211622   6.872   3.926   0.713
 3575SOL     OW11623   6.224   4.969   2.190
 3575SOL    HW111624   6.245   4.901   2.120
 3575SOL    HW211625   6.308   5.016   2.217
 3576SOL     OW11626   0.590   1.584   5.792
 3576SOL    HW111627   0.557   1.539   5.875
 3576SOL    HW211628   0.626   1.516   5.729
 3577SOL     OW11629   1.636   3.053   0.077
 3577SOL    HW111630   1.640   3.132   0.016
 3577SOL    HW211631   1.566   2.989   0.044
 3578SOL     OW11632   3.555   5.258   0.739
 3578SOL    HW111633   3.654   5.272   0.735
 3578SOL    HW211634   3.523   5.216   0.655
 3579SOL     OW11635   0.168   4.572   4.475
 3579SOL    HW111636   0.128   4.613   4.557
 3579SOL    HW211637   0.235   4.635   4.436
 3580SOL     OW11638   6.458   2.063   2.230
 3580SOL    HW111639   6.420   1.971   2.241
 3580SOL    HW211640   6.535   2.075   2.292
 3581SOL     OW11641   0.031   0.361   2.607
 3581SOL    HW111642   0.074   0.272   2.587
 3581SOL    HW211643   6.987   0.349   2.678
 3582SOL     OW11644   1.349   0.318   6.400
 3582SOL    HW111645   1.356   0.269   6.487
 3582SOL    HW211646   1.255   0.350   6.387
 3583SOL     OW11647   1.168   5.374   0.421
 3583SOL    HW111648   1.145   5.346   0.327
 3583SOL    HW211649   1.203   5.467   0.420
 3584SOL     OW11650   4.860   5.682   6.279
 3584SOL    HW111651   4.884   5.651   6.371
 3584SOL    HW211652   4.893   5.615   6.212
 3585SOL     OW11653   3.426   4.972   4.371
 3585SOL    HW111654   3.344   4.954   4.425
 3585SOL    HW211655   3.414   5.056   4.318
 3586SOL     OW11656   0.014   2.981   5.893
 3586SOL    HW111657   6.997   3.048   5.954
 3586SOL    HW211658   0.070   3.028   5.825
 3587SOL     OW11659   4.340   6.899   6.551
 3587SOL    HW111660   4.269   6.875   6.618
 3587SOL    HW211661   4.303   6.965   6.487
 3588SOL     OW11662   1.397   1.799   5.705
 3588SOL    HW111663   1.363   1.887   5.738
 3588SOL    HW211664   1.477   1.772   5.759
 3589SOL     OW11665   3.151   0.817   5.353
 3589SOL    HW111666   3.114   0.851   5.267
 3589SOL    HW211667   3.117   0.872   5.429
 3590SOL     OW11668   1.885   5.532   6.662
 3590SOL    HW111669   1.786   5.543   6.670
 3590SOL    HW211670   1.929   5.622   6.670
 3591SOL     OW11671   4.961   2.660   5.675
 3591SOL    HW111672   5.029   2.591   5.649
 3591SOL    HW211673   4.878   2.614   5.709
 3592SOL     OW11674   4.818   3.104   2.444
 3592SOL    HW111675   4.853   3.064   2.359
 3592SOL    HW211676   4.864   3.191   2.461
 3593SOL     OW11677   1.450   5.940   3.818
 3593SOL    HW111678   1.496   5.959   3.731
 3593SOL    HW211679   1.391   5.860   3.808
 3594SOL     OW11680   3.064   1.396   4.106
 3594SOL    HW111681   2.977   1.352   4.130
 3594SOL    HW211682   3.072   1.403   4.007
 3595SOL     OW11683   2.840   6.182   6.181
 3595SOL    HW111684   2.886   6.101   6.219
 3595SOL    HW211685   2.770   6.154   6.116
 3596SOL     OW11686   6.464   2.157   2.819
 3596SOL    HW111687   6.495   2.074   2.774
 3596SOL    HW211688   6.539   2.223   2.824
 3597SOL     OW11689   3.592   5.684   3.988
 3597SOL    HW111690   3.665   5.616   3.999
 3597SOL    HW211691   3.609   5.737   3.905
 3598SOL     OW11692   1.169   0.070   6.630
 3598SOL    HW111693   1.164   0.057   6.729
 3598SOL    HW211694   1.261   0.101   6.605
 3599SOL     OW11695   0.485   1.642   4.756
 3599SOL    HW111696   0.512   1.658   4.661
 3599SOL    HW211697   0.388   1.666   4.767
 3600SOL     OW11698   6.095   2.133   0.775
 3600SOL    HW111699   5.996   2.148   0.780
 3600SOL    HW211700   6.113   2.036   0.763
 3601SOL     OW11701   7.018   3.785   6.035
 3601SOL    HW111702   0.036   3.864   6.078
 3601SOL    HW211703   7.010   3.711   6.102
 3602SOL     OW11704   1.773   0.817   0.103
 3602SOL    HW111705   1.690   0.832   0.050
 3602SOL    HW211706   1.803   0.722   0.093
 3603SOL     OW11707   3.985   4.838   3.686
 3603SOL    HW111708   4.074   4.797   3.668
 3603SOL    HW211709   3.973   4.850   3.785
 3604SOL     OW11710   0.328   2.555   2.963
 3604SOL    HW111711   0.270   2.608   3.025
 3604SOL    HW211712   0.293   2.462   2.957
 3605SOL     OW11713   5.339   3.511   6.811
 3605SOL    HW111714   5.299   3.428   6.850
 3605SOL    HW211715   5.403   3.485   6.738
 3606SOL     OW11716   0.814   4.568   5.281
 3606SOL    HW111717   0.872   4.532   5.355
 3606SOL    HW211718   0.808   4.499   5.209
 3607SOL     OW11719   5.160   6.903   0.194
 3607SOL    HW111720   5.194   6.823   0.244
 3607SOL    HW211721   5.061   6.897   0.184
 3608SOL     OW11722   0.706   2.209   2.301
 3608SOL    HW111723   0.644   2.286   2.286
 3608SOL    HW211724   0.709   2.187   2.398
 3609SOL     OW11725   6.514   0.523   4.401
 3609SOL    HW111726   6.554   0.525   4.492
 3609SOL    HW211727   6.587   0.518   4.332
 3610SOL     OW11728   1.311   6.505   5.814
 3610SOL    HW111729   1.335   6.563   5.892
 3610SOL    HW211730   1.216   6.475   5.822
 3611SOL     OW11731   3.693   5.220   5.633
 3611SOL    HW111732   3.698   5.146   5.566
 3611SOL    HW211733   3.748   5.298   5.601
 3612SOL     OW11734   1.295   6.919   0.829
 3612SOL    HW111735   1.274   6.981   0.905
 3612SOL    HW211736   1.228   6.844   0.828
 3613SOL     OW11737   5.816   5.375   6.412
 3613SOL    HW111738   5.769   5.287   6.420
 3613SOL    HW211739   5.750   5.448   6.427
 3614SOL     OW11740   3.665   2.927   3.403
 3614SOL    HW111741   3.596   2.877   3.455
 3614SOL    HW211742   3.644   2.920   3.305
 3615SOL     OW11743   6.048   6.023   6.090
 3615SOL    HW111744   5.995   6.076   6.156
 3615SOL    HW211745   6.090   5.945   6.135
 3616SOL     OW11746   0.066   2.041   5.104
 3616SOL    HW111747   0.020   2.130   5.099
 3616SOL    HW211748   0.160   2.054   5.134
 3617SOL     OW11749   6.940   1.508   6.340
 3617SOL    HW111750   6.988   1.456   6.270
 3617SOL    HW211751   6.843   1.484   6.339
 3618SOL     OW11752   1.990   1.922   6.727
 3618SOL    HW111753   2.050   1.997   6.698
 3618SOL    HW211754   2.017   1.838   6.681
 3619SOL     OW11755   5.703   2.227   4.203
 3619SOL    HW111756   5.660   2.263   4.121
 3619SOL    HW211757   5.793   2.189   4.180
 3620SOL     OW11758   5.926   0.101   4.868
 3620SOL    HW111759   5.955   0.006   4.858
 3620SOL    HW211760   5.827   0.106   4.857
 3621SOL     OW11761   2.476   3.648   5.728
 3621SOL    HW111762   2.486   3.590   5.809
 3621SOL    HW211763   2.398   3.709   5.741
 3622SOL     OW11764   1.115   2.218   1.878
 3622SOL    HW111765   1.045   2.267   1.826
 3622SOL    HW211766   1.179   2.284   1.918
 3623SOL     OW11767   5.357   5.052   3.365
 3623SOL    HW111768   5.284   4.984   3.373
 3623SOL    HW211769   5.355   5.093   3.274
 3624SOL     OW11770   2.341   6.858   3.109
 3624SOL    HW111771   2.343   6.930   3.039
 3624SOL    HW211772   2.422   6.800   3.100
 3625SOL     OW11773   6.450   3.315   5.181
 3625SOL    HW111774   6.543   3.307   5.146
 3625SOL    HW211775   6.421   3.411   5.177
 3626SOL     OW11776   2.072   3.828   5.247
 3626SOL    HW111777   2.157   3.790   5.284
 3626SOL    HW211778   2.092   3.874   5.160
 3627SOL     OW11779   3.090   3.541   3.578
 3627SOL    HW111780   3.066   3.635   3.554
 3627SOL    HW211781   3.187   3.526   3.561
 3628SOL     OW11782   2.527   5.560   2.071
 3628SOL    HW111783   2.543   5.577   1.974
 3628SOL    HW211784   2.600   5.502   2.108
 3629SOL     OW11785   6.102   1.641   5.254
 3629SOL    HW111786   6.158   1.559   5.250
 3629SOL    HW211787   6.022   1.630   5.194
 3630SOL     OW11788   6.568   1.989   4.499
 3630SOL    HW111789   6.478   2.027   4.518
 3630SOL    HW211790   6.637   2.040   4.551
 3631SOL     OW11791   2.644   0.498   4.904
 3631SOL    HW111792   2.592   0.503   4.990
 3631SOL    HW211793   2.638   0.585   4.856
 3632SOL     OW11794   4.985   0.948   0.389
 3632SOL    HW111795   4.945   0.979   0.475
 3632SOL    HW211796   5.080   0.977   0.384
 3633SOL     OW11797   2.553   2.760   5.856
 3633SOL    HW111798   2.605   2.675   5.846
 3633SOL    HW211799   2.526   2.771   5.951
 3634SOL     OW11800   2.104   6.019   4.990
 3634SOL    HW111801   2.028   6.028   5.055
 3634SOL    HW211802   2.082   5.946   4.925
 3635SOL     OW11803   2.658   1.692   5.786
 3635SOL    HW111804   2.564   1.726   5.773
 3635SOL    HW211805   2.665   1.649   5.876
 3636SOL     OW11806   0.449   5.350   5.922
 3636SOL    HW111807   0.441   5.293   5.840
 3636SOL    HW211808   0.399   5.306   5.997
 3637SOL     OW11809   5.397   0.898   1.520
 3637SOL    HW111810   5.315   0.841   1.513
 3637SOL    HW211811   5.432   0.895   1.614
 3638SOL     OW11812   0.111   4.504   3.963
 3638SOL    HW111813   0.167   4.454   4.029
 3638SOL    HW211814   0.164   4.519   3.879
 3639SOL     OW11815   2.015   4.668   0.931
 3639SOL    HW111816   2.087   4.618   0.979
 3639SOL    HW211817   1.957   4.716   0.997
 3640SOL     OW11818   3.518   5.499   1.421
 3640SOL    HW111819   3.535   5.582   1.474
 3640SOL    HW211820   3.520   5.420   1.483
 3641SOL     OW11821   3.024   0.918   5.122
 3641SOL    HW111822   2.943   0.910   5.180
 3641SOL    HW211823   3.019   0.851   5.048
 3642SOL     OW11824   4.916   0.963   4.303
 3642SOL    HW111825   4.992   0.999   4.356
 3642SOL    HW211826   4.933   0.867   4.280
 3643SOL     OW11827   2.153   5.194   5.093
 3643SOL    HW111828   2.142   5.284   5.136
 3643SOL    HW211829   2.072   5.139   5.112
 3644SOL     OW11830   6.816   1.667   0.905
 3644SOL    HW111831   6.865   1.752   0.925
 3644SOL    HW211832   6.732   1.688   0.855
 3645SOL     OW11833   4.416   1.721   3.698
 3645SOL    HW111834   4.430   1.660   3.776
 3645SOL    HW211835   4.321   1.752   3.697
 3646SOL     OW11836   0.305   4.866   5.870
 3646SOL    HW111837   0.206   4.862   5.858
 3646SOL    HW211838   0.330   4.819   5.955
 3647SOL     OW11839   1.471   2.746   0.856
 3647SOL    HW111840   1.424   2.730   0.770
 3647SOL    HW211841   1.564   2.710   0.850
 3648SOL     OW11842   3.463   5.460   2.233
 3648SOL    HW111843   3.470   5.535   2.300
 3648SOL    HW211844   3.555   5.433   2.204
 3649SOL     OW11845   4.337   3.337   1.043
 3649SOL    HW111846   4.279   3.276   1.097
 3649SOL    HW211847   4.318   3.323   0.946
 3650SOL     OW11848   0.407   6.133   1.134
 3650SOL    HW111849   0.383   6.037   1.148
 3650SOL    HW211850   0.453   6.143   1.046
 3651SOL     OW11851   0.405   5.759   2.343
 3651SOL    HW111852   0.431   5.757   2.439
 3651SOL    HW211853   0.326   5.820   2.332
 3652SOL     OW11854   4.844   6.275   3.187
 3652SOL    HW111855   4.834   6.241   3.094
 3652SOL    HW211856   4.928   6.240   3.227
 3653SOL     OW11857   6.441   1.655   3.104
 3653SOL    HW111858   6.365   1.675   3.042
 3653SOL    HW211859   6.423   1.569   3.152
 3654SOL     OW11860   1.713   6.509   0.835
 3654SOL    HW111861   1.762   6.553   0.760
 3654SOL    HW211862   1.769   6.438   0.876
 3655SOL     OW11863   1.752   0.091   4.697
 3655SOL    HW111864   1.677   0.103   4.633
 3655SOL    HW211865   1.748   0.162   4.768
 3656SOL     OW11866   1.845   2.610   2.246
 3656SOL    HW111867   1.893   2.592   2.331
 3656SOL    HW211868   1.750   2.581   2.254
 3657SOL     OW11869   3.600   5.516   1.125
 3657SOL    HW111870   3.529   5.473   1.070
 3657SOL    HW211871   3.576   5.510   1.222
 3658SOL     OW11872   1.107   5.818   5.445
 3658SOL    HW111873   1.144   5.844   5.534
 3658SOL    HW211874   1.175   5.764   5.395
 3659SOL     OW11875   2.694   4.768   0.233
 3659SOL    HW111876   2.638   4.804   0.307
 3659SOL    HW211877   2.636   4.717   0.169
 3660SOL     OW11878   4.818   5.809   1.801
 3660SOL    HW111879   4.907   5.833   1.840
 3660SOL    HW211880   4.832   5.756   1.718
 3661SOL     OW11881   4.870   1.255   0.766
 3661SOL    HW111882   4.804   1.326   0.789
 3661SOL    HW211883   4.942   1.293   0.708
 3662SOL     OW11884   3.383   0.207   5.425
 3662SOL    HW111885   3.458   0.249   5.476
 3662SOL    HW211886   3.381   0.243   5.332
 3663SOL     OW11887   1.421   2.015   0.341
 3663SOL    HW111888   1.349   1.948   0.324
 3663SOL    HW211889   1.426   2.034   0.439
 3664SOL     OW11890   5.290   1.609   0.701
 3664SOL    HW111891   5.336   1.535   0.651
 3664SOL    HW211892   5.252   1.573   0.786
 3665SOL     OW11893   0.372   0.108   5.365
 3665SOL    HW111894   0.344   0.128   5.271
 3665SOL    HW211895   0.420   0.187   5.403
 3666SOL     OW11896   1.459   4.016   3.964
 3666SOL    HW111897   1.482   4.034   3.868
 3666SOL    HW211898   1.427   4.101   4.007
 3667SOL     OW11899   6.789   0.858   6.602
 3667SOL    HW111900   6.774   0.954   6.626
 3667SOL    HW211901   6.863   0.820   6.659
 3668SOL     OW11902   1.542   7.021   2.799
 3668SOL    HW111903   1.555   0.091   2.773
 3668SOL    HW211904   1.617   6.966   2.762
 3669SOL     OW11905   6.288   1.757   4.105
 3669SOL    HW111906   6.323   1.843   4.066
 3669SOL    HW211907   6.361   1.710   4.154
 3670SOL     OW11908   2.369   5.827   6.342
 3670SOL    HW111909   2.286   5.803   6.393
 3670SOL    HW211910   2.439   5.860   6.406
 3671SOL     OW11911   0.585   0.269   3.355
 3671SOL    HW111912   0.509   0.207   3.334
 3671SOL    HW211913   0.603   0.327   3.276
 3672SOL     OW11914   6.239   1.887   0.270
 3672SOL    HW111915   6.206   1.900   0.363
 3672SOL    HW211916   6.304   1.961   0.248
 3673SOL     OW11917   4.740   1.270   6.762
 3673SOL    HW111918   4.786   1.358   6.769
 3673SOL    HW211919   4.688   1.266   6.677
 3674SOL     OW11920   0.603   6.753   6.895
 3674SOL    HW111921   0.556   6.768   6.982
 3674SOL    HW211922   0.591   6.658   6.866
 3675SOL     OW11923   1.754   2.478   5.379
 3675SOL    HW111924   1.722   2.387   5.353
 3675SOL    HW211925   1.803   2.472   5.466
 3676SOL     OW11926   3.850   4.974   4.209
 3676SOL    HW111927   3.799   4.927   4.282
 3676SOL    HW211928   3.785   5.021   4.149
 3677SOL     OW11929   6.781   6.458   3.014
 3677SOL    HW111930   6.693   6.464   2.966
 3677SOL    HW211931   6.855   6.482   2.951
 3678SOL     OW11932   1.468   2.159   3.971
 3678SOL    HW111933   1.482   2.247   3.924
 3678SOL    HW211934   1.557   2.120   3.995
 3679SOL     OW11935   0.567   0.851   2.123
 3679SOL    HW111936   0.519   0.894   2.200
 3679SOL    HW211937   0.554   0.752   2.127
 3680SOL     OW11938   6.320   3.176   3.732
 3680SOL    HW111939   6.382   3.239   3.685
 3680SOL    HW211940   6.318   3.088   3.683
 3681SOL     OW11941   0.639   6.802   5.753
 3681SOL    HW111942   0.549   6.803   5.798
 3681SOL    HW211943   0.627   6.813   5.655
 3682SOL     OW11944   6.837   1.945   5.569
 3682SOL    HW111945   6.806   1.850   5.561
 3682SOL    HW211946   6.760   2.003   5.596
 3683SOL     OW11947   6.139   6.562   4.499
 3683SOL    HW111948   6.199   6.508   4.440
 3683SOL    HW211949   6.190   6.592   4.580
 3684SOL     OW11950   1.811   3.534   2.159
 3684SOL    HW111951   1.743   3.462   2.150
 3684SOL    HW211952   1.883   3.521   2.091
 3685SOL     OW11953   6.264   6.231   6.254
 3685SOL    HW111954   6.211   6.174   6.191
 3685SOL    HW211955   6.354   6.190   6.268
 3686SOL     OW11956   6.507   4.911   1.879
 3686SOL    HW111957   6.577   4.903   1.950
 3686SOL    HW211958   6.550   4.904   1.789
 3687SOL     OW11959   2.457   0.049   6.609
 3687SOL    HW111960   2.504   0.010   6.530
 3687SOL    HW211961   2.520   0.109   6.658
 3688SOL     OW11962   1.167   3.793   6.822
 3688SOL    HW111963   1.204   3.873   6.776
 3688SOL    HW211964   1.149   3.721   6.755
 3689SOL     OW11965   2.035   1.197   5.260
 3689SOL    HW111966   2.067   1.289   5.285
 3689SOL    HW211967   2.083   1.129   5.315
 3690SOL     OW11968   5.706   0.677   6.067
 3690SOL    HW111969   5.650   0.687   5.985
 3690SOL    HW211970   5.690   0.587   6.107
 3691SOL     OW11971   2.925   3.915   6.935
 3691SOL    HW111972   2.854   3.949   6.997
 3691SOL    HW211973   2.986   3.853   6.984
 3692SOL     OW11974   1.092   6.503   5.036
 3692SOL    HW111975   1.021   6.550   4.983
 3692SOL    HW211976   1.056   6.479   5.126
 3693SOL     OW11977   3.022   2.172   3.533
 3693SOL    HW111978   3.071   2.184   3.620
 3693SOL    HW211979   3.080   2.122   3.469
 3694SOL     OW11980   1.236   6.420   3.669
 3694SOL    HW111981   1.237   6.332   3.620
 3694SOL    HW211982   1.294   6.485   3.621
 3695SOL     OW11983   1.762   1.627   2.410
 3695SOL    HW111984   1.780   1.705   2.350
 3695SOL    HW211985   1.837   1.617   2.475
 3696SOL     OW11986   4.679   6.795   5.745
 3696SOL    HW111987   4.717   6.748   5.665
 3696SOL    HW211988   4.716   6.888   5.748
 3697SOL     OW11989   0.039   6.775   3.249
 3697SOL    HW111990   0.100   6.772   3.329
 3697SOL    HW211991   6.982   6.721   3.268
 3698SOL     OW11992   3.141   0.289   5.974
 3698SOL    HW111993   3.180   0.212   5.924
 3698SOL    HW211994   3.139   0.369   5.915
 3699SOL     OW11995   6.460   3.818   2.823
 3699SOL    HW111996   6.429   3.900   2.871
 3699SOL    HW211997   6.560   3.813   2.826
 3700SOL     OW11998   6.044   0.529   4.225
 3700SOL    HW111999   5.980   0.551   4.151
 3700SOL    HW212000   6.092   0.444   4.204
 3701SOL     OW12001   0.033   0.926   4.098
 3701SOL    HW112002   6.999   0.866   4.152
 3701SOL    HW212003   0.000   1.021   4.105
 3702SOL     OW12004   3.603   0.333   1.256
 3702SOL    HW112005   3.551   0.417   1.271
 3702SOL    HW212006   3.593   0.273   1.335
 3703SOL     OW12007   3.962   4.789   6.090
 3703SOL    HW112008   3.946   4.844   6.008
 3703SOL    HW212009   3.900   4.818   6.163
 3704SOL     OW12010   2.593   1.057   2.558
 3704SOL    HW112011   2.650   1.064   2.476
 3704SOL    HW212012   2.641   1.005   2.628
 3705SOL     OW12013   5.081   0.333   3.671
 3705SOL    HW112014   5.031   0.416   3.696
 3705SOL    HW212015   5.168   0.331   3.721
 3706SOL     OW12016   1.802   3.277   4.166
 3706SOL    HW112017   1.806   3.242   4.072
 3706SOL    HW212018   1.868   3.228   4.222
 3707SOL     OW12019   4.833   2.333   5.953
 3707SOL    HW112020   4.913   2.393   5.960
 3707SOL    HW212021   4.861   2.247   5.910
 3708SOL     OW12022   6.410   0.691   6.508
 3708SOL    HW112023   6.405   0.776   6.562
 3708SOL    HW212024   6.320   0.672   6.469
 3709SOL     OW12025   3.921   1.085   5.860
 3709SOL    HW112026   3.851   1.084   5.789
 3709SOL    HW212027   3.916   1.000   5.913
 3710SOL     OW12028   6.515   5.107   0.329
 3710SOL    HW112029   6.443   5.120   0.261
 3710SOL    HW212030   6.536   5.010   0.338
 3711SOL     OW12031   0.199   6.137   2.194
 3711SOL    HW112032   0.288   6.167   2.161
 3711SOL    HW212033   0.133   6.211   2.184
 3712SOL     OW12034   0.624   6.596   6.528
 3712SOL    HW112035   0.683   6.671   6.500
 3712SOL    HW212036   0.638   6.518   6.467
 3713SOL     OW12037   3.031   5.806   5.089
 3713SOL    HW112038   2.947   5.839   5.046
 3713SOL    HW212039   3.062   5.723   5.042
 3714SOL     OW12040   4.346   0.087   4.781
 3714SOL    HW112041   4.338   0.035   4.867
 3714SOL    HW212042   4.402   0.035   4.716
 3715SOL     OW12043   4.963   5.057   4.059
 3715SOL    HW112044   4.982   5.143   4.106
 3715SOL    HW212045   4.913   4.996   4.121
 3716SOL     OW12046   6.702   0.250   4.326
 3716SOL    HW112047   6.768   0.176   4.326
 3716SOL    HW212048   6.744   0.333   4.290
 3717SOL     OW12049   6.246   5.523   0.625
 3717SOL    HW112050   6.176   5.456   0.600
 3717SOL    HW212051   6.329   5.475   0.655
 3718SOL     OW12052   1.010   6.478   0.027
 3718SOL    HW112053   1.016   6.403   0.093
 3718SOL    HW212054   1.102   6.500   7.020
 3719SOL     OW12055   4.692   4.845   0.454
 3719SOL    HW112056   4.680   4.750   0.426
 3719SOL    HW212057   4.779   4.855   0.503
 3720SOL     OW12058   7.022   1.722   6.078
 3720SOL    HW112059   0.072   1.680   6.129
 3720SOL    HW212060   6.981   1.795   6.132
 3721SOL     OW12061   5.562   4.900   0.379
 3721SOL    HW112062   5.595   4.909   0.473
 3721SOL    HW212063   5.549   4.803   0.357
 3722SOL     OW12064   0.167   5.666   2.613
 3722SOL    HW112065   0.239   5.596   2.620
 3722SOL    HW212066   0.111   5.647   2.533
 3723SOL     OW12067   5.389   6.707   1.841
 3723SOL    HW112068   5.395   6.805   1.822
 3723SOL    HW212069   5.425   6.656   1.763
 3724SOL     OW12070   0.838   5.485   0.593
 3724SOL    HW112071   0.935   5.486   0.616
 3724SOL    HW212072   0.820   5.410   0.528
 3725SOL     OW12073   0.020   5.955   6.561
 3725SOL    HW112074   0.074   6.023   6.611
 3725SOL    HW212075   0.028   5.972   6.463
 3726SOL     OW12076   5.533   3.714   2.057
 3726SOL    HW112077   5.466   3.698   2.129
 3726SOL    HW212078   5.496   3.779   1.990
 3727SOL     OW12079   1.465   2.906   5.176
 3727SOL    HW112080   1.511   2.930   5.262
 3727SOL    HW212081   1.534   2.891   5.105
 3728SOL     OW12082   2.441   3.246   6.949
 3728SOL    HW112083   2.517   3.310   6.944
 3728SOL    HW212084   2.354   3.295   6.945
 3729SOL     OW12085   0.569   2.003   3.550
 3729SOL    HW112086   0.552   1.951   3.633
 3729SOL    HW212087   0.665   1.992   3.523
 3730SOL     OW12088   2.725   0.747   0.088
 3730SOL    HW112089   2.659   0.759   0.163
 3730SOL    HW212090   2.729   0.650   0.063
 3731SOL     OW12091   4.251   0.742   0.685
 3731SOL    HW112092   4.315   0.801   0.636
 3731SOL    HW212093   4.161   0.747   0.642
 3732SOL     OW12094   2.102   3.319   5.634
 3732SOL    HW112095   2.065   3.402   5.591
 3732SOL    HW212096   2.201   3.329   5.643
 3733SOL     OW12097   2.324   3.805   1.504
 3733SOL    HW112098   2.317   3.778   1.600
 3733SOL    HW212099   2.410   3.853   1.488
 3734SOL     OW12100   4.317   1.310   2.582
 3734SOL    HW112101   4.371   1.257   2.647
 3734SOL    HW212102   4.363   1.397   2.563
 3735SOL     OW12103   2.232   2.548   2.836
 3735SOL    HW112104   2.203   2.639   2.807
 3735SOL    HW212105   2.327   2.550   2.866
 3736SOL     OW12106   6.519   2.544   0.819
 3736SOL    HW112107   6.482   2.454   0.797
 3736SOL    HW212108   6.462   2.615   0.776
 3737SOL     OW12109   4.931   0.080   3.249
 3737SOL    HW112110   4.870   0.145   3.203
 3737SOL    HW212111   4.971   0.123   3.329
 3738SOL     OW12112   6.115   6.276   3.756
 3738SOL    HW112113   6.053   6.337   3.804
 3738SOL    HW212114   6.079   6.257   3.665
 3739SOL     OW12115   0.997   3.971   2.581
 3739SOL    HW112116   0.928   3.913   2.625
 3739SOL    HW212117   0.990   3.961   2.482
 3740SOL     OW12118   5.271   1.343   6.796
 3740SOL    HW112119   5.212   1.397   6.857
 3740SOL    HW212120   5.267   1.247   6.823
 3741SOL     OW12121   4.962   3.111   1.212
 3741SOL    HW112122   4.979   3.091   1.116
 3741SOL    HW212123   4.958   3.210   1.225
 3742SOL     OW12124   3.731   2.154   5.894
 3742SOL    HW112125   3.651   2.119   5.845
 3742SOL    HW212126   3.814   2.132   5.843
 3743SOL     OW12127   6.801   5.156   7.012
 3743SOL    HW112128   6.806   5.104   0.072
 3743SOL    HW212129   6.864   5.233   7.015
 3744SOL     OW12130   6.956   5.019   3.922
 3744SOL    HW112131   7.014   5.095   3.893
 3744SOL    HW212132   7.012   4.947   3.961
 3745SOL     OW12133   3.789   5.625   2.614
 3745SOL    HW112134   3.768   5.723   2.616
 3745SOL    HW212135   3.887   5.612   2.596
 3746SOL     OW12136   4.657   1.985   1.635
 3746SOL    HW112137   4.721   1.909   1.645
 3746SOL    HW212138   4.623   2.013   1.725
 3747SOL     OW12139   3.397   6.993   6.933
 3747SOL    HW112140   3.411   0.029   6.854
 3747SOL    HW212141   3.384   6.899   6.900
 3748SOL     OW12142   6.015   0.697   1.370
 3748SOL    HW112143   6.081   0.622   1.370
 3748SOL    HW212144   5.923   0.660   1.362
 3749SOL     OW12145   1.411   6.684   4.393
 3749SOL    HW112146   1.436   6.627   4.314
 3749SOL    HW212147   1.378   6.773   4.360
 3750SOL     OW12148   0.164   3.774   0.485
 3750SOL    HW112149   0.112   3.712   0.426
 3750SOL    HW212150   0.102   3.813   0.554
 3751SOL     OW12151   0.390   4.652   2.916
 3751SOL    HW112152   0.321   4.719   2.889
 3751SOL    HW212153   0.474   4.700   2.942
 3752SOL     OW12154   6.465   1.174   5.581
 3752SOL    HW112155   6.464   1.154   5.483
 3752SOL    HW212156   6.409   1.255   5.599
 3753SOL     OW12157   6.487   1.118   3.615
 3753SOL    HW112158   6.523   1.208   3.638
 3753SOL    HW212159   6.561   1.059   3.583
 3754SOL     OW12160   1.519   1.588   1.484
 3754SOL    HW112161   1.539   1.592   1.386
 3754SOL    HW212162   1.543   1.675   1.527
 3755SOL     OW12163   2.747   5.038   4.332
 3755SOL    HW112164   2.760   5.062   4.428
 3755SOL    HW212165   2.822   4.980   4.302
 3756SOL     OW12166   2.690   6.386   6.826
 3756SOL    HW112167   2.625   6.454   6.860
 3756SOL    HW212168   2.721   6.413   6.735
 3757SOL     OW12169   6.175   4.351   1.545
 3757SOL    HW112170   6.109   4.368   1.472
 3757SOL    HW212171   6.195   4.436   1.593
 3758SOL     OW12172   2.059   6.927   2.928
 3758SOL    HW112173   2.135   6.990   2.941
 3758SOL    HW212174   1.973   6.977   2.927
 3759SOL     OW12175   4.997   0.706   4.251
 3759SOL    HW112176   4.965   0.612   4.269
 3759SOL    HW212177   5.087   0.718   4.294
 3760SOL     OW12178   7.000   0.537   3.427
 3760SOL    HW112179   6.938   0.488   3.366
 3760SOL    HW212180   0.055   0.482   3.445
 3761SOL     OW12181   5.402   1.262   3.979
 3761SOL    HW112182   5.401   1.301   3.887
 3761SOL    HW212183   5.491   1.280   4.022
 3762SOL     OW12184   0.840   3.991   2.862
 3762SOL    HW112185   0.903   3.967   2.935
 3762SOL    HW212186   0.819   3.909   2.809
 3763SOL     OW12187   6.910   4.645   0.384
 3763SOL    HW112188   6.891   4.740   0.359
 3763SOL    HW212189   6.849   4.585   0.332
 3764SOL     OW12190   1.967   0.072   2.692
 3764SOL    HW112191   1.980   0.123   2.607
 3764SOL    HW212192   2.008   0.122   2.768
 3765SOL     OW12193   6.082   1.922   2.106
 3765SOL    HW112194   6.150   1.932   2.033
 3765SOL    HW212195   6.046   2.011   2.131
 3766SOL     OW12196   1.570   4.110   3.416
 3766SOL    HW112197   1.534   4.062   3.496
 3766SOL    HW212198   1.666   4.133   3.431
 3767SOL     OW12199   2.638   5.289   6.400
 3767SOL    HW112200   2.603   5.196   6.393
 3767SOL    HW212201   2.579   5.344   6.459
 3768SOL     OW12202   1.525   0.237   5.063
 3768SOL    HW112203   1.603   0.242   5.125
 3768SOL    HW212204   1.470   0.320   5.070
 3769SOL     OW12205   5.035   6.240   4.598
 3769SOL    HW112206   4.994   6.152   4.574
 3769SOL    HW212207   5.067   6.285   4.515
 3770SOL     OW12208   0.655   0.870   0.402
 3770SOL    HW112209   0.754   0.855   0.410
 3770SOL    HW212210   0.633   0.902   0.310
 3771SOL     OW12211   0.626   4.811   0.239
 3771SOL    HW112212   0.686   4.769   0.308
 3771SOL    HW212213   0.544   4.846   0.284
 3772SOL     OW12214   1.541   5.723   0.592
 3772SOL    HW112215   1.592   5.701   0.674
 3772SOL    HW212216   1.569   5.813   0.558
 3773SOL     OW12217   5.606   3.167   5.899
 3773SOL    HW112218   5.643   3.109   5.972
 3773SOL    HW212219   5.569   3.109   5.826
 3774SOL     OW12220   5.513   6.061   1.439
 3774SOL    HW112221   5.418   6.085   1.420
 3774SOL    HW212222   5.517   5.990   1.509
 3775SOL     OW12223   4.443   5.122   3.496
 3775SOL    HW112224   4.380   5.081   3.562
 3775SOL    HW212225   4.536   5.118   3.532
 3776SOL     OW12226   3.354   2.565   6.583
 3776SOL    HW112227   3.389   2.476   6.611
 3776SOL    HW212228   3.351   2.571   6.484
 3777SOL     OW12229   2.936   6.265   4.377
 3777SOL    HW112230   2.893   6.207   4.308
 3777SOL    HW212231   2.879   6.346   4.393
 3778SOL     OW12232   2.906   5.400   5.020
 3778SOL    HW112233   2.844   5.327   5.047
 3778SOL    HW212234   2.933   5.388   4.924
 3779SOL     OW12235   0.139   5.163   6.905
 3779SOL    HW112236   0.095   5.178   6.816
 3779SOL    HW212237   0.099   5.083   6.949
 3780SOL     OW12238   6.325   3.945   1.126
 3780SOL    HW112239   6.298   3.899   1.210
 3780SOL    HW212240   6.331   3.879   1.051
 3781SOL     OW12241   2.472   6.186   5.202
 3781SOL    HW112242   2.446   6.098   5.162
 3781SOL    HW212243   2.469   6.257   5.132
 3782SOL     OW12244   5.186   5.922   1.541
 3782SOL    HW112245   5.230   6.011   1.555
 3782SOL    HW212246   5.189   5.898   1.444
 3783SOL     OW12247   5.586   5.143   5.281
 3783SOL    HW112248   5.491   5.154   5.252
 3783SOL    HW212249   5.642   5.215   5.239
 3784SOL     OW12250   5.568   2.637   3.782
 3784SOL    HW112251   5.642   2.697   3.755
 3784SOL    HW212252   5.573   2.552   3.728
 3785SOL     OW12253   1.306   4.055   4.570
 3785SOL    HW112254   1.273   4.111   4.495
 3785SOL    HW212255   1.347   3.971   4.534
 3786SOL     OW12256   2.475   2.570   4.669
 3786SOL    HW112257   2.444   2.599   4.759
 3786SOL    HW212258   2.438   2.479   4.648
 3787SOL     OW12259   4.350   0.022   3.118
 3787SOL    HW112260   4.296   7.025   3.037
 3787SOL    HW212261   4.312   6.999   3.197
 3788SOL     OW12262   0.178   2.885   5.481
 3788SOL    HW112263   0.110   2.948   5.519
 3788SOL    HW212264   0.200   2.815   5.549
 3789SOL     OW12265   1.742   3.037   2.613
 3789SOL    HW112266   1.728   3.119   2.557
 3789SOL    HW212267   1.760   3.064   2.708
 3790SOL     OW12268   0.449   6.721   0.611
 3790SOL    HW112269   0.499   6.808   0.609
 3790SOL    HW212270   0.356   6.736   0.645
 3791SOL     OW12271   5.830   1.287   6.116
 3791SOL    HW112272   5.851   1.220   6.045
 3791SOL    HW212273   5.732   1.304   6.119
 3792SOL     OW12274   0.710   0.574   3.769
 3792SOL    HW112275   0.792   0.548   3.820
 3792SOL    HW212276   0.648   0.624   3.829
 3793SOL     OW12277   5.942   5.699   0.444
 3793SOL    HW112278   5.984   5.610   0.463
 3793SOL    HW212279   5.926   5.708   0.346
 3794SOL     OW12280   1.980   3.970   6.988
 3794SOL    HW112281   2.054   3.996   6.925
 3794SOL    HW212282   2.009   3.987   0.057
 3795SOL     OW12283   2.915   5.656   1.357
 3795SOL    HW112284   2.852   5.701   1.419
 3795SOL    HW212285   3.009   5.671   1.388
 3796SOL     OW12286   3.997   2.433   6.562
 3796SOL    HW112287   4.013   2.505   6.495
 3796SOL    HW212288   4.084   2.389   6.585
 3797SOL     OW12289   1.014   4.735   3.166
 3797SOL    HW112290   0.949   4.734   3.089
 3797SOL    HW212291   1.048   4.828   3.179
 3798SOL     OW12292   1.927   6.546   2.884
 3798SOL    HW112293   1.844   6.599   2.897
 3798SOL    HW212294   2.001   6.606   2.855
 3799SOL     OW12295   7.017   2.236   2.961
 3799SOL    HW112296   6.937   2.295   2.974
 3799SOL    HW212297   6.990   2.140   2.965
 3800SOL     OW12298   6.220   2.097   2.746
 3800SOL    HW112299   6.315   2.110   2.775
 3800SOL    HW212300   6.161   2.161   2.795
 3801SOL     OW12301   5.356   6.973   1.810
 3801SOL    HW112302   5.316   6.996   1.722
 3801SOL    HW212303   5.398   0.029   1.850
 3802SOL     OW12304   6.233   1.924   2.331
 3802SOL    HW112305   6.282   1.838   2.349
 3802SOL    HW212306   6.166   1.909   2.258
 3803SOL     OW12307   2.858   3.593   4.479
 3803SOL    HW112308   2.844   3.546   4.392
 3803SOL    HW212309   2.884   3.527   4.549
 3804SOL     OW12310   3.348   6.779   4.442
 3804SOL    HW112311   3.389   6.763   4.353
 3804SOL    HW212312   3.352   6.876   4.465
 3805SOL     OW12313   2.140   2.647   0.163
 3805SOL    HW112314   2.127   2.738   0.202
 3805SOL    HW212315   2.071   2.585   0.200
 3806SOL     OW12316   3.840   4.175   0.091
 3806SOL    HW112317   3.744   4.183   0.064
 3806SOL    HW212318   3.849   4.106   0.163
 3807SOL     OW12319   1.781   4.552   4.297
 3807SOL    HW112320   1.714   4.616   4.259
 3807SOL    HW212321   1.872   4.593   4.293
 3808SOL     OW12322   4.202   0.038   6.224
 3808SOL    HW112323   4.126   0.037   6.289
 3808SOL    HW212324   4.287   0.060   6.274
 3809SOL     OW12325   5.129   2.318   1.560
 3809SOL    HW112326   5.088   2.392   1.507
 3809SOL    HW212327   5.076   2.234   1.547
 3810SOL     OW12328   6.788   2.345   2.406
 3810SOL    HW112329   6.859   2.296   2.457
 3810SOL    HW212330   6.831   2.412   2.345
 3811SOL     OW12331   6.541   5.585   4.870
 3811SOL    HW112332   6.579   5.636   4.793
 3811SOL    HW212333   6.571   5.490   4.865
 3812SOL     OW12334   3.866   6.293   6.894
 3812SOL    HW112335   3.965   6.280   6.900
 3812SOL    HW212336   3.834   6.339   6.976
 3813SOL     OW12337   6.622   3.927   0.140
 3813SOL    HW112338   6.714   3.942   0.178
 3813SOL    HW212339   6.603   3.829   0.134
 3814SOL     OW12340   6.432   0.015   4.419
 3814SOL    HW112341   6.515   0.027   4.364
 3814SOL    HW212342   6.377   0.098   4.416
 3815SOL     OW12343   4.797   3.394   0.318
 3815SOL    HW112344   4.877   3.396   0.377
 3815SOL    HW212345   4.741   3.475   0.335
 3816SOL     OW12346   0.991   5.722   6.372
 3816SOL    HW112347   0.903   5.674   6.365
 3816SOL    HW212348   0.984   5.810   6.326
 3817SOL     OW12349   5.141   3.383   2.222
 3817SOL    HW112350   5.232   3.406   2.257
 3817SOL    HW212351   5.090   3.333   2.292
 3818SOL     OW12352   0.258   0.482   1.745
 3818SOL    HW112353   0.233   0.500   1.840
 3818SOL    HW212354   0.342   0.531   1.722
 3819SOL     OW12355   6.188   4.991   3.873
 3819SOL    HW112356   6.184   4.918   3.941
 3819SOL    HW212357   6.191   4.951   3.781
 3820SOL     OW12358   5.154   0.232   4.436
 3820SOL    HW112359   5.202   0.254   4.521
 3820SOL    HW212360   5.215   0.178   4.377
 3821SOL     OW12361   0.780   0.243   6.764
 3821SOL    HW112362   0.851   0.275   6.701
 3821SOL    HW212363   0.756   0.149   6.743
 3822SOL     OW12364   3.736   1.208   0.046
 3822SOL    HW112365   3.804   1.150   0.091
 3822SOL    HW212366   3.661   1.151   0.013
 3823SOL     OW12367   4.944   4.860   6.061
 3823SOL    HW112368   4.858   4.841   6.014
 3823SOL    HW212369   4.996   4.927   6.009
 3824SOL     OW12370   1.937   3.245   0.252
 3824SOL    HW112371   1.913   3.330   0.298
 3824SOL    HW212372   1.896   3.168   0.302
 3825SOL     OW12373   1.634   3.640   6.361
 3825SOL    HW112374   1.696   3.564   6.376
 3825SOL    HW212375   1.567   3.644   6.434
 3826SOL     OW12376   5.412   4.342   2.429
 3826SOL    HW112377   5.493   4.301   2.471
 3826SOL    HW212378   5.378   4.282   2.358
 3827SOL     OW12379   1.340   1.078   1.465
 3827SOL    HW112380   1.302   1.106   1.553
 3827SOL    HW212381   1.340   0.979   1.458
 3828SOL     OW12382   3.826   4.050   4.471
 3828SOL    HW112383   3.825   4.138   4.425
 3828SOL    HW212384   3.765   3.986   4.423
 3829SOL     OW12385   0.455   4.067   2.624
 3829SOL    HW112386   0.497   4.041   2.537
 3829SOL    HW212387   0.458   4.166   2.634
 3830SOL     OW12388   0.439   0.916   4.700
 3830SOL    HW112389   0.514   0.968   4.661
 3830SOL    HW212390   0.406   0.849   4.632
 3831SOL     OW12391   4.542   1.675   3.460
 3831SOL    HW112392   4.495   1.662   3.548
 3831SOL    HW212393   4.628   1.724   3.476
 3832SOL     OW12394   0.813   0.357   2.441
 3832SOL    HW112395   0.833   0.441   2.491
 3832SOL    HW212396   0.821   0.279   2.503
 3833SOL     OW12397   0.984   0.268   6.567
 3833SOL    HW112398   1.034   0.336   6.513
 3833SOL    HW212399   1.042   0.187   6.581
 3834SOL     OW12400   4.751   3.910   1.460
 3834SOL    HW112401   4.780   3.833   1.404
 3834SOL    HW212402   4.672   3.883   1.516
 3835SOL     OW12403   3.879   6.336   5.442
 3835SOL    HW112404   3.955   6.348   5.505
 3835SOL    HW212405   3.812   6.274   5.482
 3836SOL     OW12406   0.324   5.061   6.432
 3836SOL    HW112407   0.256   5.089   6.499
 3836SOL    HW212408   0.402   5.020   6.480
 3837SOL     OW12409   4.125   4.881   4.827
 3837SOL    HW112410   4.145   4.971   4.789
 3837SOL    HW212411   4.155   4.810   4.763
 3838SOL     OW12412   2.019   1.257   3.298
 3838SOL    HW112413   2.021   1.356   3.307
 3838SOL    HW212414   2.045   1.232   3.205
 3839SOL     OW12415   4.373   0.303   3.102
 3839SOL    HW112416   4.324   0.337   3.182
 3839SOL    HW212417   4.354   0.205   3.091
 3840SOL     OW12418   2.400   0.526   0.201
 3840SOL    HW112419   2.339   0.519   0.122
 3840SOL    HW212420   2.346   0.521   0.285
 3841SOL     OW12421   6.111   4.876   4.169
 3841SOL    HW112422   6.058   4.958   4.187
 3841SOL    HW212423   6.048   4.798   4.157
 3842SOL     OW12424   2.212   2.891   5.216
 3842SOL    HW112425   2.267   2.809   5.205
 3842SOL    HW212426   2.257   2.968   5.171
 3843SOL     OW12427   4.822   2.737   0.454
 3843SOL    HW112428   4.896   2.699   0.508
 3843SOL    HW212429   4.795   2.826   0.491
 3844SOL     OW12430   1.350   5.229   0.035
 3844SOL    HW112431   1.362   5.158   0.104
 3844SOL    HW212432   1.411   5.213   6.984
 3845SOL     OW12433   2.386   6.549   0.443
 3845SOL    HW112434   2.350   6.471   0.494
 3845SOL    HW212435   2.465   6.587   0.492
 3846SOL     OW12436   1.028   3.195   4.135
 3846SOL    HW112437   1.077   3.281   4.117
 3846SOL    HW212438   1.093   3.120   4.139
 3847SOL     OW12439   6.228   1.406   5.280
 3847SOL    HW112440   6.173   1.324   5.297
 3847SOL    HW212441   6.300   1.384   5.215
 3848SOL     OW12442   5.049   3.251   2.479
 3848SOL    HW112443   5.061   3.158   2.446
 3848SOL    HW212444   5.031   3.250   2.577
 3849SOL     OW12445   0.306   5.976   6.048
 3849SOL    HW112446   0.376   6.034   6.091
 3849SOL    HW212447   0.347   5.927   5.971
 3850SOL     OW12448   3.066   1.966   1.404
 3850SOL    HW112449   3.077   1.976   1.305
 3850SOL    HW212450   3.156   1.955   1.446
 3851SOL     OW12451   6.990   5.592   3.426
 3851SOL    HW112452   0.043   5.570   3.485
 3851SOL    HW212453   6.957   5.684   3.448
 3852SOL     OW12454   2.923   6.847   4.418
 3852SOL    HW112455   2.994   6.782   4.445
 3852SOL    HW212456   2.935   6.871   4.322
 3853SOL     OW12457   2.167   1.423   3.870
 3853SOL    HW112458   2.099   1.382   3.931
 3853SOL    HW212459   2.148   1.396   3.776
 3854SOL     OW12460   1.716   2.373   2.765
 3854SOL    HW112461   1.743   2.309   2.837
 3854SOL    HW212462   1.790   2.382   2.699
 3855SOL     OW12463   4.236   6.433   0.276
 3855SOL    HW112464   4.222   6.532   0.271
 3855SOL    HW212465   4.295   6.404   0.200
 3856SOL     OW12466   0.007   2.193   5.895
 3856SOL    HW112467   0.003   2.272   5.835
 3856SOL    HW212468   6.993   2.113   5.849
 3857SOL     OW12469   2.089   0.326   5.862
 3857SOL    HW112470   1.994   0.318   5.891
 3857SOL    HW212471   2.108   0.421   5.838
 3858SOL     OW12472   3.455   1.684   5.352
 3858SOL    HW112473   3.507   1.767   5.331
 3858SOL    HW212474   3.369   1.685   5.300
 3859SOL     OW12475   5.560   0.131   1.063
 3859SOL    HW112476   5.578   0.138   1.161
 3859SOL    HW212477   5.576   0.219   1.020
 3860SOL     OW12478   2.067   0.632   4.487
 3860SOL    HW112479   1.982   0.641   4.433
 3860SOL    HW212480   2.139   0.596   4.429
 3861SOL     OW12481   4.279   5.288   2.446
 3861SOL    HW112482   4.356   5.302   2.508
 3861SOL    HW212483   4.311   5.293   2.351
 3862SOL     OW12484   0.321   6.970   4.075
 3862SOL    HW112485   0.326   0.032   4.122
 3862SOL    HW212486   0.404   6.958   4.019
 3863SOL     OW12487   4.153   0.744   7.015
 3863SOL    HW112488   4.136   0.690   6.932
 3863SOL    HW212489   4.251   0.741   0.010
 3864SOL     OW12490   2.235   0.360   4.890
 3864SOL    HW112491   2.226   0.450   4.932
 3864SOL    HW212492   2.184   0.359   4.804
 3865SOL     OW12493   4.743   0.726   6.979
 3865SOL    HW112494   4.744   0.727   6.879
 3865SOL    HW212495   4.821   0.673   7.013
 3866SOL     OW12496   3.101   2.164   6.854
 3866SOL    HW112497   3.194   2.196   6.874
 3866SOL    HW212498   3.093   2.142   6.757
 3867SOL     OW12499   1.573   4.365   3.174
 3867SOL    HW112500   1.537   4.397   3.086
 3867SOL    HW212501   1.540   4.273   3.192
 3868SOL     OW12502   3.687   0.478   6.441
 3868SOL    HW112503   3.699   0.410   6.513
 3868SOL    HW212504   3.591   0.503   6.433
 3869SOL     OW12505   6.822   3.619   3.766
 3869SOL    HW112506   6.731   3.633   3.806
 3869SOL    HW212507   6.858   3.531   3.794
 3870SOL     OW12508   6.630   0.108   2.999
 3870SOL    HW112509   6.637   0.043   3.075
 3870SOL    HW212510   6.622   0.058   2.913
 3871SOL     OW12511   3.387   6.253   3.536
 3871SOL    HW112512   3.376   6.352   3.529
 3871SOL    HW212513   3.313   6.215   3.593
 3872SOL     OW12514   3.269   3.424   4.246
 3872SOL    HW112515   3.212   3.403   4.166
 3872SOL    HW212516   3.333   3.497   4.222
 3873SOL     OW12517   5.128   3.677   0.366
 3873SOL    HW112518   5.070   3.755   0.389
 3873SOL    HW212519   5.089   3.628   0.288
 3874SOL     OW12520   4.355   0.105   0.285
 3874SOL    HW112521   4.447   0.085   0.320
 3874SOL    HW212522   4.287   0.086   0.355
 3875SOL     OW12523   2.075   2.889   4.345
 3875SOL    HW112524   2.150   2.929   4.397
 3875SOL    HW212525   1.996   2.877   4.405
 3876SOL     OW12526   3.809   6.167   0.182
 3876SOL    HW112527   3.873   6.121   0.120
 3876SOL    HW212528   3.781   6.103   0.254
 3877SOL     OW12529   6.871   2.325   0.770
 3877SOL    HW112530   6.832   2.337   0.679
 3877SOL    HW212531   6.804   2.355   0.839
 3878SOL     OW12532   4.891   0.131   4.471
 3878SOL    HW112533   4.810   0.189   4.483
 3878SOL    HW212534   4.971   0.188   4.457
 3879SOL     OW12535   5.635   5.300   0.008
 3879SOL    HW112536   5.552   5.309   0.063
 3879SOL    HW212537   5.612   5.272   6.940
 3880SOL     OW12538   5.371   3.892   5.154
 3880SOL    HW112539   5.359   3.932   5.245
 3880SOL    HW212540   5.307   3.936   5.090
 3881SOL     OW12541   1.180   3.175   1.003
 3881SOL    HW112542   1.179   3.223   0.915
 3881SOL    HW212543   1.100   3.202   1.056
 3882SOL     OW12544   1.172   1.032   0.062
 3882SOL    HW112545   1.084   1.056   0.023
 3882SOL    HW212546   1.185   1.079   0.149
 3883SOL     OW12547   4.635   0.385   2.529
 3883SOL    HW112548   4.693   0.466   2.536
 3883SOL    HW212549   4.540   0.413   2.512
 3884SOL     OW12550   0.777   6.001   3.053
 3884SOL    HW112551   0.871   5.996   3.019
 3884SOL    HW212552   0.779   6.018   3.152
 3885SOL     OW12553   5.832   6.651   3.188
 3885SOL    HW112554   5.913   6.699   3.222
 3885SOL    HW212555   5.764   6.645   3.261
 3886SOL     OW12556   4.480   5.523   5.854
 3886SOL    HW112557   4.394   5.569   5.831
 3886SOL    HW212558   4.487   5.438   5.802
 3887SOL     OW12559   0.731   6.601   0.375
 3887SOL    HW112560   0.783   6.656   0.440
 3887SOL    HW212561   0.764   6.618   0.283
 3888SOL     OW12562   5.663   6.745   4.570
 3888SOL    HW112563   5.568   6.717   4.557
 3888SOL    HW212564   5.676   6.838   4.534
 3889SOL     OW12565   6.233   2.374   6.712
 3889SOL    HW112566   6.235   2.416   6.803
 3889SOL    HW212567   6.145   2.329   6.699
 3890SOL     OW12568   5.769   4.493   4.225
 3890SOL    HW112569   5.851   4.478   4.279
 3890SOL    HW212570   5.690   4.501   4.287
 3891SOL     OW12571   4.805   4.150   3.526
 3891SOL    HW112572   4.794   4.214   3.450
 3891SOL    HW212573   4.722   4.148   3.581
 3892SOL     OW12574   0.449   3.067   1.258
 3892SOL    HW112575   0.385   3.143   1.269
 3892SOL    HW212576   0.487   3.042   1.347
 3893SOL     OW12577   4.279   3.449   1.462
 3893SOL    HW112578   4.328   3.493   1.537
 3893SOL    HW212579   4.227   3.518   1.412
 3894SOL     OW12580   5.196   0.742   6.629
 3894SOL    HW112581   5.290   0.776   6.636
 3894SOL    HW212582   5.198   0.643   6.613
 3895SOL     OW12583   1.769   0.336   5.188
 3895SOL    HW112584   1.795   0.405   5.120
 3895SOL    HW212585   1.753   0.380   5.276
 3896SOL     OW12586   0.508   1.042   6.504
 3896SOL    HW112587   0.483   0.947   6.523
 3896SOL    HW212588   0.446   1.103   6.553
 3897SOL     OW12589   4.353   5.749   2.422
 3897SOL    HW112590   4.255   5.730   2.412
 3897SOL    HW212591   4.399   5.727   2.337
 3898SOL     OW12592   3.796   2.583   0.163
 3898SOL    HW112593   3.732   2.582   0.240
 3898SOL    HW212594   3.890   2.582   0.197
 3899SOL     OW12595   4.632   7.022   6.091
 3899SOL    HW112596   4.597   6.930   6.071
 3899SOL    HW212597   4.669   0.037   6.007
 3900SOL     OW12598   5.326   3.265   3.909
 3900SOL    HW112599   5.395   3.244   3.978
 3900SOL    HW212600   5.359   3.238   3.819
 3901SOL     OW12601   3.452   0.886   6.361
 3901SOL    HW112602   3.426   0.816   6.294
 3901SOL    HW212603   3.551   0.901   6.357
 3902SOL     OW12604   6.101   3.237   2.057
 3902SOL    HW112605   6.102   3.202   2.151
 3902SOL    HW212606   6.071   3.165   1.995
 3903SOL     OW12607   3.636   6.413   0.300
 3903SOL    HW112608   3.718   6.357   0.292
 3903SOL    HW212609   3.653   6.488   0.365
 3904SOL     OW12610   1.760   0.000   6.871
 3904SOL    HW112611   1.789   0.096   6.869
 3904SOL    HW212612   1.830   6.970   6.916
 3905SOL     OW12613   6.688   6.708   6.066
 3905SOL    HW112614   6.722   6.732   5.976
 3905SOL    HW212615   6.765   6.699   6.129
 3906SOL     OW12616   5.691   6.940   5.798
 3906SOL    HW112617   5.726   6.857   5.840
 3906SOL    HW212618   5.650   6.998   5.869
 3907SOL     OW12619   6.077   0.984   3.853
 3907SOL    HW112620   6.069   0.896   3.807
 3907SOL    HW212621   6.080   0.970   3.952
 3908SOL     OW12622   0.750   2.596   6.838
 3908SOL    HW112623   0.806   2.539   6.897
 3908SOL    HW212624   0.806   2.669   6.798
 3909SOL     OW12625   5.589   6.039   4.455
 3909SOL    HW112626   5.602   5.997   4.365
 3909SOL    HW212627   5.537   5.977   4.514
 3910SOL     OW12628   3.509   4.151   2.376
 3910SOL    HW112629   3.524   4.247   2.353
 3910SOL    HW212630   3.567   4.094   2.319
 3911SOL     OW12631   5.965   1.681   5.480
 3911SOL    HW112632   6.015   1.665   5.395
 3911SOL    HW212633   5.877   1.633   5.477
 3912SOL     OW12634   5.854   0.733   4.748
 3912SOL    HW112635   5.882   0.819   4.707
 3912SOL    HW212636   5.891   0.657   4.695
 3913SOL     OW12637   2.279   6.829   6.470
 3913SOL    HW112638   2.287   6.890   6.391
 3913SOL    HW212639   2.219   6.870   6.538
 3914SOL     OW12640   2.703   0.743   1.377
 3914SOL    HW112641   2.648   0.714   1.455
 3914SOL    HW212642   2.659   0.820   1.331
 3915SOL     OW12643   5.490   6.215   0.872
 3915SOL    HW112644   5.400   6.240   0.909
 3915SOL    HW212645   5.539   6.159   0.939
 3916SOL     OW12646   1.256   6.885   3.706
 3916SOL    HW112647   1.202   6.969   3.717
 3916SOL    HW212648   1.313   6.893   3.624
 3917SOL     OW12649   0.142   6.629   6.663
 3917SOL    HW112650   0.136   6.597   6.758
 3917SOL    HW212651   0.094   6.716   6.655
 3918SOL     OW12652   5.667   5.605   1.901
 3918SOL    HW112653   5.714   5.570   1.820
 3918SOL    HW212654   5.642   5.701   1.887
 3919SOL     OW12655   4.624   6.864   0.154
 3919SOL    HW112656   4.569   6.938   0.192
 3919SOL    HW212657   4.580   6.829   0.072
 3920SOL     OW12658   2.718   3.743   0.640
 3920SOL    HW112659   2.709   3.836   0.604
 3920SOL    HW212660   2.811   3.710   0.625
 3921SOL     OW12661   0.170   3.647   1.124
 3921SOL    HW112662   0.250   3.687   1.081
 3921SOL    HW212663   0.109   3.720   1.156
 3922SOL     OW12664   6.746   4.113   1.789
 3922SOL    HW112665   6.790   4.056   1.858
 3922SOL    HW212666   6.806   4.190   1.766
 3923SOL     OW12667   6.562   0.888   0.524
 3923SOL    HW112668   6.650   0.851   0.495
 3923SOL    HW212669   6.574   0.982   0.556
 3924SOL     OW12670   5.438   5.296   4.198
 3924SOL    HW112671   5.379   5.272   4.275
 3924SOL    HW212672   5.429   5.393   4.177
 3925SOL     OW12673   1.798   4.853   1.445
 3925SOL    HW112674   1.715   4.868   1.392
 3925SOL    HW212675   1.774   4.826   1.538
 3926SOL     OW12676   5.414   4.719   2.515
 3926SOL    HW112677   5.366   4.644   2.560
 3926SOL    HW212678   5.413   4.706   2.416
 3927SOL     OW12679   6.587   2.605   5.332
 3927SOL    HW112680   6.569   2.557   5.245
 3927SOL    HW212681   6.618   2.698   5.313
 3928SOL     OW12682   3.803   6.029   6.815
 3928SOL    HW112683   3.765   6.116   6.784
 3928SOL    HW212684   3.903   6.032   6.812
 3929SOL     OW12685   0.312   0.384   4.469
 3929SOL    HW112686   0.250   0.309   4.447
 3929SOL    HW212687   0.301   0.410   4.565
 3930SOL     OW12688   2.773   1.999   4.723
 3930SOL    HW112689   2.685   2.010   4.770
 3930SOL    HW212690   2.820   2.086   4.722
 3931SOL     OW12691   1.441   2.091   1.300
 3931SOL    HW112692   1.403   2.178   1.331
 3931SOL    HW212693   1.367   2.023   1.295
 3932SOL     OW12694   1.381   4.333   3.682
 3932SOL    HW112695   1.461   4.276   3.670
 3932SOL    HW212696   1.305   4.278   3.716
 3933SOL     OW12697   1.818   6.644   6.504
 3933SOL    HW112698   1.869   6.730   6.505
 3933SOL    HW212699   1.725   6.660   6.536
 3934SOL     OW12700   6.703   0.751   6.997
 3934SOL    HW112701   6.780   0.764   6.936
 3934SOL    HW212702   6.619   0.784   6.953
 3935SOL     OW12703   3.159   6.844   6.705
 3935SOL    HW112704   3.062   6.833   6.726
 3935SOL    HW212705   3.213   6.788   6.768
 3936SOL     OW12706   6.501   5.175   5.614
 3936SOL    HW112707   6.436   5.101   5.598
 3936SOL    HW212708   6.581   5.139   5.663
 3937SOL     OW12709   0.399   1.399   2.753
 3937SOL    HW112710   0.454   1.428   2.674
 3937SOL    HW212711   0.303   1.391   2.725
 3938SOL     OW12712   0.452   2.011   3.072
 3938SOL    HW112713   0.512   1.964   3.006
 3938SOL    HW212714   0.465   1.971   3.163
 3939SOL     OW12715   2.004   2.570   3.184
 3939SOL    HW112716   1.992   2.569   3.283
 3939SOL    HW212717   2.045   2.657   3.156
 3940SOL     OW12718   4.641   4.414   1.142
 3940SOL    HW112719   4.727   4.416   1.091
 3940SOL    HW212720   4.655   4.366   1.229
 3941SOL     OW12721   5.470   3.267   5.158
 3941SOL    HW112722   5.535   3.192   5.169
 3941SOL    HW212723   5.451   3.307   5.248
 3942SOL     OW12724   0.597   6.503   6.802
 3942SOL    HW112725   0.611   6.535   6.709
 3942SOL    HW212726   0.655   6.423   6.818
 3943SOL     OW12727   6.863   2.719   3.701
 3943SOL    HW112728   6.896   2.777   3.775
 3943SOL    HW212729   6.904   2.749   3.615
 3944SOL     OW12730   4.736   2.907   4.665
 3944SOL    HW112731   4.793   2.964   4.605
 3944SOL    HW212732   4.641   2.909   4.632
 3945SOL     OW12733   6.978   2.001   6.872
 3945SOL    HW112734   6.898   2.003   6.813
 3945SOL    HW212735   6.998   2.093   6.906
 3946SOL     OW12736   5.540   4.245   4.747
 3946SOL    HW112737   5.639   4.260   4.749
 3946SOL    HW212738   5.504   4.249   4.840
 3947SOL     OW12739   5.339   6.083   6.908
 3947SOL    HW112740   5.395   6.034   6.975
 3947SOL    HW212741   5.307   6.169   6.947
 3948SOL     OW12742   0.283   4.716   2.539
 3948SOL    HW112743   0.297   4.810   2.508
 3948SOL    HW212744   0.185   4.696   2.542
 3949SOL     OW12745   5.591   6.384   3.302
 3949SOL    HW112746   5.586   6.472   3.348
 3949SOL    HW212747   5.575   6.311   3.369
 3950SOL     OW12748   1.478   4.528   0.719
 3950SOL    HW112749   1.540   4.549   0.795
 3950SOL    HW212750   1.528   4.533   0.632
 3951SOL     OW12751   4.847   0.225   1.208
 3951SOL    HW112752   4.774   0.174   1.253
 3951SOL    HW212753   4.808   0.298   1.152
 3952SOL     OW12754   7.008   2.320   1.841
 3952SOL    HW112755   6.912   2.301   1.819
 3952SOL    HW212756   0.000   2.418   1.831
 3953SOL     OW12757   4.000   4.687   1.345
 3953SOL    HW112758   4.056   4.604   1.352
 3953SOL    HW212759   4.002   4.720   1.251
 3954SOL     OW12760   4.208   5.052   5.665
 3954SOL    HW112761   4.164   4.967   5.695
 3954SOL    HW212762   4.137   5.118   5.641
 3955SOL     OW12763   3.019   0.563   6.132
 3955SOL    HW112764   2.967   0.591   6.213
 3955SOL    HW212765   3.043   0.466   6.139
 3956SOL     OW12766   1.751   0.920   2.292
 3956SOL    HW112767   1.759   1.005   2.343
 3956SOL    HW212768   1.673   0.926   2.229
 3957SOL     OW12769   4.500   0.113   4.277
 3957SOL    HW112770   4.414   0.135   4.323
 3957SOL    HW212771   4.575   0.160   4.323
 3958SOL     OW12772   5.593   1.739   4.403
 3958SOL    HW112773   5.565   1.782   4.317
 3958SOL    HW212774   5.649   1.658   4.382
 3959SOL     OW12775   5.162   6.234   0.044
 3959SOL    HW112776   5.087   6.299   0.043
 3959SOL    HW212777   5.148   6.168   0.118
 3960SOL     OW12778   5.275   1.062   6.390
 3960SOL    HW112779   5.203   0.994   6.405
 3960SOL    HW212780   5.337   1.062   6.469
 3961SOL     OW12781   4.671   1.115   2.620
 3961SOL    HW112782   4.685   1.158   2.531
 3961SOL    HW212783   4.640   1.021   2.607
 3962SOL     OW12784   2.288   5.205   6.400
 3962SOL    HW112785   2.210   5.216   6.339
 3962SOL    HW212786   2.303   5.290   6.452
 3963SOL     OW12787   4.582   5.370   2.301
 3963SOL    HW112788   4.663   5.418   2.335
 3963SOL    HW212789   4.591   5.272   2.318
 3964SOL     OW12790   4.710   4.738   3.493
 3964SOL    HW112791   4.708   4.794   3.575
 3964SOL    HW212792   4.696   4.642   3.518
 3965SOL     OW12793   4.949   3.307   4.528
 3965SOL    HW112794   4.988   3.245   4.597
 3965SOL    HW212795   4.921   3.254   4.448
 3966SOL     OW12796   4.030   6.086   6.483
 3966SOL    HW112797   3.970   6.027   6.428
 3966SOL    HW212798   4.105   6.119   6.428
 3967SOL     OW12799   2.194   3.899   1.843
 3967SOL    HW112800   2.228   3.815   1.802
 3967SOL    HW212801   2.162   3.881   1.936
 3968SOL     OW12802   3.946   0.650   0.690
 3968SOL    HW112803   3.873   0.624   0.626
 3968SOL    HW212804   3.940   0.593   0.772
 3969SOL     OW12805   1.500   5.208   2.438
 3969SOL    HW112806   1.434   5.249   2.502
 3969SOL    HW212807   1.523   5.275   2.368
 3970SOL     OW12808   4.816   6.212   2.912
 3970SOL    HW112809   4.807   6.114   2.932
 3970SOL    HW212810   4.746   6.238   2.845
 3971SOL     OW12811   3.363   5.219   4.231
 3971SOL    HW112812   3.434   5.285   4.257
 3971SOL    HW212813   3.347   5.223   4.133
 3972SOL     OW12814   1.726   3.933   0.289
 3972SOL    HW112815   1.669   4.005   0.251
 3972SOL    HW212816   1.731   3.857   0.225
 3973SOL     OW12817   1.214   5.672   0.104
 3973SOL    HW112818   1.118   5.684   0.130
 3973SOL    HW212819   1.272   5.722   0.169
 3974SOL     OW12820   2.006   6.922   5.954
 3974SOL    HW112821   2.055   6.870   5.885
 3974SOL    HW212822   2.031   6.888   6.045
 3975SOL     OW12823   5.414   1.388   6.211
 3975SOL    HW112824   5.475   1.308   6.210
 3975SOL    HW212825   5.375   1.401   6.120
 3976SOL     OW12826   2.021   5.912   2.884
 3976SOL    HW112827   2.030   5.986   2.950
 3976SOL    HW212828   2.112   5.876   2.861
 3977SOL     OW12829   2.079   2.450   6.687
 3977SOL    HW112830   2.172   2.482   6.706
 3977SOL    HW212831   2.018   2.477   6.761
 3978SOL     OW12832   5.432   5.301   3.492
 3978SOL    HW112833   5.387   5.225   3.446
 3978SOL    HW212834   5.517   5.269   3.534
 3979SOL     OW12835   3.795   0.755   6.575
 3979SOL    HW112836   3.770   0.673   6.525
 3979SOL    HW212837   3.806   0.734   6.672
 3980SOL     OW12838   5.586   0.075   6.616
 3980SOL    HW112839   5.580   0.137   6.694
 3980SOL    HW212840   5.532   0.111   6.540
 3981SOL     OW12841   4.074   6.039   0.375
 3981SOL    HW112842   4.153   6.098   0.359
 3981SOL    HW212843   4.096   5.945   0.347
 3982SOL     OW12844   2.209   6.452   3.147
 3982SOL    HW112845   2.275   6.435   3.074
 3982SOL    HW212846   2.154   6.532   3.124
 3983SOL     OW12847   4.899   5.044   3.798
 3983SOL    HW112848   4.978   5.061   3.739
 3983SOL    HW212849   4.924   5.064   3.893
 3984SOL     OW12850   6.511   1.067   1.424
 3984SOL    HW112851   6.578   1.039   1.493
 3984SOL    HW212852   6.558   1.116   1.351
 3985SOL     OW12853   2.810   5.644   7.007
 3985SOL    HW112854   2.795   5.620   0.078
 3985SOL    HW212855   2.772   5.572   6.949
 3986SOL     OW12856   5.222   1.638   2.543
 3986SOL    HW112857   5.300   1.693   2.510
 3986SOL    HW212858   5.255   1.549   2.573
 3987SOL     OW12859   3.596   4.952   4.122
 3987SOL    HW112860   3.534   4.974   4.197
 3987SOL    HW212861   3.548   4.897   4.054
 3988SOL     OW12862   3.625   5.235   0.099
 3988SOL    HW112863   3.663   5.306   0.039
 3988SOL    HW212864   3.528   5.254   0.116
 3989SOL     OW12865   0.054   2.258   6.918
 3989SOL    HW112866   0.094   2.255   7.010
 3989SOL    HW212867   0.125   2.241   6.850
 3990SOL     OW12868   4.638   2.622   2.311
 3990SOL    HW112869   4.677   2.529   2.310
 3990SOL    HW212870   4.682   2.676   2.383
 3991SOL     OW12871   0.078   1.349   1.382
 3991SOL    HW112872   0.163   1.383   1.340
 3991SOL    HW212873   0.001   1.371   1.323
 3992SOL     OW12874   2.944   2.255   0.635
 3992SOL    HW112875   2.950   2.157   0.654
 3992SOL    HW212876   2.884   2.271   0.557
 3993SOL     OW12877   1.444   3.019   2.742
 3993SOL    HW112878   1.376   2.953   2.710
 3993SOL    HW212879   1.422   3.110   2.707
 3994SOL     OW12880   2.697   0.484   6.080
 3994SOL    HW112881   2.792   0.468   6.107
 3994SOL    HW212882   2.676   0.432   5.997
 3995SOL     OW12883   2.349   3.883   6.202
 3995SOL    HW112884   2.353   3.927   6.112
 3995SOL    HW212885   2.257   3.848   6.218
 3996SOL     OW12886   0.048   6.625   4.997
 3996SOL    HW112887   0.064   6.696   5.067
 3996SOL    HW212888   0.135   6.593   4.962
 3997SOL     OW12889   5.757   2.099   3.313
 3997SOL    HW112890   5.679   2.039   3.330
 3997SOL    HW212891   5.839   2.061   3.356
 3998SOL     OW12892   3.461   0.846   4.349
 3998SOL    HW112893   3.536   0.779   4.351
 3998SOL    HW212894   3.374   0.797   4.360
 3999SOL     OW12895   5.806   1.746   4.049
 3999SOL    HW112896   5.768   1.668   4.099
 3999SOL    HW212897   5.899   1.764   4.080
 4000SOL     OW12898   2.701   6.609   4.131
 4000SOL    HW112899   2.702   6.645   4.038
 4000SOL    HW212900   2.663   6.678   4.193
 4001SOL     OW12901   2.916   1.828   4.498
 4001SOL    HW112902   2.938   1.894   4.570
 4001SOL    HW212903   2.839   1.861   4.444
 4002SOL     OW12904   3.079   3.443   1.577
 4002SOL    HW112905   3.130   3.525   1.602
 4002SOL    HW212906   3.028   3.460   1.493
 4003SOL     OW12907   3.135   0.335   4.051
 4003SOL    HW112908   3.110   0.304   3.960
 4003SOL    HW212909   3.126   0.260   4.116
 4004SOL     OW12910   6.347   2.137   4.506
 4004SOL    HW112911   6.386   2.212   4.452
 4004SOL    HW212912   6.247   2.146   4.508
 4005SOL     OW12913   4.825   5.075   5.945
 4005SOL    HW112914   4.880   5.154   5.917
 4005SOL    HW212915   4.757   5.104   6.012
 4006SOL     OW12916   3.898   4.919   1.711
 4006SOL    HW112917   3.799   4.903   1.708
 4006SOL    HW212918   3.916   5.017   1.707
 4007SOL     OW12919   7.019   2.988   0.209
 4007SOL    HW112920   0.058   3.036   0.150
 4007SOL    HW212921   6.942   2.956   0.155
 4008SOL     OW12922   2.659   2.272   4.870
 4008SOL    HW112923   2.725   2.316   4.931
 4008SOL    HW212924   2.681   2.296   4.775
 4009SOL     OW12925   4.176   3.136   1.785
 4009SOL    HW112926   4.129   3.132   1.697
 4009SOL    HW212927   4.117   3.179   1.853
 4010SOL     OW12928   2.628   3.482   1.438
 4010SOL    HW112929   2.677   3.532   1.509
 4010SOL    HW212930   2.684   3.405   1.407
 4011SOL     OW12931   1.159   2.257   2.371
 4011SOL    HW112932   1.211   2.174   2.390
 4011SOL    HW212933   1.076   2.233   2.320
 4012SOL     OW12934   6.455   4.293   2.464
 4012SOL    HW112935   6.554   4.286   2.454
 4012SOL    HW212936   6.419   4.209   2.505
 4013SOL     OW12937   3.729   2.103   4.871
 4013SOL    HW112938   3.699   2.007   4.867
 4013SOL    HW212939   3.765   2.130   4.782
 4014SOL     OW12940   6.273   6.604   2.269
 4014SOL    HW112941   6.177   6.585   2.292
 4014SOL    HW212942   6.312   6.526   2.222
 4015SOL     OW12943   4.852   4.212   6.421
 4015SOL    HW112944   4.902   4.296   6.438
 4015SOL    HW212945   4.903   4.154   6.357
 4016SOL     OW12946   2.393   6.040   6.176
 4016SOL    HW112947   2.374   6.122   6.230
 4016SOL    HW212948   2.387   5.960   6.234
 4017SOL     OW12949   6.712   5.505   0.418
 4017SOL    HW112950   6.682   5.597   0.393
 4017SOL    HW212951   6.786   5.511   0.485
 4018SOL     OW12952   4.461   6.091   2.119
 4018SOL    HW112953   4.551   6.057   2.092
 4018SOL    HW212954   4.442   6.178   2.073
 4019SOL     OW12955   5.006   4.509   2.670
 4019SOL    HW112956   5.097   4.494   2.630
 4019SOL    HW212957   4.984   4.431   2.729
 4020SOL     OW12958   4.586   2.797   5.197
 4020SOL    HW112959   4.571   2.784   5.295
 4020SOL    HW212960   4.584   2.708   5.151
 4021SOL     OW12961   3.193   5.339   6.329
 4021SOL    HW112962   3.168   5.364   6.422
 4021SOL    HW212963   3.281   5.291   6.330
 4022SOL     OW12964   4.894   1.609   0.383
 4022SOL    HW112965   4.965   1.679   0.382
 4022SOL    HW212966   4.874   1.584   0.478
 4023SOL     OW12967   6.515   2.489   5.090
 4023SOL    HW112968   6.567   2.413   5.051
 4023SOL    HW212969   6.420   2.486   5.056
 4024SOL     OW12970   4.106   5.378   4.130
 4024SOL    HW112971   4.192   5.415   4.096
 4024SOL    HW212972   4.039   5.451   4.138
 4025SOL     OW12973   0.475   3.589   3.605
 4025SOL    HW112974   0.385   3.630   3.592
 4025SOL    HW212975   0.542   3.661   3.625
 4026SOL     OW12976   4.716   6.876   3.842
 4026SOL    HW112977   4.683   6.789   3.879
 4026SOL    HW212978   4.789   6.911   3.902
 4027SOL     OW12979   3.662   4.365   1.472
 4027SOL    HW112980   3.720   4.300   1.422
 4027SOL    HW212981   3.567   4.336   1.463
 4028SOL     OW12982   1.975   1.963   3.822
 4028SOL    HW112983   1.939   1.889   3.765
 4028SOL    HW212984   2.068   1.941   3.850
 4029SOL     OW12985   1.920   3.970   5.717
 4029SOL    HW112986   1.823   3.988   5.730
 4029SOL    HW212987   1.955   4.029   5.644
 4030SOL     OW12988   1.173   1.952   5.205
 4030SOL    HW112989   1.133   1.868   5.241
 4030SOL    HW212990   1.260   1.969   5.249
 4031SOL     OW12991   3.895   5.650   4.313
 4031SOL    HW112992   3.927   5.637   4.406
 4031SOL    HW212993   3.916   5.744   4.284
 4032SOL     OW12994   5.329   0.278   3.831
 4032SOL    HW112995   5.408   0.249   3.777
 4032SOL    HW212996   5.291   0.200   3.880
 4033SOL     OW12997   2.971   3.405   4.672
 4033SOL    HW112998   3.036   3.443   4.738
 4033SOL    HW212999   2.942   3.314   4.703
 4034SOL     OW13000   6.872   1.811   3.828
 4034SOL    HW113001   6.827   1.727   3.858
 4034SOL    HW213002   6.908   1.860   3.907
 4035SOL     OW13003   0.744   4.114   0.024
 4035SOL    HW113004   0.816   4.067   0.075
 4035SOL    HW213005   0.679   4.155   0.087
 4036SOL     OW13006   6.259   6.731   2.912
 4036SOL    HW113007   6.344   6.757   2.867
 4036SOL    HW213008   6.206   6.672   2.852
 4037SOL     OW13009   0.886   3.367   7.003
 4037SOL    HW113010   0.882   3.308   0.058
 4037SOL    HW213011   0.838   3.453   7.023
 4038SOL     OW13012   4.930   4.772   3.061
 4038SOL    HW113013   4.862   4.712   3.103
 4038SOL    HW213014   4.958   4.841   3.127
 4039SOL     OW13015   5.322   6.435   6.979
 4039SOL    HW113016   5.278   6.358   0.001
 4039SOL    HW213017   5.357   6.500   0.021
 4040SOL     OW13018   3.214   6.781   1.406
 4040SOL    HW113019   3.300   6.808   1.448
 4040SOL    HW213020   3.195   6.685   1.428
 4041SOL     OW13021   1.370   6.230   3.865
 4041SOL    HW113022   1.433   6.288   3.916
 4041SOL    HW213023   1.398   6.134   3.875
 4042SOL     OW13024   5.979   5.162   1.898
 4042SOL    HW113025   5.902   5.201   1.949
 4042SOL    HW213026   6.007   5.226   1.826
 4043SOL     OW13027   5.904   2.450   1.111
 4043SOL    HW113028   5.930   2.482   1.202
 4043SOL    HW213029   5.815   2.405   1.116
 4044SOL     OW13030   5.694   0.047   3.422
 4044SOL    HW113031   5.703   0.046   3.522
 4044SOL    HW213032   5.648   0.132   3.394
 4045SOL     OW13033   2.114   5.752   6.450
 4045SOL    HW113034   2.038   5.768   6.513
 4045SOL    HW213035   2.077   5.734   6.358
 4046SOL     OW13036   1.093   2.977   1.639
 4046SOL    HW113037   1.157   3.043   1.677
 4046SOL    HW213038   1.084   2.991   1.541
 4047SOL     OW13039   2.735   3.712   1.585
 4047SOL    HW113040   2.694   3.628   1.621
 4047SOL    HW213041   2.667   3.785   1.583
 4048SOL     OW13042   4.747   0.234   0.818
 4048SOL    HW113043   4.846   0.224   0.827
 4048SOL    HW213044   4.702   0.155   0.859
 4049SOL     OW13045   5.177   6.904   4.835
 4049SOL    HW113046   5.248   6.909   4.765
 4049SOL    HW213047   5.102   6.847   4.802
 4050SOL     OW13048   2.206   0.007   0.365
 4050SOL    HW113049   2.194   6.973   0.444
 4050SOL    HW213050   2.259   0.088   0.391
 4051SOL     OW13051   3.737   4.147   1.728
 4051SOL    HW113052   3.657   4.204   1.747
 4051SOL    HW213053   3.709   4.067   1.674
 4052SOL     OW13054   0.596   0.494   0.547
 4052SOL    HW113055   0.696   0.504   0.546
 4052SOL    HW213056   0.554   0.570   0.498
 4053SOL     OW13057   3.794   5.114   3.707
 4053SOL    HW113058   3.753   5.179   3.644
 4053SOL    HW213059   3.752   5.124   3.798
 4054SOL     OW13060   3.781   2.280   1.135
 4054SOL    HW113061   3.775   2.309   1.231
 4054SOL    HW213062   3.868   2.234   1.120
 4055SOL     OW13063   3.955   1.690   6.063
 4055SOL    HW113064   3.916   1.707   5.972
 4055SOL    HW213065   3.922   1.601   6.096
 4056SOL     OW13066   3.784   3.733   0.610
 4056SOL    HW113067   3.739   3.815   0.574
 4056SOL    HW213068   3.714   3.670   0.645
 4057SOL     OW13069   4.882   2.735   6.890
 4057SOL    HW113070   4.885   2.687   6.978
 4057SOL    HW213071   4.860   2.670   6.818
 4058SOL     OW13072   1.947   1.019   5.851
 4058SOL    HW113073   1.909   0.927   5.859
 4058SOL    HW213074   2.031   1.026   5.906
 4059SOL     OW13075   0.998   1.671   4.846
 4059SOL    HW113076   1.082   1.675   4.793
 4059SOL    HW213077   0.956   1.581   4.836
 4060SOL     OW13078   4.006   5.182   4.585
 4060SOL    HW113079   4.014   5.172   4.486
 4060SOL    HW213080   4.016   5.093   4.629
 4061SOL     OW13081   3.203   2.983   1.722
 4061SOL    HW113082   3.110   2.977   1.684
 4061SOL    HW213083   3.270   2.969   1.649
 4062SOL     OW13084   2.678   0.475   3.217
 4062SOL    HW113085   2.647   0.460   3.311
 4062SOL    HW213086   2.747   0.547   3.215
 4063SOL     OW13087   2.810   4.984   6.794
 4063SOL    HW113088   2.860   5.001   6.710
 4063SOL    HW213089   2.856   5.031   6.870
 4064SOL     OW13090   6.718   1.008   3.518
 4064SOL    HW113091   6.732   1.101   3.486
 4064SOL    HW213092   6.793   0.982   3.579
 4065SOL     OW13093   6.309   6.037   0.682
 4065SOL    HW113094   6.273   6.104   0.617
 4065SOL    HW213095   6.399   6.066   0.714
 4066SOL     OW13096   5.946   4.009   1.388
 4066SOL    HW113097   5.860   4.042   1.425
 4066SOL    HW213098   5.966   3.919   1.426
 4067SOL     OW13099   6.211   0.918   1.990
 4067SOL    HW113100   6.168   0.850   2.050
 4067SOL    HW213101   6.184   1.010   2.020
 4068SOL     OW13102   6.293   0.294   3.765
 4068SOL    HW113103   6.265   0.285   3.669
 4068SOL    HW213104   6.378   0.347   3.771
 4069SOL     OW13105   5.847   5.330   0.997
 4069SOL    HW113106   5.942   5.330   0.965
 4069SOL    HW213107   5.799   5.408   0.958
 4070SOL     OW13108   1.336   3.418   2.868
 4070SOL    HW113109   1.259   3.476   2.893
 4070SOL    HW213110   1.346   3.345   2.936
 4071SOL     OW13111   1.446   6.744   4.073
 4071SOL    HW113112   1.459   6.673   4.004
 4071SOL    HW213113   1.534   6.770   4.112
 4072SOL     OW13114   1.500   0.021   4.844
 4072SOL    HW113115   1.488   0.118   4.864
 4072SOL    HW213116   1.518   0.009   4.746
 4073SOL     OW13117   2.429   5.785   6.976
 4073SOL    HW113118   2.382   5.697   6.980
 4073SOL    HW213119   2.498   5.790   0.024
 4074SOL     OW13120   1.750   3.843   0.741
 4074SOL    HW113121   1.747   3.931   0.787
 4074SOL    HW213122   1.711   3.773   0.801
 4075SOL     OW13123   4.727   1.497   3.318
 4075SOL    HW113124   4.766   1.583   3.349
 4075SOL    HW213125   4.697   1.443   3.397
 4076SOL     OW13126   1.829   3.596   4.199
 4076SOL    HW113127   1.772   3.515   4.216
 4076SOL    HW213128   1.775   3.678   4.214
 4077SOL     OW13129   3.154   1.462   0.658
 4077SOL    HW113130   3.199   1.376   0.680
 4077SOL    HW213131   3.163   1.481   0.561
 4078SOL     OW13132   6.037   3.736   1.851
 4078SOL    HW113133   5.954   3.757   1.903
 4078SOL    HW213134   6.018   3.662   1.786
 4079SOL     OW13135   0.500   0.639   3.928
 4079SOL    HW113136   0.475   0.557   3.979
 4079SOL    HW213137   0.428   0.662   3.863
 4080SOL     OW13138   2.817   3.216   1.473
 4080SOL    HW113139   2.868   3.292   1.433
 4080SOL    HW213140   2.869   3.131   1.461
 4081SOL     OW13141   2.216   2.236   6.062
 4081SOL    HW113142   2.315   2.245   6.059
 4081SOL    HW213143   2.179   2.288   6.139
 4082SOL     OW13144   1.059   2.605   4.270
 4082SOL    HW113145   0.970   2.595   4.227
 4082SOL    HW213146   1.080   2.702   4.282
 4083SOL     OW13147   5.643   5.300   2.970
 4083SOL    HW113148   5.651   5.279   2.873
 4083SOL    HW213149   5.595   5.226   3.017
 4084SOL     OW13150   4.921   0.566   3.759
 4084SOL    HW113151   4.845   0.619   3.722
 4084SOL    HW213152   4.948   0.603   3.847
 4085SOL     OW13153   3.718   4.886   2.908
 4085SOL    HW113154   3.716   4.915   3.004
 4085SOL    HW213155   3.627   4.897   2.868
 4086SOL     OW13156   5.753   5.558   5.935
 4086SOL    HW113157   5.737   5.474   5.882
 4086SOL    HW213158   5.828   5.610   5.894
 4087SOL     OW13159   2.701   0.060   2.673
 4087SOL    HW113160   2.691   0.118   2.754
 4087SOL    HW213161   2.757   0.107   2.605
 4088SOL     OW13162   0.692   1.814   5.636
 4088SOL    HW113163   0.666   1.752   5.711
 4088SOL    HW213164   0.640   1.899   5.645
 4089SOL     OW13165   0.333   7.019   3.638
 4089SOL    HW113166   0.344   0.065   3.707
 4089SOL    HW213167   0.263   0.021   3.572
 4090SOL     OW13168   2.942   1.267   6.285
 4090SOL    HW113169   3.035   1.279   6.251
 4090SOL    HW213170   2.910   1.175   6.263
 4091SOL     OW13171   2.711   6.170   2.387
 4091SOL    HW113172   2.751   6.130   2.305
 4091SOL    HW213173   2.782   6.183   2.457
 4092SOL     OW13174   5.524   3.189   4.089
 4092SOL    HW113175   5.582   3.143   4.022
 4092SOL    HW213176   5.502   3.125   4.163
 4093SOL     OW13177   4.269   5.039   2.935
 4093SOL    HW113178   4.332   4.973   2.975
 4093SOL    HW213179   4.204   5.069   3.004
 4094SOL     OW13180   6.748   5.517   6.580
 4094SOL    HW113181   6.786   5.474   6.662
 4094SOL    HW213182   6.652   5.541   6.597
 4095SOL     OW13183   0.833   4.841   0.036
 4095SOL    HW113184   0.761   4.823   0.102
 4095SOL    HW213185   0.794   4.841   6.969
 4096SOL     OW13186   1.320   0.941   6.882
 4096SOL    HW113187   1.239   0.922   6.827
 4096SOL    HW213188   1.293   0.975   6.972
 4097SOL     OW13189   6.988   4.801   5.176
 4097SOL    HW113190   0.023   4.879   5.194
 4097SOL    HW213191   6.895   4.825   5.204
 4098SOL     OW13192   2.674   4.597   3.424
 4098SOL    HW113193   2.639   4.603   3.517
 4098SOL    HW213194   2.606   4.552   3.366
 4099SOL     OW13195   4.308   4.660   5.612
 4099SOL    HW113196   4.358   4.614   5.685
 4099SOL    HW213197   4.327   4.614   5.525
 4100SOL     OW13198   1.706   6.778   4.135
 4100SOL    HW113199   1.787   6.830   4.109
 4100SOL    HW213200   1.730   6.682   4.146
 4101SOL     OW13201   6.069   6.363   0.242
 4101SOL    HW113202   6.151   6.420   0.241
 4101SOL    HW213203   5.989   6.420   0.265
 4102SOL     OW13204   1.116   0.782   0.543
 4102SOL    HW113205   1.086   0.877   0.548
 4102SOL    HW213206   1.216   0.779   0.548
 4103SOL     OW13207   1.310   6.614   2.967
 4103SOL    HW113208   1.215   6.583   2.958
 4103SOL    HW213209   1.314   6.688   3.034
 4104SOL     OW13210   1.245   5.764   4.591
 4104SOL    HW113211   1.319   5.816   4.550
 4104SOL    HW213212   1.213   5.812   4.673
 4105SOL     OW13213   4.678   1.328   1.087
 4105SOL    HW113214   4.600   1.267   1.107
 4105SOL    HW213215   4.759   1.273   1.069
 4106SOL     OW13216   0.744   1.699   3.316
 4106SOL    HW113217   0.760   1.779   3.374
 4106SOL    HW213218   0.719   1.621   3.373
 4107SOL     OW13219   0.752   6.278   6.895
 4107SOL    HW113220   0.666   6.227   6.902
 4107SOL    HW213221   0.784   6.302   6.987
 4108SOL     OW13222   6.657   5.900   4.404
 4108SOL    HW113223   6.558   5.901   4.415
 4108SOL    HW213224   6.687   5.810   4.373
 4109SOL     OW13225   6.611   6.870   2.840
 4109SOL    HW113226   6.659   6.877   2.928
 4109SOL    HW213227   6.662   6.809   2.779
 4110SOL     OW13228   4.515   3.225   0.607
 4110SOL    HW113229   4.599   3.198   0.654
 4110SOL    HW213230   4.509   3.176   0.520
 4111SOL     OW13231   6.720   3.916   4.228
 4111SOL    HW113232   6.753   3.822   4.222
 4111SOL    HW213233   6.663   3.937   4.148
 4112SOL     OW13234   4.690   6.643   5.475
 4112SOL    HW113235   4.754   6.677   5.406
 4112SOL    HW213236   4.685   6.543   5.469
 4113SOL     OW13237   4.609   5.171   5.130
 4113SOL    HW113238   4.643   5.086   5.169
 4113SOL    HW213239   4.678   5.211   5.071
 4114SOL     OW13240   0.172   2.248   2.220
 4114SOL    HW113241   0.198   2.204   2.134
 4114SOL    HW213242   0.095   2.309   2.204
 4115SOL     OW13243   4.454   5.959   4.007
 4115SOL    HW113244   4.535   5.956   3.949
 4115SOL    HW213245   4.396   5.880   3.987
 4116SOL     OW13246   5.431   3.179   3.655
 4116SOL    HW113247   5.422   3.260   3.597
 4116SOL    HW213248   5.477   3.106   3.605
 4117SOL     OW13249   1.369   2.104   3.019
 4117SOL    HW113250   1.314   2.020   3.021
 4117SOL    HW213251   1.313   2.181   3.048
 4118SOL     OW13252   0.508   5.808   6.254
 4118SOL    HW113253   0.491   5.732   6.191
 4118SOL    HW213254   0.422   5.832   6.301
 4119SOL     OW13255   1.334   0.926   3.420
 4119SOL    HW113256   1.361   1.014   3.380
 4119SOL    HW213257   1.369   0.852   3.363
 4120SOL     OW13258   1.392   1.078   6.502
 4120SOL    HW113259   1.295   1.087   6.522
 4120SOL    HW213260   1.446   1.123   6.574
 4121SOL     OW13261   6.278   6.572   1.780
 4121SOL    HW113262   6.362   6.533   1.818
 4121SOL    HW213263   6.275   6.670   1.802
 4122SOL     OW13264   6.546   4.609   3.450
 4122SOL    HW113265   6.641   4.604   3.418
 4122SOL    HW213266   6.518   4.520   3.486
 4123SOL     OW13267   4.195   5.339   1.809
 4123SOL    HW113268   4.248   5.283   1.872
 4123SOL    HW213269   4.243   5.348   1.723
 4124SOL     OW13270   6.384   5.979   0.358
 4124SOL    HW113271   6.350   6.043   0.289
 4124SOL    HW213272   6.309   5.921   0.389
 4125SOL     OW13273   5.726   1.830   1.691
 4125SOL    HW113274   5.759   1.912   1.644
 4125SOL    HW213275   5.798   1.794   1.750
 4126SOL     OW13276   1.675   2.987   2.202
 4126SOL    HW113277   1.717   2.913   2.150
 4126SOL    HW213278   1.581   2.961   2.227
 4127SOL     OW13279   3.691   1.292   4.077
 4127SOL    HW113280   3.691   1.226   4.153
 4127SOL    HW213281   3.662   1.381   4.111
 4128SOL     OW13282   0.529   2.962   0.602
 4128SOL    HW113283   0.593   2.892   0.635
 4128SOL    HW213284   0.574   3.051   0.603
 4129SOL     OW13285   2.110   2.657   0.874
 4129SOL    HW113286   2.067   2.746   0.858
 4129SOL    HW213287   2.040   2.587   0.886
 4130SOL     OW13288   5.590   2.635   1.018
 4130SOL    HW113289   5.549   2.566   0.959
 4130SOL    HW213290   5.675   2.600   1.056
 4131SOL     OW13291   4.696   0.163   2.694
 4131SOL    HW113292   4.654   0.252   2.676
 4131SOL    HW213293   4.787   0.176   2.734
 4132SOL     OW13294   0.066   4.829   4.093
 4132SOL    HW113295   0.094   4.733   4.086
 4132SOL    HW213296   0.086   4.863   4.185
 4133SOL     OW13297   5.995   0.246   2.569
 4133SOL    HW113298   5.968   0.249   2.473
 4133SOL    HW213299   5.991   0.151   2.602
 4134SOL     OW13300   1.597   3.306   1.337
 4134SOL    HW113301   1.505   3.296   1.300
 4134SOL    HW213302   1.664   3.289   1.266
 4135SOL     OW13303   0.206   1.201   2.259
 4135SOL    HW113304   0.216   1.176   2.355
 4135SOL    HW213305   0.142   1.277   2.251
 4136SOL     OW13306   1.494   4.662   2.097
 4136SOL    HW113307   1.516   4.706   2.010
 4136SOL    HW213308   1.555   4.697   2.168
 4137SOL     OW13309   1.457   2.384   0.062
 4137SOL    HW113310   1.403   2.446   0.119
 4137SOL    HW213311   1.408   2.367   7.002
 4138SOL     OW13312   4.855   6.799   0.261
 4138SOL    HW113313   4.790   6.839   0.197
 4138SOL    HW213314   4.849   6.846   0.349
 4139SOL     OW13315   2.120   3.170   2.662
 4139SOL    HW113316   2.098   3.108   2.737
 4139SOL    HW213317   2.175   3.246   2.697
 4140SOL     OW13318   2.431   1.868   5.648
 4140SOL    HW113319   2.338   1.868   5.685
 4140SOL    HW213320   2.427   1.879   5.549
 4141SOL     OW13321   4.653   0.180   6.458
 4141SOL    HW113322   4.686   0.171   6.552
 4141SOL    HW213323   4.730   0.193   6.396
 4142SOL     OW13324   6.765   4.583   3.122
 4142SOL    HW113325   6.838   4.536   3.072
 4142SOL    HW213326   6.775   4.566   3.220
 4143SOL     OW13327   5.560   3.113   0.492
 4143SOL    HW113328   5.513   3.026   0.501
 4143SOL    HW213329   5.619   3.129   0.571
 4144SOL     OW13330   6.061   1.878   0.582
 4144SOL    HW113331   6.005   1.797   0.565
 4144SOL    HW213332   6.025   1.955   0.530
 4145SOL     OW13333   0.088   6.941   1.470
 4145SOL    HW113334   7.023   6.910   1.499
 4145SOL    HW213335   0.078   7.025   1.416
 4146SOL     OW13336   4.725   6.574   3.269
 4146SOL    HW113337   4.628   6.585   3.249
 4146SOL    HW213338   4.760   6.493   3.222
 4147SOL     OW13339   5.098   4.280   5.554
 4147SOL    HW113340   5.019   4.245   5.504
 4147SOL    HW213341   5.111   4.228   5.638
 4148SOL     OW13342   2.174   1.746   6.130
 4148SOL    HW113343   2.230   1.824   6.101
 4148SOL    HW213344   2.201   1.719   6.223
 4149SOL     OW13345   2.529   2.503   6.921
 4149SOL    HW113346   2.558   2.564   6.848
 4149SOL    HW213347   2.436   2.527   6.949
 4150SOL     OW13348   5.851   2.149   5.917
 4150SOL    HW113349   5.776   2.130   5.853
 4150SOL    HW213350   5.830   2.231   5.969
 4151SOL     OW13351   2.300   6.458   4.065
 4151SOL    HW113352   2.307   6.555   4.041
 4151SOL    HW213353   2.357   6.439   4.144
 4152SOL     OW13354   2.570   5.347   1.277
 4152SOL    HW113355   2.549   5.337   1.180
 4152SOL    HW213356   2.567   5.257   1.321
 4153SOL     OW13357   6.913   5.134   1.370
 4153SOL    HW113358   6.890   5.223   1.411
 4153SOL    HW213359   7.010   5.114   1.388
 4154SOL     OW13360   1.026   6.377   3.825
 4154SOL    HW113361   1.089   6.373   3.748
 4154SOL    HW213362   0.941   6.422   3.797
 4155SOL     OW13363   0.513   1.490   1.163
 4155SOL    HW113364   0.419   1.471   1.135
 4155SOL    HW213365   0.514   1.563   1.231
 4156SOL     OW13366   6.797   5.677   5.696
 4156SOL    HW113367   6.816   5.713   5.788
 4156SOL    HW213368   6.773   5.581   5.702
 4157SOL     OW13369   7.001   6.038   1.918
 4157SOL    HW113370   0.054   6.001   1.969
 4157SOL    HW213371   7.006   6.009   1.823
 4158SOL     OW13372   1.466   2.872   2.337
 4158SOL    HW113373   1.547   2.855   2.393
 4158SOL    HW213374   1.439   2.788   2.291
 4159SOL     OW13375   3.134   1.452   3.857
 4159SOL    HW113376   3.229   1.472   3.836
 4159SOL    HW213377   3.082   1.441   3.772
 4160SOL     OW13378   6.445   6.457   6.947
 4160SOL    HW113379   6.495   6.383   6.992
 4160SOL    HW213380   6.468   6.544   6.989
 4161SOL     OW13381   3.204   2.814   1.291
 4161SOL    HW113382   3.236   2.907   1.273
 4161SOL    HW213383   3.110   2.817   1.326
 4162SOL     OW13384   5.280   5.624   2.173
 4162SOL    HW113385   5.206   5.583   2.228
 4162SOL    HW213386   5.286   5.576   2.086
 4163SOL     OW13387   3.910   6.657   0.995
 4163SOL    HW113388   3.952   6.740   0.959
 4163SOL    HW213389   3.957   6.630   1.080
 4164SOL     OW13390   6.559   0.471   4.697
 4164SOL    HW113391   6.590   0.558   4.735
 4164SOL    HW213392   6.586   0.396   4.757
 4165SOL     OW13393   4.543   0.911   5.176
 4165SOL    HW113394   4.571   1.002   5.144
 4165SOL    HW213395   4.451   0.916   5.215
 4166SOL     OW13396   5.905   0.842   1.721
 4166SOL    HW113397   5.835   0.850   1.792
 4166SOL    HW213398   5.900   0.921   1.660
 4167SOL     OW13399   4.225   5.383   4.857
 4167SOL    HW113400   4.138   5.412   4.818
 4167SOL    HW213401   4.212   5.357   4.953
 4168SOL     OW13402   4.760   4.126   6.850
 4168SOL    HW113403   4.800   4.216   6.832
 4168SOL    HW213404   4.689   4.107   6.782
 4169SOL     OW13405   4.958   3.745   4.788
 4169SOL    HW113406   4.901   3.818   4.752
 4169SOL    HW213407   4.919   3.711   4.874
 4170SOL     OW13408   6.689   3.557   4.494
 4170SOL    HW113409   6.655   3.519   4.580
 4170SOL    HW213410   6.773   3.608   4.510
 4171SOL     OW13411   0.618   3.458   1.203
 4171SOL    HW113412   0.607   3.556   1.216
 4171SOL    HW213413   0.649   3.439   1.110
 4172SOL     OW13414   2.787   4.880   0.630
 4172SOL    HW113415   2.829   4.970   0.645
 4172SOL    HW213416   2.810   4.820   0.707
 4173SOL     OW13417   4.770   2.935   4.981
 4173SOL    HW113418   4.686   2.908   5.027
 4173SOL    HW213419   4.763   2.913   4.883
 4174SOL     OW13420   4.118   0.494   4.912
 4174SOL    HW113421   4.086   0.517   5.004
 4174SOL    HW213422   4.098   0.398   4.892
 4175SOL     OW13423   1.686   4.426   6.910
 4175SOL    HW113424   1.760   4.380   6.861
 4175SOL    HW213425   1.687   4.524   6.890
 4176SOL     OW13426   5.149   0.046   6.069
 4176SOL    HW113427   5.236   0.089   6.045
 4176SOL    HW213428   5.166   6.978   6.100
 4177SOL     OW13429   4.602   4.374   3.357
 4177SOL    HW113430   4.544   4.420   3.290
 4177SOL    HW213431   4.675   4.326   3.309
 4178SOL     OW13432   4.341   5.190   2.006
 4178SOL    HW113433   4.429   5.165   2.045
 4178SOL    HW213434   4.267   5.160   2.067
 4179SOL     OW13435   5.259   3.354   4.597
 4179SOL    HW113436   5.201   3.420   4.550
 4179SOL    HW213437   5.297   3.396   4.680
 4180SOL     OW13438   5.001   3.697   0.109
 4180SOL    HW113439   5.089   3.691   0.060
 4180SOL    HW213440   4.927   3.706   0.043
 4181SOL     OW13441   4.595   0.348   5.622
 4181SOL    HW113442   4.609   0.329   5.525
 4181SOL    HW213443   4.497   0.364   5.639
 4182SOL     OW13444   6.791   6.550   3.970
 4182SOL    HW113445   6.809   6.480   4.039
 4182SOL    HW213446   6.693   6.568   3.965
 4183SOL     OW13447   3.621   1.814   1.490
 4183SOL    HW113448   3.552   1.750   1.459
 4183SOL    HW213449   3.624   1.816   1.590
 4184SOL     OW13450   3.259   5.318   3.483
 4184SOL    HW113451   3.254   5.411   3.521
 4184SOL    HW213452   3.355   5.289   3.480
 4185SOL     OW13453   6.694   3.665   2.561
 4185SOL    HW113454   6.783   3.623   2.579
 4185SOL    HW213455   6.631   3.595   2.525
 4186SOL     OW13456   1.711   6.450   0.248
 4186SOL    HW113457   1.655   6.511   0.303
 4186SOL    HW213458   1.808   6.464   0.271
 4187SOL     OW13459   1.664   3.577   0.077
 4187SOL    HW113460   1.694   3.662   0.033
 4187SOL    HW213461   1.742   3.514   0.083
 4188SOL     OW13462   4.509   6.816   6.913
 4188SOL    HW113463   4.440   6.877   6.951
 4188SOL    HW213464   4.541   6.853   6.826
 4189SOL     OW13465   4.992   5.118   2.669
 4189SOL    HW113466   4.930   5.186   2.710
 4189SOL    HW213467   5.044   5.073   2.741
 4190SOL     OW13468   0.368   6.513   0.884
 4190SOL    HW113469   0.311   6.575   0.831
 4190SOL    HW213470   0.310   6.444   0.928
 4191SOL     OW13471   4.299   4.851   6.003
 4191SOL    HW113472   4.377   4.794   5.977
 4191SOL    HW213473   4.216   4.795   6.007
 4192SOL     OW13474   1.136   2.881   1.940
 4192SOL    HW113475   1.064   2.943   1.972
 4192SOL    HW213476   1.095   2.793   1.914
 4193SOL     OW13477   6.761   0.325   0.465
 4193SOL    HW113478   6.691   0.372   0.519
 4193SOL    HW213479   6.729   0.316   0.371
 4194SOL     OW13480   4.394   0.724   4.992
 4194SOL    HW113481   4.397   0.647   5.057
 4194SOL    HW213482   4.450   0.799   5.027
 4195SOL     OW13483   4.441   5.488   1.151
 4195SOL    HW113484   4.465   5.575   1.108
 4195SOL    HW213485   4.405   5.505   1.242
 4196SOL     OW13486   6.929   2.010   3.245
 4196SOL    HW113487   7.013   2.000   3.299
 4196SOL    HW213488   6.950   1.993   3.149
 4197SOL     OW13489   3.405   6.716   6.343
 4197SOL    HW113490   3.376   6.656   6.268
 4197SOL    HW213491   3.496   6.689   6.374
 4198SOL     OW13492   6.394   1.217   2.292
 4198SOL    HW113493   6.431   1.180   2.207
 4198SOL    HW213494   6.299   1.190   2.303
 4199SOL     OW13495   0.982   3.691   6.168
 4199SOL    HW113496   1.061   3.747   6.142
 4199SOL    HW213497   0.984   3.673   6.266
 4200SOL     OW13498   4.420   1.093   4.226
 4200SOL    HW113499   4.447   1.097   4.130
 4200SOL    HW213500   4.321   1.082   4.233
 4201SOL     OW13501   5.347   0.299   3.105
 4201SOL    HW113502   5.297   0.379   3.072
 4201SOL    HW213503   5.362   0.308   3.204
 4202SOL     OW13504   4.259   5.205   0.643
 4202SOL    HW113505   4.337   5.169   0.592
 4202SOL    HW213506   4.251   5.157   0.730
 4203SOL     OW13507   5.983   5.497   6.661
 4203SOL    HW113508   5.905   5.441   6.632
 4203SOL    HW213509   6.054   5.438   6.698
 4204SOL     OW13510   3.395   3.599   5.707
 4204SOL    HW113511   3.328   3.649   5.652
 4204SOL    HW213512   3.354   3.514   5.741
 4205SOL     OW13513   3.625   5.829   5.321
 4205SOL    HW113514   3.673   5.915   5.313
 4205SOL    HW213515   3.596   5.798   5.231
 4206SOL     OW13516   1.550   2.002   4.465
 4206SOL    HW113517   1.577   2.042   4.553
 4206SOL    HW213518   1.591   2.055   4.391
 4207SOL     OW13519   1.640   2.950   1.868
 4207SOL    HW113520   1.555   2.902   1.888
 4207SOL    HW213521   1.715   2.909   1.919
 4208SOL     OW13522   2.163   3.626   5.059
 4208SOL    HW113523   2.227   3.685   5.108
 4208SOL    HW213524   2.150   3.662   4.966
 4209SOL     OW13525   7.014   6.077   2.660
 4209SOL    HW113526   0.021   5.990   2.623
 4209SOL    HW213527   6.949   6.119   2.596
 4210SOL     OW13528   4.094   3.551   4.887
 4210SOL    HW113529   4.138   3.465   4.861
 4210SOL    HW213530   4.110   3.569   4.984
 4211SOL     OW13531   3.997   2.329   5.305
 4211SOL    HW113532   4.058   2.271   5.359
 4211SOL    HW213533   4.049   2.405   5.266
 4212SOL     OW13534   0.430   1.576   2.963
 4212SOL    HW113535   0.410   1.517   2.885
 4212SOL    HW213536   0.455   1.520   3.042
 4213SOL     OW13537   3.391   0.343   2.844
 4213SOL    HW113538   3.342   0.309   2.764
 4213SOL    HW213539   3.429   0.434   2.823
 4214SOL     OW13540   0.898   5.192   4.457
 4214SOL    HW113541   0.920   5.097   4.481
 4214SOL    HW213542   0.872   5.241   4.540
 4215SOL     OW13543   4.923   6.221   5.104
 4215SOL    HW113544   4.955   6.154   5.172
 4215SOL    HW213545   4.824   6.231   5.111
 4216SOL     OW13546   2.296   6.431   2.656
 4216SOL    HW113547   2.258   6.339   2.655
 4216SOL    HW213548   2.379   6.434   2.600
 4217SOL     OW13549   1.337   0.503   2.115
 4217SOL    HW113550   1.385   0.494   2.202
 4217SOL    HW213551   1.371   0.434   2.051
 4218SOL     OW13552   2.852   1.346   1.932
 4218SOL    HW113553   2.861   1.272   1.999
 4218SOL    HW213554   2.763   1.389   1.942
 4219SOL     OW13555   3.557   6.439   4.079
 4219SOL    HW113556   3.647   6.398   4.095
 4219SOL    HW213557   3.547   6.459   3.982
 4220SOL     OW13558   4.842   1.784   1.637
 4220SOL    HW113559   4.794   1.730   1.568
 4220SOL    HW213560   4.941   1.778   1.622
 4221SOL     OW13561   0.189   5.547   6.194
 4221SOL    HW113562   0.166   5.644   6.179
 4221SOL    HW213563   0.135   5.490   6.132
 4222SOL     OW13564   4.835   1.766   3.373
 4222SOL    HW113565   4.879   1.784   3.461
 4222SOL    HW213566   4.862   1.835   3.307
 4223SOL     OW13567   4.113   3.832   1.921
 4223SOL    HW113568   4.126   3.911   1.862
 4223SOL    HW213569   4.021   3.795   1.909
 4224SOL     OW13570   4.840   3.901   4.300
 4224SOL    HW113571   4.780   3.971   4.260
 4224SOL    HW213572   4.802   3.810   4.282
 4225SOL     OW13573   0.498   2.739   4.810
 4225SOL    HW113574   0.427   2.730   4.880
 4225SOL    HW213575   0.459   2.775   4.726
 4226SOL     OW13576   0.853   5.338   4.682
 4226SOL    HW113577   0.897   5.274   4.745
 4226SOL    HW213578   0.923   5.396   4.639
 4227SOL     OW13579   5.442   5.445   1.924
 4227SOL    HW113580   5.522   5.504   1.912
 4227SOL    HW213581   5.463   5.353   1.891
 4228SOL     OW13582   1.069   5.786   4.387
 4228SOL    HW113583   0.990   5.727   4.374
 4228SOL    HW213584   1.114   5.764   4.473
 4229SOL     OW13585   5.750   5.037   5.812
 4229SOL    HW113586   5.765   5.039   5.713
 4229SOL    HW213587   5.720   4.946   5.840
 4230SOL     OW13588   1.559   0.819   2.134
 4230SOL    HW113589   1.486   0.753   2.153
 4230SOL    HW213590   1.519   0.901   2.095
 4231SOL     OW13591   5.242   1.240   5.272
 4231SOL    HW113592   5.159   1.273   5.316
 4231SOL    HW213593   5.309   1.314   5.268
 4232SOL     OW13594   2.357   5.278   4.241
 4232SOL    HW113595   2.433   5.226   4.205
 4232SOL    HW213596   2.366   5.374   4.214
 4233SOL     OW13597   5.700   6.330   3.855
 4233SOL    HW113598   5.659   6.403   3.800
 4233SOL    HW213599   5.797   6.348   3.869
 4234SOL     OW13600   1.758   5.379   5.885
 4234SOL    HW113601   1.784   5.415   5.975
 4234SOL    HW213602   1.662   5.351   5.888
 4235SOL     OW13603   6.872   4.733   6.114
 4235SOL    HW113604   6.780   4.706   6.085
 4235SOL    HW213605   6.865   4.817   6.170
 4236SOL     OW13606   0.432   5.096   1.507
 4236SOL    HW113607   0.345   5.065   1.469
 4236SOL    HW213608   0.425   5.099   1.607
 4237SOL     OW13609   6.837   4.072   3.798
 4237SOL    HW113610   6.824   4.130   3.717
 4237SOL    HW213611   6.900   4.117   3.861
 4238SOL     OW13612   1.963   1.126   3.081
 4238SOL    HW113613   1.917   1.039   3.096
 4238SOL    HW213614   1.896   1.200   3.081
 4239SOL     OW13615   3.724   1.010   2.646
 4239SOL    HW113616   3.712   1.048   2.737
 4239SOL    HW213617   3.817   1.028   2.614
 4240SOL     OW13618   0.614   5.276   1.014
 4240SOL    HW113619   0.674   5.210   1.057
 4240SOL    HW213620   0.653   5.368   1.023
 4241SOL     OW13621   6.707   1.991   6.810
 4241SOL    HW113622   6.724   1.907   6.758
 4241SOL    HW213623   6.614   2.023   6.793
 4242SOL     OW13624   2.238   2.289   4.427
 4242SOL    HW113625   2.162   2.224   4.430
 4242SOL    HW213626   2.303   2.268   4.500
 4243SOL     OW13627   5.267   1.169   3.023
 4243SOL    HW113628   5.351   1.194   3.072
 4243SOL    HW213629   5.209   1.113   3.082
 4244SOL     OW13630   3.737   3.787   2.497
 4244SOL    HW113631   3.720   3.797   2.595
 4244SOL    HW213632   3.791   3.865   2.465
 4245SOL     OW13633   6.257   2.659   5.521
 4245SOL    HW113634   6.203   2.579   5.495
 4245SOL    HW213635   6.295   2.702   5.439
 4246SOL     OW13636   6.998   4.071   2.586
 4246SOL    HW113637   0.056   4.028   2.620
 4246SOL    HW213638   6.938   4.001   2.546
 4247SOL     OW13639   6.740   6.318   5.090
 4247SOL    HW113640   6.784   6.392   5.140
 4247SOL    HW213641   6.798   6.236   5.094
 4248SOL     OW13642   1.519   2.498   5.903
 4248SOL    HW113643   1.591   2.561   5.874
 4248SOL    HW213644   1.475   2.459   5.823
 4249SOL     OW13645   5.822   2.998   5.366
 4249SOL    HW113646   5.882   2.983   5.287
 4249SOL    HW213647   5.866   3.064   5.428
 4250SOL     OW13648   6.424   5.121   4.016
 4250SOL    HW113649   6.328   5.105   3.995
 4250SOL    HW213650   6.456   5.053   4.081
 4251SOL     OW13651   5.941   4.007   0.324
 4251SOL    HW113652   5.966   4.061   0.405
 4251SOL    HW213653   5.857   3.956   0.342
 4252SOL     OW13654   6.894   5.820   5.018
 4252SOL    HW113655   6.882   5.861   4.928
 4252SOL    HW213656   6.893   5.891   5.088
 4253SOL     OW13657   4.682   0.594   1.381
 4253SOL    HW113658   4.631   0.680   1.381
 4253SOL    HW213659   4.660   0.542   1.463
 4254SOL     OW13660   1.522   3.612   1.368
 4254SOL    HW113661   1.531   3.708   1.392
 4254SOL    HW213662   1.456   3.601   1.293
 4255SOL     OW13663   6.148   3.038   4.109
 4255SOL    HW113664   6.056   3.069   4.084
 4255SOL    HW213665   6.146   3.004   4.203
 4256SOL     OW13666   1.922   6.861   1.022
 4256SOL    HW113667   1.985   6.795   0.981
 4256SOL    HW213668   1.894   6.828   1.113
 4257SOL     OW13669   3.579   1.921   5.272
 4257SOL    HW113670   3.572   2.008   5.224
 4257SOL    HW213671   3.658   1.870   5.237
 4258SOL     OW13672   6.104   6.318   1.768
 4258SOL    HW113673   6.146   6.408   1.764
 4258SOL    HW213674   6.150   6.262   1.837
 4259SOL     OW13675   2.625   1.622   6.801
 4259SOL    HW113676   2.638   1.717   6.829
 4259SOL    HW213677   2.558   1.618   6.726
 4260SOL     OW13678   4.268   5.962   3.576
 4260SOL    HW113679   4.281   5.866   3.599
 4260SOL    HW213680   4.310   6.019   3.647
 4261SOL     OW13681   2.448   6.245   2.168
 4261SOL    HW113682   2.521   6.201   2.220
 4261SOL    HW213683   2.440   6.341   2.197
 4262SOL     OW13684   1.984   5.261   6.836
 4262SOL    HW113685   1.941   5.246   6.747
 4262SOL    HW213686   1.914   5.286   6.903
 4263SOL     OW13687   2.394   5.378   5.314
 4263SOL    HW113688   2.398   5.324   5.398
 4263SOL    HW213689   2.487   5.392   5.279
 4264SOL     OW13690   0.239   1.590   0.061
 4264SOL    HW113691   0.259   1.505   0.011
 4264SOL    HW213692   0.290   1.590   0.147
 4265SOL     OW13693   6.625   2.097   0.079
 4265SOL    HW113694   6.671   2.177   0.039
 4265SOL    HW213695   6.556   2.063   0.015
 4266SOL     OW13696   2.246   5.647   0.659
 4266SOL    HW113697   2.324   5.589   0.637
 4266SOL    HW213698   2.276   5.725   0.713
 4267SOL     OW13699   2.313   3.736   5.263
 4267SOL    HW113700   2.360   3.820   5.236
 4267SOL    HW213701   2.380   3.672   5.301
 4268SOL     OW13702   1.838   0.401   0.270
 4268SOL    HW113703   1.846   0.485   0.323
 4268SOL    HW213704   1.926   0.353   0.270
 4269SOL     OW13705   3.142   3.209   0.300
 4269SOL    HW113706   3.114   3.125   0.346
 4269SOL    HW213707   3.141   3.194   0.201
 4270SOL     OW13708   3.796   2.866   4.951
 4270SOL    HW113709   3.834   2.777   4.926
 4270SOL    HW213710   3.729   2.894   4.882
 4271SOL     OW13711   0.566   6.465   5.607
 4271SOL    HW113712   0.613   6.385   5.571
 4271SOL    HW213713   0.583   6.543   5.548
 4272SOL     OW13714   6.748   4.581   5.423
 4272SOL    HW113715   6.801   4.563   5.340
 4272SOL    HW213716   6.660   4.622   5.399
 4273SOL     OW13717   4.765   0.168   5.084
 4273SOL    HW113718   4.863   0.179   5.103
 4273SOL    HW213719   4.721   0.258   5.084
 4274SOL     OW13720   1.698   6.790   3.623
 4274SOL    HW113721   1.735   6.881   3.603
 4274SOL    HW213722   1.625   6.799   3.692
 4275SOL     OW13723   0.119   0.881   5.153
 4275SOL    HW113724   0.048   0.857   5.087
 4275SOL    HW213725   0.206   0.895   5.104
 4276SOL     OW13726   2.397   5.051   3.359
 4276SOL    HW113727   2.462   4.981   3.329
 4276SOL    HW213728   2.308   5.035   3.315
 4277SOL     OW13729   6.743   5.439   3.491
 4277SOL    HW113730   6.809   5.379   3.536
 4277SOL    HW213731   6.774   5.458   3.397
 4278SOL     OW13732   6.781   6.236   4.824
 4278SOL    HW113733   6.839   6.313   4.800
 4278SOL    HW213734   6.718   6.262   4.897
 4279SOL     OW13735   3.301   6.533   5.691
 4279SOL    HW113736   3.217   6.542   5.745
 4279SOL    HW213737   3.300   6.446   5.643
 4280SOL     OW13738   6.827   2.045   5.310
 4280SOL    HW113739   6.833   1.995   5.397
 4280SOL    HW213740   6.907   2.024   5.254
 4281SOL     OW13741   1.843   4.782   5.185
 4281SOL    HW113742   1.825   4.864   5.239
 4281SOL    HW213743   1.928   4.794   5.134
 4282SOL     OW13744   2.548   2.884   0.625
 4282SOL    HW113745   2.454   2.888   0.591
 4282SOL    HW213746   2.569   2.791   0.655
 4283SOL     OW13747   2.067   0.083   4.089
 4283SOL    HW113748   2.092   0.077   4.186
 4283SOL    HW213749   1.988   0.024   4.072
 4284SOL     OW13750   5.613   0.856   2.278
 4284SOL    HW113751   5.610   0.760   2.303
 4284SOL    HW213752   5.683   0.871   2.208
 4285SOL     OW13753   0.392   6.794   5.928
 4285SOL    HW113754   0.303   6.839   5.920
 4285SOL    HW213755   0.436   6.822   6.013
 4286SOL     OW13756   4.773   5.621   6.822
 4286SOL    HW113757   4.773   5.542   6.883
 4286SOL    HW213758   4.679   5.656   6.813
 4287SOL     OW13759   5.517   6.942   5.109
 4287SOL    HW113760   5.538   6.973   5.016
 4287SOL    HW213761   5.601   6.930   5.161
 4288SOL     OW13762   0.933   7.022   3.619
 4288SOL    HW113763   0.864   0.041   3.563
 4288SOL    HW213764   1.019   0.047   3.612
 4289SOL     OW13765   5.306   2.521   1.760
 4289SOL    HW113766   5.277   2.455   1.691
 4289SOL    HW213767   5.345   2.473   1.838
 4290SOL     OW13768   2.289   0.148   2.124
 4290SOL    HW113769   2.254   0.055   2.134
 4290SOL    HW213770   2.267   0.182   2.033
 4291SOL     OW13771   5.254   2.985   0.675
 4291SOL    HW113772   5.214   2.989   0.766
 4291SOL    HW213773   5.313   2.905   0.668
 4292SOL     OW13774   6.224   4.269   5.756
 4292SOL    HW113775   6.282   4.350   5.764
 4292SOL    HW213776   6.266   4.204   5.692
 4293SOL     OW13777   6.641   3.645   6.584
 4293SOL    HW113778   6.719   3.613   6.530
 4293SOL    HW213779   6.610   3.572   6.645
 4294SOL     OW13780   3.774   2.840   6.231
 4294SOL    HW113781   3.698   2.890   6.273
 4294SOL    HW213782   3.771   2.744   6.261
 4295SOL     OW13783   3.187   0.105   4.932
 4295SOL    HW113784   3.272   0.056   4.916
 4295SOL    HW213785   3.139   0.119   4.846
 4296SOL     OW13786   2.307   1.627   1.064
 4296SOL    HW113787   2.330   1.587   0.975
 4296SOL    HW213788   2.208   1.622   1.077
 4297SOL     OW13789   4.881   6.690   4.934
 4297SOL    HW113790   4.939   6.611   4.950
 4297SOL    HW213791   4.884   6.751   5.014
 4298SOL     OW13792   1.877   5.988   1.249
 4298SOL    HW113793   1.836   6.079   1.259
 4298SOL    HW213794   1.975   5.993   1.270
 4299SOL     OW13795   0.945   3.249   6.079
 4299SOL    HW113796   0.932   3.265   6.176
 4299SOL    HW213797   0.903   3.162   6.052
 4300SOL     OW13798   3.202   0.970   6.784
 4300SOL    HW113799   3.115   1.010   6.754
 4300SOL    HW213800   3.244   1.029   6.852
 4301SOL     OW13801   2.014   1.602   0.242
 4301SOL    HW113802   1.979   1.681   0.292
 4301SOL    HW213803   2.052   1.535   0.306
 4302SOL     OW13804   1.170   6.095   6.627
 4302SOL    HW113805   1.154   6.150   6.545
 4302SOL    HW213806   1.084   6.088   6.679
 4303SOL     OW13807   6.487   4.117   3.143
 4303SOL    HW113808   6.581   4.096   3.169
 4303SOL    HW213809   6.426   4.095   3.219
 4304SOL     OW13810   3.310   3.686   3.825
 4304SOL    HW113811   3.371   3.757   3.860
 4304SOL    HW213812   3.219   3.697   3.866
 4305SOL     OW13813   6.418   1.090   3.239
 4305SOL    HW113814   6.450   1.002   3.272
 4305SOL    HW213815   6.488   1.132   3.181
 4306SOL     OW13816   0.373   4.000   6.158
 4306SOL    HW113817   0.354   4.074   6.223
 4306SOL    HW213818   0.441   3.938   6.197
 4307SOL     OW13819   4.748   4.056   5.657
 4307SOL    HW113820   4.815   4.020   5.722
 4307SOL    HW213821   4.660   4.065   5.702
 4308SOL     OW13822   5.423   6.321   5.366
 4308SOL    HW113823   5.337   6.288   5.328
 4308SOL    HW213824   5.457   6.397   5.311
 4309SOL     OW13825   1.576   0.710   0.413
 4309SOL    HW113826   1.586   0.804   0.379
 4309SOL    HW213827   1.529   0.711   0.501
 4310SOL     OW13828   1.754   2.390   3.401
 4310SOL    HW113829   1.745   2.322   3.474
 4310SOL    HW213830   1.763   2.344   3.313
 4311SOL     OW13831   1.104   6.103   3.807
 4311SOL    HW113832   1.042   6.179   3.828
 4311SOL    HW213833   1.199   6.134   3.815
 4312SOL     OW13834   1.936   6.296   1.764
 4312SOL    HW113835   1.852   6.319   1.715
 4312SOL    HW213836   1.917   6.292   1.863
 4313SOL     OW13837   5.716   0.945   1.484
 4313SOL    HW113838   5.624   0.976   1.460
 4313SOL    HW213839   5.717   0.845   1.491
 4314SOL     OW13840   4.869   2.831   3.128
 4314SOL    HW113841   4.861   2.929   3.110
 4314SOL    HW213842   4.915   2.787   3.051
 4315SOL     OW13843   2.639   0.370   2.073
 4315SOL    HW113844   2.648   0.276   2.103
 4315SOL    HW213845   2.604   0.426   2.148
 4316SOL     OW13846   5.307   0.048   1.086
 4316SOL    HW113847   5.300   6.977   1.061
 4316SOL    HW213848   5.396   0.084   1.057
 4317SOL     OW13849   3.724   1.422   4.783
 4317SOL    HW113850   3.683   1.491   4.842
 4317SOL    HW213851   3.738   1.459   4.691
 4318SOL     OW13852   1.078   3.980   3.966
 4318SOL    HW113853   1.107   3.981   4.061
 4318SOL    HW213854   0.980   4.002   3.961
 4319SOL     OW13855   2.587   3.278   6.676
 4319SOL    HW113856   2.614   3.330   6.757
 4319SOL    HW213857   2.490   3.253   6.683
 4320SOL     OW13858   1.157   6.650   2.662
 4320SOL    HW113859   1.254   6.640   2.640
 4320SOL    HW213860   1.147   6.708   2.742
 4321SOL     OW13861   6.189   0.927   4.885
 4321SOL    HW113862   6.152   0.846   4.929
 4321SOL    HW213863   6.116   0.978   4.841
 4322SOL     OW13864   0.087   0.912   6.666
 4322SOL    HW113865   0.077   0.899   6.567
 4322SOL    HW213866   0.130   1.000   6.685
 4323SOL     OW13867   5.726   2.821   2.440
 4323SOL    HW113868   5.715   2.722   2.436
 4323SOL    HW213869   5.824   2.843   2.435
 4324SOL     OW13870   5.933   3.776   6.655
 4324SOL    HW113871   5.955   3.836   6.578
 4324SOL    HW213872   5.904   3.687   6.621
 4325SOL     OW13873   2.189   0.783   0.080
 4325SOL    HW113874   2.163   0.822   0.168
 4325SOL    HW213875   2.284   0.805   0.060
 4326SOL     OW13876   6.348   3.604   5.169
 4326SOL    HW113877   6.396   3.692   5.176
 4326SOL    HW213878   6.287   3.606   5.090
 4327SOL     OW13879   5.391   5.933   2.446
 4327SOL    HW113880   5.347   5.879   2.518
 4327SOL    HW213881   5.453   5.874   2.394
 4328SOL     OW13882   4.614   4.725   6.046
 4328SOL    HW113883   4.584   4.784   6.121
 4328SOL    HW213884   4.624   4.780   5.962
 4329SOL     OW13885   3.560   2.033   5.721
 4329SOL    HW113886   3.578   2.103   5.652
 4329SOL    HW213887   3.463   2.010   5.720
 4330SOL     OW13888   2.386   0.614   5.931
 4330SOL    HW113889   2.417   0.619   5.836
 4330SOL    HW213890   2.312   0.547   5.939
 4331SOL     OW13891   5.209   3.172   0.477
 4331SOL    HW113892   5.226   3.110   0.554
 4331SOL    HW213893   5.287   3.171   0.415
 4332SOL     OW13894   5.041   3.214   2.024
 4332SOL    HW113895   5.065   3.292   2.081
 4332SOL    HW213896   4.978   3.243   1.952
 4333SOL     OW13897   5.643   1.705   5.066
 4333SOL    HW113898   5.550   1.671   5.055
 4333SOL    HW213899   5.641   1.793   5.114
 4334SOL     OW13900   3.090   2.084   1.863
 4334SOL    HW113901   3.028   2.147   1.817
 4334SOL    HW213902   3.108   2.116   1.956
 4335SOL     OW13903   3.109   3.714   4.162
 4335SOL    HW113904   3.097   3.787   4.230
 4335SOL    HW213905   3.206   3.695   4.151
 4336SOL     OW13906   1.824   6.020   5.470
 4336SOL    HW113907   1.733   6.056   5.446
 4336SOL    HW213908   1.814   5.951   5.541
 4337SOL     OW13909   0.583   5.110   0.056
 4337SOL    HW113910   0.672   5.071   0.080
 4337SOL    HW213911   0.580   5.206   0.087
 4338SOL     OW13912   6.117   6.112   4.848
 4338SOL    HW113913   6.052   6.070   4.910
 4338SOL    HW213914   6.069   6.149   4.768
 4339SOL     OW13915   6.724   2.689   5.013
 4339SOL    HW113916   6.787   2.635   4.958
 4339SOL    HW213917   6.647   2.631   5.041
 4340SOL     OW13918   6.225   3.399   2.348
 4340SOL    HW113919   6.285   3.427   2.272
 4340SOL    HW213920   6.243   3.303   2.371
 4341SOL     OW13921   1.748   3.783   1.992
 4341SOL    HW113922   1.743   3.687   2.020
 4341SOL    HW213923   1.661   3.809   1.949
 4342SOL     OW13924   0.547   2.873   3.295
 4342SOL    HW113925   0.516   2.954   3.344
 4342SOL    HW213926   0.635   2.892   3.251
 4343SOL     OW13927   3.326   0.815   0.303
 4343SOL    HW113928   3.359   0.777   0.217
 4343SOL    HW213929   3.269   0.747   0.350
 4344SOL     OW13930   1.977   4.657   3.242
 4344SOL    HW113931   2.061   4.626   3.286
 4344SOL    HW213932   1.934   4.727   3.298
 4345SOL     OW13933   1.846   2.729   5.328
 4345SOL    HW113934   1.813   2.637   5.306
 4345SOL    HW213935   1.768   2.789   5.345
 4346SOL     OW13936   2.458   3.248   1.593
 4346SOL    HW113937   2.429   3.303   1.672
 4346SOL    HW213938   2.542   3.286   1.555
 4347SOL     OW13939   6.699   0.156   1.722
 4347SOL    HW113940   6.720   0.220   1.796
 4347SOL    HW213941   6.707   0.062   1.755
 4348SOL     OW13942   1.061   3.688   1.714
 4348SOL    HW113943   1.027   3.780   1.695
 4348SOL    HW213944   0.984   3.624   1.713
 4349SOL     OW13945   0.359   1.187   3.698
 4349SOL    HW113946   0.325   1.107   3.649
 4349SOL    HW213947   0.293   1.213   3.769
 4350SOL     OW13948   5.318   2.423   4.968
 4350SOL    HW113949   5.375   2.361   4.914
 4350SOL    HW213950   5.268   2.484   4.907
 4351SOL     OW13951   2.890   6.058   2.222
 4351SOL    HW113952   2.960   6.017   2.280
 4351SOL    HW213953   2.881   6.004   2.138
 4352SOL     OW13954   0.617   1.959   2.251
 4352SOL    HW113955   0.678   1.894   2.297
 4352SOL    HW213956   0.645   2.052   2.274
 4353SOL     OW13957   2.329   5.908   0.347
 4353SOL    HW113958   2.261   5.841   0.379
 4353SOL    HW213959   2.289   5.962   0.272
 4354SOL     OW13960   2.152   0.264   6.918
 4354SOL    HW113961   2.188   0.172   6.902
 4354SOL    HW213962   2.227   0.330   6.916
 4355SOL     OW13963   3.843   0.999   1.253
 4355SOL    HW113964   3.818   0.993   1.156
 4355SOL    HW213965   3.934   1.039   1.262
 4356SOL     OW13966   4.598   4.178   1.279
 4356SOL    HW113967   4.615   4.104   1.214
 4356SOL    HW213968   4.633   4.153   1.369
 4357SOL     OW13969   6.171   0.816   0.278
 4357SOL    HW113970   6.263   0.853   0.269
 4357SOL    HW213971   6.160   0.773   0.367
 4358SOL     OW13972   0.538   5.904   1.583
 4358SOL    HW113973   0.477   5.979   1.557
 4358SOL    HW213974   0.628   5.941   1.607
 4359SOL     OW13975   0.885   2.516   4.491
 4359SOL    HW113976   0.971   2.550   4.453
 4359SOL    HW213977   0.905   2.452   4.565
 4360SOL     OW13978   0.508   4.119   1.904
 4360SOL    HW113979   0.479   4.134   1.999
 4360SOL    HW213980   0.542   4.025   1.895
 4361SOL     OW13981   4.441   2.414   1.755
 4361SOL    HW113982   4.412   2.507   1.731
 4361SOL    HW213983   4.507   2.381   1.689
 4362SOL     OW13984   6.297   3.743   5.628
 4362SOL    HW113985   6.207   3.776   5.599
 4362SOL    HW213986   6.341   3.812   5.685
 4363SOL     OW13987   5.190   2.758   5.400
 4363SOL    HW113988   5.152   2.670   5.369
 4363SOL    HW213989   5.232   2.805   5.323
 4364SOL     OW13990   3.196   4.148   4.828
 4364SOL    HW113991   3.136   4.227   4.843
 4364SOL    HW213992   3.281   4.161   4.880
 4365SOL     OW13993   3.987   2.126   2.363
 4365SOL    HW113994   4.061   2.191   2.344
 4365SOL    HW213995   3.900   2.174   2.362
 4366SOL     OW13996   6.460   6.608   1.420
 4366SOL    HW113997   6.486   6.678   1.487
 4366SOL    HW213998   6.363   6.587   1.430
 4367SOL     OW13999   1.100   5.399   5.658
 4367SOL    HW114000   1.161   5.475   5.679
 4367SOL    HW214001   1.053   5.416   5.571
 4368SOL     OW14002   5.502   4.389   1.747
 4368SOL    HW114003   5.442   4.309   1.740
 4368SOL    HW214004   5.536   4.397   1.840
 4369SOL     OW14005   4.651   4.442   2.121
 4369SOL    HW114006   4.595   4.371   2.079
 4369SOL    HW214007   4.653   4.523   2.062
 4370SOL     OW14008   5.876   4.494   3.541
 4370SOL    HW114009   5.842   4.568   3.598
 4370SOL    HW214010   5.803   4.426   3.527
 4371SOL     OW14011   6.232   0.536   1.743
 4371SOL    HW114012   6.298   0.466   1.719
 4371SOL    HW214013   6.280   0.619   1.770
 4372SOL     OW14014   4.938   1.411   2.798
 4372SOL    HW114015   4.885   1.468   2.736
 4372SOL    HW214016   4.878   1.343   2.841
 4373SOL     OW14017   6.784   2.338   6.673
 4373SOL    HW114018   6.747   2.280   6.746
 4373SOL    HW214019   6.838   2.412   6.713
 4374SOL     OW14020   1.519   2.261   2.327
 4374SOL    HW114021   1.608   2.221   2.309
 4374SOL    HW214022   1.503   2.262   2.426
 4375SOL     OW14023   2.523   6.427   4.242
 4375SOL    HW114024   2.611   6.470   4.226
 4375SOL    HW214025   2.471   6.480   4.310
 4376SOL     OW14026   6.726   0.303   2.496
 4376SOL    HW114027   6.797   0.291   2.427
 4376SOL    HW214028   6.638   0.321   2.451
 4377SOL     OW14029   5.991   3.629   0.236
 4377SOL    HW114030   6.084   3.649   0.267
 4377SOL    HW214031   5.956   3.550   0.286
 4378SOL     OW14032   2.268   0.664   3.971
 4378SOL    HW114033   2.269   0.687   3.874
 4378SOL    HW214034   2.196   0.598   3.989
 4379SOL     OW14035   2.677   1.091   5.073
 4379SOL    HW114036   2.605   1.023   5.087
 4379SOL    HW214037   2.674   1.159   5.147
 4380SOL     OW14038   1.174   1.662   1.455
 4380SOL    HW114039   1.143   1.672   1.550
 4380SOL    HW214040   1.222   1.575   1.445
 4381SOL     OW14041   1.320   5.722   5.299
 4381SOL    HW114042   1.395   5.728   5.233
 4381SOL    HW214043   1.353   5.680   5.383
 4382SOL     OW14044   0.341   3.620   5.097
 4382SOL    HW114045   0.394   3.706   5.098
 4382SOL    HW214046   0.401   3.544   5.120
 4383SOL     OW14047   5.366   2.657   5.831
 4383SOL    HW114048   5.351   2.703   5.744
 4383SOL    HW214049   5.426   2.578   5.818
 4384SOL     OW14050   0.151   0.006   3.428
 4384SOL    HW114051   0.053   0.022   3.444
 4384SOL    HW214052   0.169   6.933   3.433
 4385SOL     OW14053   5.529   1.966   4.757
 4385SOL    HW114054   5.594   1.921   4.697
 4385SOL    HW214055   5.442   1.978   4.709
 4386SOL     OW14056   1.401   3.910   5.963
 4386SOL    HW114057   1.408   3.841   5.891
 4386SOL    HW214058   1.435   3.998   5.929
 4387SOL     OW14059   6.840   2.924   0.628
 4387SOL    HW114060   6.920   2.943   0.685
 4387SOL    HW214061   6.822   2.826   0.628
 4388SOL     OW14062   5.118   1.948   6.347
 4388SOL    HW114063   5.154   1.889   6.275
 4388SOL    HW214064   5.166   2.036   6.345
 4389SOL     OW14065   0.115   3.610   1.728
 4389SOL    HW114066   0.157   3.544   1.667
 4389SOL    HW214067   0.125   3.702   1.690
 4390SOL     OW14068   5.594   0.280   0.604
 4390SOL    HW114069   5.602   0.325   0.693
 4390SOL    HW214070   5.505   0.235   0.598
 4391SOL     OW14071   1.784   5.444   6.145
 4391SOL    HW114072   1.714   5.516   6.141
 4391SOL    HW214073   1.816   5.434   6.239
 4392SOL     OW14074   1.402   1.244   4.003
 4392SOL    HW114075   1.335   1.169   4.002
 4392SOL    HW214076   1.463   1.234   3.924
 4393SOL     OW14077   5.959   6.978   1.398
 4393SOL    HW114078   6.037   6.996   1.458
 4393SOL    HW214079   5.991   6.937   1.313
 4394SOL     OW14080   1.412   0.126   1.643
 4394SOL    HW114081   1.479   0.081   1.584
 4394SOL    HW214082   1.379   0.209   1.599
 4395SOL     OW14083   2.585   6.559   2.141
 4395SOL    HW114084   2.630   6.493   2.081
 4395SOL    HW214085   2.648   6.586   2.213
 4396SOL     OW14086   1.385   0.469   3.204
 4396SOL    HW114087   1.425   0.441   3.117
 4396SOL    HW214088   1.315   0.539   3.187
 4397SOL     OW14089   2.801   2.344   3.822
 4397SOL    HW114090   2.820   2.355   3.724
 4397SOL    HW214091   2.746   2.422   3.854
 4398SOL     OW14092   2.067   3.593   6.177
 4398SOL    HW114093   2.048   3.686   6.208
 4398SOL    HW214094   2.135   3.595   6.104
 4399SOL     OW14095   2.502   6.376   2.435
 4399SOL    HW114096   2.582   6.319   2.418
 4399SOL    HW214097   2.508   6.458   2.378
 4400SOL     OW14098   2.051   6.441   4.202
 4400SOL    HW114099   2.143   6.432   4.164
 4400SOL    HW214100   2.046   6.390   4.288
 4401SOL     OW14101   3.628   6.471   5.607
 4401SOL    HW114102   3.699   6.432   5.666
 4401SOL    HW214103   3.568   6.398   5.575
 4402SOL     OW14104   1.725   0.529   3.123
 4402SOL    HW114105   1.681   0.542   3.212
 4402SOL    HW214106   1.658   0.494   3.058
 4403SOL     OW14107   0.930   5.046   1.504
 4403SOL    HW114108   0.903   5.140   1.525
 4403SOL    HW214109   0.849   4.991   1.486
 4404SOL     OW14110   1.006   5.968   6.303
 4404SOL    HW114111   1.083   6.029   6.317
 4404SOL    HW214112   0.983   5.965   6.205
 4405SOL     OW14113   2.816   4.899   3.588
 4405SOL    HW114114   2.766   4.841   3.652
 4405SOL    HW214115   2.912   4.906   3.617
 4406SOL     OW14116   6.252   3.849   2.210
 4406SOL    HW114117   6.275   3.913   2.283
 4406SOL    HW214118   6.153   3.843   2.201
 4407SOL     OW14119   0.015   6.288   2.034
 4407SOL    HW114120   0.006   6.199   1.988
 4407SOL    HW214121   0.068   6.350   1.976
 4408SOL     OW14122   3.971   6.815   0.349
 4408SOL    HW114123   3.891   6.759   0.372
 4408SOL    HW214124   3.949   6.876   0.274
 4409SOL     OW14125   3.866   0.627   2.290
 4409SOL    HW114126   3.844   0.687   2.212
 4409SOL    HW214127   3.894   0.683   2.368
 4410SOL     OW14128   0.530   5.741   0.838
 4410SOL    HW114129   0.451   5.680   0.838
 4410SOL    HW214130   0.502   5.833   0.811
 4411SOL     OW14131   3.244   4.593   5.831
 4411SOL    HW114132   3.275   4.563   5.740
 4411SOL    HW214133   3.249   4.517   5.895
 4412SOL     OW14134   4.244   6.590   3.433
 4412SOL    HW114135   4.269   6.542   3.517
 4412SOL    HW214136   4.302   6.670   3.421
 4413SOL     OW14137   3.259   0.228   4.389
 4413SOL    HW114138   3.245   0.236   4.488
 4413SOL    HW214139   3.271   0.320   4.350
 4414SOL     OW14140   4.995   4.919   2.040
 4414SOL    HW114141   5.090   4.905   2.067
 4414SOL    HW214142   4.991   4.974   1.957
 4415SOL     OW14143   3.338   3.904   1.734
 4415SOL    HW114144   3.343   4.001   1.712
 4415SOL    HW214145   3.407   3.881   1.802
 4416SOL     OW14146   3.945   1.807   4.376
 4416SOL    HW114147   3.930   1.753   4.293
 4416SOL    HW214148   3.956   1.904   4.351
 4417SOL     OW14149   0.161   3.797   3.809
 4417SOL    HW114150   0.258   3.782   3.829
 4417SOL    HW214151   0.105   3.763   3.885
 4418SOL     OW14152   6.070   0.471   0.881
 4418SOL    HW114153   6.049   0.537   0.953
 4418SOL    HW214154   6.169   0.460   0.873
 4419SOL     OW14155   6.512   5.751   6.043
 4419SOL    HW114156   6.522   5.750   6.143
 4419SOL    HW214157   6.452   5.676   6.015
 4420SOL     OW14158   3.474   2.118   1.104
 4420SOL    HW114159   3.541   2.083   1.169
 4420SOL    HW214160   3.382   2.092   1.133
 4421SOL     OW14161   1.406   2.871   4.363
 4421SOL    HW114162   1.449   2.804   4.302
 4421SOL    HW214163   1.360   2.822   4.437
 4422SOL     OW14164   0.227   4.629   6.895
 4422SOL    HW114165   0.302   4.641   6.960
 4422SOL    HW214166   0.140   4.626   6.946
 4423SOL     OW14167   5.752   4.073   5.846
 4423SOL    HW114168   5.742   4.141   5.919
 4423SOL    HW214169   5.848   4.068   5.818
 4424SOL     OW14170   4.802   6.102   4.280
 4424SOL    HW114171   4.822   6.055   4.195
 4424SOL    HW214172   4.707   6.085   4.306
 4425SOL     OW14173   1.855   5.524   1.328
 4425SOL    HW114174   1.787   5.459   1.361
 4425SOL    HW214175   1.809   5.609   1.300
 4426SOL     OW14176   0.879   6.953   4.334
 4426SOL    HW114177   0.922   6.887   4.395
 4426SOL    HW214178   0.909   6.936   4.240
 4427SOL     OW14179   3.434   6.229   2.994
 4427SOL    HW114180   3.493   6.273   2.925
 4427SOL    HW214181   3.489   6.166   3.049
 4428SOL     OW14182   5.631   1.072   3.783
 4428SOL    HW114183   5.635   1.131   3.863
 4428SOL    HW214184   5.544   1.084   3.736
 4429SOL     OW14185   2.644   6.145   3.343
 4429SOL    HW114186   2.696   6.229   3.332
 4429SOL    HW214187   2.683   6.073   3.286
 4430SOL     OW14188   5.117   4.795   4.438
 4430SOL    HW114189   5.038   4.814   4.378
 4430SOL    HW214190   5.200   4.829   4.395
 4431SOL     OW14191   3.340   0.821   3.695
 4431SOL    HW114192   3.347   0.771   3.609
 4431SOL    HW214193   3.260   0.788   3.746
 4432SOL     OW14194   1.577   3.370   6.264
 4432SOL    HW114195   1.652   3.423   6.224
 4432SOL    HW214196   1.490   3.405   6.231
 4433SOL     OW14197   1.124   1.160   4.770
 4433SOL    HW114198   1.089   1.073   4.807
 4433SOL    HW214199   1.117   1.158   4.670
 4434SOL     OW14200   6.827   1.912   1.357
 4434SOL    HW114201   6.739   1.935   1.400
 4434SOL    HW214202   6.846   1.815   1.370
 4435SOL     OW14203   2.642   3.578   0.233
 4435SOL    HW114204   2.709   3.572   0.159
 4435SOL    HW214205   2.577   3.503   0.226
 4436SOL     OW14206   4.666   1.673   1.423
 4436SOL    HW114207   4.592   1.716   1.473
 4436SOL    HW214208   4.632   1.638   1.336
 4437SOL     OW14209   0.146   3.678   2.144
 4437SOL    HW114210   0.146   3.603   2.078
 4437SOL    HW214211   0.232   3.730   2.136
 4438SOL     OW14212   4.358   7.016   5.935
 4438SOL    HW114213   4.351   0.088   5.913
 4438SOL    HW214214   4.449   6.982   5.909
 4439SOL     OW14215   2.149   6.751   2.726
 4439SOL    HW114216   2.117   6.806   2.803
 4439SOL    HW214217   2.071   6.723   2.670
 4440SOL     OW14218   1.691   4.972   0.822
 4440SOL    HW114219   1.707   4.958   0.724
 4440SOL    HW214220   1.692   5.069   0.843
 4441SOL     OW14221   0.749   1.475   6.983
 4441SOL    HW114222   0.765   1.499   6.887
 4441SOL    HW214223   0.836   1.456   0.002
 4442SOL     OW14224   1.905   4.767   6.454
 4442SOL    HW114225   1.999   4.735   6.468
 4442SOL    HW214226   1.866   4.721   6.374
 4443SOL     OW14227   0.395   5.012   6.909
 4443SOL    HW114228   0.462   5.046   6.975
 4443SOL    HW214229   0.329   5.084   6.888
 4444SOL     OW14230   5.016   3.912   0.534
 4444SOL    HW114231   4.937   3.954   0.579
 4444SOL    HW214232   5.095   3.918   0.595
 4445SOL     OW14233   0.440   5.780   6.840
 4445SOL    HW114234   0.348   5.743   6.821
 4445SOL    HW214235   0.434   5.848   6.913
 4446SOL     OW14236   4.924   1.011   0.663
 4446SOL    HW114237   4.889   1.101   0.689
 4446SOL    HW214238   4.992   0.981   0.730
 4447SOL     OW14239   5.542   4.889   5.393
 4447SOL    HW114240   5.542   4.985   5.363
 4447SOL    HW214241   5.494   4.834   5.326
 4448SOL     OW14242   3.006   6.619   2.137
 4448SOL    HW114243   2.925   6.606   2.194
 4448SOL    HW214244   3.001   6.708   2.091
 4449SOL     OW14245   3.767   1.061   6.604
 4449SOL    HW114246   3.780   0.962   6.590
 4449SOL    HW214247   3.816   1.111   6.532
 4450SOL     OW14248   3.650   0.220   0.074
 4450SOL    HW114249   3.579   0.258   0.014
 4450SOL    HW214250   3.621   0.130   0.105
 4451SOL     OW14251   4.885   4.476   3.705
 4451SOL    HW114252   4.867   4.378   3.704
 4451SOL    HW214253   4.810   4.524   3.751
 4452SOL     OW14254   5.003   6.563   4.019
 4452SOL    HW114255   4.917   6.518   4.044
 4452SOL    HW214256   5.029   6.536   3.926
 4453SOL     OW14257   0.342   3.484   1.253
 4453SOL    HW114258   0.285   3.552   1.206
 4453SOL    HW214259   0.404   3.441   1.186
 4454SOL     OW14260   1.016   2.282   0.267
 4454SOL    HW114261   0.925   2.242   0.253
 4454SOL    HW214262   1.071   2.270   0.184
 4455SOL     OW14263   6.786   5.947   4.783
 4455SOL    HW114264   6.807   6.036   4.823
 4455SOL    HW214265   6.705   5.955   4.724
 4456SOL     OW14266   1.874   6.965   3.986
 4456SOL    HW114267   1.961   6.915   3.980
 4456SOL    HW214268   1.817   6.944   3.907
 4457SOL     OW14269   1.526   1.648   4.726
 4457SOL    HW114270   1.520   1.742   4.760
 4457SOL    HW214271   1.608   1.638   4.669
 4458SOL     OW14272   1.965   3.913   1.452
 4458SOL    HW114273   1.992   3.819   1.475
 4458SOL    HW214274   1.916   3.953   1.529
 4459SOL     OW14275   1.793   2.512   4.289
 4459SOL    HW114276   1.851   2.587   4.258
 4459SOL    HW214277   1.772   2.452   4.212
 4460SOL     OW14278   0.227   3.663   4.086
 4460SOL    HW114279   0.271   3.752   4.092
 4460SOL    HW214280   0.128   3.675   4.083
 4461SOL     OW14281   2.558   1.222   1.433
 4461SOL    HW114282   2.618   1.266   1.499
 4461SOL    HW214283   2.591   1.241   1.340
 4462SOL     OW14284   6.417   4.076   2.024
 4462SOL    HW114285   6.422   3.980   1.996
 4462SOL    HW214286   6.503   4.101   2.070
 4463SOL     OW14287   5.963   2.119   1.609
 4463SOL    HW114288   5.966   2.019   1.610
 4463SOL    HW214289   5.911   2.151   1.530
 4464SOL     OW14290   0.327   5.442   0.500
 4464SOL    HW114291   0.373   5.377   0.440
 4464SOL    HW214292   0.357   5.427   0.594
 4465SOL     OW14293   2.604   5.986   0.664
 4465SOL    HW114294   2.621   5.957   0.570
 4465SOL    HW214295   2.537   5.926   0.707
 4466SOL     OW14296   1.733   2.032   3.929
 4466SOL    HW114297   1.703   1.952   3.878
 4466SOL    HW214298   1.832   2.045   3.916
 4467SOL     OW14299   3.448   5.767   3.146
 4467SOL    HW114300   3.351   5.743   3.159
 4467SOL    HW214301   3.500   5.739   3.226
 4468SOL     OW14302   1.115   3.236   2.245
 4468SOL    HW114303   1.048   3.188   2.188
 4468SOL    HW214304   1.176   3.169   2.287
 4469SOL     OW14305   2.658   0.099   1.628
 4469SOL    HW114306   2.667   0.013   1.679
 4469SOL    HW214307   2.587   0.155   1.670
 4470SOL     OW14308   1.578   0.374   2.284
 4470SOL    HW114309   1.642   0.298   2.286
 4470SOL    HW214310   1.614   0.447   2.226
 4471SOL     OW14311   1.909   1.815   6.128
 4471SOL    HW114312   1.893   1.847   6.222
 4471SOL    HW214313   2.006   1.793   6.116
 4472SOL     OW14314   1.837   3.089   0.960
 4472SOL    HW114315   1.855   3.041   0.874
 4472SOL    HW214316   1.740   3.113   0.965
 4473SOL     OW14317   0.110   3.316   4.343
 4473SOL    HW114318   0.138   3.268   4.426
 4473SOL    HW214319   0.191   3.350   4.295
 4474SOL     OW14320   3.191   0.515   1.777
 4474SOL    HW114321   3.223   0.422   1.795
 4474SOL    HW214322   3.237   0.579   1.840
 4475SOL     OW14323   0.831   3.541   1.739
 4475SOL    HW114324   0.850   3.555   1.836
 4475SOL    HW214325   0.801   3.447   1.724
 4476SOL     OW14326   5.409   1.626   3.775
 4476SOL    HW114327   5.390   1.529   3.758
 4476SOL    HW214328   5.355   1.657   3.853
 4477SOL     OW14329   2.347   0.244   5.892
 4477SOL    HW114330   2.250   0.272   5.893
 4477SOL    HW214331   2.379   0.232   5.986
 4478SOL     OW14332   1.495   0.108   0.537
 4478SOL    HW114333   1.424   0.124   0.469
 4478SOL    HW214334   1.487   0.014   0.572
 4479SOL     OW14335   0.904   2.909   0.697
 4479SOL    HW114336   0.910   2.954   0.786
 4479SOL    HW214337   0.937   2.815   0.705
 4480SOL     OW14338   6.943   5.937   3.985
 4480SOL    HW114339   6.904   6.024   3.954
 4480SOL    HW214340   0.015   5.949   4.004
 4481SOL     OW14341   2.879   4.994   6.230
 4481SOL    HW114342   2.839   4.947   6.308
 4481SOL    HW214343   2.903   5.088   6.257
 4482SOL     OW14344   2.949   5.390   6.691
 4482SOL    HW114345   2.954   5.322   6.764
 4482SOL    HW214346   3.038   5.396   6.645
 4483SOL     OW14347   0.506   2.776   1.690
 4483SOL    HW114348   0.505   2.676   1.696
 4483SOL    HW214349   0.413   2.810   1.696
 4484SOL     OW14350   2.568   2.700   6.714
 4484SOL    HW114351   2.568   2.798   6.732
 4484SOL    HW214352   2.517   2.681   6.630
 4485SOL     OW14353   5.297   2.485   4.625
 4485SOL    HW114354   5.350   2.526   4.551
 4485SOL    HW214355   5.261   2.557   4.684
 4486SOL     OW14356   4.721   4.961   5.258
 4486SOL    HW114357   4.820   4.958   5.265
 4486SOL    HW214358   4.688   4.882   5.206
 4487SOL     OW14359   1.461   2.483   6.760
 4487SOL    HW114360   1.518   2.547   6.812
 4487SOL    HW214361   1.461   2.508   6.664
 4488SOL     OW14362   0.565   4.557   4.457
 4488SOL    HW114363   0.487   4.616   4.480
 4488SOL    HW214364   0.563   4.475   4.514
 4489SOL     OW14365   4.595   5.136   5.443
 4489SOL    HW114366   4.668   5.109   5.380
 4489SOL    HW214367   4.565   5.229   5.421
 4490SOL     OW14368   5.130   1.784   1.018
 4490SOL    HW114369   5.103   1.845   0.943
 4490SOL    HW214370   5.054   1.776   1.083
 4491SOL     OW14371   1.073   2.617   3.435
 4491SOL    HW114372   1.029   2.593   3.348
 4491SOL    HW214373   1.170   2.594   3.430
 4492SOL     OW14374   5.849   0.329   1.716
 4492SOL    HW114375   5.878   0.342   1.811
 4492SOL    HW214376   5.864   0.414   1.665
 4493SOL     OW14377   5.073   0.996   5.040
 4493SOL    HW114378   5.079   0.897   5.047
 4493SOL    HW214379   5.164   1.036   5.050
 4494SOL     OW14380   6.955   0.321   0.178
 4494SOL    HW114381   6.954   0.238   0.234
 4494SOL    HW214382   6.886   0.313   0.106
 4495SOL     OW14383   3.844   5.993   2.267
 4495SOL    HW114384   3.800   6.053   2.200
 4495SOL    HW214385   3.932   5.963   2.232
 4496SOL     OW14386   3.823   5.954   6.314
 4496SOL    HW114387   3.872   6.000   6.240
 4496SOL    HW214388   3.725   5.970   6.303
 4497SOL     OW14389   3.994   1.941   6.212
 4497SOL    HW114390   3.979   1.852   6.169
 4497SOL    HW214391   3.954   2.013   6.156
 4498SOL     OW14392   0.391   5.102   5.733
 4498SOL    HW114393   0.320   5.121   5.665
 4498SOL    HW214394   0.360   5.030   5.794
 4499SOL     OW14395   6.061   1.961   2.539
 4499SOL    HW114396   6.132   1.959   2.469
 4499SOL    HW214397   6.093   2.014   2.618
 4500SOL     OW14398   3.364   5.303   0.148
 4500SOL    HW114399   3.299   5.361   0.099
 4500SOL    HW214400   3.371   5.333   0.243
 4501SOL     OW14401   5.509   1.556   2.283
 4501SOL    HW114402   5.484   1.616   2.359
 4501SOL    HW214403   5.425   1.524   2.238
 4502SOL     OW14404   0.573   3.222   6.771
 4502SOL    HW114405   0.647   3.162   6.741
 4502SOL    HW214406   0.599   3.318   6.759
 4503SOL     OW14407   2.817   6.940   2.116
 4503SOL    HW114408   2.845   6.915   2.209
 4503SOL    HW214409   2.882   6.901   2.051
 4504SOL     OW14410   0.472   1.428   3.212
 4504SOL    HW114411   0.463   1.484   3.294
 4504SOL    HW214412   0.472   1.331   3.238
 4505SOL     OW14413   5.903   3.755   2.635
 4505SOL    HW114414   5.824   3.807   2.669
 4505SOL    HW214415   5.871   3.685   2.571
 4506SOL     OW14416   4.840   3.115   4.327
 4506SOL    HW114417   4.825   3.182   4.255
 4506SOL    HW214418   4.794   3.029   4.304
 4507SOL     OW14419   6.435   3.166   3.413
 4507SOL    HW114420   6.450   3.071   3.442
 4507SOL    HW214421   6.470   3.228   3.484
 4508SOL     OW14422   0.757   4.994   0.509
 4508SOL    HW114423   0.847   4.968   0.475
 4508SOL    HW214424   0.765   5.033   0.600
 4509SOL     OW14425   4.494   2.337   2.537
 4509SOL    HW114426   4.563   2.270   2.507
 4509SOL    HW214427   4.468   2.394   2.460
 4510SOL     OW14428   5.078   1.486   4.635
 4510SOL    HW114429   4.995   1.433   4.619
 4510SOL    HW214430   5.072   1.573   4.586
 4511SOL     OW14431   0.583   4.640   1.179
 4511SOL    HW114432   0.556   4.602   1.090
 4511SOL    HW214433   0.602   4.738   1.169
 4512SOL     OW14434   3.593   2.423   6.018
 4512SOL    HW114435   3.633   2.367   5.945
 4512SOL    HW214436   3.532   2.366   6.073
 4513SOL     OW14437   1.567   6.443   0.017
 4513SOL    HW114438   1.631   6.464   0.091
 4513SOL    HW214439   1.615   6.393   6.970
 4514SOL     OW14440   3.281   3.556   6.370
 4514SOL    HW114441   3.330   3.558   6.458
 4514SOL    HW214442   3.250   3.648   6.347
 4515SOL     OW14443   4.809   6.995   5.543
 4515SOL    HW114444   4.848   0.046   5.596
 4515SOL    HW214445   4.741   0.005   5.478
 4516SOL     OW14446   3.814   1.778   5.248
 4516SOL    HW114447   3.829   1.702   5.311
 4516SOL    HW214448   3.846   1.863   5.290
 4517SOL     OW14449   4.067   0.513   5.948
 4517SOL    HW114450   4.097   0.608   5.938
 4517SOL    HW214451   4.139   0.451   5.916
 4518SOL     OW14452   1.778   0.212   0.823
 4518SOL    HW114453   1.737   0.159   0.897
 4518SOL    HW214454   1.874   0.229   0.844
 4519SOL     OW14455   5.386   6.451   6.714
 4519SOL    HW114456   5.325   6.528   6.695
 4519SOL    HW214457   5.369   6.418   6.807
 4520SOL     OW14458   3.982   6.730   5.108
 4520SOL    HW114459   3.996   6.759   5.013
 4520SOL    HW214460   3.938   6.640   5.110
 4521SOL     OW14461   4.878   3.160   4.758
 4521SOL    HW114462   4.779   3.162   4.741
 4521SOL    HW214463   4.898   3.205   4.845
 4522SOL     OW14464   4.907   3.754   3.536
 4522SOL    HW114465   4.975   3.691   3.498
 4522SOL    HW214466   4.871   3.812   3.462
 4523SOL     OW14467   0.639   3.304   6.251
 4523SOL    HW114468   0.738   3.300   6.267
 4523SOL    HW214469   0.605   3.213   6.227
 4524SOL     OW14470   0.503   3.247   2.984
 4524SOL    HW114471   0.552   3.272   3.068
 4524SOL    HW214472   0.405   3.245   3.001
 4525SOL     OW14473   2.111   2.311   5.530
 4525SOL    HW114474   2.090   2.397   5.576
 4525SOL    HW214475   2.158   2.250   5.594
 4526SOL     OW14476   0.763   0.019   5.853
 4526SOL    HW114477   0.844   0.038   5.796
 4526SOL    HW214478   0.774   6.956   5.897
 4527SOL     OW14479   6.078   0.008   3.494
 4527SOL    HW114480   6.013   0.005   3.569
 4527SOL    HW214481   6.029   0.019   3.407
 4528SOL     OW14482   3.751   0.605   5.663
 4528SOL    HW114483   3.755   0.659   5.579
 4528SOL    HW214484   3.656   0.594   5.691
 4529SOL     OW14485   3.033   0.997   5.524
 4529SOL    HW114486   3.005   0.994   5.620
 4529SOL    HW214487   3.090   1.077   5.509
 4530SOL     OW14488   2.720   6.125   5.081
 4530SOL    HW114489   2.740   6.031   5.053
 4530SOL    HW214490   2.648   6.125   5.151
 4531SOL     OW14491   0.828   5.133   6.118
 4531SOL    HW114492   0.896   5.123   6.191
 4531SOL    HW214493   0.779   5.219   6.130
 4532SOL     OW14494   5.719   0.801   2.739
 4532SOL    HW114495   5.677   0.712   2.722
 4532SOL    HW214496   5.707   0.825   2.836
 4533SOL     OW14497   2.432   0.521   1.912
 4533SOL    HW114498   2.465   0.606   1.871
 4533SOL    HW214499   2.507   0.476   1.960
 4534SOL     OW14500   4.472   1.610   3.944
 4534SOL    HW114501   4.563   1.633   3.909
 4534SOL    HW214502   4.471   1.620   4.043
 4535SOL     OW14503   2.967   1.462   0.398
 4535SOL    HW114504   2.937   1.547   0.354
 4535SOL    HW214505   3.026   1.411   0.335
 4536SOL     OW14506   2.917   1.518   6.146
 4536SOL    HW114507   2.942   1.521   6.049
 4536SOL    HW214508   2.951   1.433   6.186
 4537SOL     OW14509   3.476   4.148   4.131
 4537SOL    HW114510   3.453   4.236   4.172
 4537SOL    HW214511   3.501   4.160   4.035
 4538SOL     OW14512   6.745   2.423   1.009
 4538SOL    HW114513   6.783   2.397   1.098
 4538SOL    HW214514   6.762   2.520   0.992
 4539SOL     OW14515   1.146   5.732   6.069
 4539SOL    HW114516   1.072   5.691   6.123
 4539SOL    HW214517   1.210   5.778   6.130
 4540SOL     OW14518   0.121   1.229   0.540
 4540SOL    HW114519   0.044   1.220   0.478
 4540SOL    HW214520   0.126   1.150   0.600
 4541SOL     OW14521   4.244   2.137   5.638
 4541SOL    HW114522   4.268   2.233   5.626
 4541SOL    HW214523   4.269   2.107   5.730
 4542SOL     OW14524   0.312   2.796   1.325
 4542SOL    HW114525   0.349   2.884   1.296
 4542SOL    HW214526   0.290   2.741   1.244
 4543SOL     OW14527   3.366   2.078   6.797
 4543SOL    HW114528   3.454   2.048   6.834
 4543SOL    HW214529   3.295   2.013   6.825
 4544SOL     OW14530   5.745   5.363   0.615
 4544SOL    HW114531   5.706   5.454   0.606
 4544SOL    HW214532   5.784   5.334   0.528
 4545SOL     OW14533   1.862   3.054   5.210
 4545SOL    HW114534   1.882   3.022   5.117
 4545SOL    HW214535   1.946   3.057   5.263
 4546SOL     OW14536   2.303   1.339   6.692
 4546SOL    HW114537   2.241   1.416   6.709
 4546SOL    HW214538   2.273   1.260   6.747
 4547SOL     OW14539   6.308   0.170   0.229
 4547SOL    HW114540   6.392   0.140   0.183
 4547SOL    HW214541   6.291   0.267   0.208
 4548SOL     OW14542   2.133   3.219   3.192
 4548SOL    HW114543   2.125   3.222   3.291
 4548SOL    HW214544   2.147   3.311   3.157
 4549SOL     OW14545   5.820   3.765   2.960
 4549SOL    HW114546   5.851   3.855   2.929
 4549SOL    HW214547   5.730   3.773   3.001
 4550SOL     OW14548   0.869   4.408   2.955
 4550SOL    HW114549   0.896   4.444   2.866
 4550SOL    HW214550   0.905   4.468   3.027
 4551SOL     OW14551   0.940   3.488   5.097
 4551SOL    HW114552   0.889   3.445   5.171
 4551SOL    HW214553   0.892   3.475   5.010
 4552SOL     OW14554   5.658   1.281   1.175
 4552SOL    HW114555   5.623   1.221   1.248
 4552SOL    HW214556   5.751   1.253   1.152
 4553SOL     OW14557   5.618   5.131   6.043
 4553SOL    HW114558   5.662   5.210   6.085
 4553SOL    HW214559   5.672   5.100   5.964
 4554SOL     OW14560   0.953   6.350   1.836
 4554SOL    HW114561   0.989   6.353   1.930
 4554SOL    HW214562   0.953   6.443   1.798
 4555SOL     OW14563   0.575   1.231   6.880
 4555SOL    HW114564   0.587   1.132   6.878
 4555SOL    HW214565   0.623   1.268   6.960
 4556SOL     OW14566   5.844   3.345   5.871
 4556SOL    HW114567   5.794   3.271   5.915
 4556SOL    HW214568   5.787   3.385   5.799
 4557SOL     OW14569   6.152   4.874   3.307
 4557SOL    HW114570   6.148   4.974   3.306
 4557SOL    HW214571   6.065   4.837   3.338
 4558SOL     OW14572   0.172   3.041   5.018
 4558SOL    HW114573   0.077   3.066   5.036
 4558SOL    HW214574   0.209   2.989   5.095
 4559SOL     OW14575   0.396   2.984   2.762
 4559SOL    HW114576   0.308   3.003   2.807
 4559SOL    HW214577   0.462   2.955   2.831
 4560SOL     OW14578   5.723   4.537   2.578
 4560SOL    HW114579   5.812   4.501   2.608
 4560SOL    HW214580   5.676   4.579   2.655
 4561SOL     OW14581   3.862   2.173   4.604
 4561SOL    HW114582   3.879   2.175   4.505
 4561SOL    HW214583   3.949   2.163   4.652
 4562SOL     OW14584   2.475   0.910   1.014
 4562SOL    HW114585   2.419   0.830   0.989
 4562SOL    HW214586   2.447   0.943   1.105
 4563SOL     OW14587   0.402   3.200   1.506
 4563SOL    HW114588   0.326   3.236   1.451
 4563SOL    HW214589   0.383   3.217   1.603
 4564SOL     OW14590   7.012   4.092   1.998
 4564SOL    HW114591   0.062   4.158   2.006
 4564SOL    HW214592   0.023   4.004   1.968
 4565SOL     OW14593   2.141   6.571   5.326
 4565SOL    HW114594   2.126   6.477   5.357
 4565SOL    HW214595   2.231   6.601   5.355
 4566SOL     OW14596   6.323   4.551   1.773
 4566SOL    HW114597   6.407   4.501   1.792
 4566SOL    HW214598   6.249   4.517   1.831
 4567SOL     OW14599   0.390   0.449   6.274
 4567SOL    HW114600   0.434   0.515   6.335
 4567SOL    HW214601   0.387   0.360   6.319
 4568SOL     OW14602   0.497   5.449   3.568
 4568SOL    HW114603   0.557   5.398   3.630
 4568SOL    HW214604   0.433   5.386   3.524
 4569SOL     OW14605   2.591   1.123   2.857
 4569SOL    HW114606   2.632   1.075   2.935
 4569SOL    HW214607   2.496   1.093   2.847
 4570SOL     OW14608   6.316   5.335   1.804
 4570SOL    HW114609   6.372   5.257   1.776
 4570SOL    HW214610   6.259   5.308   1.882
 4571SOL     OW14611   3.453   3.199   6.513
 4571SOL    HW114612   3.354   3.189   6.497
 4571SOL    HW214613   3.500   3.120   6.473
 4572SOL     OW14614   2.765   3.205   1.175
 4572SOL    HW114615   2.777   3.217   1.274
 4572SOL    HW214616   2.829   3.265   1.127
 4573SOL     OW14617   1.632   6.269   1.213
 4573SOL    HW114618   1.538   6.237   1.227
 4573SOL    HW214619   1.668   6.229   1.128
 4574SOL     OW14620   5.976   2.975   0.889
 4574SOL    HW114621   6.056   2.917   0.904
 4574SOL    HW214622   5.963   3.036   0.967
 4575SOL     OW14623   6.325   0.441   4.090
 4575SOL    HW114624   6.343   0.533   4.126
 4575SOL    HW214625   6.286   0.448   3.998
 4576SOL     OW14626   2.651   4.942   5.234
 4576SOL    HW114627   2.587   4.994   5.291
 4576SOL    HW214628   2.693   4.869   5.288
 4577SOL     OW14629   1.879   1.548   2.846
 4577SOL    HW114630   1.840   1.615   2.783
 4577SOL    HW214631   1.961   1.507   2.805
 4578SOL     OW14632   1.163   0.960   2.093
 4578SOL    HW114633   1.252   0.998   2.067
 4578SOL    HW214634   1.165   0.860   2.086
 4579SOL     OW14635   3.671   0.295   2.077
 4579SOL    HW114636   3.709   0.265   2.164
 4579SOL    HW214637   3.739   0.351   2.029
 4580SOL     OW14638   6.530   2.770   0.412
 4580SOL    HW114639   6.585   2.826   0.350
 4580SOL    HW214640   6.496   2.690   0.363
 4581SOL     OW14641   3.588   6.882   1.657
 4581SOL    HW114642   3.672   6.932   1.636
 4581SOL    HW214643   3.606   6.816   1.730
 4582SOL     OW14644   6.013   0.899   2.812
 4582SOL    HW114645   5.969   0.810   2.807
 4582SOL    HW214646   5.953   0.968   2.770
 4583SOL     OW14647   2.115   0.020   6.588
 4583SOL    HW114648   2.042   0.088   6.583
 4583SOL    HW214649   2.165   0.033   6.674
 4584SOL     OW14650   1.375   0.559   5.612
 4584SOL    HW114651   1.338   0.649   5.589
 4584SOL    HW214652   1.392   0.508   5.528
 4585SOL     OW14653   0.984   3.959   3.094
 4585SOL    HW114654   1.034   3.875   3.116
 4585SOL    HW214655   1.049   4.034   3.083
 4586SOL     OW14656   5.373   4.507   6.729
 4586SOL    HW114657   5.338   4.567   6.657
 4586SOL    HW214658   5.296   4.468   6.779
 4587SOL     OW14659   3.000   3.818   4.473
 4587SOL    HW114660   2.950   3.864   4.547
 4587SOL    HW214661   2.951   3.736   4.446
 4588SOL     OW14662   2.580   4.218   5.778
 4588SOL    HW114663   2.662   4.246   5.729
 4588SOL    HW214664   2.605   4.154   5.851
 4589SOL     OW14665   5.130   6.629   2.222
 4589SOL    HW114666   5.105   6.666   2.133
 4589SOL    HW214667   5.086   6.683   2.294
 4590SOL     OW14668   3.363   5.336   1.974
 4590SOL    HW114669   3.409   5.398   1.911
 4590SOL    HW214670   3.373   5.368   2.068
 4591SOL     OW14671   2.085   0.446   5.128
 4591SOL    HW114672   2.002   0.486   5.091
 4591SOL    HW214673   2.062   0.389   5.207
 4592SOL     OW14674   2.535   1.599   4.371
 4592SOL    HW114675   2.525   1.698   4.384
 4592SOL    HW214676   2.458   1.552   4.413
 4593SOL     OW14677   0.646   5.902   4.432
 4593SOL    HW114678   0.608   5.816   4.466
 4593SOL    HW214679   0.621   5.914   4.336
 4594SOL     OW14680   2.151   0.363   2.356
 4594SOL    HW114681   2.223   0.367   2.286
 4594SOL    HW214682   2.186   0.402   2.441
 4595SOL     OW14683   4.852   1.962   6.300
 4595SOL    HW114684   4.861   1.885   6.363
 4595SOL    HW214685   4.931   2.022   6.309
 4596SOL     OW14686   1.076   1.232   2.185
 4596SOL    HW114687   1.068   1.223   2.285
 4596SOL    HW214688   1.124   1.153   2.149
 4597SOL     OW14689   3.153   5.817   0.004
 4597SOL    HW114690   3.132   5.721   0.019
 4597SOL    HW214691   3.233   5.843   0.058
 4598SOL     OW14692   2.199   5.617   6.909
 4598SOL    HW114693   2.158   5.708   6.903
 4598SOL    HW214694   2.155   5.565   6.981
 4599SOL     OW14695   1.692   5.170   2.806
 4599SOL    HW114696   1.700   5.156   2.905
 4599SOL    HW214697   1.738   5.095   2.758
 4600SOL     OW14698   6.759   6.458   5.632
 4600SOL    HW114699   6.760   6.370   5.584
 4600SOL    HW214700   6.810   6.449   5.718
 4601SOL     OW14701   1.106   1.321   4.488
 4601SOL    HW114702   1.069   1.237   4.447
 4601SOL    HW214703   1.100   1.396   4.421
 4602SOL     OW14704   3.139   1.517   6.978
 4602SOL    HW114705   3.219   1.487   6.926
 4602SOL    HW214706   3.064   1.537   6.916
 4603SOL     OW14707   4.718   5.920   0.893
 4603SOL    HW114708   4.709   5.851   0.966
 4603SOL    HW214709   4.733   5.874   0.806
 4604SOL     OW14710   5.521   0.227   5.917
 4604SOL    HW114711   5.535   0.319   5.879
 4604SOL    HW214712   5.542   0.229   6.015
 4605SOL     OW14713   3.237   0.031   2.131
 4605SOL    HW114714   3.251   6.982   2.196
 4605SOL    HW214715   3.295   0.016   2.050
 4606SOL     OW14716   6.802   6.643   3.211
 4606SOL    HW114717   6.826   6.590   3.293
 4606SOL    HW214718   6.798   6.582   3.132
 4607SOL     OW14719   1.900   3.125   2.303
 4607SOL    HW114720   1.806   3.100   2.282
 4607SOL    HW214721   1.905   3.222   2.327
 4608SOL     OW14722   0.132   3.750   4.985
 4608SOL    HW114723   0.099   3.700   4.905
 4608SOL    HW214724   0.196   3.692   5.036
 4609SOL     OW14725   4.362   6.197   6.440
 4609SOL    HW114726   4.438   6.147   6.483
 4609SOL    HW214727   4.390   6.229   6.350
 4610SOL     OW14728   5.183   2.263   0.788
 4610SOL    HW114729   5.243   2.201   0.838
 4610SOL    HW214730   5.237   2.335   0.745
 4611SOL     OW14731   1.033   0.311   5.821
 4611SOL    HW114732   1.044   0.349   5.729
 4611SOL    HW214733   0.941   0.330   5.854
 4612SOL     OW14734   1.690   6.452   1.978
 4612SOL    HW114735   1.696   6.521   1.905
 4612SOL    HW214736   1.674   6.497   2.065
 4613SOL     OW14737   1.537   5.171   1.780
 4613SOL    HW114738   1.540   5.270   1.794
 4613SOL    HW214739   1.468   5.131   1.840
 4614SOL     OW14740   6.829   3.648   4.808
 4614SOL    HW114741   6.860   3.656   4.713
 4614SOL    HW214742   6.846   3.734   4.856
 4615SOL     OW14743   1.057   2.036   1.149
 4615SOL    HW114744   1.126   2.108   1.140
 4615SOL    HW214745   0.982   2.068   1.207
 4616SOL     OW14746   6.440   3.024   4.592
 4616SOL    HW114747   6.517   3.080   4.621
 4616SOL    HW214748   6.358   3.051   4.643
 4617SOL     OW14749   0.396   2.300   2.630
 4617SOL    HW114750   0.475   2.238   2.630
 4617SOL    HW214751   0.387   2.342   2.540
 4618SOL     OW14752   2.754   4.417   5.662
 4618SOL    HW114753   2.686   4.446   5.595
 4618SOL    HW214754   2.845   4.444   5.631
 4619SOL     OW14755   3.471   6.225   5.217
 4619SOL    HW114756   3.524   6.283   5.155
 4619SOL    HW214757   3.398   6.179   5.166
 4620SOL     OW14758   0.862   5.669   2.603
 4620SOL    HW114759   0.776   5.681   2.553
 4620SOL    HW214760   0.939   5.689   2.543
 4621SOL     OW14761   5.078   0.362   2.243
 4621SOL    HW114762   5.048   0.416   2.321
 4621SOL    HW214763   5.158   0.405   2.201
 4622SOL     OW14764   4.678   5.674   1.068
 4622SOL    HW114765   4.776   5.694   1.068
 4622SOL    HW214766   4.646   5.663   1.162
 4623SOL     OW14767   2.920   4.974   1.270
 4623SOL    HW114768   2.865   4.978   1.187
 4623SOL    HW214769   2.995   5.040   1.264
 4624SOL     OW14770   4.035   1.054   3.096
 4624SOL    HW114771   3.935   1.054   3.095
 4624SOL    HW214772   4.069   1.020   3.009
 4625SOL     OW14773   1.934   5.415   1.863
 4625SOL    HW114774   1.861   5.481   1.880
 4625SOL    HW214775   2.015   5.464   1.831
 4626SOL     OW14776   3.895   3.800   1.574
 4626SOL    HW114777   3.816   3.854   1.600
 4626SOL    HW214778   3.958   3.856   1.521
 4627SOL     OW14779   6.639   6.636   4.690
 4627SOL    HW114780   6.696   6.717   4.673
 4627SOL    HW214781   6.685   6.555   4.654
 4628SOL     OW14782   5.236   5.514   3.557
 4628SOL    HW114783   5.224   5.544   3.463
 4628SOL    HW214784   5.287   5.428   3.559
 4629SOL     OW14785   2.122   5.863   6.887
 4629SOL    HW114786   2.077   5.945   6.851
 4629SOL    HW214787   2.220   5.880   6.897
 4630SOL     OW14788   1.901   4.009   1.989
 4630SOL    HW114789   1.834   4.068   2.034
 4630SOL    HW214790   1.866   3.915   1.987
 4631SOL     OW14791   0.251   0.640   3.747
 4631SOL    HW114792   0.163   0.686   3.759
 4631SOL    HW214793   0.274   0.636   3.650
 4632SOL     OW14794   3.443   4.884   2.758
 4632SOL    HW114795   3.481   4.918   2.672
 4632SOL    HW214796   3.351   4.849   2.743
 4633SOL     OW14797   5.166   1.599   4.106
 4633SOL    HW114798   5.109   1.630   4.182
 4633SOL    HW214799   5.218   1.676   4.070
 4634SOL     OW14800   3.304   3.513   4.642
 4634SOL    HW114801   3.267   3.541   4.731
 4634SOL    HW214802   3.286   3.416   4.627
 4635SOL     OW14803   5.103   5.684   0.567
 4635SOL    HW114804   5.113   5.643   0.657
 4635SOL    HW214805   5.039   5.630   0.512
 4636SOL     OW14806   1.877   5.860   0.190
 4636SOL    HW114807   1.898   5.882   0.095
 4636SOL    HW214808   1.886   5.761   0.204
 4637SOL     OW14809   1.705   0.142   2.350
 4637SOL    HW114810   1.747   0.124   2.261
 4637SOL    HW214811   1.656   0.061   2.380
 4638SOL     OW14812   3.927   5.137   0.451
 4638SOL    HW114813   4.014   5.090   0.471
 4638SOL    HW214814   3.942   5.202   0.377
 4639SOL     OW14815   1.745   2.007   0.611
 4639SOL    HW114816   1.763   1.910   0.623
 4639SOL    HW214817   1.778   2.037   0.521
 4640SOL     OW14818   6.581   2.953   5.431
 4640SOL    HW114819   6.567   2.978   5.527
 4640SOL    HW214820   6.645   2.876   5.426
 4641SOL     OW14821   0.503   5.321   4.252
 4641SOL    HW114822   0.534   5.325   4.157
 4641SOL    HW214823   0.487   5.226   4.277
 4642SOL     OW14824   0.975   1.537   3.513
 4642SOL    HW114825   1.003   1.510   3.604
 4642SOL    HW214826   1.000   1.633   3.497
 4643SOL     OW14827   0.320   1.982   6.624
 4643SOL    HW114828   0.346   2.061   6.679
 4643SOL    HW214829   0.284   1.910   6.683
 4644SOL     OW14830   1.725   0.828   0.723
 4644SOL    HW114831   1.796   0.759   0.712
 4644SOL    HW214832   1.688   0.823   0.816
 4645SOL     OW14833   1.764   1.229   3.496
 4645SOL    HW114834   1.798   1.315   3.458
 4645SOL    HW214835   1.714   1.179   3.426
 4646SOL     OW14836   1.992   5.364   3.695
 4646SOL    HW114837   2.053   5.426   3.646
 4646SOL    HW214838   2.036   5.335   3.780
 4647SOL     OW14839   1.718   6.725   2.889
 4647SOL    HW114840   1.627   6.684   2.876
 4647SOL    HW214841   1.727   6.805   2.830
 4648SOL     OW14842   2.962   1.563   4.468
 4648SOL    HW114843   2.938   1.660   4.471
 4648SOL    HW214844   2.879   1.508   4.459
 4649SOL     OW14845   5.930   0.497   0.236
 4649SOL    HW114846   5.838   0.467   0.263
 4649SOL    HW214847   5.996   0.467   0.305
 4650SOL     OW14848   5.544   6.676   1.617
 4650SOL    HW114849   5.584   6.766   1.636
 4650SOL    HW214850   5.455   6.688   1.572
 4651SOL     OW14851   5.895   2.865   5.698
 4651SOL    HW114852   5.905   2.958   5.662
 4651SOL    HW214853   5.977   2.840   5.749
 4652SOL     OW14854   0.037   6.220   4.296
 4652SOL    HW114855   0.035   6.318   4.313
 4652SOL    HW214856   6.969   6.184   4.295
 4653SOL     OW14857   5.371   5.883   1.035
 4653SOL    HW114858   5.309   5.913   0.964
 4653SOL    HW214859   5.398   5.788   1.019
 4654SOL     OW14860   0.327   6.522   5.201
 4654SOL    HW114861   0.297   6.454   5.268
 4654SOL    HW214862   0.415   6.560   5.229
 4655SOL     OW14863   4.526   2.664   1.105
 4655SOL    HW114864   4.459   2.590   1.095
 4655SOL    HW214865   4.594   2.639   1.173
 4656SOL     OW14866   0.759   1.391   1.428
 4656SOL    HW114867   0.725   1.325   1.495
 4656SOL    HW214868   0.708   1.381   1.343
 4657SOL     OW14869   5.061   6.754   1.993
 4657SOL    HW114870   5.078   6.849   2.017
 4657SOL    HW214871   5.088   6.738   1.898
 4658SOL     OW14872   2.715   2.501   5.273
 4658SOL    HW114873   2.637   2.531   5.327
 4658SOL    HW214874   2.799   2.540   5.310
 4659SOL     OW14875   3.500   4.639   0.931
 4659SOL    HW114876   3.538   4.702   0.863
 4659SOL    HW214877   3.401   4.632   0.919
 4660SOL     OW14878   1.071   6.384   4.093
 4660SOL    HW114879   1.063   6.387   3.993
 4660SOL    HW214880   1.146   6.324   4.118
 4661SOL     OW14881   1.788   3.362   5.865
 4661SOL    HW114882   1.881   3.356   5.900
 4661SOL    HW214883   1.780   3.440   5.803
 4662SOL     OW14884   2.529   6.441   4.652
 4662SOL    HW114885   2.612   6.494   4.667
 4662SOL    HW214886   2.530   6.360   4.711
 4663SOL     OW14887   0.847   6.926   0.047
 4663SOL    HW114888   0.793   6.999   0.088
 4663SOL    HW214889   0.851   6.939   6.973
 4664SOL     OW14890   6.255   6.443   0.584
 4664SOL    HW114891   6.232   6.508   0.512
 4664SOL    HW214892   6.215   6.354   0.563
 4665SOL     OW14893   2.387   0.776   4.706
 4665SOL    HW114894   2.292   0.770   4.736
 4665SOL    HW214895   2.448   0.767   4.785
 4666SOL     OW14896   1.681   1.986   5.529
 4666SOL    HW114897   1.747   1.967   5.602
 4666SOL    HW214898   1.632   1.902   5.506
 4667SOL     OW14899   6.935   3.899   1.484
 4667SOL    HW114900   6.845   3.941   1.477
 4667SOL    HW214901   6.972   3.913   1.576
 4668SOL     OW14902   4.439   2.496   4.776
 4668SOL    HW114903   4.499   2.417   4.762
 4668SOL    HW214904   4.397   2.491   4.866
 4669SOL     OW14905   5.577   0.199   0.172
 4669SOL    HW114906   5.481   0.211   0.146
 4669SOL    HW214907   5.615   0.120   0.123
 4670SOL     OW14908   0.715   3.552   0.858
 4670SOL    HW114909   0.788   3.555   0.926
 4670SOL    HW214910   0.736   3.617   0.784
 4671SOL     OW14911   0.245   3.518   0.073
 4671SOL    HW114912   0.254   3.608   0.117
 4671SOL    HW214913   0.197   3.528   7.011
 4672SOL     OW14914   3.252   4.229   5.698
 4672SOL    HW114915   3.258   4.164   5.622
 4672SOL    HW214916   3.157   4.242   5.723
 4673SOL     OW14917   5.917   0.440   6.776
 4673SOL    HW114918   5.853   0.513   6.754
 4673SOL    HW214919   5.968   0.463   6.859
 4674SOL     OW14920   0.680   1.943   0.257
 4674SOL    HW114921   0.614   1.868   0.255
 4674SOL    HW214922   0.699   1.969   0.352
 4675SOL     OW14923   3.083   6.085   0.298
 4675SOL    HW114924   3.047   6.179   0.303
 4675SOL    HW214925   3.010   6.024   0.267
 4676SOL     OW14926   0.755   6.150   3.723
 4676SOL    HW114927   0.841   6.191   3.754
 4676SOL    HW214928   0.730   6.076   3.785
 4677SOL     OW14929   4.339   0.730   6.108
 4677SOL    HW114930   4.372   0.770   6.194
 4677SOL    HW214931   4.253   0.682   6.125
 4678SOL     OW14932   1.999   4.781   0.307
 4678SOL    HW114933   2.030   4.733   0.389
 4678SOL    HW214934   2.076   4.831   0.267
 4679SOL     OW14935   2.892   0.632   6.359
 4679SOL    HW114936   2.942   0.594   6.437
 4679SOL    HW214937   2.795   0.642   6.383
 4680SOL     OW14938   1.496   5.432   0.594
 4680SOL    HW114939   1.511   5.529   0.573
 4680SOL    HW214940   1.548   5.376   0.530
 4681SOL     OW14941   0.008   5.128   5.855
 4681SOL    HW114942   0.048   5.124   5.947
 4681SOL    HW214943   0.043   5.209   5.807
 4682SOL     OW14944   3.717   6.264   0.609
 4682SOL    HW114945   3.770   6.349   0.610
 4682SOL    HW214946   3.758   6.200   0.544
 4683SOL     OW14947   5.739   3.975   2.394
 4683SOL    HW114948   5.738   4.034   2.313
 4683SOL    HW214949   5.724   3.880   2.366
 4684SOL     OW14950   1.607   1.740   4.445
 4684SOL    HW114951   1.570   1.833   4.446
 4684SOL    HW214952   1.706   1.743   4.458
 4685SOL     OW14953   5.043   5.286   4.686
 4685SOL    HW114954   5.079   5.302   4.778
 4685SOL    HW214955   5.037   5.188   4.669
 4686SOL     OW14956   4.817   5.336   6.238
 4686SOL    HW114957   4.885   5.402   6.270
 4686SOL    HW214958   4.738   5.385   6.202
 4687SOL     OW14959   5.873   4.715   5.120
 4687SOL    HW114960   5.833   4.807   5.133
 4687SOL    HW214961   5.800   4.650   5.100
 4688SOL     OW14962   0.645   2.928   6.996
 4688SOL    HW114963   0.729   2.876   7.011
 4688SOL    HW214964   0.668   3.021   6.967
 4689SOL     OW14965   6.901   6.192   4.581
 4689SOL    HW114966   6.992   6.169   4.616
 4689SOL    HW214967   6.836   6.194   4.657
 4690SOL     OW14968   1.712   1.191   0.226
 4690SOL    HW114969   1.761   1.241   0.298
 4690SOL    HW214970   1.623   1.234   0.211
 4691SOL     OW14971   2.615   5.018   0.918
 4691SOL    HW114972   2.559   5.032   0.999
 4691SOL    HW214973   2.701   4.975   0.943
 4692SOL     OW14974   0.004   5.264   3.364
 4692SOL    HW114975   6.987   5.258   3.454
 4692SOL    HW214976   6.969   5.315   3.302
 4693SOL     OW14977   0.708   1.337   4.375
 4693SOL    HW114978   0.769   1.261   4.351
 4693SOL    HW214979   0.723   1.362   4.471
 4694SOL     OW14980   1.668   1.404   0.670
 4694SOL    HW114981   1.583   1.354   0.688
 4694SOL    HW214982   1.646   1.492   0.626
 4695SOL     OW14983   4.032   3.140   2.242
 4695SOL    HW114984   4.128   3.161   2.260
 4695SOL    HW214985   3.999   3.195   2.166
 4696SOL     OW14986   6.868   3.016   6.232
 4696SOL    HW114987   6.839   2.927   6.268
 4696SOL    HW214988   6.968   3.019   6.230
 4697SOL     OW14989   1.109   4.470   6.990
 4697SOL    HW114990   1.019   4.485   0.005
 4697SOL    HW214991   1.180   4.500   0.028
 4698SOL     OW14992   5.513   3.603   1.118
 4698SOL    HW114993   5.594   3.652   1.152
 4698SOL    HW214994   5.541   3.541   1.045
 4699SOL     OW14995   0.407   0.821   2.536
 4699SOL    HW114996   0.330   0.757   2.526
 4699SOL    HW214997   0.398   0.871   2.622
 4700SOL     OW14998   4.373   1.372   0.993
 4700SOL    HW114999   4.332   1.463   0.982
 4700SOL    HW215000   4.406   1.340   0.905
 4701SOL     OW15001   0.479   1.429   0.090
 4701SOL    HW115002   0.555   1.461   0.033
 4701SOL    HW215003   0.426   1.361   0.039
 4702SOL     OW15004   3.584   3.630   7.025
 4702SOL    HW115005   3.545   3.544   0.034
 4702SOL    HW215006   3.535   3.707   0.040
 4703SOL     OW15007   1.915   0.826   2.648
 4703SOL    HW115008   2.010   0.805   2.671
 4703SOL    HW215009   1.905   0.924   2.632
 4704SOL     OW15010   6.939   6.714   0.582
 4704SOL    HW115011   6.881   6.715   0.664
 4704SOL    HW215012   6.997   6.796   0.582
 4705SOL     OW15013   3.483   3.472   3.886
 4705SOL    HW115014   3.429   3.554   3.866
 4705SOL    HW215015   3.421   3.397   3.908
 4706SOL     OW15016   4.160   6.387   6.828
 4706SOL    HW115017   4.226   6.455   6.859
 4706SOL    HW215018   4.124   6.414   6.738
 4707SOL     OW15019   1.986   5.471   1.017
 4707SOL    HW115020   1.946   5.446   1.105
 4707SOL    HW215021   1.957   5.405   0.947
 4708SOL     OW15022   2.626   2.762   1.368
 4708SOL    HW115023   2.590   2.846   1.408
 4708SOL    HW215024   2.574   2.738   1.286
 4709SOL     OW15025   4.033   5.192   5.062
 4709SOL    HW115026   4.103   5.263   5.075
 4709SOL    HW215027   4.035   5.129   5.139
 4710SOL     OW15028   4.411   1.468   6.703
 4710SOL    HW115029   4.369   1.423   6.624
 4710SOL    HW215030   4.504   1.496   6.679
 4711SOL     OW15031   3.451   6.905   2.647
 4711SOL    HW115032   3.446   6.902   2.747
 4711SOL    HW215033   3.447   7.000   2.616
 4712SOL     OW15034   1.836   4.493   0.812
 4712SOL    HW115035   1.896   4.573   0.824
 4712SOL    HW215036   1.766   4.493   0.883
 4713SOL     OW15037   1.765   5.308   0.947
 4713SOL    HW115038   1.821   5.276   0.870
 4713SOL    HW215039   1.776   5.245   1.024
 4714SOL     OW15040   3.321   1.976   1.442
 4714SOL    HW115041   3.346   1.890   1.397
 4714SOL    HW215042   3.386   1.995   1.515
 4715SOL     OW15043   0.015   2.661   3.068
 4715SOL    HW115044   0.068   2.605   3.131
 4715SOL    HW215045   6.947   2.670   3.103
 4716SOL     OW15046   3.621   5.657   0.384
 4716SOL    HW115047   3.668   5.637   0.298
 4716SOL    HW215048   3.663   5.606   0.458
 4717SOL     OW15049   1.416   6.110   3.513
 4717SOL    HW115050   1.407   6.087   3.416
 4717SOL    HW215051   1.325   6.116   3.554
 4718SOL     OW15052   6.038   1.258   6.317
 4718SOL    HW115053   6.025   1.275   6.415
 4718SOL    HW215054   5.966   1.305   6.265
 4719SOL     OW15055   5.163   3.379   1.803
 4719SOL    HW115056   5.256   3.408   1.828
 4719SOL    HW215057   5.154   3.376   1.704
 4720SOL     OW15058   2.505   0.208   5.675
 4720SOL    HW115059   2.447   0.214   5.756
 4720SOL    HW215060   2.450   0.183   5.596
 4721SOL     OW15061   1.966   1.878   1.335
 4721SOL    HW115062   1.903   1.947   1.371
 4721SOL    HW215063   2.035   1.923   1.278
 4722SOL     OW15064   1.616   6.960   0.072
 4722SOL    HW115065   1.655   6.972   7.006
 4722SOL    HW215066   1.517   6.976   0.068
 4723SOL     OW15067   2.723   6.843   6.624
 4723SOL    HW115068   2.733   6.941   6.611
 4723SOL    HW215069   2.775   6.814   6.705
 4724SOL     OW15070   3.626   6.722   1.855
 4724SOL    HW115071   3.682   6.782   1.912
 4724SOL    HW215072   3.615   6.633   1.900
 4725SOL     OW15073   5.854   6.453   3.581
 4725SOL    HW115074   5.883   6.363   3.550
 4725SOL    HW215075   5.757   6.452   3.603
 4726SOL     OW15076   1.056   4.246   6.837
 4726SOL    HW115077   0.961   4.254   6.866
 4726SOL    HW215078   1.107   4.327   6.865
 4727SOL     OW15079   6.869   5.855   6.815
 4727SOL    HW115080   6.917   5.792   6.877
 4727SOL    HW215081   6.934   5.915   6.771
 4728SOL     OW15082   0.350   0.801   6.553
 4728SOL    HW115083   0.276   0.828   6.492
 4728SOL    HW215084   0.324   0.822   6.648
 4729SOL     OW15085   3.669   0.116   2.303
 4729SOL    HW115086   3.654   0.083   2.210
 4729SOL    HW215087   3.593   0.088   2.361
 4730SOL     OW15088   2.100   6.139   5.632
 4730SOL    HW115089   2.073   6.045   5.610
 4730SOL    HW215090   2.138   6.182   5.550
 4731SOL     OW15091   6.082   1.245   4.825
 4731SOL    HW115092   6.160   1.260   4.765
 4731SOL    HW215093   6.027   1.328   4.830
 4732SOL     OW15094   0.148   3.141   0.014
 4732SOL    HW115095   0.150   3.217   0.079
 4732SOL    HW215096   0.103   3.170   6.955
 4733SOL     OW15097   6.724   4.268   3.628
 4733SOL    HW115098   6.739   4.347   3.569
 4733SOL    HW215099   6.665   4.202   3.582
 4734SOL     OW15100   4.365   3.802   6.465
 4734SOL    HW115101   4.298   3.850   6.408
 4734SOL    HW215102   4.336   3.707   6.477
 4735SOL     OW15103   1.059   4.931   3.675
 4735SOL    HW115104   1.102   4.845   3.649
 4735SOL    HW215105   1.036   4.929   3.772
 4736SOL     OW15106   0.868   0.796   0.202
 4736SOL    HW115107   0.881   0.812   0.104
 4736SOL    HW215108   0.900   0.875   0.254
 4737SOL     OW15109   2.272   5.027   1.880
 4737SOL    HW115110   2.339   4.958   1.855
 4737SOL    HW215111   2.261   5.030   1.979
 4738SOL     OW15112   6.952   6.796   2.084
 4738SOL    HW115113   6.921   6.875   2.137
 4738SOL    HW215114   6.929   6.712   2.133
 4739SOL     OW15115   4.529   0.364   2.197
 4739SOL    HW115116   4.582   0.279   2.191
 4739SOL    HW215117   4.504   0.381   2.292
 4740SOL     OW15118   1.140   1.973   2.710
 4740SOL    HW115119   1.226   1.959   2.758
 4740SOL    HW215120   1.152   1.951   2.613
 4741SOL     OW15121   4.444   3.503   1.697
 4741SOL    HW115122   4.462   3.404   1.697
 4741SOL    HW215123   4.515   3.549   1.750
 4742SOL     OW15124   2.774   6.805   0.491
 4742SOL    HW115125   2.861   6.842   0.461
 4742SOL    HW215126   2.783   6.768   0.583
 4743SOL     OW15127   2.446   5.000   1.148
 4743SOL    HW115128   2.371   5.065   1.136
 4743SOL    HW215129   2.413   4.907   1.132
 4744SOL     OW15130   1.738   6.786   0.828
 4744SOL    HW115131   1.790   6.840   0.894
 4744SOL    HW215132   1.710   6.700   0.870
 4745SOL     OW15133   1.528   4.133   0.294
 4745SOL    HW115134   1.497   4.223   0.325
 4745SOL    HW215135   1.466   4.062   0.329
 4746SOL     OW15136   4.645   5.965   4.601
 4746SOL    HW115137   4.742   5.968   4.575
 4746SOL    HW215138   4.623   6.047   4.654
 4747SOL     OW15139   1.433   2.139   0.870
 4747SOL    HW115140   1.357   2.163   0.931
 4747SOL    HW215141   1.515   2.124   0.925
 4748SOL     OW15142   1.834   6.782   3.119
 4748SOL    HW115143   1.802   6.746   3.031
 4748SOL    HW215144   1.808   6.878   3.126
 4749SOL     OW15145   2.090   0.056   0.126
 4749SOL    HW115146   2.172   0.060   0.183
 4749SOL    HW215147   2.012   0.093   0.177
 4750SOL     OW15148   5.325   3.044   5.465
 4750SOL    HW115149   5.380   3.025   5.546
 4750SOL    HW215150   5.353   2.984   5.390
 4751SOL     OW15151   4.721   0.880   2.904
 4751SOL    HW115152   4.708   0.950   2.974
 4751SOL    HW215153   4.632   0.848   2.872
 4752SOL     OW15154   4.701   1.898   0.299
 4752SOL    HW115155   4.746   1.840   0.231
 4752SOL    HW215156   4.721   1.994   0.279
 4753SOL     OW15157   2.982   6.474   5.298
 4753SOL    HW115158   2.994   6.378   5.275
 4753SOL    HW215159   2.893   6.487   5.343
 4754SOL     OW15160   4.419   4.739   6.379
 4754SOL    HW115161   4.471   4.655   6.390
 4754SOL    HW215162   4.480   4.813   6.351
 4755SOL     OW15163   1.175   0.742   1.414
 4755SOL    HW115164   1.141   0.797   1.338
 4755SOL    HW215165   1.275   0.747   1.416
 4756SOL     OW15166   6.355   3.970   6.647
 4756SOL    HW115167   6.454   3.967   6.641
 4756SOL    HW215168   6.323   4.065   6.643
 4757SOL     OW15169   1.707   3.684   1.591
 4757SOL    HW115170   1.790   3.709   1.641
 4757SOL    HW215171   1.681   3.760   1.531
 4758SOL     OW15172   2.086   6.843   3.369
 4758SOL    HW115173   1.992   6.873   3.382
 4758SOL    HW215174   2.091   6.781   3.290
 4759SOL     OW15175   1.263   4.939   1.144
 4759SOL    HW115176   1.298   4.851   1.176
 4759SOL    HW215177   1.232   4.993   1.223
 4760SOL     OW15178   1.631   6.345   0.606
 4760SOL    HW115179   1.654   6.434   0.645
 4760SOL    HW215180   1.569   6.359   0.528
 4761SOL     OW15181   6.521   6.726   1.179
 4761SOL    HW115182   6.582   6.662   1.132
 4761SOL    HW215183   6.501   6.692   1.271
 4762SOL     OW15184   2.232   6.087   2.206
 4762SOL    HW115185   2.317   6.139   2.201
 4762SOL    HW215186   2.212   6.047   2.116
 4763SOL     OW15187   4.608   5.779   1.997
 4763SOL    HW115188   4.661   5.852   2.039
 4763SOL    HW215189   4.614   5.786   1.897
 4764SOL     OW15190   3.946   3.899   5.998
 4764SOL    HW115191   4.037   3.902   5.958
 4764SOL    HW215192   3.937   3.972   6.066
 4765SOL     OW15193   3.601   1.620   4.985
 4765SOL    HW115194   3.626   1.628   5.082
 4765SOL    HW215195   3.502   1.622   4.975
 4766SOL     OW15196   0.129   6.770   3.974
 4766SOL    HW115197   0.200   6.819   4.024
 4766SOL    HW215198   0.144   6.779   3.876
 4767SOL     OW15199   2.061   4.784   4.935
 4767SOL    HW115200   2.015   4.860   4.888
 4767SOL    HW215201   2.160   4.796   4.929
 4768SOL     OW15202   4.390   1.888   0.497
 4768SOL    HW115203   4.482   1.925   0.486
 4768SOL    HW215204   4.393   1.788   0.489
 4769SOL     OW15205   3.115   5.398   1.674
 4769SOL    HW115206   3.159   5.313   1.705
 4769SOL    HW215207   3.033   5.375   1.622
 4770SOL     OW15208   0.326   1.008   5.347
 4770SOL    HW115209   0.383   0.927   5.334
 4770SOL    HW215210   0.293   1.010   5.441
 4771SOL     OW15211   2.392   6.668   5.375
 4771SOL    HW115212   2.474   6.640   5.325
 4771SOL    HW215213   2.365   6.596   5.439
 4772SOL     OW15214   2.298   6.141   1.462
 4772SOL    HW115215   2.398   6.148   1.464
 4772SOL    HW215216   2.264   6.127   1.555
 4773SOL     OW15217   2.275   4.973   5.254
 4773SOL    HW115218   2.260   5.059   5.206
 4773SOL    HW215219   2.233   4.978   5.345
 4774SOL     OW15220   1.343   3.947   0.418
 4774SOL    HW115221   1.356   3.882   0.343
 4774SOL    HW215222   1.351   3.899   0.505
 4775SOL     OW15223   6.224   6.609   4.978
 4775SOL    HW115224   6.166   6.530   5.000
 4775SOL    HW215225   6.289   6.583   4.907
 4776SOL     OW15226   0.968   0.974   6.049
 4776SOL    HW115227   0.954   0.906   6.121
 4776SOL    HW215228   0.912   0.950   5.969
 4777SOL     OW15229   0.975   6.166   1.501
 4777SOL    HW115230   0.894   6.147   1.557
 4777SOL    HW215231   1.057   6.139   1.552
 4778SOL     OW15232   1.664   2.691   5.766
 4778SOL    HW115233   1.588   2.687   5.701
 4778SOL    HW215234   1.694   2.786   5.775
 4779SOL     OW15235   5.136   1.159   3.740
 4779SOL    HW115236   5.124   1.108   3.825
 4779SOL    HW215237   5.118   1.256   3.756
 4780SOL     OW15238   6.467   2.825   4.962
 4780SOL    HW115239   6.504   2.818   4.869
 4780SOL    HW215240   6.523   2.889   5.015
 4781SOL     OW15241   2.350   6.234   2.940
 4781SOL    HW115242   2.375   6.215   2.845
 4781SOL    HW215243   2.428   6.216   2.999
 4782SOL     OW15244   6.350   5.653   4.318
 4782SOL    HW115245   6.408   5.680   4.241
 4782SOL    HW215246   6.385   5.567   4.357
 4783SOL     OW15247   6.477   3.190   1.275
 4783SOL    HW115248   6.549   3.224   1.214
 4783SOL    HW215249   6.469   3.250   1.354
 4784SOL     OW15250   5.008   2.523   6.062
 4784SOL    HW115251   5.038   2.470   6.142
 4784SOL    HW215252   5.075   2.595   6.044
 4785SOL     OW15253   0.370   5.707   4.039
 4785SOL    HW115254   0.362   5.704   4.139
 4785SOL    HW215255   0.288   5.668   3.997
 4786SOL     OW15256   2.426   6.165   0.452
 4786SOL    HW115257   2.471   6.176   0.541
 4786SOL    HW215258   2.406   6.069   0.436
 4787SOL     OW15259   3.261   0.952   4.622
 4787SOL    HW115260   3.237   1.017   4.694
 4787SOL    HW215261   3.311   1.000   4.550
 4788SOL     OW15262   5.887   6.383   6.607
 4788SOL    HW115263   5.925   6.440   6.680
 4788SOL    HW215264   5.954   6.377   6.532
 4789SOL     OW15265   5.270   0.536   2.429
 4789SOL    HW115266   5.253   0.533   2.528
 4789SOL    HW215267   5.338   0.466   2.405
 4790SOL     OW15268   6.420   2.042   4.856
 4790SOL    HW115269   6.392   1.950   4.827
 4790SOL    HW215270   6.365   2.110   4.810
 4791SOL     OW15271   6.990   1.767   0.017
 4791SOL    HW115272   6.988   1.800   6.947
 4791SOL    HW215273   0.045   1.709   0.030
 4792SOL     OW15274   2.121   3.517   3.389
 4792SOL    HW115275   2.038   3.464   3.402
 4792SOL    HW215276   2.153   3.551   3.477
 4793SOL     OW15277   0.693   3.569   5.778
 4793SOL    HW115278   0.710   3.662   5.809
 4793SOL    HW215279   0.767   3.509   5.810
 4794SOL     OW15280   4.585   0.848   3.985
 4794SOL    HW115281   4.563   0.815   3.894
 4794SOL    HW215282   4.599   0.947   3.982
 4795SOL     OW15283   0.658   0.747   5.324
 4795SOL    HW115284   0.581   0.741   5.260
 4795SOL    HW215285   0.626   0.730   5.417
 4796SOL     OW15286   3.911   1.440   5.213
 4796SOL    HW115287   3.847   1.383   5.162
 4796SOL    HW215288   3.888   1.439   5.310
 4797SOL     OW15289   0.963   5.675   4.762
 4797SOL    HW115290   1.002   5.597   4.714
 4797SOL    HW215291   0.988   5.671   4.859
 4798SOL     OW15292   4.567   4.506   6.391
 4798SOL    HW115293   4.517   4.424   6.421
 4798SOL    HW215294   4.617   4.485   6.307
 4799SOL     OW15295   3.351   2.808   6.331
 4799SOL    HW115296   3.354   2.711   6.307
 4799SOL    HW215297   3.269   2.827   6.385
 4800SOL     OW15298   0.978   4.879   0.434
 4800SOL    HW115299   0.972   4.779   0.439
 4800SOL    HW215300   0.999   4.906   0.340
 4801SOL     OW15301   4.750   2.660   1.813
 4801SOL    HW115302   4.715   2.739   1.762
 4801SOL    HW215303   4.741   2.678   1.911
 4802SOL     OW15304   6.889   6.880   2.704
 4802SOL    HW115305   6.907   6.886   2.802
 4802SOL    HW215306   6.843   6.794   2.683
 4803SOL     OW15307   5.601   3.755   6.097
 4803SOL    HW115308   5.559   3.664   6.099
 4803SOL    HW215309   5.578   3.801   6.011
 4804SOL     OW15310   5.393   1.440   0.533
 4804SOL    HW115311   5.451   1.493   0.471
 4804SOL    HW215312   5.434   1.351   0.550
 4805SOL     OW15313   6.304   2.114   0.952
 4805SOL    HW115314   6.234   2.146   0.888
 4805SOL    HW215315   6.300   2.170   1.035
 4806SOL     OW15316   1.086   0.902   3.082
 4806SOL    HW115317   1.027   0.902   3.001
 4806SOL    HW215318   1.153   0.827   3.074
 4807SOL     OW15319   1.120   2.901   6.043
 4807SOL    HW115320   1.064   2.962   5.986
 4807SOL    HW215321   1.063   2.861   6.115
 4808SOL     OW15322   3.995   5.635   0.484
 4808SOL    HW115323   4.090   5.605   0.496
 4808SOL    HW215324   3.933   5.561   0.510
 4809SOL     OW15325   3.648   4.893   1.695
 4809SOL    HW115326   3.611   4.826   1.760
 4809SOL    HW215327   3.610   4.983   1.715
 4810SOL     OW15328   0.472   3.972   3.617
 4810SOL    HW115329   0.547   3.907   3.608
 4810SOL    HW215330   0.445   4.005   3.527
 4811SOL     OW15331   2.873   3.764   4.745
 4811SOL    HW115332   2.847   3.698   4.674
 4811SOL    HW215333   2.919   3.715   4.819
 4812SOL     OW15334   0.278   0.187   2.504
 4812SOL    HW115335   0.312   0.257   2.442
 4812SOL    HW215336   0.334   0.186   2.587
 4813SOL     OW15337   6.282   1.612   6.154
 4813SOL    HW115338   6.290   1.517   6.123
 4813SOL    HW215339   6.281   1.614   6.254
 4814SOL     OW15340   6.707   4.045   1.516
 4814SOL    HW115341   6.712   4.062   1.615
 4814SOL    HW215342   6.612   4.055   1.486
 4815SOL     OW15343   5.165   5.279   2.963
 4815SOL    HW115344   5.103   5.203   2.943
 4815SOL    HW215345   5.111   5.358   2.994
 4816SOL     OW15346   1.828   0.270   2.069
 4816SOL    HW115347   1.911   0.220   2.048
 4816SOL    HW215348   1.839   0.320   2.155
 4817SOL     OW15349   4.245   1.317   0.726
 4817SOL    HW115350   4.255   1.375   0.646
 4817SOL    HW215351   4.266   1.222   0.702
 4818SOL     OW15352   3.515   0.146   5.005
 4818SOL    HW115353   3.513   0.094   4.919
 4818SOL    HW215354   3.422   0.165   5.034
 4819SOL     OW15355   2.648   0.581   1.137
 4819SOL    HW115356   2.651   0.608   1.233
 4819SOL    HW215357   2.555   0.592   1.102
 4820SOL     OW15358   6.826   4.030   2.188
 4820SOL    HW115359   6.761   4.105   2.174
 4820SOL    HW215360   6.898   4.036   2.119
 4821SOL     OW15361   6.663   5.015   1.360
 4821SOL    HW115362   6.745   5.071   1.355
 4821SOL    HW215363   6.664   4.947   1.287
 4822SOL     OW15364   1.843   4.145   3.361
 4822SOL    HW115365   1.911   4.072   3.349
 4822SOL    HW215366   1.884   4.220   3.412
 4823SOL     OW15367   1.017   0.770   4.619
 4823SOL    HW115368   0.954   0.729   4.554
 4823SOL    HW215369   1.109   0.732   4.605
 4824SOL     OW15370   5.072   2.808   2.633
 4824SOL    HW115371   5.060   2.728   2.691
 4824SOL    HW215372   5.080   2.890   2.690
 4825SOL     OW15373   0.831   3.787   2.684
 4825SOL    HW115374   0.914   3.739   2.653
 4825SOL    HW215375   0.794   3.740   2.764
 4826SOL     OW15376   0.266   5.849   0.876
 4826SOL    HW115377   0.229   5.871   0.967
 4826SOL    HW215378   0.251   5.927   0.815
 4827SOL     OW15379   4.740   0.659   0.931
 4827SOL    HW115380   4.691   0.597   0.869
 4827SOL    HW215381   4.792   0.725   0.878
 4828SOL     OW15382   5.004   3.475   1.257
 4828SOL    HW115383   4.979   3.440   1.167
 4828SOL    HW215384   5.094   3.518   1.253
 4829SOL     OW15385   3.185   1.337   6.155
 4829SOL    HW115386   3.206   1.409   6.089
 4829SOL    HW215387   3.249   1.261   6.143
 4830SOL     OW15388   4.404   6.837   4.431
 4830SOL    HW115389   4.453   6.827   4.345
 4830SOL    HW215390   4.457   6.893   4.494
 4831SOL     OW15391   6.248   4.563   5.804
 4831SOL    HW115392   6.241   4.559   5.704
 4831SOL    HW215393   6.197   4.643   5.837
 4832SOL     OW15394   2.457   3.443   5.917
 4832SOL    HW115395   2.386   3.395   5.970
 4832SOL    HW215396   2.536   3.460   5.975
 4833SOL     OW15397   3.836   1.332   2.980
 4833SOL    HW115398   3.893   1.368   2.907
 4833SOL    HW215399   3.881   1.345   3.068
 4834SOL     OW15400   5.001   1.528   2.161
 4834SOL    HW115401   5.090   1.487   2.181
 4834SOL    HW215402   5.011   1.593   2.086
 4835SOL     OW15403   2.003   6.865   6.966
 4835SOL    HW115404   2.042   6.917   0.017
 4835SOL    HW215405   2.073   6.803   6.930
 4836SOL     OW15406   4.894   2.098   4.389
 4836SOL    HW115407   4.958   2.061   4.456
 4836SOL    HW215408   4.836   2.024   4.354
 4837SOL     OW15409   2.369   2.847   0.301
 4837SOL    HW115410   2.270   2.861   0.307
 4837SOL    HW215411   2.415   2.909   0.364
 4838SOL     OW15412   3.639   4.987   2.076
 4838SOL    HW115413   3.549   4.992   2.120
 4838SOL    HW215414   3.642   4.908   2.015
 4839SOL     OW15415   0.346   5.213   6.158
 4839SOL    HW115416   0.351   5.279   6.233
 4839SOL    HW215417   0.401   5.132   6.181
 4840SOL     OW15418   6.733   6.051   0.166
 4840SOL    HW115419   6.828   6.045   0.195
 4840SOL    HW215420   6.712   5.976   0.103
 4841SOL     OW15421   2.990   5.372   2.298
 4841SOL    HW115422   3.037   5.446   2.249
 4841SOL    HW215423   2.926   5.411   2.364
 4842SOL     OW15424   4.813   6.155   1.317
 4842SOL    HW115425   4.873   6.113   1.250
 4842SOL    HW215426   4.853   6.146   1.408
 4843SOL     OW15427   6.612   3.396   0.251
 4843SOL    HW115428   6.691   3.376   0.193
 4843SOL    HW215429   6.566   3.311   0.276
 4844SOL     OW15430   5.860   2.354   6.089
 4844SOL    HW115431   5.943   2.328   6.137
 4844SOL    HW215432   5.793   2.388   6.155
 4845SOL     OW15433   5.653   5.163   4.140
 4845SOL    HW115434   5.667   5.143   4.043
 4845SOL    HW215435   5.569   5.216   4.152
 4846SOL     OW15436   1.417   2.961   1.028
 4846SOL    HW115437   1.478   3.027   0.984
 4846SOL    HW215438   1.414   2.878   0.973
 4847SOL     OW15439   3.581   2.145   5.096
 4847SOL    HW115440   3.643   2.145   5.018
 4847SOL    HW215441   3.487   2.148   5.064
 4848SOL     OW15442   2.745   1.785   2.730
 4848SOL    HW115443   2.829   1.733   2.736
 4848SOL    HW215444   2.727   1.810   2.634
 4849SOL     OW15445   0.859   0.452   0.494
 4849SOL    HW115446   0.880   0.522   0.562
 4849SOL    HW215447   0.837   0.496   0.407
 4850SOL     OW15448   4.167   0.340   1.687
 4850SOL    HW115449   4.191   0.370   1.595
 4850SOL    HW215450   4.227   0.386   1.753
 4851SOL     OW15451   4.444   6.487   5.102
 4851SOL    HW115452   4.402   6.492   5.193
 4851SOL    HW215453   4.399   6.551   5.041
 4852SOL     OW15454   2.367   0.932   6.791
 4852SOL    HW115455   2.305   1.010   6.802
 4852SOL    HW215456   2.338   0.878   6.712
 4853SOL     OW15457   3.723   1.454   2.298
 4853SOL    HW115458   3.762   1.376   2.346
 4853SOL    HW215459   3.793   1.498   2.241
 4854SOL     OW15460   5.235   6.367   2.189
 4854SOL    HW115461   5.142   6.332   2.193
 4854SOL    HW215462   5.236   6.462   2.221
 4855SOL     OW15463   5.977   1.405   2.230
 4855SOL    HW115464   5.982   1.496   2.189
 4855SOL    HW215465   6.007   1.410   2.325
 4856SOL     OW15466   2.738   4.865   4.016
 4856SOL    HW115467   2.753   4.803   3.940
 4856SOL    HW215468   2.676   4.938   3.987
 4857SOL     OW15469   0.514   2.006   5.673
 4857SOL    HW115470   0.544   2.001   5.769
 4857SOL    HW215471   0.417   2.028   5.670
 4858SOL     OW15472   1.959   2.160   4.501
 4858SOL    HW115473   1.946   2.241   4.557
 4858SOL    HW215474   2.009   2.090   4.552
 4859SOL     OW15475   1.731   5.917   5.024
 4859SOL    HW115476   1.712   5.990   5.090
 4859SOL    HW215477   1.646   5.871   4.999
 4860SOL     OW15478   4.843   5.031   1.803
 4860SOL    HW115479   4.765   4.971   1.789
 4860SOL    HW215480   4.845   5.101   1.731
 4861SOL     OW15481   4.873   4.161   5.414
 4861SOL    HW115482   4.817   4.141   5.494
 4861SOL    HW215483   4.821   4.220   5.351
 4862SOL     OW15484   2.199   6.046   2.475
 4862SOL    HW115485   2.205   6.037   2.375
 4862SOL    HW215486   2.106   6.070   2.501
 4863SOL     OW15487   6.034   3.763   0.008
 4863SOL    HW115488   5.999   3.708   0.084
 4863SOL    HW215489   5.959   3.813   6.991
 4864SOL     OW15490   2.953   0.961   3.075
 4864SOL    HW115491   3.002   1.012   3.005
 4864SOL    HW215492   2.856   0.954   3.049
 4865SOL     OW15493   2.786   5.871   4.975
 4865SOL    HW115494   2.701   5.857   4.923
 4865SOL    HW215495   2.775   5.833   5.067
 4866SOL     OW15496   6.608   3.963   1.082
 4866SOL    HW115497   6.572   3.967   1.175
 4866SOL    HW215498   6.560   4.030   1.025
 4867SOL     OW15499   4.468   6.552   2.847
 4867SOL    HW115500   4.549   6.494   2.842
 4867SOL    HW215501   4.412   6.539   2.765
 4868SOL     OW15502   6.589   4.454   1.515
 4868SOL    HW115503   6.564   4.375   1.458
 4868SOL    HW215504   6.575   4.431   1.611
 4869SOL     OW15505   0.689   1.604   6.200
 4869SOL    HW115506   0.758   1.673   6.176
 4869SOL    HW215507   0.617   1.647   6.256
 4870SOL     OW15508   1.062   6.017   1.814
 4870SOL    HW115509   1.114   6.076   1.753
 4870SOL    HW215510   1.003   6.073   1.872
 4871SOL     OW15511   1.611   0.915   4.449
 4871SOL    HW115512   1.603   0.921   4.350
 4871SOL    HW215513   1.524   0.938   4.492
 4872SOL     OW15514   6.868   0.108   3.161
 4872SOL    HW115515   6.834   0.080   3.251
 4872SOL    HW215516   6.936   0.181   3.172
 4873SOL     OW15517   0.279   6.427   4.931
 4873SOL    HW115518   0.324   6.442   5.019
 4873SOL    HW215519   0.347   6.405   4.862
 4874SOL     OW15520   4.945   2.809   3.449
 4874SOL    HW115521   4.966   2.878   3.518
 4874SOL    HW215522   4.952   2.850   3.358
 4875SOL     OW15523   5.211   6.681   6.683
 4875SOL    HW115524   5.134   6.698   6.621
 4875SOL    HW215525   5.229   6.763   6.736
 4876SOL     OW15526   1.558   1.618   2.884
 4876SOL    HW115527   1.601   1.686   2.944
 4876SOL    HW215528   1.615   1.536   2.882
 4877SOL     OW15529   0.947   1.106   4.355
 4877SOL    HW115530   0.896   1.020   4.349
 4877SOL    HW215531   0.954   1.147   4.264
 4878SOL     OW15532   6.657   1.772   2.188
 4878SOL    HW115533   6.713   1.854   2.197
 4878SOL    HW215534   6.712   1.698   2.148
 4879SOL     OW15535   4.539   1.822   2.723
 4879SOL    HW115536   4.462   1.862   2.673
 4879SOL    HW215537   4.616   1.808   2.661
 4880SOL     OW15538   6.019   3.043   6.069
 4880SOL    HW115539   6.084   2.980   6.026
 4880SOL    HW215540   6.068   3.099   6.136
 4881SOL     OW15541   1.827   2.813   2.056
 4881SOL    HW115542   1.843   2.734   2.115
 4881SOL    HW215543   1.911   2.866   2.048
 4882SOL     OW15544   4.554   2.528   5.082
 4882SOL    HW115545   4.455   2.509   5.080
 4882SOL    HW215546   4.604   2.447   5.053
 4883SOL     OW15547   5.546   3.413   0.898
 4883SOL    HW115548   5.620   3.467   0.858
 4883SOL    HW215549   5.579   3.320   0.916
 4884SOL     OW15550   1.721   6.382   1.610
 4884SOL    HW115551   1.651   6.318   1.642
 4884SOL    HW215552   1.709   6.397   1.512
 4885SOL     OW15553   1.806   4.841   1.035
 4885SOL    HW115554   1.756   4.841   1.121
 4885SOL    HW215555   1.763   4.904   0.971
 4886SOL     OW15556   3.845   1.100   2.182
 4886SOL    HW115557   3.887   1.142   2.102
 4886SOL    HW215558   3.759   1.058   2.156
 4887SOL     OW15559   1.085   6.343   2.069
 4887SOL    HW115560   1.150   6.301   2.006
 4887SOL    HW215561   1.123   6.427   2.106
 4888SOL     OW15562   3.122   6.633   2.972
 4888SOL    HW115563   3.182   6.705   3.005
 4888SOL    HW215564   3.176   6.554   2.944
 4889SOL     OW15565   6.496   2.270   3.887
 4889SOL    HW115566   6.463   2.182   3.923
 4889SOL    HW215567   6.439   2.344   3.923
 4890SOL     OW15568   0.825   0.812   5.089
 4890SOL    HW115569   0.905   0.848   5.137
 4890SOL    HW215570   0.756   0.785   5.156
 4891SOL     OW15571   2.633   5.535   6.185
 4891SOL    HW115572   2.654   5.438   6.201
 4891SOL    HW215573   2.622   5.582   6.272
 4892SOL     OW15574   5.729   6.619   2.444
 4892SOL    HW115575   5.675   6.561   2.383
 4892SOL    HW215576   5.701   6.603   2.539
 4893SOL     OW15577   0.112   3.879   1.674
 4893SOL    HW115578   0.072   3.867   1.765
 4893SOL    HW215579   0.211   3.888   1.682
 4894SOL     OW15580   3.815   6.591   2.312
 4894SOL    HW115581   3.867   6.513   2.277
 4894SOL    HW215582   3.840   6.673   2.261
 4895SOL     OW15583   6.910   5.243   3.597
 4895SOL    HW115584   6.990   5.251   3.657
 4895SOL    HW215585   6.849   5.173   3.632
 4896SOL     OW15586   1.980   5.035   3.689
 4896SOL    HW115587   1.963   5.063   3.783
 4896SOL    HW215588   2.052   5.092   3.649
 4897SOL     OW15589   1.884   5.773   5.604
 4897SOL    HW115590   1.966   5.746   5.552
 4897SOL    HW215591   1.825   5.694   5.617
 4898SOL     OW15592   3.681   1.987   4.283
 4898SOL    HW115593   3.652   1.893   4.300
 4898SOL    HW215594   3.659   2.043   4.363
 4899SOL     OW15595   6.866   5.187   1.979
 4899SOL    HW115596   6.847   5.277   2.017
 4899SOL    HW215597   6.888   5.124   2.053
 4900SOL     OW15598   4.278   6.185   5.675
 4900SOL    HW115599   4.209   6.256   5.687
 4900SOL    HW215600   4.364   6.227   5.647
 4901SOL     OW15601   0.605   1.439   6.007
 4901SOL    HW115602   0.634   1.505   6.077
 4901SOL    HW215603   0.686   1.402   5.962
 4902SOL     OW15604   2.361   0.471   6.631
 4902SOL    HW115605   2.433   0.494   6.565
 4902SOL    HW215606   2.311   0.390   6.598
 4903SOL     OW15607   5.477   5.613   1.379
 4903SOL    HW115608   5.552   5.596   1.315
 4903SOL    HW215609   5.390   5.612   1.330
 4904SOL     OW15610   1.245   0.800   0.162
 4904SOL    HW115611   1.332   0.815   0.209
 4904SOL    HW215612   1.222   0.880   0.107
 4905SOL     OW15613   3.581   6.731   3.271
 4905SOL    HW115614   3.538   6.646   3.241
 4905SOL    HW215615   3.557   6.804   3.208
 4906SOL     OW15616   4.960   3.069   5.143
 4906SOL    HW115617   4.903   2.998   5.103
 4906SOL    HW215618   4.964   3.147   5.080
 4907SOL     OW15619   4.856   1.466   6.984
 4907SOL    HW115620   4.779   1.407   7.007
 4907SOL    HW215621   4.837   1.560   7.013
 4908SOL     OW15622   4.878   0.072   6.943
 4908SOL    HW115623   4.872   0.040   6.849
 4908SOL    HW215624   4.787   0.096   6.977
 4909SOL     OW15625   5.973   4.019   3.293
 4909SOL    HW115626   6.010   3.931   3.322
 4909SOL    HW215627   6.002   4.090   3.358
 4910SOL     OW15628   4.795   1.229   6.011
 4910SOL    HW115629   4.845   1.144   5.991
 4910SOL    HW215630   4.711   1.207   6.061
 4911SOL     OW15631   1.880   1.975   1.989
 4911SOL    HW115632   1.831   2.056   1.956
 4911SOL    HW215633   1.829   1.934   2.064
 4912SOL     OW15634   5.990   1.917   5.209
 4912SOL    HW115635   6.051   1.922   5.130
 4912SOL    HW215636   6.007   1.831   5.259
 4913SOL     OW15637   6.173   2.712   4.719
 4913SOL    HW115638   6.175   2.796   4.663
 4913SOL    HW215639   6.189   2.633   4.660
 4914SOL     OW15640   4.621   0.916   4.353
 4914SOL    HW115641   4.551   0.971   4.307
 4914SOL    HW215642   4.710   0.934   4.312
 4915SOL     OW15643   3.375   5.846   5.439
 4915SOL    HW115644   3.467   5.827   5.403
 4915SOL    HW215645   3.368   5.942   5.464
 4916SOL     OW15646   6.013   1.263   3.750
 4916SOL    HW115647   6.100   1.312   3.762
 4916SOL    HW215648   6.020   1.172   3.793
 4917SOL     OW15649   4.367   6.203   0.820
 4917SOL    HW115650   4.402   6.290   0.783
 4917SOL    HW215651   4.268   6.209   0.830
 4918SOL     OW15652   6.614   5.495   2.049
 4918SOL    HW115653   6.694   5.552   2.031
 4918SOL    HW215654   6.622   5.409   2.000
 4919SOL     OW15655   4.140   3.417   2.000
 4919SOL    HW115656   4.168   3.467   1.918
 4919SOL    HW215657   4.050   3.375   1.985
 4920SOL     OW15658   6.125   1.143   5.068
 4920SOL    HW115659   6.096   1.182   4.981
 4920SOL    HW215660   6.206   1.086   5.055
 4921SOL     OW15661   0.332   6.912   1.101
 4921SOL    HW115662   0.425   6.881   1.122
 4921SOL    HW215663   0.267   6.846   1.138
 4922SOL     OW15664   3.902   2.005   5.368
 4922SOL    HW115665   3.843   2.083   5.346
 4922SOL    HW215666   3.995   2.038   5.384
 4923SOL     OW15667   3.269   1.672   2.894
 4923SOL    HW115668   3.206   1.714   2.828
 4923SOL    HW215669   3.217   1.616   2.959
 4924SOL     OW15670   2.705   1.516   6.357
 4924SOL    HW115671   2.761   1.543   6.279
 4924SOL    HW215672   2.703   1.590   6.424
 4925SOL     OW15673   4.606   6.911   3.044
 4925SOL    HW115674   4.647   6.943   2.959
 4925SOL    HW215675   4.509   6.932   3.045
 4926SOL     OW15676   5.587   2.189   1.717
 4926SOL    HW115677   5.636   2.246   1.651
 4926SOL    HW215678   5.518   2.135   1.671
 4927SOL     OW15679   3.632   1.709   6.569
 4927SOL    HW115680   3.564   1.752   6.629
 4927SOL    HW215681   3.664   1.624   6.611
 4928SOL     OW15682   1.043   2.438   1.138
 4928SOL    HW115683   0.980   2.421   1.062
 4928SOL    HW215684   1.020   2.378   1.215
 4929SOL     OW15685   6.906   0.214   3.883
 4929SOL    HW115686   6.814   0.190   3.851
 4929SOL    HW215687   6.974   0.172   3.824
 4930SOL     OW15688   5.920   6.677   1.961
 4930SOL    HW115689   5.844   6.730   1.998
 4930SOL    HW215690   5.933   6.700   1.865
 4931SOL     OW15691   6.390   6.025   1.824
 4931SOL    HW115692   6.379   6.028   1.725
 4931SOL    HW215693   6.426   5.936   1.851
 4932SOL     OW15694   2.891   3.332   2.423
 4932SOL    HW115695   2.855   3.350   2.515
 4932SOL    HW215696   2.932   3.416   2.387
 4933SOL     OW15697   3.203   5.990   4.825
 4933SOL    HW115698   3.277   5.928   4.798
 4933SOL    HW215699   3.170   6.040   4.745
 4934SOL     OW15700   3.651   5.444   3.287
 4934SOL    HW115701   3.666   5.542   3.298
 4934SOL    HW215702   3.725   5.405   3.232
 4935SOL     OW15703   0.698   1.887   6.804
 4935SOL    HW115704   0.640   1.891   6.723
 4935SOL    HW215705   0.789   1.856   6.779
 4936SOL     OW15706   2.506   4.026   1.196
 4936SOL    HW115707   2.565   4.058   1.269
 4936SOL    HW215708   2.553   3.956   1.142
 4937SOL     OW15709   5.039   3.498   4.851
 4937SOL    HW115710   5.133   3.471   4.831
 4937SOL    HW215711   5.018   3.584   4.805
 4938SOL     OW15712   4.299   5.106   5.989
 4938SOL    HW115713   4.317   5.009   5.972
 4938SOL    HW215714   4.227   5.138   5.928
 4939SOL     OW15715   4.732   3.260   5.420
 4939SOL    HW115716   4.636   3.237   5.409
 4939SOL    HW215717   4.787   3.176   5.416
 4940SOL     OW15718   2.016   6.209   4.828
 4940SOL    HW115719   2.087   6.274   4.801
 4940SOL    HW215720   2.052   6.148   4.899
 4941SOL     OW15721   4.953   1.218   0.219
 4941SOL    HW115722   4.886   1.286   0.248
 4941SOL    HW215723   5.021   1.206   0.291
 4942SOL     OW15724   5.017   3.693   5.197
 4942SOL    HW115725   5.074   3.611   5.187
 4942SOL    HW215726   4.939   3.688   5.134
 4943SOL     OW15727   4.098   2.301   0.745
 4943SOL    HW115728   4.196   2.280   0.744
 4943SOL    HW215729   4.048   2.224   0.785
 4944SOL     OW15730   1.922   4.734   2.435
 4944SOL    HW115731   2.020   4.728   2.453
 4944SOL    HW215732   1.906   4.800   2.361
 4945SOL     OW15733   0.054   6.315   3.711
 4945SOL    HW115734   7.004   6.252   3.696
 4945SOL    HW215735   0.019   6.407   3.728
 4946SOL     OW15736   1.519   3.763   2.443
 4946SOL    HW115737   1.508   3.837   2.508
 4946SOL    HW215738   1.535   3.677   2.491
 4947SOL     OW15739   0.777   0.105   0.559
 4947SOL    HW115740   0.810   0.098   0.653
 4947SOL    HW215741   0.816   0.031   0.504
 4948SOL     OW15742   2.576   1.172   2.058
 4948SOL    HW115743   2.538   1.133   2.142
 4948SOL    HW215744   2.676   1.161   2.059
 4949SOL     OW15745   5.741   0.978   4.923
 4949SOL    HW115746   5.645   0.964   4.899
 4949SOL    HW215747   5.752   0.974   5.022
 4950SOL     OW15748   2.650   5.380   5.234
 4950SOL    HW115749   2.650   5.343   5.327
 4950SOL    HW215750   2.719   5.451   5.226
 4951SOL     OW15751   4.336   1.926   4.455
 4951SOL    HW115752   4.391   1.856   4.501
 4951SOL    HW215753   4.293   1.887   4.374
 4952SOL     OW15754   0.127   6.426   5.629
 4952SOL    HW115755   0.215   6.471   5.644
 4952SOL    HW215756   0.125   6.388   5.537
 4953SOL     OW15757   1.815   5.669   1.867
 4953SOL    HW115758   1.766   5.727   1.932
 4953SOL    HW215759   1.909   5.701   1.860
 4954SOL     OW15760   5.438   5.460   6.741
 4954SOL    HW115761   5.475   5.407   6.665
 4954SOL    HW215762   5.503   5.532   6.767
 4955SOL     OW15763   1.646   6.693   1.474
 4955SOL    HW115764   1.692   6.753   1.409
 4955SOL    HW215765   1.654   6.598   1.442
 4956SOL     OW15766   4.062   6.900   4.864
 4956SOL    HW115767   4.142   6.938   4.909
 4956SOL    HW215768   4.084   6.810   4.827
 4957SOL     OW15769   1.070   0.557   3.687
 4957SOL    HW115770   1.101   0.535   3.595
 4957SOL    HW215771   1.105   0.647   3.714
 4958SOL     OW15772   0.501   5.559   0.013
 4958SOL    HW115773   0.485   5.596   6.947
 4958SOL    HW215774   0.485   5.630   0.081
 4959SOL     OW15775   0.926   0.889   1.693
 4959SOL    HW115776   1.005   0.833   1.719
 4959SOL    HW215777   0.842   0.840   1.716
 4960SOL     OW15778   3.709   6.512   4.569
 4960SOL    HW115779   3.611   6.522   4.548
 4960SOL    HW215780   3.743   6.428   4.528
 4961SOL     OW15781   4.887   0.837   4.723
 4961SOL    HW115782   4.796   0.852   4.682
 4961SOL    HW215783   4.897   0.740   4.745
 4962SOL     OW15784   6.845   2.440   1.497
 4962SOL    HW115785   6.934   2.486   1.488
 4962SOL    HW215786   6.797   2.477   1.577
 4963SOL     OW15787   0.644   4.967   1.742
 4963SOL    HW115788   0.681   4.877   1.767
 4963SOL    HW215789   0.657   4.981   1.643
 4964SOL     OW15790   3.140   6.700   3.497
 4964SOL    HW115791   3.072   6.663   3.433
 4964SOL    HW215792   3.151   6.798   3.481
 4965SOL     OW15793   6.353   0.309   4.499
 4965SOL    HW115794   6.361   0.367   4.418
 4965SOL    HW215795   6.441   0.306   4.547
 4966SOL     OW15796   3.159   5.191   4.968
 4966SOL    HW115797   3.121   5.162   5.056
 4966SOL    HW215798   3.258   5.196   4.975
 4967SOL     OW15799   3.764   2.570   6.159
 4967SOL    HW115800   3.777   2.651   6.102
 4967SOL    HW215801   3.685   2.518   6.126
 4968SOL     OW15802   6.268   3.394   5.416
 4968SOL    HW115803   6.191   3.332   5.404
 4968SOL    HW215804   6.327   3.390   5.336
 4969SOL     OW15805   1.443   0.723   1.802
 4969SOL    HW115806   1.390   0.649   1.843
 4969SOL    HW215807   1.535   0.690   1.779
 4970SOL     OW15808   1.010   2.218   4.919
 4970SOL    HW115809   1.109   2.205   4.912
 4970SOL    HW215810   0.981   2.287   4.853
 4971SOL     OW15811   6.063   6.633   3.584
 4971SOL    HW115812   6.147   6.611   3.535
 4971SOL    HW215813   5.990   6.573   3.553
 4972SOL     OW15814   1.967   3.505   0.378
 4972SOL    HW115815   2.000   3.549   0.294
 4972SOL    HW215816   1.933   3.574   0.441
 4973SOL     OW15817   5.952   6.018   2.505
 4973SOL    HW115818   6.050   6.027   2.491
 4973SOL    HW215819   5.913   6.108   2.527
 4974SOL     OW15820   5.722   6.340   2.318
 4974SOL    HW115821   5.688   6.246   2.307
 4974SOL    HW215822   5.689   6.396   2.242
 4975SOL     OW15823   6.143   5.623   0.876
 4975SOL    HW115824   6.045   5.609   0.883
 4975SOL    HW215825   6.179   5.569   0.800
 4976SOL     OW15826   3.649   0.506   5.152
 4976SOL    HW115827   3.724   0.568   5.131
 4976SOL    HW215828   3.593   0.544   5.225
 4977SOL     OW15829   3.507   2.973   0.766
 4977SOL    HW115830   3.484   2.924   0.681
 4977SOL    HW215831   3.458   3.060   0.767
 4978SOL     OW15832   5.440   3.211   6.390
 4978SOL    HW115833   5.484   3.298   6.365
 4978SOL    HW215834   5.508   3.138   6.389
 4979SOL     OW15835   0.792   0.127   5.505
 4979SOL    HW115836   0.816   0.209   5.454
 4979SOL    HW215837   0.861   0.110   5.576
 4980SOL     OW15838   3.708   5.153   2.509
 4980SOL    HW115839   3.712   5.222   2.582
 4980SOL    HW215840   3.748   5.191   2.426
 4981SOL     OW15841   4.146   6.426   5.609
 4981SOL    HW115842   4.156   6.516   5.651
 4981SOL    HW215843   4.161   6.433   5.510
 4982SOL     OW15844   2.434   2.588   0.310
 4982SOL    HW115845   2.407   2.684   0.310
 4982SOL    HW215846   2.352   2.530   0.307
 4983SOL     OW15847   5.267   3.216   4.351
 4983SOL    HW115848   5.259   3.240   4.448
 4983SOL    HW215849   5.218   3.131   4.333
 4984SOL     OW15850   4.863   3.712   3.808
 4984SOL    HW115851   4.863   3.688   3.711
 4984SOL    HW215852   4.794   3.783   3.825
 4985SOL     OW15853   5.197   5.171   2.314
 4985SOL    HW115854   5.194   5.072   2.300
 4985SOL    HW215855   5.184   5.191   2.411
 4986SOL     OW15856   5.118   4.707   2.845
 4986SOL    HW115857   5.093   4.645   2.771
 4986SOL    HW215858   5.035   4.733   2.896
 4987SOL     OW15859   0.181   3.188   1.330
 4987SOL    HW115860   0.090   3.191   1.370
 4987SOL    HW215861   0.176   3.154   1.236
 4988SOL     OW15862   0.613   1.377   4.111
 4988SOL    HW115863   0.612   1.284   4.074
 4988SOL    HW215864   0.659   1.376   4.200
 4989SOL     OW15865   0.163   1.520   0.517
 4989SOL    HW115866   0.120   1.571   0.591
 4989SOL    HW215867   0.130   1.426   0.517
 4990SOL     OW15868   1.344   2.408   5.348
 4990SOL    HW115869   1.297   2.495   5.333
 4990SOL    HW215870   1.399   2.386   5.268
 4991SOL     OW15871   1.227   2.990   4.108
 4991SOL    HW115872   1.191   2.942   4.028
 4991SOL    HW215873   1.228   2.928   4.187
 4992SOL     OW15874   3.402   0.931   5.263
 4992SOL    HW115875   3.470   0.872   5.219
 4992SOL    HW215876   3.325   0.876   5.294
 4993SOL     OW15877   2.743   6.246   3.948
 4993SOL    HW115878   2.824   6.213   3.899
 4993SOL    HW215879   2.754   6.227   4.046
 4994SOL     OW15880   0.470   0.154   2.789
 4994SOL    HW115881   0.517   0.090   2.729
 4994SOL    HW215882   0.496   0.248   2.765
 4995SOL     OW15883   6.079   2.316   6.303
 4995SOL    HW115884   6.105   2.408   6.332
 4995SOL    HW215885   6.157   2.274   6.256
 4996SOL     OW15886   1.089   1.549   3.061
 4996SOL    HW115887   1.083   1.477   3.130
 4996SOL    HW215888   1.029   1.527   2.984
 4997SOL     OW15889   0.044   2.981   3.651
 4997SOL    HW115890   0.084   2.946   3.736
 4997SOL    HW215891   0.101   2.953   3.573
 4998SOL     OW15892   1.354   5.418   4.706
 4998SOL    HW115893   1.442   5.371   4.720
 4998SOL    HW215894   1.336   5.478   4.784
 4999SOL     OW15895   5.903   5.380   1.462
 4999SOL    HW115896   5.840   5.313   1.422
 4999SOL    HW215897   5.938   5.440   1.389
 5000SOL     OW15898   0.068   7.019   4.518
 5000SOL    HW115899   0.130   6.963   4.463
 5000SOL    HW215900   0.089   7.007   4.615
 5001SOL     OW15901   3.400   4.257   5.201
 5001SOL    HW115902   3.449   4.266   5.287
 5001SOL    HW215903   3.323   4.321   5.200
 5002SOL     OW15904   1.741   0.998   1.878
 5002SOL    HW115905   1.652   1.042   1.872
 5002SOL    HW215906   1.743   0.919   1.816
 5003SOL     OW15907   6.373   6.036   2.728
 5003SOL    HW115908   6.423   5.956   2.761
 5003SOL    HW215909   6.411   6.119   2.769
 5004SOL     OW15910   3.000   6.498   6.825
 5004SOL    HW115911   2.920   6.447   6.857
 5004SOL    HW215912   3.070   6.435   6.794
 5005SOL     OW15913   4.360   3.020   0.131
 5005SOL    HW115914   4.448   3.011   0.084
 5005SOL    HW215915   4.313   2.932   0.131
 5006SOL     OW15916   5.013   6.345   4.866
 5006SOL    HW115917   5.033   6.285   4.788
 5006SOL    HW215918   5.007   6.290   4.949
 5007SOL     OW15919   4.074   1.105   5.185
 5007SOL    HW115920   4.029   1.052   5.114
 5007SOL    HW215921   4.081   1.201   5.156
 5008SOL     OW15922   5.871   0.817   3.319
 5008SOL    HW115923   5.914   0.735   3.279
 5008SOL    HW215924   5.830   0.872   3.246
 5009SOL     OW15925   0.922   6.363   2.987
 5009SOL    HW115926   0.847   6.399   2.932
 5009SOL    HW215927   0.973   6.296   2.935
 5010SOL     OW15928   3.842   3.978   4.058
 5010SOL    HW115929   3.811   4.055   4.113
 5010SOL    HW215930   3.809   3.893   4.098
 5011SOL     OW15931   0.974   2.791   2.740
 5011SOL    HW115932   0.961   2.850   2.660
 5011SOL    HW215933   0.900   2.723   2.744
 5012SOL     OW15934   6.782   2.725   6.387
 5012SOL    HW115935   6.699   2.781   6.387
 5012SOL    HW215936   6.848   2.763   6.452
 5013SOL     OW15937   4.194   1.790   6.018
 5013SOL    HW115938   4.108   1.746   6.045
 5013SOL    HW215939   4.237   1.832   6.098
 5014SOL     OW15940   5.728   6.448   0.212
 5014SOL    HW115941   5.698   6.353   0.203
 5014SOL    HW215942   5.729   6.474   0.308
 5015SOL     OW15943   4.472   2.411   3.781
 5015SOL    HW115944   4.500   2.496   3.736
 5015SOL    HW215945   4.553   2.363   3.815
 5016SOL     OW15946   2.415   0.309   2.817
 5016SOL    HW115947   2.421   0.368   2.897
 5016SOL    HW215948   2.467   0.350   2.742
 5017SOL     OW15949   2.497   2.711   1.141
 5017SOL    HW115950   2.568   2.698   1.071
 5017SOL    HW215951   2.451   2.624   1.157
 5018SOL     OW15952   5.967   5.204   3.856
 5018SOL    HW115953   5.973   5.268   3.780
 5018SOL    HW215954   6.038   5.134   3.847
 5019SOL     OW15955   1.958   4.257   6.989
 5019SOL    HW115956   1.926   4.266   6.895
 5019SOL    HW215957   1.966   4.161   7.013
 5020SOL     OW15958   5.287   4.737   6.588
 5020SOL    HW115959   5.250   4.822   6.624
 5020SOL    HW215960   5.236   4.710   6.506
 5021SOL     OW15961   1.895   4.342   6.301
 5021SOL    HW115962   1.978   4.319   6.250
 5021SOL    HW215963   1.879   4.440   6.295
 5022SOL     OW15964   1.401   6.086   0.473
 5022SOL    HW115965   1.454   6.138   0.406
 5022SOL    HW215966   1.314   6.132   0.489
 5023SOL     OW15967   6.035   2.990   1.956
 5023SOL    HW115968   6.052   3.032   1.867
 5023SOL    HW215969   6.114   2.936   1.983
 5024SOL     OW15970   6.109   3.831   4.612
 5024SOL    HW115971   6.015   3.821   4.644
 5024SOL    HW215972   6.171   3.795   4.681
 5025SOL     OW15973   5.309   1.358   3.295
 5025SOL    HW115974   5.290   1.452   3.323
 5025SOL    HW215975   5.232   1.300   3.319
 5026SOL     OW15976   6.755   6.286   4.120
 5026SOL    HW115977   6.786   6.217   4.185
 5026SOL    HW215978   6.766   6.251   4.026
 5027SOL     OW15979   0.899   6.628   3.462
 5027SOL    HW115980   0.969   6.648   3.530
 5027SOL    HW215981   0.935   6.562   3.396
 5028SOL     OW15982   0.349   0.737   3.086
 5028SOL    HW115983   0.434   0.781   3.055
 5028SOL    HW215984   0.347   0.735   3.186
 5029SOL     OW15985   0.228   2.125   1.153
 5029SOL    HW115986   0.255   2.218   1.178
 5029SOL    HW215987   0.162   2.090   1.219
 5030SOL     OW15988   0.526   0.106   6.996
 5030SOL    HW115989   0.499   0.195   6.957
 5030SOL    HW215990   0.531   0.038   6.923
 5031SOL     OW15991   5.742   0.757   4.166
 5031SOL    HW115992   5.820   0.771   4.106
 5031SOL    HW215993   5.657   0.773   4.115
 5032SOL     OW15994   1.545   5.742   1.141
 5032SOL    HW115995   1.619   5.746   1.209
 5032SOL    HW215996   1.529   5.646   1.115
 5033SOL     OW15997   2.524   4.092   5.542
 5033SOL    HW115998   2.556   3.997   5.550
 5033SOL    HW215999   2.531   4.137   5.631
 5034SOL     OW16000   6.715   3.409   1.273
 5034SOL    HW116001   6.772   3.492   1.272
 5034SOL    HW216002   6.657   3.409   1.354
 5035SOL     OW16003   4.947   4.896   0.564
 5035SOL    HW116004   5.024   4.837   0.540
 5035SOL    HW216005   4.979   4.990   0.575
 5036SOL     OW16006   0.854   6.835   1.205
 5036SOL    HW116007   0.942   6.810   1.246
 5036SOL    HW216008   0.808   6.902   1.264
 5037SOL     OW16009   4.605   1.934   4.000
 5037SOL    HW116010   4.509   1.962   3.992
 5037SOL    HW216011   4.626   1.866   3.931
 5038SOL     OW16012   1.515   6.455   5.624
 5038SOL    HW116013   1.471   6.499   5.703
 5038SOL    HW216014   1.467   6.483   5.541
 5039SOL     OW16015   2.063   2.168   5.331
 5039SOL    HW116016   2.151   2.126   5.306
 5039SOL    HW216017   2.077   2.232   5.407
 5040SOL     OW16018   3.362   4.020   5.448
 5040SOL    HW116019   3.370   3.974   5.360
 5040SOL    HW216020   3.427   4.097   5.452
 5041SOL     OW16021   1.379   3.968   1.298
 5041SOL    HW116022   1.464   3.934   1.337
 5041SOL    HW216023   1.329   3.892   1.256
 5042SOL     OW16024   5.236   2.698   6.058
 5042SOL    HW116025   5.285   2.666   5.977
 5042SOL    HW216026   5.225   2.798   6.053
 5043SOL     OW16027   3.379   0.754   3.441
 5043SOL    HW116028   3.411   0.666   3.405
 5043SOL    HW216029   3.386   0.823   3.369
 5044SOL     OW16030   5.809   5.136   3.386
 5044SOL    HW116031   5.797   5.217   3.328
 5044SOL    HW216032   5.891   5.087   3.358
 5045SOL     OW16033   6.618   2.331   6.461
 5045SOL    HW116034   6.674   2.341   6.543
 5045SOL    HW216035   6.537   2.275   6.482
 5046SOL     OW16036   3.365   3.149   4.885
 5046SOL    HW116037   3.328   3.059   4.907
 5046SOL    HW216038   3.326   3.217   4.947
 5047SOL     OW16039   0.861   0.842   2.195
 5047SOL    HW116040   0.772   0.860   2.154
 5047SOL    HW216041   0.931   0.893   2.146
 5048SOL     OW16042   6.591   2.789   1.477
 5048SOL    HW116043   6.582   2.691   1.493
 5048SOL    HW216044   6.633   2.832   1.558
 5049SOL     OW16045   0.722   2.460   2.520
 5049SOL    HW116046   0.820   2.458   2.541
 5049SOL    HW216047   0.709   2.500   2.429
 5050SOL     OW16048   1.085   3.341   1.979
 5050SOL    HW116049   1.030   3.424   1.994
 5050SOL    HW216050   1.114   3.304   2.067
 5051SOL     OW16051   2.853   5.208   1.064
 5051SOL    HW116052   2.785   5.225   1.136
 5051SOL    HW216053   2.806   5.199   0.976
 5052SOL     OW16054   5.459   4.736   1.364
 5052SOL    HW116055   5.402   4.810   1.401
 5052SOL    HW216056   5.413   4.649   1.375
 5053SOL     OW16057   2.621   4.365   0.670
 5053SOL    HW116058   2.590   4.285   0.618
 5053SOL    HW216059   2.654   4.335   0.760
 5054SOL     OW16060   3.625   5.646   4.913
 5054SOL    HW116061   3.533   5.661   4.951
 5054SOL    HW216062   3.652   5.726   4.860
 5055SOL     OW16063   0.748   1.460   5.017
 5055SOL    HW116064   0.752   1.372   5.066
 5055SOL    HW216065   0.671   1.513   5.052
 5056SOL     OW16066   1.032   3.153   5.173
 5056SOL    HW116067   1.050   3.151   5.271
 5056SOL    HW216068   1.112   3.119   5.123
 5057SOL     OW16069   6.875   5.448   3.231
 5057SOL    HW116070   6.879   5.479   3.136
 5057SOL    HW216071   6.938   5.503   3.287
 5058SOL     OW16072   4.712   4.536   6.656
 5058SOL    HW116073   4.657   4.501   6.580
 5058SOL    HW216074   4.652   4.551   6.736
 5059SOL     OW16075   3.314   1.940   3.791
 5059SOL    HW116076   3.313   2.008   3.864
 5059SOL    HW216077   3.236   1.878   3.802
 5060SOL     OW16078   0.772   3.126   5.518
 5060SOL    HW116079   0.738   3.209   5.563
 5060SOL    HW216080   0.822   3.152   5.435
 5061SOL     OW16081   3.576   3.083   5.125
 5061SOL    HW116082   3.673   3.068   5.140
 5061SOL    HW216083   3.555   3.072   5.027
 5062SOL     OW16084   5.071   1.038   2.773
 5062SOL    HW116085   5.074   0.953   2.825
 5062SOL    HW216086   5.164   1.062   2.743
 5063SOL     OW16087   1.040   6.966   2.309
 5063SOL    HW116088   1.120   7.018   2.277
 5063SOL    HW216089   0.956   7.012   2.280
 5064SOL     OW16090   4.623   5.484   0.763
 5064SOL    HW116091   4.558   5.558   0.776
 5064SOL    HW216092   4.699   5.495   0.827
 5065SOL     OW16093   2.345   0.081   2.978
 5065SOL    HW116094   2.336   0.172   2.936
 5065SOL    HW216095   2.394   0.021   2.916
 5066SOL     OW16096   2.451   4.444   1.745
 5066SOL    HW116097   2.375   4.507   1.760
 5066SOL    HW216098   2.444   4.368   1.808
 5067SOL     OW16099   3.921   3.084   1.549
 5067SOL    HW116100   3.887   3.015   1.484
 5067SOL    HW216101   3.999   3.132   1.509
 5068SOL     OW16102   3.051   6.312   0.530
 5068SOL    HW116103   3.090   6.324   0.622
 5068SOL    HW216104   3.014   6.219   0.522
 5069SOL     OW16105   3.587   4.743   6.124
 5069SOL    HW116106   3.588   4.647   6.149
 5069SOL    HW216107   3.520   4.758   6.051
 5070SOL     OW16108   6.329   3.518   3.788
 5070SOL    HW116109   6.284   3.607   3.775
 5070SOL    HW216110   6.332   3.497   3.886
 5071SOL     OW16111   2.934   0.866   3.588
 5071SOL    HW116112   2.944   0.842   3.491
 5071SOL    HW216113   2.837   0.863   3.613
 5072SOL     OW16114   1.176   1.281   0.991
 5072SOL    HW116115   1.175   1.376   1.022
 5072SOL    HW216116   1.263   1.261   0.947
 5073SOL     OW16117   2.788   6.812   2.710
 5073SOL    HW116118   2.761   6.907   2.695
 5073SOL    HW216119   2.709   6.753   2.698
 5074SOL     OW16120   3.462   2.099   1.771
 5074SOL    HW116121   3.422   2.032   1.834
 5074SOL    HW216122   3.513   2.168   1.824
 5075SOL     OW16123   1.124   3.322   6.877
 5075SOL    HW116124   1.043   3.361   6.921
 5075SOL    HW216125   1.180   3.274   6.945
 5076SOL     OW16126   5.815   0.330   0.023
 5076SOL    HW116127   5.799   0.255   0.087
 5076SOL    HW216128   5.912   0.356   0.026
 5077SOL     OW16129   1.086   4.464   3.878
 5077SOL    HW116130   1.083   4.377   3.829
 5077SOL    HW216131   0.997   4.507   3.875
 5078SOL     OW16132   0.313   1.084   4.019
 5078SOL    HW116133   0.281   1.179   4.020
 5078SOL    HW216134   0.262   1.033   3.950
 5079SOL     OW16135   1.574   2.546   6.254
 5079SOL    HW116136   1.505   2.546   6.182
 5079SOL    HW216137   1.663   2.527   6.214
 5080SOL     OW16138   5.714   5.379   6.128
 5080SOL    HW116139   5.808   5.398   6.157
 5080SOL    HW216140   5.685   5.449   6.062
 5081SOL     OW16141   3.025   5.582   5.504
 5081SOL    HW116142   3.060   5.663   5.457
 5081SOL    HW216143   2.971   5.611   5.583
 5082SOL     OW16144   5.865   6.123   1.577
 5082SOL    HW116145   5.807   6.201   1.552
 5082SOL    HW216146   5.865   6.111   1.676
 5083SOL     OW16147   2.177   0.275   3.147
 5083SOL    HW116148   2.231   0.192   3.135
 5083SOL    HW216149   2.082   0.251   3.167
 5084SOL     OW16150   1.223   4.724   5.682
 5084SOL    HW116151   1.279   4.774   5.748
 5084SOL    HW216152   1.136   4.699   5.725
 5085SOL     OW16153   0.265   3.655   6.151
 5085SOL    HW116154   0.290   3.583   6.086
 5085SOL    HW216155   0.341   3.719   6.161
 5086SOL     OW16156   1.817   4.862   2.070
 5086SOL    HW116157   1.808   4.888   1.974
 5086SOL    HW216158   1.844   4.766   2.076
 5087SOL     OW16159   6.347   4.833   2.598
 5087SOL    HW116160   6.402   4.775   2.658
 5087SOL    HW216161   6.250   4.823   2.620
 5088SOL     OW16162   4.497   6.290   1.766
 5088SOL    HW116163   4.521   6.195   1.747
 5088SOL    HW216164   4.532   6.349   1.693
 5089SOL     OW16165   5.641   5.117   4.637
 5089SOL    HW116166   5.719   5.132   4.576
 5089SOL    HW216167   5.639   5.188   4.707
 5090SOL     OW16168   2.956   0.210   5.011
 5090SOL    HW116169   2.881   0.150   4.981
 5090SOL    HW216170   3.042   0.159   5.009
 5091SOL     OW16171   6.207   6.931   0.102
 5091SOL    HW116172   6.226   7.001   0.171
 5091SOL    HW216173   6.279   6.932   0.033
 5092SOL     OW16174   3.484   3.653   5.020
 5092SOL    HW116175   3.581   3.645   5.043
 5092SOL    HW216176   3.429   3.646   5.103
 5093SOL     OW16177   1.847   1.835   2.256
 5093SOL    HW116178   1.916   1.772   2.220
 5093SOL    HW216179   1.891   1.898   2.321
 5094SOL     OW16180   2.570   5.916   6.479
 5094SOL    HW116181   2.575   6.011   6.448
 5094SOL    HW216182   2.560   5.914   6.578
 5095SOL     OW16183   0.098   0.773   2.963
 5095SOL    HW116184   0.119   0.726   2.877
 5095SOL    HW216185   0.177   0.770   3.023
 5096SOL     OW16186   4.807   2.699   6.044
 5096SOL    HW116187   4.873   2.624   6.045
 5096SOL    HW216188   4.852   2.783   6.013
 5097SOL     OW16189   0.212   6.072   6.725
 5097SOL    HW116190   0.254   6.161   6.709
 5097SOL    HW216191   0.246   6.035   6.812
 5098SOL     OW16192   3.816   2.135   1.690
 5098SOL    HW116193   3.769   2.130   1.602
 5098SOL    HW216194   3.755   2.173   1.759
 5099SOL     OW16195   1.225   6.179   1.672
 5099SOL    HW116196   1.299   6.230   1.626
 5099SOL    HW216197   1.218   6.211   1.766
 5100SOL     OW16198   4.848   3.885   2.646
 5100SOL    HW116199   4.858   3.805   2.587
 5100SOL    HW216200   4.871   3.967   2.594
 5101SOL     OW16201   4.076   6.918   5.502
 5101SOL    HW116202   4.152   6.948   5.560
 5101SOL    HW216203   3.989   6.944   5.545
 5102SOL     OW16204   4.994   5.014   4.598
 5102SOL    HW116205   5.074   4.955   4.583
 5102SOL    HW216206   4.921   4.962   4.642
 5103SOL     OW16207   0.979   0.092   5.700
 5103SOL    HW116208   1.048   0.062   5.634
 5103SOL    HW216209   1.017   0.165   5.757
 5104SOL     OW16210   3.359   4.437   1.419
 5104SOL    HW116211   3.344   4.487   1.334
 5104SOL    HW216212   3.375   4.502   1.493
 5105SOL     OW16213   3.931   2.626   6.772
 5105SOL    HW116214   3.859   2.582   6.826
 5105SOL    HW216215   3.956   2.566   6.696
 5106SOL     OW16216   4.332   2.824   1.204
 5106SOL    HW116217   4.410   2.768   1.175
 5106SOL    HW216218   4.292   2.870   1.124
 5107SOL     OW16219   4.919   3.386   0.976
 5107SOL    HW116220   4.973   3.460   0.935
 5107SOL    HW216221   4.919   3.307   0.914
 5108SOL     OW16222   4.622   3.757   6.287
 5108SOL    HW116223   4.565   3.822   6.337
 5108SOL    HW216224   4.566   3.704   6.224
 5109SOL     OW16225   1.946   2.439   0.848
 5109SOL    HW116226   1.854   2.478   0.851
 5109SOL    HW216227   1.939   2.340   0.835
 5110SOL     OW16228   6.157   0.609   6.437
 5110SOL    HW116229   6.078   0.669   6.451
 5110SOL    HW216230   6.153   0.569   6.346
 5111SOL     OW16231   0.850   6.119   4.997
 5111SOL    HW116232   0.805   6.030   5.009
 5111SOL    HW216233   0.860   6.139   4.900
 5112SOL     OW16234   0.261   0.417   3.293
 5112SOL    HW116235   0.251   0.441   3.196
 5112SOL    HW216236   0.281   0.319   3.301
 5113SOL     OW16237   1.820   4.915   0.572
 5113SOL    HW116238   1.882   4.838   0.585
 5113SOL    HW216239   1.871   5.001   0.579
 5114SOL     OW16240   4.300   6.243   1.129
 5114SOL    HW116241   4.286   6.153   1.088
 5114SOL    HW216242   4.261   6.313   1.069
 5115SOL     OW16243   1.694   3.641   0.889
 5115SOL    HW116244   1.735   3.586   0.816
 5115SOL    HW216245   1.742   3.625   0.975
 5116SOL     OW16246   1.996   6.459   6.541
 5116SOL    HW116247   2.079   6.512   6.527
 5116SOL    HW216248   1.916   6.519   6.532
 5117SOL     OW16249   1.737   2.980   4.145
 5117SOL    HW116250   1.675   3.052   4.178
 5117SOL    HW216251   1.792   3.016   4.070
 5118SOL     OW16252   6.013   6.184   6.997
 5118SOL    HW116253   5.995   6.096   0.016
 5118SOL    HW216254   6.107   6.186   6.963
 5119SOL     OW16255   4.884   1.562   0.664
 5119SOL    HW116256   4.882   1.657   0.696
 5119SOL    HW216257   4.806   1.512   0.704
 5120SOL     OW16258   5.006   0.161   5.223
 5120SOL    HW116259   5.031   0.093   5.291
 5120SOL    HW216260   4.972   0.243   5.268
 5121SOL     OW16261   2.749   3.898   6.637
 5121SOL    HW116262   2.765   3.992   6.666
 5121SOL    HW216263   2.756   3.837   6.715
 5122SOL     OW16264   4.627   5.191   3.820
 5122SOL    HW116265   4.658   5.234   3.735
 5122SOL    HW216266   4.624   5.092   3.807
 5123SOL     OW16267   4.416   2.452   2.309
 5123SOL    HW116268   4.433   2.549   2.324
 5123SOL    HW216269   4.446   2.426   2.217
 5124SOL     OW16270   2.240   6.164   4.007
 5124SOL    HW116271   2.187   6.128   4.084
 5124SOL    HW216272   2.248   6.263   4.015
 5125SOL     OW16273   0.615   2.052   4.125
 5125SOL    HW116274   0.557   2.051   4.044
 5125SOL    HW216275   0.564   2.091   4.202
 5126SOL     OW16276   1.883   0.057   1.402
 5126SOL    HW116277   1.857   0.131   1.340
 5126SOL    HW216278   1.848   0.077   1.494
 5127SOL     OW16279   1.913   5.544   0.727
 5127SOL    HW116280   1.829   5.569   0.776
 5127SOL    HW216281   1.892   5.533   0.630
 5128SOL     OW16282   6.388   6.073   1.523
 5128SOL    HW116283   6.290   6.074   1.504
 5128SOL    HW216284   6.428   5.990   1.485
 5129SOL     OW16285   5.294   6.813   0.954
 5129SOL    HW116286   5.246   6.739   0.906
 5129SOL    HW216287   5.391   6.792   0.959
 5130SOL     OW16288   5.951   4.948   3.654
 5130SOL    HW116289   6.016   5.023   3.637
 5130SOL    HW216290   6.001   4.869   3.689
 5131SOL     OW16291   1.972   2.500   3.732
 5131SOL    HW116292   2.043   2.522   3.666
 5131SOL    HW216293   1.937   2.585   3.773
 5132SOL     OW16294   3.179   4.948   5.950
 5132SOL    HW116295   3.272   4.915   5.936
 5132SOL    HW216296   3.180   5.047   5.964
 5133SOL     OW16297   4.110   6.422   6.271
 5133SOL    HW116298   4.016   6.431   6.302
 5133SOL    HW216299   4.173   6.439   6.347
 5134SOL     OW16300   0.589   3.739   1.196
 5134SOL    HW116301   0.536   3.790   1.264
 5134SOL    HW216302   0.539   3.737   1.110
 5135SOL     OW16303   6.995   1.975   4.559
 5135SOL    HW116304   0.034   1.975   4.636
 5135SOL    HW216305   6.930   2.050   4.570
 5136SOL     OW16306   4.897   1.153   4.098
 5136SOL    HW116307   4.902   1.093   4.178
 5136SOL    HW216308   4.867   1.244   4.127
 5137SOL     OW16309   4.561   4.310   5.941
 5137SOL    HW116310   4.633   4.301   5.873
 5137SOL    HW216311   4.503   4.389   5.918
 5138SOL     OW16312   2.384   3.993   5.924
 5138SOL    HW116313   2.341   3.916   5.877
 5138SOL    HW216314   2.483   3.987   5.914
 5139SOL     OW16315   1.169   6.732   4.102
 5139SOL    HW116316   1.261   6.759   4.073
 5139SOL    HW216317   1.104   6.803   4.075
 5140SOL     OW16318   3.401   2.841   0.529
 5140SOL    HW116319   3.354   2.840   0.441
 5140SOL    HW216320   3.363   2.769   0.588
 5141SOL     OW16321   5.659   2.940   0.176
 5141SOL    HW116322   5.737   3.003   0.178
 5141SOL    HW216323   5.648   2.903   0.084
 5142SOL     OW16324   5.853   3.846   4.894
 5142SOL    HW116325   5.829   3.846   4.797
 5142SOL    HW216326   5.828   3.758   4.934
 5143SOL     OW16327   6.593   5.234   4.496
 5143SOL    HW116328   6.656   5.311   4.504
 5143SOL    HW216329   6.561   5.226   4.402
 5144SOL     OW16330   1.445   0.545   5.870
 5144SOL    HW116331   1.406   0.551   5.779
 5144SOL    HW216332   1.372   0.534   5.938
 5145SOL     OW16333   2.403   5.252   6.121
 5145SOL    HW116334   2.313   5.275   6.086
 5145SOL    HW216335   2.410   5.280   6.217
 5146SOL     OW16336   3.458   4.351   6.995
 5146SOL    HW116337   3.484   4.430   6.939
 5146SOL    HW216338   3.416   4.383   0.055
 5147SOL     OW16339   6.474   4.054   6.980
 5147SOL    HW116340   6.379   4.025   6.976
 5147SOL    HW216341   6.522   4.004   0.026
 5148SOL     OW16342   0.014   6.208   1.493
 5148SOL    HW116343   7.000   6.245   1.577
 5148SOL    HW216344   0.106   6.173   1.513
 5149SOL     OW16345   6.221   1.359   3.889
 5149SOL    HW116346   6.222   1.298   3.968
 5149SOL    HW216347   6.298   1.423   3.895
 5150SOL     OW16348   1.723   5.724   3.791
 5150SOL    HW116349   1.643   5.673   3.760
 5150SOL    HW216350   1.733   5.807   3.735
 5151SOL     OW16351   5.075   1.267   6.377
 5151SOL    HW116352   5.107   1.354   6.340
 5151SOL    HW216353   5.149   1.200   6.376
 5152SOL     OW16354   0.963   4.043   0.195
 5152SOL    HW116355   1.014   3.969   0.150
 5152SOL    HW216356   0.944   4.018   0.290
 5153SOL     OW16357   1.469   2.016   0.612
 5153SOL    HW116358   1.569   2.014   0.609
 5153SOL    HW216359   1.439   2.082   0.681
 5154SOL     OW16360   1.624   3.062   5.612
 5154SOL    HW116361   1.562   3.028   5.683
 5154SOL    HW216362   1.707   3.099   5.655
 5155SOL     OW16363   3.781   6.857   2.062
 5155SOL    HW116364   3.770   6.925   1.990
 5155SOL    HW216365   3.876   6.856   2.093
 5156SOL     OW16366   6.639   2.324   5.407
 5156SOL    HW116367   6.679   2.280   5.327
 5156SOL    HW216368   6.645   2.423   5.397
 5157SOL     OW16369   4.999   3.029   3.616
 5157SOL    HW116370   5.078   3.065   3.567
 5157SOL    HW216371   4.975   3.092   3.690
 5158SOL     OW16372   4.161   1.072   0.983
 5158SOL    HW116373   4.073   1.069   0.936
 5158SOL    HW216374   4.183   1.167   1.006
 5159SOL     OW16375   1.255   3.756   4.311
 5159SOL    HW116376   1.288   3.755   4.405
 5159SOL    HW216377   1.303   3.686   4.258
 5160SOL     OW16378   1.908   4.011   4.643
 5160SOL    HW116379   1.907   3.998   4.742
 5160SOL    HW216380   1.914   4.109   4.622
 5161SOL     OW16381   0.970   2.918   5.468
 5161SOL    HW116382   1.029   2.929   5.548
 5161SOL    HW216383   0.891   2.978   5.477
 5162SOL     OW16384   6.882   6.450   3.376
 5162SOL    HW116385   6.824   6.373   3.349
 5162SOL    HW216386   6.971   6.415   3.406
 5163SOL     OW16387   5.696   4.594   1.327
 5163SOL    HW116388   5.709   4.543   1.412
 5163SOL    HW216389   5.643   4.676   1.346
 5164SOL     OW16390   6.031   3.556   5.521
 5164SOL    HW116391   5.997   3.649   5.531
 5164SOL    HW216392   6.124   3.558   5.484
 5165SOL     OW16393   6.540   4.556   4.447
 5165SOL    HW116394   6.585   4.645   4.451
 5165SOL    HW216395   6.469   4.551   4.517
 5166SOL     OW16396   1.911   5.548   2.255
 5166SOL    HW116397   1.928   5.619   2.187
 5166SOL    HW216398   1.881   5.591   2.340
 5167SOL     OW16399   0.341   6.571   5.705
 5167SOL    HW116400   0.419   6.514   5.676
 5167SOL    HW216401   0.361   6.613   5.793
 5168SOL     OW16402   4.224   2.248   3.009
 5168SOL    HW116403   4.288   2.177   2.982
 5168SOL    HW216404   4.140   2.239   2.955
 5169SOL     OW16405   3.479   3.903   5.920
 5169SOL    HW116406   3.390   3.869   5.890
 5169SOL    HW216407   3.516   3.843   5.991
 5170SOL     OW16408   6.232   4.467   4.960
 5170SOL    HW116409   6.317   4.425   4.928
 5170SOL    HW216410   6.171   4.396   4.996
 5171SOL     OW16411   1.652   4.915   4.597
 5171SOL    HW116412   1.574   4.911   4.534
 5171SOL    HW216413   1.684   4.823   4.616
 5172SOL     OW16414   0.756   4.810   2.503
 5172SOL    HW116415   0.700   4.816   2.420
 5172SOL    HW216416   0.786   4.716   2.515
 5173SOL     OW16417   4.959   2.845   6.492
 5173SOL    HW116418   5.041   2.866   6.546
 5173SOL    HW216419   4.923   2.929   6.451
 5174SOL     OW16420   1.526   5.042   6.310
 5174SOL    HW116421   1.591   5.070   6.239
 5174SOL    HW216422   1.550   5.086   6.397
 5175SOL     OW16423   0.921   4.187   0.801
 5175SOL    HW116424   0.852   4.220   0.738
 5175SOL    HW216425   0.908   4.230   0.891
 5176SOL     OW16426   3.872   3.795   0.858
 5176SOL    HW116427   3.921   3.718   0.898
 5176SOL    HW216428   3.853   3.776   0.762
 5177SOL     OW16429   5.116   6.852   6.228
 5177SOL    HW116430   5.019   6.850   6.253
 5177SOL    HW216431   5.146   6.760   6.205
 5178SOL     OW16432   2.652   2.605   1.674
 5178SOL    HW116433   2.637   2.603   1.773
 5178SOL    HW216434   2.678   2.698   1.647
 5179SOL     OW16435   3.448   6.315   5.486
 5179SOL    HW116436   3.388   6.246   5.527
 5179SOL    HW216437   3.470   6.288   5.392
 5180SOL     OW16438   2.972   2.667   0.894
 5180SOL    HW116439   3.024   2.654   0.979
 5180SOL    HW216440   2.997   2.596   0.828
 5181SOL     OW16441   4.201   0.016   2.899
 5181SOL    HW116442   4.201   6.978   2.822
 5181SOL    HW216443   4.184   0.109   2.865
 5182SOL     OW16444   5.747   4.495   1.972
 5182SOL    HW116445   5.653   4.472   1.994
 5182SOL    HW216446   5.801   4.411   1.963
 5183SOL     OW16447   4.549   6.733   1.319
 5183SOL    HW116448   4.589   6.812   1.367
 5183SOL    HW216449   4.476   6.764   1.258
 5184SOL     OW16450   0.850   0.583   3.042
 5184SOL    HW116451   0.862   0.615   3.136
 5184SOL    HW216452   0.799   0.652   2.990
 5185SOL     OW16453   3.406   0.370   2.045
 5185SOL    HW116454   3.362   0.325   1.968
 5185SOL    HW216455   3.496   0.330   2.061
 5186SOL     OW16456   6.700   4.719   0.671
 5186SOL    HW116457   6.655   4.771   0.744
 5186SOL    HW216458   6.799   4.726   0.681
 5187SOL     OW16459   6.307   1.862   3.351
 5187SOL    HW116460   6.386   1.831   3.297
 5187SOL    HW216461   6.239   1.788   3.356
 5188SOL     OW16462   0.785   4.118   5.949
 5188SOL    HW116463   0.815   4.181   5.877
 5188SOL    HW216464   0.710   4.160   6.000
 5189SOL     OW16465   4.929   4.868   6.527
 5189SOL    HW116466   4.934   4.939   6.457
 5189SOL    HW216467   4.923   4.778   6.484
 5190SOL     OW16468   1.150   2.693   3.879
 5190SOL    HW116469   1.215   2.622   3.907
 5190SOL    HW216470   1.059   2.670   3.912
 5191SOL     OW16471   3.676   1.493   1.408
 5191SOL    HW116472   3.666   1.552   1.328
 5191SOL    HW216473   3.683   1.398   1.379
 5192SOL     OW16474   5.765   5.843   2.595
 5192SOL    HW116475   5.823   5.912   2.552
 5192SOL    HW216476   5.798   5.826   2.688
 5193SOL     OW16477   4.719   4.154   4.220
 5193SOL    HW116478   4.708   4.205   4.305
 5193SOL    HW216479   4.742   4.217   4.145
 5194SOL     OW16480   5.528   0.679   5.839
 5194SOL    HW116481   5.517   0.759   5.781
 5194SOL    HW216482   5.521   0.596   5.784
 5195SOL     OW16483   6.008   6.690   5.386
 5195SOL    HW116484   6.055   6.769   5.346
 5195SOL    HW216485   6.038   6.678   5.481
 5196SOL     OW16486   0.108   4.235   1.565
 5196SOL    HW116487   0.184   4.299   1.549
 5196SOL    HW216488   0.144   4.143   1.581
 5197SOL     OW16489   2.464   5.652   5.175
 5197SOL    HW116490   2.420   5.638   5.264
 5197SOL    HW216491   2.481   5.563   5.132
 5198SOL     OW16492   3.767   6.530   5.299
 5198SOL    HW116493   3.790   6.447   5.350
 5198SOL    HW216494   3.745   6.603   5.364
 5199SOL     OW16495   2.084   5.337   1.312
 5199SOL    HW116496   2.077   5.303   1.406
 5199SOL    HW216497   2.018   5.412   1.299
 5200SOL     OW16498   0.109   1.495   4.995
 5200SOL    HW116499   0.039   1.532   5.055
 5200SOL    HW216500   0.137   1.564   4.928
 5201SOL     OW16501   5.625   4.918   4.289
 5201SOL    HW116502   5.669   4.967   4.364
 5201SOL    HW216503   5.617   4.979   4.210
 5202SOL     OW16504   3.745   2.703   6.515
 5202SOL    HW116505   3.689   2.678   6.594
 5202SOL    HW216506   3.836   2.663   6.525
 5203SOL     OW16507   2.007   0.158   0.525
 5203SOL    HW116508   1.917   0.129   0.558
 5203SOL    HW216509   2.031   0.106   0.443
 5204SOL     OW16510   3.373   0.800   0.008
 5204SOL    HW116511   3.286   0.818   6.987
 5204SOL    HW216512   3.447   0.800   6.966
 5205SOL     OW16513   0.286   5.584   0.811
 5205SOL    HW116514   0.215   5.523   0.845
 5205SOL    HW216515   0.269   5.677   0.842
 5206SOL     OW16516   0.824   4.764   5.079
 5206SOL    HW116517   0.803   4.701   5.154
 5206SOL    HW216518   0.836   4.711   4.994
 5207SOL     OW16519   0.321   0.588   4.290
 5207SOL    HW116520   0.240   0.597   4.232
 5207SOL    HW216521   0.310   0.511   4.352
 5208SOL     OW16522   4.550   2.201   0.385
 5208SOL    HW116523   4.631   2.239   0.429
 5208SOL    HW216524   4.478   2.189   0.453
 5209SOL     OW16525   4.779   5.957   2.955
 5209SOL    HW116526   4.754   5.914   3.042
 5209SOL    HW216527   4.710   5.934   2.887
 5210SOL     OW16528   5.553   4.119   0.288
 5210SOL    HW116529   5.567   4.064   0.370
 5210SOL    HW216530   5.516   4.209   0.313
 5211SOL     OW16531   4.777   2.801   4.144
 5211SOL    HW116532   4.683   2.790   4.179
 5211SOL    HW216533   4.784   2.759   4.054
 5212SOL     OW16534   1.156   3.343   1.452
 5212SOL    HW116535   1.135   3.282   1.376
 5212SOL    HW216536   1.181   3.289   1.533
 5213SOL     OW16537   4.143   3.442   2.782
 5213SOL    HW116538   4.049   3.468   2.800
 5213SOL    HW216539   4.145   3.358   2.728
 5214SOL     OW16540   5.541   3.455   5.809
 5214SOL    HW116541   5.599   3.456   5.728
 5214SOL    HW216542   5.587   3.404   5.882
 5215SOL     OW16543   0.405   3.923   4.998
 5215SOL    HW116544   0.317   3.960   4.966
 5215SOL    HW216545   0.476   3.945   4.932
 5216SOL     OW16546   5.399   5.255   0.119
 5216SOL    HW116547   5.390   5.184   0.049
 5216SOL    HW216548   5.332   5.328   0.102
 5217SOL     OW16549   4.412   6.438   3.964
 5217SOL    HW116550   4.417   6.356   4.022
 5217SOL    HW216551   4.455   6.515   4.012
 5218SOL     OW16552   0.210   7.020   0.860
 5218SOL    HW116553   0.252   6.992   0.946
 5218SOL    HW216554   0.225   0.093   0.846
 5219SOL     OW16555   2.339   2.066   5.362
 5219SOL    HW116556   2.388   2.053   5.276
 5219SOL    HW216557   2.281   1.986   5.379
 5220SOL     OW16558   1.866   4.602   3.898
 5220SOL    HW116559   1.800   4.667   3.936
 5220SOL    HW216560   1.929   4.650   3.837
 5221SOL     OW16561   6.726   0.071   1.111
 5221SOL    HW116562   6.722   0.169   1.093
 5221SOL    HW216563   6.672   0.050   1.192
 5222SOL     OW16564   4.885   4.345   1.360
 5222SOL    HW116565   4.810   4.296   1.404
 5222SOL    HW216566   4.855   4.437   1.335
 5223SOL     OW16567   0.764   3.141   1.227
 5223SOL    HW116568   0.710   3.199   1.165
 5223SOL    HW216569   0.715   3.130   1.313
 5224SOL     OW16570   0.626   2.456   4.874
 5224SOL    HW116571   0.620   2.555   4.889
 5224SOL    HW216572   0.550   2.427   4.815
 5225SOL     OW16573   0.849   1.873   4.755
 5225SOL    HW116574   0.805   1.830   4.676
 5225SOL    HW216575   0.882   1.801   4.817
 5226SOL     OW16576   6.956   6.555   3.735
 5226SOL    HW116577   0.010   6.616   3.731
 5226SOL    HW216578   6.904   6.573   3.818
 5227SOL     OW16579   0.292   2.701   5.017
 5227SOL    HW116580   0.282   2.794   5.051
 5227SOL    HW216581   0.298   2.638   5.094
 5228SOL     OW16582   1.923   2.128   5.764
 5228SOL    HW116583   2.011   2.158   5.729
 5228SOL    HW216584   1.928   2.117   5.863
 5229SOL     OW16585   4.396   1.100   5.930
 5229SOL    HW116586   4.318   1.116   5.990
 5229SOL    HW216587   4.394   1.165   5.854
 5230SOL     OW16588   6.771   6.938   1.827
 5230SOL    HW116589   6.740   6.846   1.850
 5230SOL    HW216590   6.864   6.951   1.861
 5231SOL     OW16591   6.484   1.924   2.647
 5231SOL    HW116592   6.532   1.967   2.570
 5231SOL    HW216593   6.427   1.850   2.613
 5232SOL     OW16594   2.185   2.994   5.715
 5232SOL    HW116595   2.229   3.006   5.626
 5232SOL    HW216596   2.093   3.034   5.712
 5233SOL     OW16597   2.910   0.315   2.571
 5233SOL    HW116598   2.963   0.366   2.639
 5233SOL    HW216599   2.890   0.375   2.493
 5234SOL     OW16600   2.444   2.118   0.808
 5234SOL    HW116601   2.411   2.177   0.881
 5234SOL    HW216602   2.506   2.050   0.845
 5235SOL     OW16603   2.819   1.599   1.224
 5235SOL    HW116604   2.796   1.609   1.320
 5235SOL    HW216605   2.862   1.510   1.209
 5236SOL     OW16606   3.775   5.600   1.835
 5236SOL    HW116607   3.801   5.697   1.838
 5236SOL    HW216608   3.849   5.545   1.871
 5237SOL     OW16609   1.925   2.303   3.916
 5237SOL    HW116610   1.972   2.359   3.848
 5237SOL    HW216611   1.992   2.261   3.977
 5238SOL     OW16612   1.037   6.212   2.778
 5238SOL    HW116613   1.134   6.213   2.751
 5238SOL    HW216614   0.987   6.279   2.724
 5239SOL     OW16615   2.610   3.848   0.989
 5239SOL    HW116616   2.687   3.791   0.961
 5239SOL    HW216617   2.533   3.790   1.014
 5240SOL     OW16618   2.239   3.791   5.754
 5240SOL    HW116619   2.212   3.787   5.658
 5240SOL    HW216620   2.158   3.790   5.812
 5241SOL     OW16621   0.722   5.796   2.390
 5241SOL    HW116622   0.629   5.821   2.363
 5241SOL    HW216623   0.786   5.822   2.318
 5242SOL     OW16624   4.907   0.611   6.358
 5242SOL    HW116625   4.826   0.597   6.301
 5242SOL    HW216626   4.896   0.561   6.444
 5243SOL     OW16627   2.556   6.668   1.849
 5243SOL    HW116628   2.550   6.652   1.947
 5243SOL    HW216629   2.516   6.590   1.800
 5244SOL     OW16630   4.967   2.847   1.089
 5244SOL    HW116631   4.871   2.853   1.115
 5244SOL    HW216632   5.019   2.804   1.163
 5245SOL     OW16633   4.217   3.672   1.335
 5245SOL    HW116634   4.197   3.766   1.361
 5245SOL    HW216635   4.256   3.670   1.243
 5246SOL     OW16636   6.261   3.106   1.129
 5246SOL    HW116637   6.343   3.140   1.176
 5246SOL    HW216638   6.263   3.133   1.033
 5247SOL     OW16639   4.248   2.287   6.580
 5247SOL    HW116640   4.333   2.321   6.539
 5247SOL    HW216641   4.269   2.223   6.653
 5248SOL     OW16642   6.752   1.256   3.442
 5248SOL    HW116643   6.708   1.336   3.482
 5248SOL    HW216644   6.712   1.238   3.352
 5249SOL     OW16645   0.699   4.850   6.832
 5249SOL    HW116646   0.716   4.789   6.754
 5249SOL    HW216647   0.620   4.907   6.814
 5250SOL     OW16648   2.420   6.287   0.844
 5250SOL    HW116649   2.364   6.352   0.896
 5250SOL    HW216650   2.386   6.194   0.860
 5251SOL     OW16651   0.887   4.679   0.725
 5251SOL    HW116652   0.874   4.778   0.717
 5251SOL    HW216653   0.853   4.649   0.814
 5252SOL     OW16654   3.929   0.362   2.244
 5252SOL    HW116655   4.023   0.398   2.240
 5252SOL    HW216656   3.866   0.436   2.264
 5253SOL     OW16657   6.114   5.012   4.578
 5253SOL    HW116658   6.026   5.001   4.533
 5253SOL    HW216659   6.149   4.922   4.604
 5254SOL     OW16660   5.937   0.136   3.066
 5254SOL    HW116661   6.016   0.167   3.013
 5254SOL    HW216662   5.853   0.164   3.020
 5255SOL     OW16663   6.314   1.726   5.034
 5255SOL    HW116664   6.276   1.720   5.127
 5255SOL    HW216665   6.248   1.689   4.969
 5256SOL     OW16666   5.892   1.077   2.599
 5256SOL    HW116667   5.804   1.051   2.558
 5256SOL    HW216668   5.891   1.175   2.621
 5257SOL     OW16669   4.088   0.718   6.243
 5257SOL    HW116670   4.047   0.707   6.152
 5257SOL    HW216671   4.053   0.647   6.304
 5258SOL     OW16672   4.829   2.175   2.801
 5258SOL    HW116673   4.899   2.105   2.790
 5258SOL    HW216674   4.791   2.200   2.712
 5259SOL     OW16675   5.648   5.562   2.959
 5259SOL    HW116676   5.572   5.592   2.902
 5259SOL    HW216677   5.651   5.462   2.961
 5260SOL     OW16678   2.093   1.003   1.084
 5260SOL    HW116679   2.124   1.032   0.993
 5260SOL    HW216680   2.103   1.079   1.148
 5261SOL     OW16681   6.087   4.248   0.146
 5261SOL    HW116682   6.123   4.183   0.078
 5261SOL    HW216683   5.995   4.277   0.119
 5262SOL     OW16684   2.199   0.829   2.727
 5262SOL    HW116685   2.291   0.812   2.692
 5262SOL    HW216686   2.190   0.786   2.817
 5263SOL     OW16687   2.221   0.474   2.664
 5263SOL    HW116688   2.316   0.476   2.633
 5263SOL    HW216689   2.204   0.549   2.728
 5264SOL     OW16690   6.854   2.088   1.646
 5264SOL    HW116691   6.849   1.993   1.677
 5264SOL    HW216692   6.821   2.149   1.718
 5265SOL     OW16693   6.594   4.267   4.665
 5265SOL    HW116694   6.603   4.179   4.619
 5265SOL    HW216695   6.656   4.333   4.623
 5266SOL     OW16696   2.276   0.745   0.912
 5266SOL    HW116697   2.325   0.707   0.833
 5266SOL    HW216698   2.304   0.698   0.995
 5267SOL     OW16699   4.948   2.353   4.271
 5267SOL    HW116700   4.863   2.385   4.231
 5267SOL    HW216701   4.936   2.259   4.304
 5268SOL     OW16702   5.989   1.010   6.244
 5268SOL    HW116703   6.079   0.997   6.202
 5268SOL    HW216704   5.976   1.106   6.269
 5269SOL     OW16705   0.389   6.250   3.331
 5269SOL    HW116706   0.407   6.331   3.275
 5269SOL    HW216707   0.452   6.248   3.408
 5270SOL     OW16708   0.154   2.481   6.245
 5270SOL    HW116709   0.142   2.419   6.322
 5270SOL    HW216710   0.181   2.428   6.164
 5271SOL     OW16711   6.562   5.576   3.839
 5271SOL    HW116712   6.647   5.620   3.811
 5271SOL    HW216713   6.581   5.486   3.877
 5272SOL     OW16714   4.718   0.524   0.263
 5272SOL    HW116715   4.755   0.615   0.248
 5272SOL    HW216716   4.658   0.524   0.343
 5273SOL     OW16717   1.047   2.530   2.950
 5273SOL    HW116718   1.132   2.583   2.945
 5273SOL    HW216719   0.974   2.579   2.904
 5274SOL     OW16720   4.492   5.631   2.208
 5274SOL    HW116721   4.505   5.658   2.113
 5274SOL    HW216722   4.488   5.532   2.215
 5275SOL     OW16723   3.728   0.887   6.314
 5275SOL    HW116724   3.815   0.891   6.363
 5275SOL    HW216725   3.743   0.845   6.224
 5276SOL     OW16726   3.686   6.397   2.497
 5276SOL    HW116727   3.786   6.389   2.492
 5276SOL    HW216728   3.659   6.487   2.462
 5277SOL     OW16729   2.436   2.027   1.590
 5277SOL    HW116730   2.387   2.082   1.657
 5277SOL    HW216731   2.501   2.086   1.540
 5278SOL     OW16732   4.801   4.932   1.408
 5278SOL    HW116733   4.896   4.935   1.438
 5278SOL    HW216734   4.797   4.936   1.308
 5279SOL     OW16735   3.057   5.018   1.787
 5279SOL    HW116736   3.002   5.044   1.708
 5279SOL    HW216737   3.007   4.953   1.843
 5280SOL     OW16738   4.111   6.008   4.429
 5280SOL    HW116739   4.073   6.011   4.521
 5280SOL    HW216740   4.174   5.931   4.421
 5281SOL     OW16741   0.504   1.964   1.585
 5281SOL    HW116742   0.498   2.055   1.625
 5281SOL    HW216743   0.574   1.911   1.632
 5282SOL     OW16744   3.533   1.819   3.333
 5282SOL    HW116745   3.510   1.820   3.236
 5282SOL    HW216746   3.570   1.729   3.357
 5283SOL     OW16747   5.253   5.000   6.763
 5283SOL    HW116748   5.253   5.034   6.668
 5283SOL    HW216749   5.230   5.075   6.825
 5284SOL     OW16750   5.868   2.983   3.105
 5284SOL    HW116751   5.833   2.956   3.015
 5284SOL    HW216752   5.960   3.020   3.095
 5285SOL     OW16753   3.171   5.637   2.954
 5285SOL    HW116754   3.250   5.588   2.916
 5285SOL    HW216755   3.088   5.584   2.937
 5286SOL     OW16756   2.044   4.533   1.296
 5286SOL    HW116757   2.067   4.450   1.347
 5286SOL    HW216758   1.946   4.551   1.304
 5287SOL     OW16759   1.708   2.071   1.002
 5287SOL    HW116760   1.691   2.141   1.071
 5287SOL    HW216761   1.781   2.102   0.941
 5288SOL     OW16762   3.552   6.900   0.819
 5288SOL    HW116763   3.474   6.941   0.866
 5288SOL    HW216764   3.538   6.904   0.720
 5289SOL     OW16765   2.007   5.531   1.574
 5289SOL    HW116766   2.018   5.434   1.595
 5289SOL    HW216767   1.956   5.541   1.488
 5290SOL     OW16768   4.438   6.427   0.514
 5290SOL    HW116769   4.495   6.504   0.544
 5290SOL    HW216770   4.350   6.461   0.481
 5291SOL     OW16771   2.115   5.038   6.548
 5291SOL    HW116772   2.177   5.089   6.488
 5291SOL    HW216773   2.139   4.941   6.545
 5292SOL     OW16774   4.242   3.158   6.081
 5292SOL    HW116775   4.261   3.224   6.008
 5292SOL    HW216776   4.151   3.175   6.118
 5293SOL     OW16777   0.590   0.301   4.445
 5293SOL    HW116778   0.606   0.214   4.398
 5293SOL    HW216779   0.492   0.317   4.454
 5294SOL     OW16780   5.667   2.070   5.729
 5294SOL    HW116781   5.705   2.154   5.690
 5294SOL    HW216782   5.701   1.991   5.678
 5295SOL     OW16783   6.397   1.180   1.668
 5295SOL    HW116784   6.301   1.153   1.675
 5295SOL    HW216785   6.443   1.122   1.600
 5296SOL     OW16786   0.827   4.565   0.978
 5296SOL    HW116787   0.920   4.592   1.002
 5296SOL    HW216788   0.763   4.612   1.039
 5297SOL     OW16789   2.113   2.822   1.419
 5297SOL    HW116790   2.021   2.850   1.447
 5297SOL    HW216791   2.180   2.883   1.461
 5298SOL     OW16792   0.838   5.264   1.314
 5298SOL    HW116793   0.915   5.280   1.376
 5298SOL    HW216794   0.793   5.351   1.294
 5299SOL     OW16795   2.914   0.264   2.114
 5299SOL    HW116796   2.848   0.219   2.174
 5299SOL    HW216797   2.913   0.220   2.024
 5300SOL     OW16798   6.603   5.197   3.368
 5300SOL    HW116799   6.662   5.271   3.402
 5300SOL    HW216800   6.658   5.115   3.354
 5301SOL     OW16801   4.173   1.802   7.007
 5301SOL    HW116802   4.077   1.791   6.981
 5301SOL    HW216803   4.232   1.779   6.930
 5302SOL     OW16804   5.965   4.292   3.071
 5302SOL    HW116805   5.964   4.341   3.158
 5302SOL    HW216806   6.044   4.322   3.017
 5303SOL     OW16807   0.639   4.684   3.589
 5303SOL    HW116808   0.548   4.664   3.552
 5303SOL    HW216809   0.708   4.660   3.520
 5304SOL     OW16810   4.970   2.102   5.834
 5304SOL    HW116811   4.959   2.021   5.892
 5304SOL    HW216812   4.956   2.076   5.739
 5305SOL     OW16813   2.443   1.157   3.161
 5305SOL    HW116814   2.522   1.211   3.133
 5305SOL    HW216815   2.368   1.173   3.096
 5306SOL     OW16816   2.720   6.963   5.701
 5306SOL    HW116817   2.648   7.003   5.644
 5306SOL    HW216818   2.809   6.981   5.659
 5307SOL     OW16819   5.243   6.891   6.838
 5307SOL    HW116820   5.341   6.877   6.825
 5307SOL    HW216821   5.219   6.985   6.814
 5308SOL     OW16822   6.915   1.128   2.636
 5308SOL    HW116823   6.934   1.042   2.589
 5308SOL    HW216824   6.914   1.112   2.735
 5309SOL     OW16825   3.465   3.813   3.444
 5309SOL    HW116826   3.370   3.816   3.476
 5309SOL    HW216827   3.473   3.745   3.370
 5310SOL     OW16828   4.793   2.186   0.980
 5310SOL    HW116829   4.822   2.242   1.058
 5310SOL    HW216830   4.759   2.246   0.907
 5311SOL     OW16831   0.939   5.723   0.121
 5311SOL    HW116832   0.861   5.670   0.086
 5311SOL    HW216833   0.924   5.820   0.103
 5312SOL     OW16834   0.434   3.646   2.768
 5312SOL    HW116835   0.407   3.561   2.813
 5312SOL    HW216836   0.525   3.635   2.728
 5313SOL     OW16837   1.121   5.692   1.071
 5313SOL    HW116838   1.029   5.654   1.055
 5313SOL    HW216839   1.124   5.736   1.160
 5314SOL     OW16840   3.605   4.837   0.744
 5314SOL    HW116841   3.683   4.885   0.702
 5314SOL    HW216842   3.526   4.898   0.746
 5315SOL     OW16843   5.193   2.581   2.420
 5315SOL    HW116844   5.267   2.635   2.381
 5315SOL    HW216845   5.108   2.602   2.373
 5316SOL     OW16846   5.953   5.107   4.202
 5316SOL    HW116847   5.999   5.188   4.165
 5316SOL    HW216848   5.902   5.062   4.128
 5317SOL     OW16849   5.543   6.125   2.642
 5317SOL    HW116850   5.474   6.088   2.580
 5317SOL    HW216851   5.634   6.095   2.613
 5318SOL     OW16852   0.406   2.607   4.417
 5318SOL    HW116853   0.317   2.574   4.449
 5318SOL    HW216854   0.460   2.530   4.384
 5319SOL     OW16855   4.850   0.149   0.569
 5319SOL    HW116856   4.772   0.193   0.615
 5319SOL    HW216857   4.929   0.149   0.630
 5320SOL     OW16858   5.634   2.821   5.477
 5320SOL    HW116859   5.689   2.741   5.500
 5320SOL    HW216860   5.693   2.892   5.437
 5321SOL     OW16861   2.025   5.208   6.284
 5321SOL    HW116862   1.966   5.128   6.270
 5321SOL    HW216863   1.979   5.272   6.346
 5322SOL     OW16864   3.374   5.787   0.249
 5322SOL    HW116865   3.346   5.880   0.273
 5322SOL    HW216866   3.417   5.744   0.329
 5323SOL     OW16867   5.495   2.773   0.319
 5323SOL    HW116868   5.549   2.855   0.302
 5323SOL    HW216869   5.398   2.794   0.306
 5324SOL     OW16870   3.505   3.546   1.882
 5324SOL    HW116871   3.517   3.536   1.783
 5324SOL    HW216872   3.530   3.461   1.927
 5325SOL     OW16873   4.996   5.776   3.438
 5325SOL    HW116874   4.959   5.863   3.407
 5325SOL    HW216875   5.078   5.754   3.384
 5326SOL     OW16876   6.528   6.192   2.008
 5326SOL    HW116877   6.477   6.139   1.940
 5326SOL    HW216878   6.609   6.141   2.035
 5327SOL     OW16879   6.611   0.829   3.790
 5327SOL    HW116880   6.689   0.889   3.801
 5327SOL    HW216881   6.530   0.872   3.830
 5328SOL     OW16882   3.842   4.954   1.160
 5328SOL    HW116883   3.789   4.933   1.078
 5328SOL    HW216884   3.932   4.909   1.154
 5329SOL     OW16885   0.084   5.017   6.572
 5329SOL    HW116886   0.139   4.958   6.631
 5329SOL    HW216887   0.045   4.964   6.498
 5330SOL     OW16888   4.777   4.346   0.787
 5330SOL    HW116889   4.804   4.270   0.845
 5330SOL    HW216890   4.761   4.427   0.844
 5331SOL     OW16891   4.565   3.208   6.731
 5331SOL    HW116892   4.551   3.109   6.733
 5331SOL    HW216893   4.476   3.254   6.737
 5332SOL     OW16894   5.661   2.598   0.177
 5332SOL    HW116895   5.603   2.663   0.224
 5332SOL    HW216896   5.653   2.508   0.220
 5333SOL     OW16897   1.568   1.532   3.963
 5333SOL    HW116898   1.538   1.599   4.031
 5333SOL    HW216899   1.531   1.442   3.986
 5334SOL     OW16900   4.162   5.681   1.940
 5334SOL    HW116901   4.196   5.628   2.018
 5334SOL    HW216902   4.228   5.752   1.917
 5335SOL     OW16903   0.164   3.895   1.288
 5335SOL    HW116904   0.097   3.880   1.361
 5335SOL    HW216905   0.161   3.990   1.258
 5336SOL     OW16906   1.589   3.468   4.222
 5336SOL    HW116907   1.641   3.383   4.212
 5336SOL    HW216908   1.568   3.483   4.319
 5337SOL     OW16909   6.341   4.475   0.627
 5337SOL    HW116910   6.276   4.467   0.703
 5337SOL    HW216911   6.292   4.504   0.545
 5338SOL     OW16912   6.632   3.682   0.805
 5338SOL    HW116913   6.678   3.629   0.876
 5338SOL    HW216914   6.693   3.755   0.774
 5339SOL     OW16915   5.211   3.299   2.887
 5339SOL    HW116916   5.259   3.282   2.973
 5339SOL    HW216917   5.198   3.397   2.874
 5340SOL     OW16918   6.033   2.941   2.443
 5340SOL    HW116919   6.017   3.030   2.402
 5340SOL    HW216920   6.032   2.949   2.543
 5341SOL     OW16921   4.059   5.155   3.866
 5341SOL    HW116922   3.980   5.194   3.818
 5341SOL    HW216923   4.085   5.215   3.941
 5342SOL     OW16924   5.929   0.142   4.548
 5342SOL    HW116925   5.984   0.129   4.631
 5342SOL    HW216926   5.987   0.183   4.476
 5343SOL     OW16927   3.433   3.491   6.610
 5343SOL    HW116928   3.462   3.397   6.592
 5343SOL    HW216929   3.498   3.534   6.672
 5344SOL     OW16930   1.245   1.661   6.360
 5344SOL    HW116931   1.281   1.722   6.430
 5344SOL    HW216932   1.278   1.568   6.377
 5345SOL     OW16933   5.100   1.816   0.310
 5345SOL    HW116934   5.166   1.773   0.372
 5345SOL    HW216935   5.075   1.906   0.345
 5346SOL     OW16936   3.239   5.969   3.876
 5346SOL    HW116937   3.322   6.016   3.846
 5346SOL    HW216938   3.160   6.007   3.827
 5347SOL     OW16939   6.075   1.605   4.021
 5347SOL    HW116940   6.144   1.676   4.032
 5347SOL    HW216941   6.072   1.576   3.925
 5348SOL     OW16942   5.602   2.698   3.270
 5348SOL    HW116943   5.688   2.668   3.229
 5348SOL    HW216944   5.554   2.759   3.207
 5349SOL     OW16945   0.584   3.763   2.364
 5349SOL    HW116946   0.497   3.734   2.404
 5349SOL    HW216947   0.592   3.863   2.369
 5350SOL     OW16948   1.470   6.734   0.428
 5350SOL    HW116949   1.484   6.789   0.510
 5350SOL    HW216950   1.553   6.736   0.373
 5351SOL     OW16951   6.535   6.255   2.764
 5351SOL    HW116952   6.634   6.241   2.759
 5351SOL    HW216953   6.514   6.317   2.839
 5352SOL     OW16954   1.334   3.283   4.918
 5352SOL    HW116955   1.317   3.198   4.968
 5352SOL    HW216956   1.401   3.338   4.968
 5353SOL     OW16957   3.983   5.575   3.374
 5353SOL    HW116958   3.993   5.610   3.280
 5353SOL    HW216959   3.955   5.479   3.371
 5354SOL     OW16960   4.655   5.933   0.445
 5354SOL    HW116961   4.667   6.025   0.483
 5354SOL    HW216962   4.575   5.931   0.386
 5355SOL     OW16963   5.169   4.408   5.104
 5355SOL    HW116964   5.152   4.338   5.173
 5355SOL    HW216965   5.114   4.388   5.023
 5356SOL     OW16966   0.346   5.238   0.991
 5356SOL    HW116967   0.440   5.245   1.026
 5356SOL    HW216968   0.345   5.262   0.894
 5357SOL     OW16969   5.795   3.383   2.499
 5357SOL    HW116970   5.871   3.448   2.509
 5357SOL    HW216971   5.760   3.360   2.590
 5358SOL     OW16972   4.324   1.753   0.239
 5358SOL    HW116973   4.313   1.815   0.317
 5358SOL    HW216974   4.252   1.770   0.172
 5359SOL     OW16975   3.753   2.271   0.083
 5359SOL    HW116976   3.745   2.191   0.023
 5359SOL    HW216977   3.663   2.294   0.120
 5360SOL     OW16978   5.636   4.395   3.485
 5360SOL    HW116979   5.615   4.298   3.482
 5360SOL    HW216980   5.572   4.441   3.546
 5361SOL     OW16981   2.265   5.576   2.150
 5361SOL    HW116982   2.362   5.575   2.126
 5361SOL    HW216983   2.223   5.488   2.127
 5362SOL     OW16984   5.171   0.222   1.886
 5362SOL    HW116985   5.230   0.300   1.904
 5362SOL    HW216986   5.077   0.245   1.909
 5363SOL     OW16987   5.982   5.654   3.216
 5363SOL    HW116988   6.045   5.718   3.258
 5363SOL    HW216989   5.893   5.698   3.203
 5364SOL     OW16990   4.740   0.847   2.140
 5364SOL    HW116991   4.840   0.840   2.145
 5364SOL    HW216992   4.714   0.894   2.056
 5365SOL     OW16993   3.449   2.916   3.592
 5365SOL    HW116994   3.512   2.860   3.647
 5365SOL    HW216995   3.386   2.963   3.653
 5366SOL     OW16996   6.248   5.825   2.611
 5366SOL    HW116997   6.283   5.917   2.625
 5366SOL    HW216998   6.195   5.822   2.526
 5367SOL     OW16999   6.411   6.311   1.644
 5367SOL    HW117000   6.409   6.213   1.621
 5367SOL    HW217001   6.372   6.363   1.568
 5368SOL     OW17002   6.549   6.062   4.069
 5368SOL    HW117003   6.464   6.114   4.071
 5368SOL    HW217004   6.624   6.118   4.105
 5369SOL     OW17005   2.980   5.465   2.906
 5369SOL    HW117006   2.907   5.501   2.964
 5369SOL    HW217007   2.948   5.458   2.812
 5370SOL     OW17008   1.413   3.566   0.926
 5370SOL    HW117009   1.512   3.571   0.910
 5370SOL    HW217010   1.373   3.656   0.912
 5371SOL     OW17011   5.618   5.640   4.542
 5371SOL    HW117012   5.668   5.582   4.605
 5371SOL    HW217013   5.579   5.718   4.591
 5372SOL     OW17014   1.089   0.164   3.141
 5372SOL    HW117015   1.091   0.070   3.106
 5372SOL    HW217016   0.998   0.184   3.178
 5373SOL     OW17017   3.493   1.814   6.842
 5373SOL    HW117018   3.465   1.832   6.937
 5373SOL    HW217019   3.416   1.831   6.781
 5374SOL     OW17020   1.705   5.008   2.462
 5374SOL    HW117021   1.656   5.093   2.441
 5374SOL    HW217022   1.770   4.989   2.389
 5375SOL     OW17023   1.908   4.281   4.738
 5375SOL    HW117024   1.913   4.371   4.780
 5375SOL    HW217025   1.941   4.286   4.643
 5376SOL     OW17026   0.349   7.005   6.111
 5376SOL    HW117027   0.435   0.012   6.149
 5376SOL    HW217028   0.273   0.032   6.150
 5377SOL     OW17029   1.998   0.987   3.405
 5377SOL    HW117030   2.062   0.915   3.431
 5377SOL    HW217031   2.028   1.074   3.442
 5378SOL     OW17032   5.043   0.757   2.151
 5378SOL    HW117033   5.140   0.761   2.128
 5378SOL    HW217034   5.032   0.719   2.243
 5379SOL     OW17035   1.701   2.324   5.721
 5379SOL    HW117036   1.787   2.274   5.707
 5379SOL    HW217037   1.698   2.359   5.814
 5380SOL     OW17038   4.415   6.517   1.453
 5380SOL    HW117039   4.374   6.542   1.541
 5380SOL    HW217040   4.468   6.595   1.417
 5381SOL     OW17041   4.098   6.918   3.957
 5381SOL    HW117042   4.043   6.911   4.040
 5381SOL    HW217043   4.194   6.932   3.982
 5382SOL     OW17044   4.342   1.200   1.346
 5382SOL    HW117045   4.339   1.300   1.336
 5382SOL    HW217046   4.428   1.175   1.391
 5383SOL     OW17047   2.278   2.899   4.555
 5383SOL    HW117048   2.285   2.999   4.549
 5383SOL    HW217049   2.272   2.872   4.651
 5384SOL     OW17050   5.537   5.581   4.257
 5384SOL    HW117051   5.497   5.644   4.190
 5384SOL    HW217052   5.517   5.613   4.349
 5385SOL     OW17053   3.815   3.002   6.000
 5385SOL    HW117054   3.802   2.974   5.905
 5385SOL    HW217055   3.840   2.923   6.055
 5386SOL     OW17056   5.776   4.718   4.781
 5386SOL    HW117057   5.771   4.623   4.812
 5386SOL    HW217058   5.858   4.761   4.819
 5387SOL     OW17059   1.870   1.521   3.415
 5387SOL    HW117060   1.857   1.554   3.322
 5387SOL    HW217061   1.792   1.548   3.471
 5388SOL     OW17062   0.413   6.634   2.131
 5388SOL    HW117063   0.352   6.627   2.211
 5388SOL    HW217064   0.471   6.715   2.140
 5389SOL     OW17065   4.478   1.633   4.236
 5389SOL    HW117066   4.491   1.534   4.245
 5389SOL    HW217067   4.380   1.654   4.238
 5390SOL     OW17068   0.778   2.880   3.114
 5390SOL    HW117069   0.745   2.794   3.075
 5390SOL    HW217070   0.869   2.867   3.153
 5391SOL     OW17071   3.089   3.589   0.377
 5391SOL    HW117072   3.031   3.592   0.458
 5391SOL    HW217073   3.059   3.515   0.317
 5392SOL     OW17074   5.305   1.960   3.822
 5392SOL    HW117075   5.230   2.020   3.792
 5392SOL    HW217076   5.384   2.015   3.849
 5393SOL     OW17077   4.669   1.800   4.910
 5393SOL    HW117078   4.731   1.808   4.988
 5393SOL    HW217079   4.613   1.717   4.920
 5394SOL     OW17080   1.370   1.822   0.901
 5394SOL    HW117081   1.450   1.847   0.954
 5394SOL    HW217082   1.391   1.829   0.804
 5395SOL     OW17083   6.489   2.063   0.551
 5395SOL    HW117084   6.423   2.001   0.594
 5395SOL    HW217085   6.582   2.031   0.571
 5396SOL     OW17086   4.856   4.047   0.728
 5396SOL    HW117087   4.892   4.092   0.810
 5396SOL    HW217088   4.779   4.100   0.693
 5397SOL     OW17089   0.559   1.151   2.583
 5397SOL    HW117090   0.568   1.231   2.524
 5397SOL    HW217091   0.640   1.144   2.642
 5398SOL     OW17092   5.959   1.779   2.699
 5398SOL    HW117093   5.881   1.834   2.729
 5398SOL    HW217094   6.008   1.827   2.627
 5399SOL     OW17095   1.885   1.555   7.017
 5399SOL    HW117096   1.852   1.462   6.998
 5399SOL    HW217097   1.915   1.561   0.086
 5400SOL     OW17098   5.085   3.556   2.007
 5400SOL    HW117099   5.113   3.496   1.931
 5400SOL    HW217100   5.130   3.526   2.091
 5401SOL     OW17101   5.716   2.725   1.322
 5401SOL    HW117102   5.709   2.775   1.236
 5401SOL    HW217103   5.698   2.786   1.399
 5402SOL     OW17104   1.300   6.198   1.964
 5402SOL    HW117105   1.397   6.203   1.989
 5402SOL    HW217106   1.258   6.122   2.013
 5403SOL     OW17107   4.651   2.951   0.067
 5403SOL    HW117108   4.703   2.994   7.019
 5403SOL    HW217109   4.715   2.914   0.135
 5404SOL     OW17110   5.607   0.725   0.414
 5404SOL    HW117111   5.662   0.649   0.450
 5404SOL    HW217112   5.567   0.698   0.327
 5405SOL     OW17113   7.005   5.340   7.018
 5405SOL    HW117114   0.055   5.276   7.004
 5405SOL    HW217115   6.987   5.350   0.091
 5406SOL     OW17116   2.342   0.845   5.664
 5406SOL    HW117117   2.343   0.887   5.755
 5406SOL    HW217118   2.373   0.750   5.670
 5407SOL     OW17119   2.159   7.001   2.462
 5407SOL    HW117120   2.075   0.030   2.474
 5407SOL    HW217121   2.225   0.001   2.532
 5408SOL     OW17122   3.540   1.754   4.325
 5408SOL    HW117123   3.454   1.740   4.374
 5408SOL    HW217124   3.577   1.665   4.297
 5409SOL     OW17125   0.932   3.057   2.100
 5409SOL    HW117126   0.856   3.057   2.165
 5409SOL    HW217127   0.897   3.077   2.008
 5410SOL     OW17128   1.124   2.684   1.225
 5410SOL    HW117129   1.043   2.704   1.280
 5410SOL    HW217130   1.111   2.596   1.179
 5411SOL     OW17131   3.149   5.420   0.011
 5411SOL    HW117132   3.201   5.472   6.969
 5411SOL    HW217133   3.070   5.378   6.992
 5412SOL     OW17134   0.273   2.253   5.983
 5412SOL    HW117135   0.288   2.349   5.961
 5412SOL    HW217136   0.177   2.230   5.968
 5413SOL     OW17137   6.801   6.133   4.336
 5413SOL    HW117138   6.776   6.036   4.335
 5413SOL    HW217139   6.849   6.154   4.421
 5414SOL     OW17140   5.369   4.165   5.971
 5414SOL    HW117141   5.334   4.073   5.955
 5414SOL    HW217142   5.369   4.183   6.070
 5415SOL     OW17143   4.443   1.120   0.040
 5415SOL    HW117144   4.486   1.087   0.124
 5415SOL    HW217145   4.478   1.211   0.019
 5416SOL     OW17146   3.498   6.033   6.216
 5416SOL    HW117147   3.442   6.106   6.176
 5416SOL    HW217148   3.522   5.967   6.146
 5417SOL     OW17149   4.157   6.895   4.260
 5417SOL    HW117150   4.095   6.817   4.269
 5417SOL    HW217151   4.242   6.877   4.309
 5418SOL     OW17152   6.983   3.266   4.710
 5418SOL    HW117153   6.932   3.181   4.722
 5418SOL    HW217154   6.950   3.334   4.776
 5419SOL     OW17155   4.981   0.264   6.111
 5419SOL    HW117156   5.035   0.191   6.070
 5419SOL    HW217157   4.935   0.316   6.039
 5420SOL     OW17158   0.767   1.285   2.141
 5420SOL    HW117159   0.867   1.295   2.137
 5420SOL    HW217160   0.730   1.347   2.211
 5421SOL     OW17161   4.067   4.893   1.940
 5421SOL    HW117162   4.107   4.802   1.938
 5421SOL    HW217163   3.980   4.893   1.891
 5422SOL     OW17164   2.665   5.399   3.668
 5422SOL    HW117165   2.682   5.301   3.664
 5422SOL    HW217166   2.708   5.437   3.751
 5423SOL     OW17167   5.603   5.864   1.889
 5423SOL    HW117168   5.574   5.882   1.795
 5423SOL    HW217169   5.676   5.928   1.914
 5424SOL     OW17170   4.267   4.153   5.434
 5424SOL    HW117171   4.169   4.165   5.423
 5424SOL    HW217172   4.315   4.228   5.388
 5425SOL     OW17173   1.694   4.187   5.460
 5425SOL    HW117174   1.684   4.120   5.534
 5425SOL    HW217175   1.633   4.264   5.477
 5426SOL     OW17176   6.255   5.234   1.531
 5426SOL    HW117177   6.186   5.284   1.584
 5426SOL    HW217178   6.346   5.262   1.559
 5427SOL     OW17179   4.398   2.147   6.144
 5427SOL    HW117180   4.451   2.220   6.101
 5427SOL    HW217181   4.459   2.090   6.199
 5428SOL     OW17182   5.903   5.498   2.341
 5428SOL    HW117183   5.834   5.530   2.407
 5428SOL    HW217184   5.952   5.421   2.381
 5429SOL     OW17185   3.449   0.266   4.711
 5429SOL    HW117186   3.464   0.356   4.751
 5429SOL    HW217187   3.351   0.247   4.707
 5430SOL     OW17188   2.634   3.838   5.590
 5430SOL    HW117189   2.573   3.761   5.611
 5430SOL    HW217190   2.723   3.821   5.631
 5431SOL     OW17191   3.596   4.079   0.081
 5431SOL    HW117192   3.544   4.027   0.149
 5431SOL    HW217193   3.539   4.151   0.042
 5432SOL     OW17194   0.172   5.564   6.805
 5432SOL    HW117195   0.092   5.591   6.858
 5432SOL    HW217196   0.178   5.465   6.801
 5433SOL     OW17197   1.957   0.837   1.504
 5433SOL    HW117198   2.019   0.819   1.581
 5433SOL    HW217199   1.993   0.793   1.422
 5434SOL     OW17200   5.452   0.963   4.895
 5434SOL    HW117201   5.434   1.005   4.984
 5434SOL    HW217202   5.435   0.865   4.900
 5435SOL     OW17203   6.563   4.508   0.779
 5435SOL    HW117204   6.465   4.497   0.760
 5435SOL    HW217205   6.600   4.581   0.722
 5436SOL     OW17206   1.217   4.394   3.057
 5436SOL    HW117207   1.239   4.399   2.960
 5436SOL    HW217208   1.232   4.301   3.090
 5437SOL     OW17209   4.063   5.474   1.379
 5437SOL    HW117210   4.009   5.555   1.358
 5437SOL    HW217211   4.124   5.493   1.455
 5438SOL     OW17212   4.725   5.654   2.336
 5438SOL    HW117213   4.639   5.643   2.287
 5438SOL    HW217214   4.797   5.678   2.271
 5439SOL     OW17215   0.829   4.818   2.063
 5439SOL    HW117216   0.842   4.917   2.074
 5439SOL    HW217217   0.903   4.770   2.108
 5440SOL     OW17218   6.413   6.832   3.783
 5440SOL    HW117219   6.421   6.920   3.829
 5440SOL    HW217220   6.317   6.805   3.779
 5441SOL     OW17221   6.422   3.431   4.034
 5441SOL    HW117222   6.426   3.473   4.124
 5441SOL    HW217223   6.370   3.345   4.040
 5442SOL     OW17224   4.199   0.040   5.715
 5442SOL    HW117225   4.112   0.086   5.732
 5442SOL    HW217226   4.216   6.998   5.786
 5443SOL     OW17227   4.773   1.076   3.534
 5443SOL    HW117228   4.710   1.085   3.457
 5443SOL    HW217229   4.854   1.132   3.517
 5444SOL     OW17230   6.353   1.579   4.567
 5444SOL    HW117231   6.363   1.493   4.518
 5444SOL    HW217232   6.392   1.570   4.659
 5445SOL     OW17233   5.976   5.757   4.597
 5445SOL    HW117234   5.927   5.757   4.510
 5445SOL    HW217235   6.074   5.768   4.579
 5446SOL     OW17236   7.014   4.027   6.215
 5446SOL    HW117237   0.062   4.054   6.153
 5446SOL    HW217238   6.998   4.100   6.281
 5447SOL     OW17239   0.550   2.593   1.261
 5447SOL    HW117240   0.591   2.570   1.350
 5447SOL    HW217241   0.467   2.646   1.276
 5448SOL     OW17242   4.604   5.096   3.254
 5448SOL    HW117243   4.562   5.085   3.344
 5448SOL    HW217244   4.557   5.038   3.187
 5449SOL     OW17245   3.313   1.023   2.095
 5449SOL    HW117246   3.314   1.092   2.166
 5449SOL    HW217247   3.262   1.057   2.016
 5450SOL     OW17248   4.202   5.553   1.597
 5450SOL    HW117249   4.166   5.646   1.599
 5450SOL    HW217250   4.179   5.506   1.683
 5451SOL     OW17251   6.871   6.869   2.984
 5451SOL    HW117252   6.872   6.952   3.039
 5451SOL    HW217253   6.901   6.791   3.039
 5452SOL     OW17254   2.387   4.280   1.956
 5452SOL    HW117255   2.347   4.232   2.034
 5452SOL    HW217256   2.458   4.343   1.987
 5453SOL     OW17257   6.024   3.624   3.067
 5453SOL    HW117258   5.942   3.662   3.024
 5453SOL    HW217259   5.998   3.551   3.130
 5454SOL     OW17260   5.813   4.343   2.337
 5454SOL    HW117261   5.760   4.399   2.401
 5454SOL    HW217262   5.901   4.320   2.378
 5455SOL     OW17263   1.817   1.922   4.167
 5455SOL    HW117264   1.900   1.881   4.129
 5455SOL    HW217265   1.770   1.974   4.095
 5456SOL     OW17266   5.354   1.675   1.089
 5456SOL    HW117267   5.434   1.711   1.041
 5456SOL    HW217268   5.272   1.723   1.058
 5457SOL     OW17269   5.883   1.501   6.515
 5457SOL    HW117270   5.874   1.581   6.575
 5457SOL    HW217271   5.869   1.529   6.420
 5458SOL     OW17272   6.152   3.119   0.272
 5458SOL    HW117273   6.069   3.109   0.216
 5458SOL    HW217274   6.166   3.216   0.292
 5459SOL     OW17275   1.805   3.358   5.244
 5459SOL    HW117276   1.843   3.287   5.184
 5459SOL    HW217277   1.838   3.447   5.215
 5460SOL     OW17278   1.361   0.914   1.112
 5460SOL    HW117279   1.381   1.010   1.134
 5460SOL    HW217280   1.278   0.886   1.160
 5461SOL     OW17281   6.437   1.380   5.086
 5461SOL    HW117282   6.407   1.393   4.991
 5461SOL    HW217283   6.514   1.441   5.105
 5462SOL     OW17284   4.625   4.099   6.592
 5462SOL    HW117285   4.527   4.115   6.581
 5462SOL    HW217286   4.676   4.161   6.532
 5463SOL     OW17287   1.411   2.901   7.009
 5463SOL    HW117288   1.337   2.842   0.017
 5463SOL    HW217289   1.386   2.937   6.919
 5464SOL     OW17290   0.903   5.988   6.044
 5464SOL    HW117291   0.934   6.012   5.952
 5464SOL    HW217292   0.820   5.932   6.037
 5465SOL     OW17293   6.491   6.565   3.852
 5465SOL    HW117294   6.491   6.652   3.803
 5465SOL    HW217295   6.462   6.492   3.790
 5466SOL     OW17296   6.030   2.489   5.042
 5466SOL    HW117297   6.019   2.414   4.977
 5466SOL    HW217298   6.113   2.541   5.020
 5467SOL     OW17299   4.576   2.604   4.324
 5467SOL    HW117300   4.641   2.588   4.399
 5467SOL    HW217301   4.493   2.552   4.341
 5468SOL     OW17302   6.956   1.436   0.986
 5468SOL    HW117303   6.902   1.520   0.976
 5468SOL    HW217304   6.909   1.361   0.940
 5469SOL     OW17305   3.290   0.255   5.133
 5469SOL    HW117306   3.246   0.201   5.060
 5469SOL    HW217307   3.257   0.349   5.129
 5470SOL     OW17308   3.674   5.314   3.523
 5470SOL    HW117309   3.619   5.350   3.599
 5470SOL    HW217310   3.650   5.362   3.439
 5471SOL     OW17311   4.651   0.760   3.183
 5471SOL    HW117312   4.638   0.858   3.170
 5471SOL    HW217313   4.737   0.744   3.232
 5472SOL     OW17314   2.674   2.201   6.738
 5472SOL    HW117315   2.609   2.200   6.814
 5472SOL    HW217316   2.642   2.265   6.669
 5473SOL     OW17317   2.718   4.486   1.681
 5473SOL    HW117318   2.624   4.461   1.705
 5473SOL    HW217319   2.775   4.481   1.763
 5474SOL     OW17320   0.963   5.282   2.975
 5474SOL    HW117321   0.980   5.190   2.940
 5474SOL    HW217322   1.042   5.340   2.957
 5475SOL     OW17323   0.189   1.660   5.362
 5475SOL    HW117324   0.124   1.723   5.405
 5475SOL    HW217325   0.234   1.706   5.285
 5476SOL     OW17326   2.695   6.599   5.773
 5476SOL    HW117327   2.620   6.665   5.769
 5476SOL    HW217328   2.751   6.617   5.854
 5477SOL     OW17329   1.518   4.414   4.684
 5477SOL    HW117330   1.425   4.396   4.715
 5477SOL    HW217331   1.575   4.333   4.698
 5478SOL     OW17332   5.350   4.008   5.657
 5478SOL    HW117333   5.290   3.932   5.635
 5478SOL    HW217334   5.303   4.072   5.718
 5479SOL     OW17335   3.819   1.003   4.689
 5479SOL    HW117336   3.737   1.052   4.716
 5479SOL    HW217337   3.798   0.906   4.677
 5480SOL     OW17338   7.018   3.863   4.376
 5480SOL    HW117339   0.090   3.856   4.398
 5480SOL    HW217340   6.973   3.922   4.444
 5481SOL     OW17341   4.311   0.892   6.611
 5481SOL    HW117342   4.322   0.990   6.629
 5481SOL    HW217343   4.343   0.840   6.690
 5482SOL     OW17344   5.130   2.791   1.313
 5482SOL    HW117345   5.186   2.734   1.374
 5482SOL    HW217346   5.165   2.885   1.316
 5483SOL     OW17347   0.187   3.294   5.538
 5483SOL    HW117348   0.176   3.372   5.599
 5483SOL    HW217349   0.223   3.325   5.450
 5484SOL     OW17350   5.806   6.519   4.330
 5484SOL    HW117351   5.833   6.530   4.426
 5484SOL    HW217352   5.740   6.445   4.322
 5485SOL     OW17353   3.179   6.906   5.460
 5485SOL    HW117354   3.278   6.908   5.476
 5485SOL    HW217355   3.162   6.919   5.362
 5486SOL     OW17356   0.427   0.816   3.364
 5486SOL    HW117357   0.361   0.888   3.339
 5486SOL    HW217358   0.517   0.857   3.377
 5487SOL     OW17359   5.250   5.055   0.389
 5487SOL    HW117360   5.312   5.107   0.447
 5487SOL    HW217361   5.254   4.958   0.414
 5488SOL     OW17362   5.546   1.563   6.399
 5488SOL    HW117363   5.640   1.586   6.372
 5488SOL    HW217364   5.496   1.529   6.320
 5489SOL     OW17365   1.503   4.071   3.145
 5489SOL    HW117366   1.540   4.062   3.238
 5489SOL    HW217367   1.533   3.994   3.090
 5490SOL     OW17368   2.123   1.438   0.682
 5490SOL    HW117369   2.188   1.382   0.733
 5490SOL    HW217370   2.126   1.532   0.716
 5491SOL     OW17371   0.874   4.958   0.790
 5491SOL    HW117372   0.956   4.974   0.735
 5491SOL    HW217373   0.900   4.945   0.885
 5492SOL     OW17374   0.932   1.484   6.479
 5492SOL    HW117375   0.929   1.582   6.458
 5492SOL    HW217376   0.855   1.438   6.434
 5493SOL     OW17377   3.394   3.420   7.004
 5493SOL    HW117378   3.335   3.470   6.940
 5493SOL    HW217379   3.367   3.440   0.072
 5494SOL     OW17380   5.493   2.728   1.734
 5494SOL    HW117381   5.549   2.741   1.816
 5494SOL    HW217382   5.423   2.658   1.752
 5495SOL     OW17383   3.893   3.509   2.502
 5495SOL    HW117384   3.935   3.535   2.589
 5495SOL    HW217385   3.955   3.449   2.451
 5496SOL     OW17386   4.073   5.786   1.583
 5496SOL    HW117387   4.027   5.854   1.639
 5496SOL    HW217388   4.080   5.820   1.489
 5497SOL     OW17389   6.599   0.702   1.622
 5497SOL    HW117390   6.584   0.626   1.559
 5497SOL    HW217391   6.512   0.747   1.641
 5498SOL     OW17392   4.313   1.013   5.552
 5498SOL    HW117393   4.392   1.074   5.563
 5498SOL    HW217394   4.239   1.044   5.612
 5499SOL     OW17395   0.140   1.374   2.664
 5499SOL    HW117396   0.117   1.466   2.697
 5499SOL    HW217397   0.058   1.316   2.666
 5500SOL     OW17398   2.415   5.432   1.489
 5500SOL    HW117399   2.414   5.419   1.389
 5500SOL    HW217400   2.412   5.342   1.533
 5501SOL     OW17401   2.712   0.161   2.266
 5501SOL    HW117402   2.763   0.077   2.287
 5501SOL    HW217403   2.623   0.158   2.311
 5502SOL     OW17404   5.703   3.707   5.645
 5502SOL    HW117405   5.725   3.730   5.550
 5502SOL    HW217406   5.670   3.789   5.692
 5503SOL     OW17407   1.167   5.254   3.659
 5503SOL    HW117408   1.130   5.164   3.638
 5503SOL    HW217409   1.206   5.253   3.751
 5504SOL     OW17410   3.268   1.994   5.231
 5504SOL    HW117411   3.231   2.024   5.143
 5504SOL    HW217412   3.349   1.937   5.216
 5505SOL     OW17413   3.037   5.397   5.827
 5505SOL    HW117414   3.075   5.360   5.742
 5505SOL    HW217415   2.944   5.430   5.810
 5506SOL     OW17416   6.298   0.661   5.684
 5506SOL    HW117417   6.214   0.609   5.669
 5506SOL    HW217418   6.296   0.744   5.627
 5507SOL     OW17419   2.503   6.046   3.947
 5507SOL    HW117420   2.567   6.057   3.871
 5507SOL    HW217421   2.421   6.101   3.930
 5508SOL     OW17422   3.512   0.688   6.744
 5508SOL    HW117423   3.419   0.669   6.714
 5508SOL    HW217424   3.533   0.784   6.730
 5509SOL     OW17425   5.768   6.919   6.559
 5509SOL    HW117426   5.692   6.982   6.578
 5509SOL    HW217427   5.840   6.968   6.510
 5510SOL     OW17428   5.406   0.812   6.053
 5510SOL    HW117429   5.492   0.862   6.059
 5510SOL    HW217430   5.420   0.727   6.003
 5511SOL     OW17431   0.656   0.608   2.258
 5511SOL    HW117432   0.741   0.568   2.225
 5511SOL    HW217433   0.676   0.686   2.318
 5512SOL     OW17434   1.301   0.575   6.972
 5512SOL    HW117435   1.300   0.476   6.986
 5512SOL    HW217436   1.330   0.620   0.031
 5513SOL     OW17437   4.648   4.277   4.562
 5513SOL    HW117438   4.702   4.194   4.546
 5513SOL    HW217439   4.625   4.319   4.474
 5514SOL     OW17440   5.197   4.650   2.223
 5514SOL    HW117441   5.161   4.569   2.176
 5514SOL    HW217442   5.291   4.631   2.253
 5515SOL     OW17443   6.790   2.572   1.792
 5515SOL    HW117444   6.720   2.642   1.782
 5515SOL    HW217445   6.875   2.614   1.822
 5516SOL     OW17446   1.180   3.818   6.521
 5516SOL    HW117447   1.086   3.795   6.496
 5516SOL    HW217448   1.210   3.898   6.469
 5517SOL     OW17449   2.543   1.896   1.825
 5517SOL    HW117450   2.550   1.969   1.757
 5517SOL    HW217451   2.627   1.894   1.880
 5518SOL     OW17452   6.150   5.197   5.150
 5518SOL    HW117453   6.088   5.188   5.072
 5518SOL    HW217454   6.148   5.291   5.184
 5519SOL     OW17455   5.257   4.098   4.036
 5519SOL    HW117456   5.170   4.053   4.017
 5519SOL    HW217457   5.299   4.128   3.951
 5520SOL     OW17458   1.493   4.050   2.025
 5520SOL    HW117459   1.426   4.110   1.982
 5520SOL    HW217460   1.579   4.100   2.036
 5521SOL     OW17461   6.024   5.351   1.714
 5521SOL    HW117462   5.968   5.356   1.631
 5521SOL    HW217463   6.067   5.439   1.731
 5522SOL     OW17464   2.599   3.512   1.725
 5522SOL    HW117465   2.653   3.428   1.721
 5522SOL    HW217466   2.507   3.491   1.757
 5523SOL     OW17467   3.172   0.600   2.453
 5523SOL    HW117468   3.108   0.535   2.411
 5523SOL    HW217469   3.262   0.589   2.411
 5524SOL     OW17470   0.030   4.844   5.872
 5524SOL    HW117471   0.010   4.942   5.866
 5524SOL    HW217472   7.018   4.807   5.957
 5525SOL     OW17473   6.467   5.675   5.558
 5525SOL    HW117474   6.528   5.741   5.514
 5525SOL    HW217475   6.385   5.722   5.590
 5526SOL     OW17476   6.412   3.167   4.346
 5526SOL    HW117477   6.417   3.144   4.443
 5526SOL    HW217478   6.332   3.225   4.329
 5527SOL     OW17479   1.453   3.389   1.582
 5527SOL    HW117480   1.386   3.404   1.509
 5527SOL    HW217481   1.469   3.291   1.594
 5528SOL     OW17482   0.541   3.647   4.393
 5528SOL    HW117483   0.514   3.574   4.455
 5528SOL    HW217484   0.462   3.677   4.340
 5529SOL     OW17485   2.571   1.583   4.993
 5529SOL    HW117486   2.542   1.654   4.929
 5529SOL    HW217487   2.641   1.526   4.951
 5530SOL     OW17488   0.905   2.653   0.489
 5530SOL    HW117489   0.986   2.610   0.449
 5530SOL    HW217490   0.872   2.724   0.427
 5531SOL     OW17491   3.580   2.919   5.760
 5531SOL    HW117492   3.595   2.993   5.694
 5531SOL    HW217493   3.568   2.957   5.851
 5532SOL     OW17494   2.361   1.567   1.313
 5532SOL    HW117495   2.371   1.662   1.342
 5532SOL    HW217496   2.365   1.562   1.214
 5533SOL     OW17497   3.687   1.189   1.357
 5533SOL    HW117498   3.621   1.140   1.414
 5533SOL    HW217499   3.757   1.125   1.326
 5534SOL     OW17500   0.279   4.070   6.424
 5534SOL    HW117501   0.253   4.109   6.512
 5534SOL    HW217502   0.252   3.973   6.422
 5535SOL     OW17503   6.273   3.134   2.405
 5535SOL    HW117504   6.304   3.095   2.318
 5535SOL    HW217505   6.204   3.075   2.446
 5536SOL     OW17506   2.680   0.897   3.919
 5536SOL    HW117507   2.662   0.995   3.929
 5536SOL    HW217508   2.751   0.870   3.984
 5537SOL     OW17509   4.104   0.166   5.358
 5537SOL    HW117510   4.068   0.089   5.411
 5537SOL    HW217511   4.058   0.169   5.269
 5538SOL     OW17512   4.406   1.380   6.973
 5538SOL    HW117513   4.314   1.352   7.002
 5538SOL    HW217514   4.403   1.409   6.877
 5539SOL     OW17515   2.484   6.917   1.489
 5539SOL    HW117516   2.435   6.864   1.558
 5539SOL    HW217517   2.543   6.984   1.534
 5540SOL     OW17518   5.091   1.766   0.021
 5540SOL    HW117519   5.090   1.809   0.111
 5540SOL    HW217520   5.051   1.828   6.979
 5541SOL     OW17521   4.649   3.824   6.550
 5541SOL    HW117522   4.551   3.811   6.534
 5541SOL    HW217523   4.667   3.920   6.572
 5542SOL     OW17524   5.712   4.177   6.487
 5542SOL    HW117525   5.643   4.183   6.415
 5542SOL    HW217526   5.677   4.218   6.571
 5543SOL     OW17527   1.679   0.047   1.002
 5543SOL    HW117528   1.581   0.027   0.997
 5543SOL    HW217529   1.731   6.987   1.003
 5544SOL     OW17530   4.608   5.141   6.074
 5544SOL    HW117531   4.526   5.104   6.030
 5544SOL    HW217532   4.603   5.241   6.077
 5545SOL     OW17533   4.444   0.830   2.904
 5545SOL    HW117534   4.444   0.766   2.981
 5545SOL    HW217535   4.381   0.906   2.923
 5546SOL     OW17536   6.961   6.180   5.672
 5546SOL    HW117537   7.014   6.262   5.696
 5546SOL    HW217538   6.985   6.151   5.579
 5547SOL     OW17539   5.348   1.613   5.307
 5547SOL    HW117540   5.276   1.632   5.239
 5547SOL    HW217541   5.404   1.536   5.275
 5548SOL     OW17542   6.958   3.858   5.145
 5548SOL    HW117543   6.966   3.858   5.245
 5548SOL    HW217544   0.010   3.807   5.106
 5549SOL     OW17545   3.809   3.473   1.894
 5549SOL    HW117546   3.874   3.475   1.818
 5549SOL    HW217547   3.718   3.452   1.859
 5550SOL     OW17548   1.774   4.249   3.029
 5550SOL    HW117549   1.715   4.295   3.096
 5550SOL    HW217550   1.723   4.174   2.986
 5551SOL     OW17551   2.235   5.581   3.583
 5551SOL    HW117552   2.269   5.613   3.671
 5551SOL    HW217553   2.184   5.655   3.538
 5552SOL     OW17554   6.974   6.900   6.178
 5552SOL    HW117555   6.888   6.946   6.156
 5552SOL    HW217556   6.958   6.802   6.189
 5553SOL     OW17557   4.859   0.481   6.769
 5553SOL    HW117558   4.898   0.486   6.861
 5553SOL    HW217559   4.931   0.498   6.702
 5554SOL     OW17560   5.995   3.052   1.160
 5554SOL    HW117561   6.094   3.059   1.173
 5554SOL    HW217562   5.949   3.067   1.247
 5555SOL     OW17563   1.173   3.988   2.826
 5555SOL    HW117564   1.232   4.063   2.800
 5555SOL    HW217565   1.096   3.982   2.762
 5556SOL     OW17566   6.737   1.027   4.181
 5556SOL    HW117567   6.758   1.075   4.096
 5556SOL    HW217568   6.665   1.076   4.230
 5557SOL     OW17569   3.215   5.594   2.203
 5557SOL    HW117570   3.242   5.688   2.226
 5557SOL    HW217571   3.293   5.533   2.215
 5558SOL     OW17572   3.435   4.389   0.759
 5558SOL    HW117573   3.487   4.443   0.692
 5558SOL    HW217574   3.487   4.382   0.844
 5559SOL     OW17575   1.308   6.992   2.612
 5559SOL    HW117576   1.286   0.045   2.670
 5559SOL    HW217577   1.254   6.913   2.641
 5560SOL     OW17578   0.342   5.412   2.936
 5560SOL    HW117579   0.254   5.416   2.889
 5560SOL    HW217580   0.334   5.352   3.016
 5561SOL     OW17581   3.115   1.038   3.706
 5561SOL    HW117582   3.037   0.997   3.659
 5561SOL    HW217583   3.171   0.966   3.748
 5562SOL     OW17584   4.181   4.106   0.337
 5562SOL    HW117585   4.236   4.033   0.378
 5562SOL    HW217586   4.218   4.195   0.363
 5563SOL     OW17587   3.152   4.971   3.032
 5563SOL    HW117588   3.165   5.068   3.055
 5563SOL    HW217589   3.086   4.931   3.096
 5564SOL     OW17590   5.247   0.478   5.882
 5564SOL    HW117591   5.281   0.450   5.972
 5564SOL    HW217592   5.205   0.569   5.889
 5565SOL     OW17593   3.857   3.225   0.537
 5565SOL    HW117594   3.844   3.170   0.454
 5565SOL    HW217595   3.912   3.306   0.515
 5566SOL     OW17596   0.875   3.590   0.500
 5566SOL    HW117597   0.968   3.585   0.537
 5566SOL    HW217598   0.818   3.646   0.561
 5567SOL     OW17599   6.848   3.639   1.403
 5567SOL    HW117600   6.904   3.722   1.404
 5567SOL    HW217601   6.861   3.588   1.488
 5568SOL     OW17602   4.411   6.536   2.517
 5568SOL    HW117603   4.493   6.530   2.461
 5568SOL    HW217604   4.383   6.444   2.545
 5569SOL     OW17605   2.800   2.033   3.484
 5569SOL    HW117606   2.885   2.074   3.517
 5569SOL    HW217607   2.723   2.071   3.535
 5570SOL     OW17608   6.499   3.348   3.629
 5570SOL    HW117609   6.459   3.409   3.698
 5570SOL    HW217610   6.577   3.394   3.586
 5571SOL     OW17611   6.906   5.416   2.116
 5571SOL    HW117612   6.890   5.422   2.214
 5571SOL    HW217613   7.003   5.434   2.097
 5572SOL     OW17614   1.248   3.554   5.281
 5572SOL    HW117615   1.153   3.561   5.250
 5572SOL    HW217616   1.263   3.618   5.357
 5573SOL     OW17617   1.318   5.117   5.404
 5573SOL    HW117618   1.389   5.060   5.446
 5573SOL    HW217619   1.239   5.121   5.465
 5574SOL     OW17620   0.669   2.528   6.370
 5574SOL    HW117621   0.739   2.559   6.435
 5574SOL    HW217622   0.705   2.452   6.317
 5575SOL     OW17623   0.904   0.442   1.724
 5575SOL    HW117624   0.971   0.478   1.659
 5575SOL    HW217625   0.863   0.518   1.775
 5576SOL     OW17626   2.485   4.435   3.230
 5576SOL    HW117627   2.516   4.375   3.156
 5576SOL    HW217628   2.423   4.504   3.192
 5577SOL     OW17629   1.468   3.406   6.956
 5577SOL    HW117630   1.548   3.437   7.007
 5577SOL    HW217631   1.396   3.476   6.962
 5578SOL     OW17632   3.859   3.384   3.072
 5578SOL    HW117633   3.777   3.430   3.105
 5578SOL    HW217634   3.878   3.412   2.979
 5579SOL     OW17635   0.188   3.194   1.029
 5579SOL    HW117636   0.275   3.189   0.979
 5579SOL    HW217637   0.141   3.106   1.021
 5580SOL     OW17638   4.952   1.633   6.068
 5580SOL    HW117639   4.988   1.712   6.019
 5580SOL    HW217640   4.853   1.627   6.053
 5581SOL     OW17641   0.582   1.884   0.987
 5581SOL    HW117642   0.640   1.808   0.958
 5581SOL    HW217643   0.515   1.852   1.054
 5582SOL     OW17644   2.517   3.806   6.539
 5582SOL    HW117645   2.520   3.826   6.441
 5582SOL    HW217646   2.599   3.843   6.582
 5583SOL     OW17647   4.768   0.632   2.550
 5583SOL    HW117648   4.818   0.692   2.613
 5583SOL    HW217649   4.808   0.638   2.459
 5584SOL     OW17650   6.875   4.198   4.850
 5584SOL    HW117651   6.813   4.214   4.773
 5584SOL    HW217652   6.839   4.243   4.931
 5585SOL     OW17653   4.852   4.777   2.640
 5585SOL    HW117654   4.888   4.685   2.625
 5585SOL    HW217655   4.888   4.839   2.571
 5586SOL     OW17656   6.740   3.815   5.973
 5586SOL    HW117657   6.836   3.789   5.971
 5586SOL    HW217658   6.729   3.897   6.028
 5587SOL     OW17659   4.323   1.331   6.477
 5587SOL    HW117660   4.230   1.302   6.501
 5587SOL    HW217661   4.355   1.279   6.398
 5588SOL     OW17662   2.479   6.932   2.788
 5588SOL    HW117663   2.469   6.834   2.769
 5588SOL    HW217664   2.575   6.958   2.781
 5589SOL     OW17665   5.707   4.461   6.142
 5589SOL    HW117666   5.793   4.508   6.161
 5589SOL    HW217667   5.638   4.488   6.210
 5590SOL     OW17668   5.235   5.779   3.947
 5590SOL    HW117669   5.225   5.874   3.915
 5590SOL    HW217670   5.144   5.741   3.968
 5591SOL     OW17671   0.244   1.902   1.595
 5591SOL    HW117672   0.207   1.991   1.621
 5591SOL    HW217673   0.344   1.907   1.594
 5592SOL     OW17674   1.601   4.865   3.375
 5592SOL    HW117675   1.645   4.776   3.369
 5592SOL    HW217676   1.501   4.854   3.370
 5593SOL     OW17677   6.780   2.766   6.864
 5593SOL    HW117678   6.872   2.783   6.828
 5593SOL    HW217679   6.712   2.793   6.795
 5594SOL     OW17680   5.157   1.338   5.018
 5594SOL    HW117681   5.142   1.277   5.097
 5594SOL    HW217682   5.070   1.380   4.993
 5595SOL     OW17683   1.294   2.300   4.916
 5595SOL    HW117684   1.312   2.203   4.895
 5595SOL    HW217685   1.353   2.329   4.992
 5596SOL     OW17686   3.804   6.856   2.913
 5596SOL    HW117687   3.847   6.879   2.826
 5596SOL    HW217688   3.803   6.757   2.926
 5597SOL     OW17689   4.956   2.778   4.394
 5597SOL    HW117690   5.041   2.726   4.389
 5597SOL    HW217691   4.889   2.738   4.332
 5598SOL     OW17692   4.631   2.628   3.656
 5598SOL    HW117693   4.708   2.652   3.715
 5598SOL    HW217694   4.623   2.695   3.583
 5599SOL     OW17695   1.287   0.678   4.572
 5599SOL    HW117696   1.335   0.719   4.649
 5599SOL    HW217697   1.322   0.586   4.556
 5600SOL     OW17698   0.983   2.117   3.289
 5600SOL    HW117699   1.035   2.202   3.296
 5600SOL    HW217700   1.024   2.058   3.221
 5601SOL     OW17701   2.394   0.898   5.930
 5601SOL    HW117702   2.394   0.801   5.952
 5601SOL    HW217703   2.349   0.949   6.004
 5602SOL     OW17704   0.530   1.387   0.879
 5602SOL    HW117705   0.617   1.401   0.831
 5602SOL    HW217706   0.535   1.429   0.970
 5603SOL     OW17707   5.359   1.746   0.050
 5603SOL    HW117708   5.394   1.837   0.031
 5603SOL    HW217709   5.259   1.746   0.039
 5604SOL     OW17710   6.367   2.003   5.758
 5604SOL    HW117711   6.356   2.012   5.857
 5604SOL    HW217712   6.464   2.015   5.735
 5605SOL     OW17713   0.439   1.175   4.928
 5605SOL    HW117714   0.478   1.249   4.872
 5605SOL    HW217715   0.510   1.108   4.948
 5606SOL     OW17716   5.766   6.523   1.263
 5606SOL    HW117717   5.781   6.485   1.172
 5606SOL    HW217718   5.694   6.471   1.309
 5607SOL     OW17719   5.273   1.471   2.164
 5607SOL    HW117720   5.305   1.473   2.069
 5607SOL    HW217721   5.267   1.376   2.194
 5608SOL     OW17722   4.599   0.395   4.343
 5608SOL    HW117723   4.611   0.345   4.429
 5608SOL    HW217724   4.604   0.493   4.361
 5609SOL     OW17725   2.109   5.740   0.446
 5609SOL    HW117726   2.180   5.685   0.491
 5609SOL    HW217727   2.068   5.802   0.512
 5610SOL     OW17728   4.884   0.121   0.214
 5610SOL    HW117729   4.920   0.201   0.261
 5610SOL    HW217730   4.902   0.129   0.116
 5611SOL     OW17731   1.931   4.978   2.715
 5611SOL    HW117732   1.903   4.984   2.620
 5611SOL    HW217733   1.919   4.884   2.748
 5612SOL     OW17734   3.835   2.157   6.386
 5612SOL    HW117735   3.766   2.139   6.316
 5612SOL    HW217736   3.919   2.190   6.342
 5613SOL     OW17737   4.899   4.146   2.577
 5613SOL    HW117738   4.825   4.213   2.566
 5613SOL    HW217739   4.933   4.150   2.671
 5614SOL     OW17740   4.385   2.338   3.337
 5614SOL    HW117741   4.426   2.258   3.293
 5614SOL    HW217742   4.453   2.411   3.344
 5615SOL     OW17743   0.603   0.522   6.443
 5615SOL    HW117744   0.544   0.525   6.524
 5615SOL    HW217745   0.653   0.608   6.435
 5616SOL     OW17746   2.329   0.576   5.208
 5616SOL    HW117747   2.244   0.536   5.175
 5616SOL    HW217748   2.349   0.659   5.156
 5617SOL     OW17749   2.274   0.021   6.264
 5617SOL    HW117750   2.256   0.115   6.295
 5617SOL    HW217751   2.340   0.023   6.189
 5618SOL     OW17752   6.914   4.002   4.612
 5618SOL    HW117753   6.835   3.964   4.660
 5618SOL    HW217754   6.995   3.995   4.671
 5619SOL     OW17755   2.933   3.938   6.408
 5619SOL    HW117756   2.964   3.846   6.385
 5619SOL    HW217757   2.852   3.933   6.467
 5620SOL     OW17758   3.800   3.096   0.295
 5620SOL    HW117759   3.803   3.025   0.224
 5620SOL    HW217760   3.721   3.155   0.279
 5621SOL     OW17761   1.314   1.567   5.576
 5621SOL    HW117762   1.260   1.510   5.637
 5621SOL    HW217763   1.362   1.637   5.628
 5622SOL     OW17764   4.886   0.173   5.710
 5622SOL    HW117765   4.921   0.106   5.775
 5622SOL    HW217766   4.870   0.260   5.756
 5623SOL     OW17767   1.881   6.432   6.253
 5623SOL    HW117768   1.807   6.392   6.198
 5623SOL    HW217769   1.852   6.522   6.287
 5624SOL     OW17770   1.338   4.789   3.393
 5624SOL    HW117771   1.334   4.722   3.466
 5624SOL    HW217772   1.321   4.744   3.305
 5625SOL     OW17773   6.265   2.338   4.297
 5625SOL    HW117774   6.213   2.419   4.271
 5625SOL    HW217775   6.270   2.275   4.219
 5626SOL     OW17776   2.814   6.351   4.940
 5626SOL    HW117777   2.809   6.331   4.842
 5626SOL    HW217778   2.775   6.274   4.992
 5627SOL     OW17779   1.475   6.011   1.075
 5627SOL    HW117780   1.555   6.024   1.016
 5627SOL    HW217781   1.463   5.914   1.093
 5628SOL     OW17782   1.491   2.079   5.736
 5628SOL    HW117783   1.556   2.108   5.666
 5628SOL    HW217784   1.541   2.041   5.814
 5629SOL     OW17785   3.181   3.652   1.715
 5629SOL    HW117786   3.127   3.658   1.799
 5629SOL    HW217787   3.253   3.721   1.717
 5630SOL     OW17788   1.514   4.790   0.907
 5630SOL    HW117789   1.427   4.799   0.860
 5630SOL    HW217790   1.577   4.861   0.875
 5631SOL     OW17791   3.918   1.973   0.035
 5631SOL    HW117792   3.908   1.969   6.962
 5631SOL    HW217793   4.015   1.979   0.059
 5632SOL     OW17794   4.314   3.916   6.134
 5632SOL    HW117795   4.245   3.902   6.205
 5632SOL    HW217796   4.332   4.014   6.124
 5633SOL     OW17797   6.549   2.416   3.621
 5633SOL    HW117798   6.571   2.513   3.620
 5633SOL    HW217799   6.559   2.379   3.714
 5634SOL     OW17800   3.166   5.337   5.574
 5634SOL    HW117801   3.133   5.256   5.527
 5634SOL    HW217802   3.116   5.417   5.541
 5635SOL     OW17803   2.124   3.207   5.014
 5635SOL    HW117804   2.200   3.146   5.040
 5635SOL    HW217805   2.154   3.268   4.941
 5636SOL     OW17806   3.623   6.119   2.521
 5636SOL    HW117807   3.636   6.218   2.533
 5636SOL    HW217808   3.525   6.098   2.528
 5637SOL     OW17809   5.965   0.065   4.011
 5637SOL    HW117810   6.032   0.009   4.061
 5637SOL    HW217811   5.894   0.096   4.074
 5638SOL     OW17812   5.789   2.895   1.112
 5638SOL    HW117813   5.808   2.873   1.017
 5638SOL    HW217814   5.864   2.949   1.150
 5639SOL     OW17815   0.493   1.639   6.626
 5639SOL    HW117816   0.534   1.724   6.592
 5639SOL    HW217817   0.566   1.573   6.646
 5640SOL     OW17818   2.725   0.415   4.246
 5640SOL    HW117819   2.757   0.349   4.179
 5640SOL    HW217820   2.659   0.371   4.308
 5641SOL     OW17821   6.819   4.350   6.108
 5641SOL    HW117822   6.784   4.310   6.192
 5641SOL    HW217823   6.768   4.433   6.086
 5642SOL     OW17824   1.788   0.551   0.043
 5642SOL    HW117825   1.767   0.480   0.110
 5642SOL    HW217826   1.886   0.570   0.043
 5643SOL     OW17827   5.681   2.396   4.399
 5643SOL    HW117828   5.772   2.396   4.441
 5643SOL    HW217829   5.684   2.344   4.313
 5644SOL     OW17830   2.942   7.015   5.503
 5644SOL    HW117831   2.921   0.086   5.517
 5644SOL    HW217832   3.038   6.998   5.528
 5645SOL     OW17833   6.376   3.647   3.337
 5645SOL    HW117834   6.441   3.719   3.361
 5645SOL    HW217835   6.423   3.559   3.332
 5646SOL     OW17836   2.370   4.689   3.094
 5646SOL    HW117837   2.335   4.774   3.134
 5646SOL    HW217838   2.305   4.656   3.025
 5647SOL     OW17839   5.525   6.225   1.936
 5647SOL    HW117840   5.491   6.175   2.016
 5647SOL    HW217841   5.556   6.160   1.867
 5648SOL     OW17842   2.626   6.003   2.965
 5648SOL    HW117843   2.636   5.965   2.873
 5648SOL    HW217844   2.672   6.092   2.970
 5649SOL     OW17845   1.004   5.461   4.099
 5649SOL    HW117846   1.100   5.463   4.074
 5649SOL    HW217847   0.952   5.412   4.029
 5650SOL     OW17848   0.819   4.623   0.456
 5650SOL    HW117849   0.795   4.531   0.424
 5650SOL    HW217850   0.848   4.618   0.552
 5651SOL     OW17851   1.302   0.226   0.351
 5651SOL    HW117852   1.209   0.218   0.386
 5651SOL    HW217853   1.336   0.318   0.367
 5652SOL     OW17854   0.087   5.231   2.299
 5652SOL    HW117855   0.134   5.283   2.228
 5652SOL    HW217856   0.138   5.238   2.385
 5653SOL     OW17857   0.210   6.282   1.018
 5653SOL    HW117858   0.117   6.273   1.052
 5653SOL    HW217859   0.269   6.216   1.065
 5654SOL     OW17860   1.464   6.222   4.910
 5654SOL    HW117861   1.518   6.296   4.871
 5654SOL    HW217862   1.368   6.250   4.914
 5655SOL     OW17863   6.217   3.257   3.971
 5655SOL    HW117864   6.208   3.178   4.030
 5655SOL    HW217865   6.251   3.228   3.881
 5656SOL     OW17866   0.211   3.309   6.597
 5656SOL    HW117867   0.241   3.395   6.556
 5656SOL    HW217868   0.280   3.238   6.580
 5657SOL     OW17869   4.441   4.617   4.206
 5657SOL    HW117870   4.359   4.664   4.173
 5657SOL    HW217871   4.458   4.644   4.301
 5658SOL     OW17872   1.911   2.616   5.877
 5658SOL    HW117873   1.830   2.667   5.848
 5658SOL    HW217874   1.968   2.674   5.936
 5659SOL     OW17875   3.215   4.117   6.660
 5659SOL    HW117876   3.206   4.116   6.760
 5659SOL    HW217877   3.290   4.058   6.632
 5660SOL     OW17878   4.820   6.887   6.270
 5660SOL    HW117879   4.753   6.898   6.197
 5660SOL    HW217880   4.795   6.807   6.325
 5661SOL     OW17881   0.731   5.757   6.083
 5661SOL    HW117882   0.653   5.790   6.134
 5661SOL    HW217883   0.706   5.744   5.987
 5662SOL     OW17884   2.672   6.535   3.259
 5662SOL    HW117885   2.734   6.456   3.265
 5662SOL    HW217886   2.622   6.545   3.345
 5663SOL     OW17887   1.320   2.550   1.063
 5663SOL    HW117888   1.286   2.621   1.125
 5663SOL    HW217889   1.261   2.547   0.982
 5664SOL     OW17890   5.610   4.340   4.382
 5664SOL    HW117891   5.512   4.346   4.362
 5664SOL    HW217892   5.654   4.278   4.318
 5665SOL     OW17893   1.754   0.118   0.571
 5665SOL    HW117894   1.756   0.143   0.668
 5665SOL    HW217895   1.658   0.115   0.541
 5666SOL     OW17896   6.392   1.345   4.190
 5666SOL    HW117897   6.429   1.252   4.188
 5666SOL    HW217898   6.347   1.360   4.279
 5667SOL     OW17899   1.545   4.991   4.830
 5667SOL    HW117900   1.579   4.929   4.899
 5667SOL    HW217901   1.605   4.989   4.750
 5668SOL     OW17902   6.083   2.784   3.028
 5668SOL    HW117903   6.136   2.771   3.112
 5668SOL    HW217904   5.998   2.732   3.033
 5669SOL     OW17905   6.144   3.668   6.818
 5669SOL    HW117906   6.089   3.698   6.740
 5669SOL    HW217907   6.107   3.709   6.902
 5670SOL     OW17908   1.277   2.811   2.667
 5670SOL    HW117909   1.187   2.783   2.701
 5670SOL    HW217910   1.307   2.748   2.595
 5671SOL     OW17911   6.643   6.310   3.617
 5671SOL    HW117912   6.659   6.299   3.519
 5671SOL    HW217913   6.546   6.326   3.633
 5672SOL     OW17914   5.060   4.053   5.012
 5672SOL    HW117915   4.976   4.001   5.025
 5672SOL    HW217916   5.084   4.100   5.097
 5673SOL     OW17917   0.608   6.945   1.788
 5673SOL    HW117918   0.660   6.958   1.872
 5673SOL    HW217919   0.591   0.009   1.746
 5674SOL     OW17920   1.286   5.284   5.019
 5674SOL    HW117921   1.372   5.276   5.069
 5674SOL    HW217922   1.272   5.201   4.965
 5675SOL     OW17923   2.875   1.114   0.052
 5675SOL    HW117924   2.867   1.023   0.012
 5675SOL    HW217925   2.970   1.145   0.045
 5676SOL     OW17926   2.601   2.500   1.935
 5676SOL    HW117927   2.564   2.513   2.028
 5676SOL    HW217928   2.689   2.453   1.941
 5677SOL     OW17929   6.782   0.873   1.046
 5677SOL    HW117930   6.780   0.814   1.126
 5677SOL    HW217931   6.733   0.829   0.971
 5678SOL     OW17932   3.540   1.476   1.945
 5678SOL    HW117933   3.494   1.401   1.899
 5678SOL    HW217934   3.512   1.479   2.041
 5679SOL     OW17935   6.159   3.009   4.642
 5679SOL    HW117936   6.097   3.075   4.684
 5679SOL    HW217937   6.164   3.025   4.544
 5680SOL     OW17938   1.041   5.081   5.945
 5680SOL    HW117939   0.971   5.073   6.016
 5680SOL    HW217940   1.087   5.169   5.953
 5681SOL     OW17941   0.489   4.057   3.103
 5681SOL    HW117942   0.438   4.007   3.033
 5681SOL    HW217943   0.570   4.099   3.063
 5682SOL     OW17944   2.223   4.534   2.542
 5682SOL    HW117945   2.206   4.631   2.527
 5682SOL    HW217946   2.152   4.496   2.601
 5683SOL     OW17947   4.223   2.279   7.008
 5683SOL    HW117948   4.293   2.260   0.052
 5683SOL    HW217949   4.242   2.367   6.964
 5684SOL     OW17950   2.199   2.803   5.910
 5684SOL    HW117951   2.264   2.727   5.899
 5684SOL    HW217952   2.191   2.852   5.823
 5685SOL     OW17953   2.145   2.455   4.031
 5685SOL    HW117954   2.065   2.415   4.076
 5685SOL    HW217955   2.115   2.516   3.957
 5686SOL     OW17956   3.629   0.559   5.982
 5686SOL    HW117957   3.568   0.589   5.909
 5686SOL    HW217958   3.685   0.483   5.950
 5687SOL     OW17959   1.080   6.311   5.625
 5687SOL    HW117960   1.177   6.285   5.625
 5687SOL    HW217961   1.024   6.231   5.603
 5688SOL     OW17962   2.158   3.761   3.254
 5688SOL    HW117963   2.182   3.674   3.297
 5688SOL    HW217964   2.236   3.797   3.203
 5689SOL     OW17965   1.313   0.794   0.867
 5689SOL    HW117966   1.350   0.867   0.926
 5689SOL    HW217967   1.266   0.727   0.924
 5690SOL     OW17968   0.792   5.507   6.969
 5690SOL    HW117969   0.824   5.490   6.876
 5690SOL    HW217970   0.693   5.519   6.968
 5691SOL     OW17971   3.776   1.213   2.423
 5691SOL    HW117972   3.734   1.156   2.494
 5691SOL    HW217973   3.795   1.158   2.342
 5692SOL     OW17974   4.982   5.453   1.324
 5692SOL    HW117975   4.995   5.387   1.398
 5692SOL    HW217976   4.916   5.417   1.258
 5693SOL     OW17977   3.465   0.571   0.926
 5693SOL    HW117978   3.484   0.599   0.832
 5693SOL    HW217979   3.543   0.593   0.984
 5694SOL     OW17980   0.532   0.401   2.710
 5694SOL    HW117981   0.495   0.415   2.802
 5694SOL    HW217982   0.630   0.420   2.710
 5695SOL     OW17983   1.193   0.824   1.704
 5695SOL    HW117984   1.179   0.794   1.610
 5695SOL    HW217985   1.289   0.817   1.728
 5696SOL     OW17986   1.309   6.944   4.349
 5696SOL    HW117987   1.286   6.946   4.251
 5696SOL    HW217988   1.232   6.979   4.402
 5697SOL     OW17989   6.300   2.855   1.452
 5697SOL    HW117990   6.395   2.827   1.436
 5697SOL    HW217991   6.238   2.790   1.407
 5698SOL     OW17992   1.844   3.246   3.497
 5698SOL    HW117993   1.835   3.202   3.408
 5698SOL    HW217994   1.754   3.264   3.535
 5699SOL     OW17995   2.270   2.578   3.387
 5699SOL    HW117996   2.188   2.547   3.435
 5699SOL    HW217997   2.309   2.657   3.435
 5700SOL     OW17998   6.349   0.267   1.689
 5700SOL    HW117999   6.351   0.218   1.775
 5700SOL    HW218000   6.269   0.238   1.636
 5701SOL     OW18001   6.424   1.421   1.294
 5701SOL    HW118002   6.489   1.494   1.273
 5701SOL    HW218003   6.385   1.436   1.385
 5702SOL     OW18004   2.148   6.996   4.846
 5702SOL    HW118005   2.132   0.030   4.767
 5702SOL    HW218006   2.125   0.019   4.930
 5703SOL     OW18007   6.777   3.793   6.296
 5703SOL    HW118008   6.778   3.867   6.229
 5703SOL    HW218009   6.856   3.733   6.280
 5704SOL     OW18010   5.089   4.035   3.482
 5704SOL    HW118011   5.004   4.082   3.503
 5704SOL    HW218012   5.089   4.006   3.386
 5705SOL     OW18013   5.875   6.172   6.259
 5705SOL    HW118014   5.820   6.111   6.316
 5705SOL    HW218015   5.817   6.247   6.226
 5706SOL     OW18016   5.921   2.030   0.382
 5706SOL    HW118017   5.910   1.953   0.318
 5706SOL    HW218018   5.951   2.111   0.331
 5707SOL     OW18019   5.295   6.707   1.488
 5707SOL    HW118020   5.280   6.800   1.523
 5707SOL    HW218021   5.285   6.707   1.389
 5708SOL     OW18022   4.755   5.413   3.569
 5708SOL    HW118023   4.687   5.486   3.577
 5708SOL    HW218024   4.838   5.438   3.619
 5709SOL     OW18025   0.959   1.159   1.827
 5709SOL    HW118026   0.934   1.147   1.923
 5709SOL    HW218027   0.958   1.070   1.781
 5710SOL     OW18028   2.305   3.094   0.687
 5710SOL    HW118029   2.277   3.020   0.748
 5710SOL    HW218030   2.326   3.176   0.741
 5711SOL     OW18031   5.196   0.654   1.722
 5711SOL    HW118032   5.110   0.663   1.772
 5711SOL    HW218033   5.199   0.723   1.649
 5712SOL     OW18034   6.915   6.227   1.099
 5712SOL    HW118035   6.898   6.169   1.178
 5712SOL    HW218036   6.834   6.230   1.041
 5713SOL     OW18037   2.680   6.064   0.944
 5713SOL    HW118038   2.779   6.059   0.954
 5713SOL    HW218039   2.657   6.078   0.847
 5714SOL     OW18040   5.843   5.788   1.124
 5714SOL    HW118041   5.924   5.763   1.177
 5714SOL    HW218042   5.779   5.838   1.182
 5715SOL     OW18043   1.229   6.982   0.515
 5715SOL    HW118044   1.278   6.962   0.601
 5715SOL    HW218045   1.241   6.906   0.452
 5716SOL     OW18046   0.902   4.408   6.063
 5716SOL    HW118047   0.916   4.346   6.140
 5716SOL    HW218048   0.957   4.490   6.075
 5717SOL     OW18049   2.179   4.977   3.239
 5717SOL    HW118050   2.115   4.953   3.312
 5717SOL    HW218051   2.128   4.994   3.155
 5718SOL     OW18052   0.926   3.117   0.540
 5718SOL    HW118053   0.918   3.037   0.599
 5718SOL    HW218054   1.020   3.125   0.506
 5719SOL     OW18055   3.001   3.777   1.553
 5719SOL    HW118056   2.903   3.783   1.576
 5719SOL    HW218057   3.049   3.732   1.628
 5720SOL     OW18058   2.146   5.307   6.070
 5720SOL    HW118059   2.084   5.299   6.148
 5720SOL    HW218060   2.188   5.398   6.071
 5721SOL     OW18061   5.005   4.035   6.907
 5721SOL    HW118062   5.021   3.986   6.822
 5721SOL    HW218063   4.913   4.076   6.904
 5722SOL     OW18064   0.622   0.649   5.652
 5722SOL    HW118065   0.720   0.640   5.669
 5722SOL    HW218066   0.578   0.560   5.663
 5723SOL     OW18067   4.043   3.409   0.185
 5723SOL    HW118068   4.072   3.443   0.275
 5723SOL    HW218069   4.064   3.312   0.179
 5724SOL     OW18070   5.508   2.522   3.465
 5724SOL    HW118071   5.416   2.487   3.444
 5724SOL    HW218072   5.534   2.588   3.395
 5725SOL     OW18073   5.913   4.737   3.368
 5725SOL    HW118074   5.848   4.801   3.327
 5725SOL    HW218075   5.870   4.694   3.448
 5726SOL     OW18076   4.840   4.248   3.258
 5726SOL    HW118077   4.938   4.266   3.261
 5726SOL    HW218078   4.821   4.176   3.192
 5727SOL     OW18079   1.331   2.305   4.535
 5727SOL    HW118080   1.425   2.326   4.509
 5727SOL    HW218081   1.304   2.363   4.612
 5728SOL     OW18082   5.141   6.020   5.137
 5728SOL    HW118083   5.209   5.954   5.166
 5728SOL    HW218084   5.172   6.065   5.052
 5729SOL     OW18085   2.438   1.624   5.967
 5729SOL    HW118086   2.527   1.579   5.978
 5729SOL    HW218087   2.439   1.712   6.015
 5730SOL     OW18088   6.676   4.562   6.007
 5730SOL    HW118089   6.580   4.537   6.002
 5730SOL    HW218090   6.713   4.576   5.915
 5731SOL     OW18091   0.180   6.430   1.618
 5731SOL    HW118092   0.136   6.492   1.553
 5731SOL    HW218093   0.111   6.392   1.680
 5732SOL     OW18094   1.029   6.667   4.356
 5732SOL    HW118095   1.112   6.691   4.306
 5732SOL    HW218096   0.982   6.593   4.308
 5733SOL     OW18097   3.540   6.927   5.214
 5733SOL    HW118098   3.569   6.851   5.157
 5733SOL    HW218099   3.604   7.003   5.204
 5734SOL     OW18100   1.680   6.188   3.471
 5734SOL    HW118101   1.718   6.128   3.400
 5734SOL    HW218102   1.583   6.167   3.483
 5735SOL     OW18103   3.012   1.322   1.734
 5735SOL    HW118104   2.944   1.335   1.806
 5735SOL    HW218105   3.072   1.401   1.730
 5736SOL     OW18106   0.854   5.539   6.593
 5736SOL    HW118107   0.850   5.562   6.495
 5736SOL    HW218108   0.784   5.591   6.641
 5737SOL     OW18109   4.997   4.878   6.822
 5737SOL    HW118110   4.990   4.870   6.722
 5737SOL    HW218111   5.085   4.841   6.851
 5738SOL     OW18112   1.551   3.329   6.561
 5738SOL    HW118113   1.561   3.322   6.461
 5738SOL    HW218114   1.480   3.395   6.583
 5739SOL     OW18115   0.934   1.113   0.950
 5739SOL    HW118116   0.926   1.046   1.023
 5739SOL    HW218117   1.013   1.173   0.967
 5740SOL     OW18118   3.886   5.706   6.436
 5740SOL    HW118119   3.789   5.692   6.456
 5740SOL    HW218120   3.896   5.782   6.372
 5741SOL     OW18121   6.945   5.558   5.014
 5741SOL    HW118122   6.907   5.650   5.001
 5741SOL    HW218123   0.006   5.551   4.965
 5742SOL     OW18124   6.470   6.442   2.961
 5742SOL    HW118125   6.471   6.440   3.061
 5742SOL    HW218126   6.447   6.534   2.929
 5743SOL     OW18127   1.839   6.373   5.150
 5743SOL    HW118128   1.870   6.339   5.239
 5743SOL    HW218129   1.768   6.442   5.164
 5744SOL     OW18130   5.669   0.590   0.682
 5744SOL    HW118131   5.580   0.605   0.639
 5744SOL    HW218132   5.705   0.678   0.713
 5745SOL     OW18133   2.266   1.871   4.249
 5745SOL    HW118134   2.176   1.839   4.217
 5745SOL    HW218135   2.309   1.925   4.178
 5746SOL     OW18136   4.765   2.105   0.121
 5746SOL    HW118137   4.743   2.203   0.128
 5746SOL    HW218138   4.734   2.071   0.032
 5747SOL     OW18139   0.800   5.750   3.382
 5747SOL    HW118140   0.750   5.689   3.444
 5747SOL    HW218141   0.893   5.763   3.416
 5748SOL     OW18142   2.888   6.066   2.678
 5748SOL    HW118143   2.798   6.103   2.704
 5748SOL    HW218144   2.909   5.987   2.735
 5749SOL     OW18145   2.325   2.311   3.298
 5749SOL    HW118146   2.331   2.388   3.362
 5749SOL    HW218147   2.249   2.327   3.235
 5750SOL     OW18148   6.438   5.525   3.092
 5750SOL    HW118149   6.514   5.471   3.055
 5750SOL    HW218150   6.445   5.529   3.191
 5751SOL     OW18151   2.503   3.572   5.422
 5751SOL    HW118152   2.551   3.567   5.510
 5751SOL    HW218153   2.471   3.481   5.396
 5752SOL     OW18154   6.848   6.928   6.556
 5752SOL    HW118155   6.859   6.837   6.596
 5752SOL    HW218156   6.757   6.963   6.575
 5753SOL     OW18157   3.631   2.550   0.409
 5753SOL    HW118158   3.631   2.450   0.420
 5753SOL    HW218159   3.646   2.593   0.498
 5754SOL     OW18160   6.259   4.769   1.658
 5754SOL    HW118161   6.335   4.812   1.609
 5754SOL    HW218162   6.291   4.685   1.702
 5755SOL     OW18163   3.115   4.266   0.209
 5755SOL    HW118164   3.059   4.323   0.270
 5755SOL    HW218165   3.088   4.283   0.115
 5756SOL     OW18166   6.783   5.620   4.354
 5756SOL    HW118167   6.793   5.546   4.421
 5756SOL    HW218168   6.721   5.590   4.281
 5757SOL     OW18169   0.068   5.217   0.739
 5757SOL    HW118170   0.055   5.266   0.653
 5757SOL    HW218171   7.020   5.241   0.803
 5758SOL     OW18172   1.477   2.428   5.628
 5758SOL    HW118173   1.427   2.367   5.566
 5758SOL    HW218174   1.567   2.390   5.647
 5759SOL     OW18175   5.428   1.673   5.974
 5759SOL    HW118176   5.489   1.655   6.051
 5759SOL    HW218177   5.465   1.628   5.892
 5760SOL     OW18178   1.947   5.817   2.390
 5760SOL    HW118179   1.934   5.849   2.484
 5760SOL    HW218180   2.035   5.770   2.383
 5761SOL     OW18181   4.796   6.842   4.467
 5761SOL    HW118182   4.837   6.762   4.424
 5761SOL    HW218183   4.820   6.924   4.415
 5762SOL     OW18184   5.778   6.045   1.262
 5762SOL    HW118185   5.861   6.098   1.243
 5762SOL    HW218186   5.744   6.069   1.353
 5763SOL     OW18187   1.441   0.762   1.447
 5763SOL    HW118188   1.515   0.829   1.447
 5763SOL    HW218189   1.478   0.671   1.466
 5764SOL     OW18190   4.963   3.484   5.581
 5764SOL    HW118191   4.970   3.387   5.602
 5764SOL    HW218192   4.927   3.533   5.660
 5765SOL     OW18193   5.851   4.355   0.060
 5765SOL    HW118194   5.831   4.448   0.030
 5765SOL    HW218195   5.766   4.303   0.068
 5766SOL     OW18196   2.945   2.228   2.623
 5766SOL    HW118197   2.907   2.145   2.582
 5766SOL    HW218198   2.909   2.308   2.575
 5767SOL     OW18199   0.072   6.660   1.471
 5767SOL    HW118200   0.010   6.626   1.399
 5767SOL    HW218201   0.088   6.758   1.457
 5768SOL     OW18202   6.676   2.052   2.441
 5768SOL    HW118203   6.732   2.079   2.520
 5768SOL    HW218204   6.734   2.017   2.368
 5769SOL     OW18205   2.297   5.757   4.572
 5769SOL    HW118206   2.247   5.683   4.528
 5769SOL    HW218207   2.233   5.813   4.626
 5770SOL     OW18208   6.098   0.691   1.066
 5770SOL    HW118209   6.118   0.616   1.129
 5770SOL    HW218210   6.089   0.776   1.117
 5771SOL     OW18211   1.416   1.406   1.135
 5771SOL    HW118212   1.490   1.373   1.077
 5771SOL    HW218213   1.375   1.329   1.185
 5772SOL     OW18214   5.521   3.852   0.206
 5772SOL    HW118215   5.571   3.791   0.266
 5772SOL    HW218216   5.558   3.945   0.214
 5773SOL     OW18217   5.414   5.862   4.580
 5773SOL    HW118218   5.375   5.890   4.667
 5773SOL    HW218219   5.371   5.778   4.550
 5774SOL     OW18220   1.927   5.492   4.221
 5774SOL    HW118221   1.929   5.537   4.132
 5774SOL    HW218222   1.844   5.438   4.230
 5775SOL     OW18223   0.397   6.535   6.052
 5775SOL    HW118224   0.462   6.483   5.996
 5775SOL    HW218225   0.432   6.628   6.065
 5776SOL     OW18226   4.938   0.466   5.610
 5776SOL    HW118227   4.946   0.528   5.689
 5776SOL    HW218228   4.998   0.387   5.624
 5777SOL     OW18229   0.288   1.118   4.547
 5777SOL    HW118230   0.334   1.206   4.564
 5777SOL    HW218231   0.350   1.043   4.570
 5778SOL     OW18232   1.512   6.880   3.809
 5778SOL    HW118233   1.542   6.908   3.900
 5778SOL    HW218234   1.412   6.871   3.809
 5779SOL     OW18235   4.357   1.084   1.871
 5779SOL    HW118236   4.396   1.175   1.855
 5779SOL    HW218237   4.305   1.085   1.956
 5780SOL     OW18238   5.709   3.855   1.679
 5780SOL    HW118239   5.742   3.808   1.761
 5780SOL    HW218240   5.652   3.933   1.705
 5781SOL     OW18241   1.620   5.357   4.773
 5781SOL    HW118242   1.630   5.454   4.795
 5781SOL    HW218243   1.673   5.302   4.839
 5782SOL     OW18244   2.813   1.850   2.457
 5782SOL    HW118245   2.813   1.946   2.486
 5782SOL    HW218246   2.751   1.839   2.380
 5783SOL     OW18247   1.422   6.961   1.177
 5783SOL    HW118248   1.387   6.872   1.148
 5783SOL    HW218249   1.442   6.959   1.275
 5784SOL     OW18250   1.873   5.995   0.423
 5784SOL    HW118251   1.919   5.941   0.494
 5784SOL    HW218252   1.881   5.949   0.335
 5785SOL     OW18253   1.856   1.807   0.375
 5785SOL    HW118254   1.913   1.873   0.326
 5785SOL    HW218255   1.761   1.819   0.347
 5786SOL     OW18256   1.306   3.414   1.848
 5786SOL    HW118257   1.227   3.386   1.902
 5786SOL    HW218258   1.292   3.506   1.812
 5787SOL     OW18259   6.698   3.233   5.014
 5787SOL    HW118260   6.730   3.138   5.012
 5787SOL    HW218261   6.776   3.295   5.001
 5788SOL     OW18262   2.623   1.560   2.173
 5788SOL    HW118263   2.671   1.484   2.217
 5788SOL    HW218264   2.667   1.581   2.086
 5789SOL     OW18265   3.670   4.354   6.342
 5789SOL    HW118266   3.702   4.259   6.340
 5789SOL    HW218267   3.600   4.367   6.272
 5790SOL     OW18268   5.448   5.755   4.090
 5790SOL    HW118269   5.477   5.845   4.122
 5790SOL    HW218270   5.366   5.764   4.034
 5791SOL     OW18271   4.117   1.470   2.218
 5791SOL    HW118272   4.081   1.442   2.129
 5791SOL    HW218273   4.110   1.393   2.282
 5792SOL     OW18274   4.885   3.076   3.094
 5792SOL    HW118275   4.858   3.096   3.000
 5792SOL    HW218276   4.941   3.151   3.130
 5793SOL     OW18277   4.585   1.993   5.886
 5793SOL    HW118278   4.487   1.971   5.882
 5793SOL    HW218279   4.616   2.024   5.796
 5794SOL     OW18280   4.326   0.372   0.226
 5794SOL    HW118281   4.352   0.279   0.251
 5794SOL    HW218282   4.406   0.420   0.190
 5795SOL     OW18283   2.290   5.935   1.692
 5795SOL    HW118284   2.210   5.889   1.655
 5795SOL    HW218285   2.362   5.939   1.623
 5796SOL     OW18286   4.877   2.355   6.494
 5796SOL    HW118287   4.975   2.354   6.476
 5796SOL    HW218288   4.831   2.411   6.424
 5797SOL     OW18289   5.298   2.375   1.226
 5797SOL    HW118290   5.351   2.445   1.274
 5797SOL    HW218291   5.206   2.410   1.207
 5798SOL     OW18292   1.669   4.022   5.721
 5798SOL    HW118293   1.624   3.934   5.731
 5798SOL    HW218294   1.616   4.092   5.769
 5799SOL     OW18295   2.492   6.694   3.445
 5799SOL    HW118296   2.421   6.751   3.487
 5799SOL    HW218297   2.454   6.648   3.364
 5800SOL     OW18298   0.793   0.035   1.387
 5800SOL    HW118299   0.819   0.108   1.450
 5800SOL    HW218300   0.746   0.075   1.308
 5801SOL     OW18301   2.278   2.009   2.851
 5801SOL    HW118302   2.285   2.073   2.775
 5801SOL    HW218303   2.369   1.976   2.876
 5802SOL     OW18304   0.350   1.515   1.620
 5802SOL    HW118305   0.353   1.460   1.704
 5802SOL    HW218306   0.255   1.537   1.598
 5803SOL     OW18307   0.317   5.036   3.651
 5803SOL    HW118308   0.284   4.962   3.709
 5803SOL    HW218309   0.408   5.014   3.617
 5804SOL     OW18310   5.797   1.653   3.483
 5804SOL    HW118311   5.754   1.732   3.439
 5804SOL    HW218312   5.766   1.646   3.578
 5805SOL     OW18313   1.812   2.614   1.766
 5805SOL    HW118314   1.908   2.613   1.736
 5805SOL    HW218315   1.770   2.701   1.740
 5806SOL     OW18316   0.234   4.205   2.121
 5806SOL    HW118317   0.227   4.298   2.087
 5806SOL    HW218318   0.210   4.203   2.218
 5807SOL     OW18319   0.951   0.300   1.032
 5807SOL    HW118320   0.855   0.329   1.031
 5807SOL    HW218321   0.959   0.210   0.990
 5808SOL     OW18322   6.850   6.775   5.856
 5808SOL    HW118323   6.897   6.707   5.799
 5808SOL    HW218324   6.918   6.834   5.899
 5809SOL     OW18325   0.823   2.400   5.781
 5809SOL    HW118326   0.786   2.311   5.757
 5809SOL    HW218327   0.869   2.439   5.702
 5810SOL     OW18328   3.614   7.012   5.691
 5810SOL    HW118329   3.566   0.069   5.721
 5810SOL    HW218330   3.709   7.017   5.721
 5811SOL     OW18331   3.205   3.860   5.847
 5811SOL    HW118332   3.188   3.861   5.748
 5811SOL    HW218333   3.137   3.918   5.893
 5812SOL     OW18334   5.436   2.214   0.381
 5812SOL    HW118335   5.371   2.240   0.310
 5812SOL    HW218336   5.386   2.190   0.465
 5813SOL     OW18337   5.009   6.449   0.158
 5813SOL    HW118338   4.947   6.502   0.101
 5813SOL    HW218339   4.958   6.409   0.234
 5814SOL     OW18340   5.215   1.460   0.936
 5814SOL    HW118341   5.232   1.366   0.904
 5814SOL    HW218342   5.285   1.486   1.002
 5815SOL     OW18343   6.506   1.647   4.200
 5815SOL    HW118344   6.543   1.683   4.286
 5815SOL    HW218345   6.517   1.548   4.196
 5816SOL     OW18346   0.428   3.436   2.423
 5816SOL    HW118347   0.411   3.352   2.473
 5816SOL    HW218348   0.497   3.420   2.352
 5817SOL     OW18349   6.555   3.411   3.218
 5817SOL    HW118350   6.513   3.332   3.263
 5817SOL    HW218351   6.499   3.440   3.141
 5818SOL     OW18352   2.097   0.295   5.367
 5818SOL    HW118353   2.108   0.196   5.361
 5818SOL    HW218354   2.080   0.322   5.462
 5819SOL     OW18355   4.427   5.215   0.149
 5819SOL    HW118356   4.500   5.150   0.168
 5819SOL    HW218357   4.339   5.173   0.168
 5820SOL     OW18358   5.505   5.702   2.342
 5820SOL    HW118359   5.566   5.733   2.269
 5820SOL    HW218360   5.416   5.676   2.303
 5821SOL     OW18361   6.821   0.082   0.822
 5821SOL    HW118362   6.753   0.042   0.761
 5821SOL    HW218363   6.795   0.067   0.917
 5822SOL     OW18364   1.823   3.283   2.853
 5822SOL    HW118365   1.915   3.321   2.839
 5822SOL    HW218366   1.780   3.328   2.932
 5823SOL     OW18367   2.177   5.651   3.859
 5823SOL    HW118368   2.086   5.620   3.887
 5823SOL    HW218369   2.203   5.731   3.913
 5824SOL     OW18370   0.794   0.057   2.251
 5824SOL    HW118371   0.702   0.092   2.238
 5824SOL    HW218372   0.819   0.064   2.348
 5825SOL     OW18373   6.099   0.840   4.255
 5825SOL    HW118374   6.096   0.871   4.349
 5825SOL    HW218375   6.051   0.752   4.247
 5826SOL     OW18376   0.054   0.097   5.021
 5826SOL    HW118377   0.129   0.157   5.051
 5826SOL    HW218378   6.993   0.133   5.055
 5827SOL     OW18379   2.431   4.438   4.667
 5827SOL    HW118380   2.412   4.448   4.570
 5827SOL    HW218381   2.369   4.370   4.707
 5828SOL     OW18382   4.050   6.652   4.754
 5828SOL    HW118383   4.009   6.561   4.767
 5828SOL    HW218384   4.117   6.647   4.679
 5829SOL     OW18385   2.356   1.084   4.247
 5829SOL    HW118386   2.315   1.034   4.171
 5829SOL    HW218387   2.375   1.021   4.323
 5830SOL     OW18388   3.413   5.615   4.403
 5830SOL    HW118389   3.367   5.704   4.406
 5830SOL    HW218390   3.424   5.580   4.496
 5831SOL     OW18391   1.667   2.185   5.294
 5831SOL    HW118392   1.669   2.104   5.353
 5831SOL    HW218393   1.745   2.182   5.231
 5832SOL     OW18394   2.892   5.107   1.593
 5832SOL    HW118395   2.881   5.199   1.553
 5832SOL    HW218396   2.818   5.048   1.560
 5833SOL     OW18397   3.506   4.416   6.556
 5833SOL    HW118398   3.503   4.348   6.630
 5833SOL    HW218399   3.553   4.378   6.477
 5834SOL     OW18400   5.630   2.682   6.165
 5834SOL    HW118401   5.553   2.723   6.213
 5834SOL    HW218402   5.627   2.709   6.069
 5835SOL     OW18403   5.448   1.772   2.484
 5835SOL    HW118404   5.502   1.771   2.568
 5835SOL    HW218405   5.430   1.866   2.457
 5836SOL     OW18406   4.915   6.492   3.571
 5836SOL    HW118407   4.908   6.573   3.514
 5836SOL    HW218408   4.829   6.441   3.568
 5837SOL     OW18409   3.244   5.076   6.994
 5837SOL    HW118410   3.258   5.138   0.045
 5837SOL    HW218411   3.316   5.090   6.926
 5838SOL     OW18412   2.824   2.434   1.179
 5838SOL    HW118413   2.768   2.457   1.100
 5838SOL    HW218414   2.823   2.335   1.194
 5839SOL     OW18415   2.105   2.086   0.903
 5839SOL    HW118416   2.159   2.011   0.941
 5839SOL    HW218417   2.155   2.172   0.916
 5840SOL     OW18418   0.894   3.194   3.030
 5840SOL    HW118419   0.934   3.109   2.997
 5840SOL    HW218420   0.825   3.174   3.099
 5841SOL     OW18421   5.068   1.997   0.838
 5841SOL    HW118422   5.076   2.092   0.809
 5841SOL    HW218423   4.972   1.976   0.857
 5842SOL     OW18424   2.324   1.903   1.003
 5842SOL    HW118425   2.327   1.805   1.023
 5842SOL    HW218426   2.413   1.933   0.968
 5843SOL     OW18427   2.013   3.856   1.150
 5843SOL    HW118428   2.089   3.903   1.105
 5843SOL    HW218429   1.990   3.904   1.235
 5844SOL     OW18430   0.603   6.910   5.198
 5844SOL    HW118431   0.557   6.913   5.287
 5844SOL    HW218432   0.557   6.843   5.140
 5845SOL     OW18433   1.208   0.019   1.827
 5845SOL    HW118434   1.215   0.072   1.912
 5845SOL    HW218435   1.284   0.045   1.766
 5846SOL     OW18436   6.375   4.023   6.086
 5846SOL    HW118437   6.388   3.978   6.175
 5846SOL    HW218438   6.402   4.119   6.093
 5847SOL     OW18439   2.691   4.048   0.568
 5847SOL    HW118440   2.604   4.088   0.538
 5847SOL    HW218441   2.766   4.108   0.540
 5848SOL     OW18442   1.943   4.993   2.297
 5848SOL    HW118443   2.024   5.052   2.297
 5848SOL    HW218444   1.910   4.982   2.204
 5849SOL     OW18445   3.818   6.097   5.549
 5849SOL    HW118446   3.756   6.098   5.471
 5849SOL    HW218447   3.898   6.042   5.527
 5850SOL     OW18448   1.223   1.605   2.620
 5850SOL    HW118449   1.146   1.657   2.658
 5850SOL    HW218450   1.303   1.664   2.613
 5851SOL     OW18451   6.398   3.960   4.570
 5851SOL    HW118452   6.318   3.934   4.516
 5851SOL    HW218453   6.474   3.984   4.509
 5852SOL     OW18454   4.913   4.136   2.283
 5852SOL    HW118455   4.895   4.144   2.381
 5852SOL    HW218456   4.984   4.067   2.267
 5853SOL     OW18457   3.390   4.943   5.544
 5853SOL    HW118458   3.292   4.943   5.525
 5853SOL    HW218459   3.417   5.033   5.581
 5854SOL     OW18460   3.109   4.633   5.366
 5854SOL    HW118461   3.042   4.581   5.314
 5854SOL    HW218462   3.176   4.570   5.406
 5855SOL     OW18463   2.130   3.506   3.120
 5855SOL    HW118464   2.138   3.494   3.219
 5855SOL    HW218465   2.115   3.602   3.099
 5856SOL     OW18466   1.601   6.970   3.342
 5856SOL    HW118467   1.655   6.982   3.259
 5856SOL    HW218468   1.515   7.021   3.334
 5857SOL     OW18469   6.317   4.321   6.683
 5857SOL    HW118470   6.276   4.412   6.695
 5857SOL    HW218471   6.245   4.252   6.687
 5858SOL     OW18472   2.143   0.449   3.374
 5858SOL    HW118473   2.190   0.413   3.293
 5858SOL    HW218474   2.089   0.376   3.416
 5859SOL     OW18475   6.057   0.234   1.559
 5859SOL    HW118476   6.078   0.325   1.526
 5859SOL    HW218477   5.993   0.240   1.636
 5860SOL     OW18478   0.613   4.404   3.413
 5860SOL    HW118479   0.680   4.471   3.383
 5860SOL    HW218480   0.660   4.328   3.458
 5861SOL     OW18481   5.096   1.098   5.769
 5861SOL    HW118482   5.034   1.084   5.846
 5861SOL    HW218483   5.148   1.182   5.784
 5862SOL     OW18484   0.074   5.691   1.976
 5862SOL    HW118485   0.152   5.753   1.977
 5862SOL    HW218486   0.104   5.599   2.001
 5863SOL     OW18487   4.328   0.344   5.652
 5863SOL    HW118488   4.295   0.329   5.746
 5863SOL    HW218489   4.261   0.398   5.602
 5864SOL     OW18490   3.368   3.795   2.513
 5864SOL    HW118491   3.368   3.831   2.420
 5864SOL    HW218492   3.421   3.856   2.572
 5865SOL     OW18493   6.363   0.634   5.970
 5865SOL    HW118494   6.383   0.615   5.874
 5865SOL    HW218495   6.405   0.720   5.997
 5866SOL     OW18496   3.689   2.876   3.134
 5866SOL    HW118497   3.614   2.935   3.105
 5866SOL    HW218498   3.754   2.865   3.059
 5867SOL     OW18499   3.803   1.613   2.016
 5867SOL    HW118500   3.826   1.679   1.944
 5867SOL    HW218501   3.714   1.572   1.996
 5868SOL     OW18502   0.999   1.293   5.645
 5868SOL    HW118503   1.073   1.361   5.643
 5868SOL    HW218504   0.989   1.252   5.555
 5869SOL     OW18505   0.442   5.876   3.828
 5869SOL    HW118506   0.534   5.868   3.789
 5869SOL    HW218507   0.433   5.813   3.906
 5870SOL     OW18508   4.213   4.963   4.300
 5870SOL    HW118509   4.253   4.918   4.220
 5870SOL    HW218510   4.140   5.025   4.270
 5871SOL     OW18511   3.043   3.787   3.897
 5871SOL    HW118512   3.081   3.862   3.842
 5871SOL    HW218513   3.063   3.803   3.994
 5872SOL     OW18514   4.347   5.880   1.932
 5872SOL    HW118515   4.414   5.868   2.006
 5872SOL    HW218516   4.396   5.888   1.845
 5873SOL     OW18517   3.849   5.468   2.383
 5873SOL    HW118518   3.916   5.414   2.435
 5873SOL    HW218519   3.817   5.544   2.440
 5874SOL     OW18520   2.419   4.682   5.953
 5874SOL    HW118521   2.508   4.692   5.996
 5874SOL    HW218522   2.409   4.589   5.919
 5875SOL     OW18523   2.576   1.251   0.910
 5875SOL    HW118524   2.603   1.161   0.877
 5875SOL    HW218525   2.612   1.266   1.002
 5876SOL     OW18526   3.515   3.090   1.784
 5876SOL    HW118527   3.445   3.154   1.816
 5876SOL    HW218528   3.512   3.007   1.840
 5877SOL     OW18529   5.762   4.298   0.433
 5877SOL    HW118530   5.822   4.371   0.401
 5877SOL    HW218531   5.739   4.238   0.356
 5878SOL     OW18532   2.472   4.432   2.534
 5878SOL    HW118533   2.548   4.484   2.495
 5878SOL    HW218534   2.387   4.484   2.523
 5879SOL     OW18535   0.057   4.163   5.426
 5879SOL    HW118536   0.013   4.253   5.430
 5879SOL    HW218537   7.014   4.094   5.402
 5880SOL     OW18538   1.998   5.920   1.012
 5880SOL    HW118539   1.955   5.910   1.101
 5880SOL    HW218540   2.040   5.834   0.985
 5881SOL     OW18541   0.534   5.669   4.557
 5881SOL    HW118542   0.542   5.695   4.653
 5881SOL    HW218543   0.585   5.584   4.542
 5882SOL     OW18544   4.798   0.995   1.400
 5882SOL    HW118545   4.771   0.899   1.392
 5882SOL    HW218546   4.895   1.004   1.376
 5883SOL     OW18547   0.445   3.920   5.738
 5883SOL    HW118548   0.440   3.862   5.819
 5883SOL    HW218549   0.353   3.955   5.717
 5884SOL     OW18550   1.526   1.307   2.961
 5884SOL    HW118551   1.454   1.361   2.917
 5884SOL    HW218552   1.487   1.222   2.995
 5885SOL     OW18553   6.225   6.766   1.359
 5885SOL    HW118554   6.270   6.811   1.283
 5885SOL    HW218555   6.181   6.682   1.327
 5886SOL     OW18556   1.182   1.451   5.799
 5886SOL    HW118557   1.256   1.448   5.866
 5886SOL    HW218558   1.116   1.520   5.826
 5887SOL     OW18559   3.669   0.016   4.568
 5887SOL    HW118560   3.731   6.964   4.577
 5887SOL    HW218561   3.695   0.087   4.634
 5888SOL     OW18562   2.482   0.438   3.929
 5888SOL    HW118563   2.426   0.400   3.856
 5888SOL    HW218564   2.568   0.387   3.936
 5889SOL     OW18565   2.898   0.739   0.969
 5889SOL    HW118566   2.973   0.738   1.035
 5889SOL    HW218567   2.883   0.647   0.934
 5890SOL     OW18568   2.688   4.728   5.991
 5890SOL    HW118569   2.760   4.795   5.974
 5890SOL    HW218570   2.718   4.638   5.958
 5891SOL     OW18571   3.293   3.938   0.030
 5891SOL    HW118572   3.217   3.981   7.006
 5891SOL    HW218573   3.299   3.976   0.122
 5892SOL     OW18574   0.793   6.818   1.584
 5892SOL    HW118575   0.738   6.858   1.657
 5892SOL    HW218576   0.809   6.888   1.513
 5893SOL     OW18577   1.244   0.790   3.640
 5893SOL    HW118578   1.320   0.732   3.610
 5893SOL    HW218579   1.228   0.861   3.571
 5894SOL     OW18580   1.288   3.523   3.523
 5894SOL    HW118581   1.375   3.552   3.485
 5894SOL    HW218582   1.220   3.595   3.509
 5895SOL     OW18583   5.438   3.835   4.096
 5895SOL    HW118584   5.458   3.740   4.119
 5895SOL    HW218585   5.410   3.884   4.178
 5896SOL     OW18586   3.611   2.411   6.332
 5896SOL    HW118587   3.642   2.328   6.286
 5896SOL    HW218588   3.654   2.490   6.288
 5897SOL     OW18589   3.826   0.068   0.817
 5897SOL    HW118590   3.829   0.145   0.882
 5897SOL    HW218591   3.732   0.055   0.786
 5898SOL     OW18592   1.976   0.194   2.457
 5898SOL    HW118593   2.058   0.235   2.418
 5898SOL    HW218594   1.895   0.231   2.411
 5899SOL     OW18595   5.689   0.057   4.415
 5899SOL    HW118596   5.730   0.028   4.328
 5899SOL    HW218597   5.762   0.085   4.478
 5900SOL     OW18598   4.761   5.276   2.709
 5900SOL    HW118599   4.686   5.212   2.726
 5900SOL    HW218600   4.724   5.363   2.676
 5901SOL     OW18601   2.769   6.497   5.523
 5901SOL    HW118602   2.733   6.523   5.613
 5901SOL    HW218603   2.705   6.434   5.479
 5902SOL     OW18604   6.363   2.189   6.515
 5902SOL    HW118605   6.288   2.226   6.569
 5902SOL    HW218606   6.329   2.120   6.452
 5903SOL     OW18607   6.038   2.923   6.687
 5903SOL    HW118608   6.039   2.823   6.675
 5903SOL    HW218609   6.130   2.955   6.709
 5904SOL     OW18610   6.979   3.587   2.621
 5904SOL    HW118611   6.998   3.636   2.535
 5904SOL    HW218612   0.034   3.532   2.646
 5905SOL     OW18613   6.842   5.663   2.260
 5905SOL    HW118614   6.871   5.636   2.168
 5905SOL    HW218615   6.855   5.586   2.322
 5906SOL     OW18616   5.812   1.163   3.598
 5906SOL    HW118617   5.743   1.153   3.670
 5906SOL    HW218618   5.894   1.206   3.637
 5907SOL     OW18619   1.316   5.713   2.065
 5907SOL    HW118620   1.359   5.648   2.128
 5907SOL    HW218621   1.384   5.747   2.000
 5908SOL     OW18622   6.734   3.193   5.342
 5908SOL    HW118623   6.756   3.183   5.245
 5908SOL    HW218624   6.668   3.122   5.369
 5909SOL     OW18625   6.824   5.319   0.914
 5909SOL    HW118626   6.736   5.295   0.874
 5909SOL    HW218627   6.827   5.418   0.930
 5910SOL     OW18628   2.590   2.484   3.374
 5910SOL    HW118629   2.559   2.390   3.365
 5910SOL    HW218630   2.560   2.522   3.461
 5911SOL     OW18631   6.456   6.155   6.039
 5911SOL    HW118632   6.452   6.096   5.958
 5911SOL    HW218633   6.441   6.101   6.121
 5912SOL     OW18634   0.244   1.098   3.461
 5912SOL    HW118635   0.163   1.154   3.479
 5912SOL    HW218636   0.223   1.029   3.393
 5913SOL     OW18637   5.475   2.334   6.894
 5913SOL    HW118638   5.408   2.271   6.853
 5913SOL    HW218639   5.549   2.351   6.829
 5914SOL     OW18640   0.847   6.654   0.126
 5914SOL    HW118641   0.827   6.732   0.067
 5914SOL    HW218642   0.911   6.593   0.079
 5915SOL     OW18643   4.061   1.806   6.582
 5915SOL    HW118644   4.064   1.764   6.491
 5915SOL    HW218645   4.069   1.905   6.573
 5916SOL     OW18646   0.911   6.017   2.496
 5916SOL    HW118647   0.860   6.085   2.549
 5916SOL    HW218648   0.855   5.936   2.481
 5917SOL     OW18649   3.340   4.446   0.189
 5917SOL    HW118650   3.251   4.410   0.215
 5917SOL    HW218651   3.370   4.513   0.257
 5918SOL     OW18652   3.431   6.120   5.767
 5918SOL    HW118653   3.436   6.182   5.845
 5918SOL    HW218654   3.521   6.077   5.753
 5919SOL     OW18655   3.922   3.069   3.237
 5919SOL    HW118656   3.919   3.139   3.308
 5919SOL    HW218657   3.833   3.023   3.232
 5920SOL     OW18658   6.929   0.050   5.670
 5920SOL    HW118659   6.971   0.052   5.761
 5920SOL    HW218660   6.835   0.082   5.676
 5921SOL     OW18661   3.228   4.973   6.471
 5921SOL    HW118662   3.226   5.042   6.400
 5921SOL    HW218663   3.306   4.912   6.457
 5922SOL     OW18664   5.365   3.784   3.423
 5922SOL    HW118665   5.298   3.856   3.405
 5922SOL    HW218666   5.320   3.695   3.419
 5923SOL     OW18667   6.615   0.284   1.471
 5923SOL    HW118668   6.609   0.384   1.461
 5923SOL    HW218669   6.617   0.260   1.568
 5924SOL     OW18670   5.989   0.296   3.306
 5924SOL    HW118671   6.021   0.259   3.393
 5924SOL    HW218672   5.974   0.222   3.241
 5925SOL     OW18673   4.633   5.986   1.461
 5925SOL    HW118674   4.641   5.983   1.561
 5925SOL    HW218675   4.711   6.034   1.423
 5926SOL     OW18676   4.306   5.297   3.348
 5926SOL    HW118677   4.331   5.280   3.252
 5926SOL    HW218678   4.332   5.218   3.403
 5927SOL     OW18679   1.068   4.591   1.894
 5927SOL    HW118680   1.061   4.669   1.957
 5927SOL    HW218681   0.977   4.554   1.877
 5928SOL     OW18682   3.483   0.216   0.829
 5928SOL    HW118683   3.466   0.298   0.774
 5928SOL    HW218684   3.400   0.160   0.833
 5929SOL     OW18685   0.968   1.077   6.413
 5929SOL    HW118686   0.888   1.098   6.470
 5929SOL    HW218687   0.947   1.097   6.318
 5930SOL     OW18688   1.364   3.418   2.340
 5930SOL    HW118689   1.332   3.328   2.370
 5930SOL    HW218690   1.408   3.409   2.251
 5931SOL     OW18691   5.084   6.182   3.227
 5931SOL    HW118692   5.110   6.157   3.134
 5931SOL    HW218693   5.127   6.269   3.251
 5932SOL     OW18694   2.300   1.416   0.008
 5932SOL    HW118695   2.398   1.425   7.020
 5932SOL    HW218696   2.280   1.326   0.047
 5933SOL     OW18697   6.275   6.048   3.375
 5933SOL    HW118698   6.311   5.980   3.439
 5933SOL    HW218699   6.232   6.002   3.298
 5934SOL     OW18700   2.847   3.813   5.796
 5934SOL    HW118701   2.908   3.735   5.785
 5934SOL    HW218702   2.892   3.885   5.848
 5935SOL     OW18703   6.763   6.233   5.447
 5935SOL    HW118704   6.830   6.190   5.387
 5935SOL    HW218705   6.680   6.254   5.395
 5936SOL     OW18706   2.886   3.172   1.904
 5936SOL    HW118707   2.977   3.206   1.880
 5936SOL    HW218708   2.870   3.183   2.002
 5937SOL     OW18709   6.864   3.228   1.714
 5937SOL    HW118710   6.826   3.230   1.622
 5937SOL    HW218711   6.836   3.310   1.764
 5938SOL     OW18712   6.981   5.127   5.359
 5938SOL    HW118713   0.010   5.074   5.294
 5938SOL    HW218714   6.893   5.151   5.318
 5939SOL     OW18715   3.701   0.152   4.787
 5939SOL    HW118716   3.608   0.187   4.771
 5939SOL    HW218717   3.748   0.209   4.854
 5940SOL     OW18718   4.664   6.257   2.508
 5940SOL    HW118719   4.657   6.338   2.449
 5940SOL    HW218720   4.719   6.188   2.462
 5941SOL     OW18721   6.867   1.823   1.688
 5941SOL    HW118722   6.924   1.744   1.708
 5941SOL    HW218723   6.810   1.804   1.608
 5942SOL     OW18724   5.858   3.643   5.884
 5942SOL    HW118725   5.946   3.619   5.842
 5942SOL    HW218726   5.789   3.652   5.812
 5943SOL     OW18727   3.249   3.935   1.187
 5943SOL    HW118728   3.211   3.935   1.280
 5943SOL    HW218729   3.174   3.926   1.122
 5944SOL     OW18730   0.902   3.322   6.349
 5944SOL    HW118731   0.862   3.386   6.415
 5944SOL    HW218732   1.001   3.315   6.366
 5945SOL     OW18733   0.118   5.548   5.512
 5945SOL    HW118734   0.089   5.608   5.439
 5945SOL    HW218735   0.142   5.458   5.475
 5946SOL     OW18736   3.472   3.978   1.009
 5946SOL    HW118737   3.426   4.023   0.932
 5946SOL    HW218738   3.403   3.945   1.073
 5947SOL     OW18739   3.183   2.985   4.703
 5947SOL    HW118740   3.250   2.961   4.633
 5947SOL    HW218741   3.107   2.920   4.700
 5948SOL     OW18742   5.101   3.788   1.811
 5948SOL    HW118743   5.102   3.716   1.880
 5948SOL    HW218744   5.184   3.842   1.817
 5949SOL     OW18745   0.224   4.429   2.516
 5949SOL    HW118746   0.305   4.478   2.484
 5949SOL    HW218747   0.235   4.406   2.613
 5950SOL     OW18748   5.070   1.578   5.568
 5950SOL    HW118749   5.045   1.623   5.482
 5950SOL    HW218750   4.988   1.563   5.623
 5951SOL     OW18751   1.246   4.200   5.827
 5951SOL    HW118752   1.234   4.189   5.728
 5951SOL    HW218753   1.183   4.139   5.875
 5952SOL     OW18754   3.974   5.110   0.926
 5952SOL    HW118755   3.942   5.056   0.848
 5952SOL    HW218756   4.072   5.126   0.917
 5953SOL     OW18757   5.717   2.336   4.798
 5953SOL    HW118758   5.768   2.323   4.713
 5953SOL    HW218759   5.761   2.407   4.853
 5954SOL     OW18760   0.933   6.407   4.588
 5954SOL    HW118761   0.912   6.390   4.492
 5954SOL    HW218762   1.022   6.452   4.596
 5955SOL     OW18763   5.986   3.858   0.960
 5955SOL    HW118764   6.002   3.877   0.863
 5955SOL    HW218765   5.948   3.939   1.004
 5956SOL     OW18766   4.688   2.392   4.176
 5956SOL    HW118767   4.677   2.382   4.077
 5956SOL    HW218768   4.632   2.469   4.208
 5957SOL     OW18769   1.051   1.220   2.461
 5957SOL    HW118770   1.137   1.240   2.509
 5957SOL    HW218771   1.033   1.122   2.467
 5958SOL     OW18772   3.474   6.686   2.855
 5958SOL    HW118773   3.536   6.618   2.893
 5958SOL    HW218774   3.450   6.660   2.761
 5959SOL     OW18775   5.153   2.241   4.675
 5959SOL    HW118776   5.186   2.332   4.653
 5959SOL    HW218777   5.220   2.173   4.644
 5960SOL     OW18778   4.603   0.063   5.780
 5960SOL    HW118779   4.552   0.087   5.698
 5960SOL    HW218780   4.667   0.136   5.803
 5961SOL     OW18781   2.864   1.769   3.101
 5961SOL    HW118782   2.928   1.746   3.174
 5961SOL    HW218783   2.909   1.827   3.033
 5962SOL     OW18784   5.675   6.168   0.299
 5962SOL    HW118785   5.630   6.117   0.373
 5962SOL    HW218786   5.698   6.105   0.225
 5963SOL     OW18787   3.923   4.433   0.052
 5963SOL    HW118788   3.994   4.450   0.120
 5963SOL    HW218789   3.921   4.336   0.028
 5964SOL     OW18790   1.972   6.136   2.556
 5964SOL    HW118791   1.878   6.158   2.528
 5964SOL    HW218792   1.990   6.175   2.646
 5965SOL     OW18793   1.811   6.366   6.917
 5965SOL    HW118794   1.836   6.461   6.939
 5965SOL    HW218795   1.894   6.311   6.906
 5966SOL     OW18796   2.023   0.930   5.460
 5966SOL    HW118797   2.108   0.941   5.409
 5966SOL    HW218798   2.005   1.013   5.515
 5967SOL     OW18799   2.405   1.583   4.123
 5967SOL    HW118800   2.481   1.581   4.187
 5967SOL    HW218801   2.360   1.672   4.127
 5968SOL     OW18802   5.753   2.314   0.880
 5968SOL    HW118803   5.776   2.221   0.852
 5968SOL    HW218804   5.833   2.357   0.921
 5969SOL     OW18805   5.437   0.896   6.885
 5969SOL    HW118806   5.487   0.980   6.903
 5969SOL    HW218807   5.358   0.890   6.946
 5970SOL     OW18808   0.273   3.078   0.566
 5970SOL    HW118809   0.348   3.015   0.584
 5970SOL    HW218810   0.211   3.079   0.645
 5971SOL     OW18811   6.848   6.841   3.669
 5971SOL    HW118812   6.800   6.864   3.754
 5971SOL    HW218813   6.802   6.764   3.625
 5972SOL     OW18814   5.160   5.143   0.989
 5972SOL    HW118815   5.135   5.239   0.996
 5972SOL    HW218816   5.234   5.123   1.054
 5973SOL     OW18817   1.941   2.818   2.922
 5973SOL    HW118818   1.911   2.725   2.905
 5973SOL    HW218819   1.984   2.823   3.013
 5974SOL     OW18820   4.554   1.621   6.112
 5974SOL    HW118821   4.555   1.715   6.148
 5974SOL    HW218822   4.480   1.612   6.046
 5975SOL     OW18823   5.645   4.933   0.634
 5975SOL    HW118824   5.584   4.948   0.711
 5975SOL    HW218825   5.737   4.911   0.668
 5976SOL     OW18826   3.162   3.891   5.572
 5976SOL    HW118827   3.234   3.943   5.529
 5976SOL    HW218828   3.082   3.886   5.511
 5977SOL     OW18829   0.044   4.957   0.044
 5977SOL    HW118830   0.122   4.972   0.105
 5977SOL    HW218831   6.994   4.916   0.095
 5978SOL     OW18832   3.180   4.831   0.190
 5978SOL    HW118833   3.092   4.859   0.228
 5978SOL    HW218834   3.182   4.850   0.092
 5979SOL     OW18835   6.148   0.465   1.221
 5979SOL    HW118836   6.220   0.428   1.279
 5979SOL    HW218837   6.060   0.427   1.247
 5980SOL     OW18838   3.723   2.844   1.628
 5980SOL    HW118839   3.696   2.905   1.703
 5980SOL    HW218840   3.686   2.753   1.645
 5981SOL     OW18841   3.043   2.390   0.313
 5981SOL    HW118842   3.026   2.397   0.214
 5981SOL    HW218843   3.039   2.482   0.353
 5982SOL     OW18844   6.329   2.341   1.824
 5982SOL    HW118845   6.353   2.316   1.918
 5982SOL    HW218846   6.233   2.318   1.807
 5983SOL     OW18847   0.267   0.800   3.993
 5983SOL    HW118848   0.199   0.851   4.046
 5983SOL    HW218849   0.340   0.769   4.054
 5984SOL     OW18850   5.966   6.129   3.083
 5984SOL    HW118851   5.988   6.072   3.004
 5984SOL    HW218852   5.952   6.223   3.053
 5985SOL     OW18853   6.221   2.402   2.746
 5985SOL    HW118854   6.187   2.396   2.840
 5985SOL    HW218855   6.177   2.331   2.690
 5986SOL     OW18856   4.104   3.615   5.758
 5986SOL    HW118857   4.138   3.701   5.796
 5986SOL    HW218858   4.104   3.620   5.658
 5987SOL     OW18859   6.563   0.798   5.152
 5987SOL    HW118860   6.658   0.819   5.174
 5987SOL    HW218861   6.538   0.709   5.192
 5988SOL     OW18862   2.043   2.293   0.079
 5988SOL    HW118863   2.117   2.242   0.123
 5988SOL    HW218864   1.958   2.243   0.089
 5989SOL     OW18865   0.294   6.326   6.675
 5989SOL    HW118866   0.275   6.388   6.750
 5989SOL    HW218867   0.380   6.352   6.631
 5990SOL     OW18868   4.075   5.031   1.461
 5990SOL    HW118869   3.985   4.989   1.450
 5990SOL    HW218870   4.142   4.960   1.485
 5991SOL     OW18871   5.187   6.614   0.783
 5991SOL    HW118872   5.271   6.591   0.735
 5991SOL    HW218873   5.116   6.546   0.762
 5992SOL     OW18874   3.565   0.260   1.779
 5992SOL    HW118875   3.590   0.356   1.788
 5992SOL    HW218876   3.643   0.203   1.806
 5993SOL     OW18877   5.771   2.072   6.906
 5993SOL    HW118878   5.867   2.075   6.933
 5993SOL    HW218879   5.764   2.031   6.815
 5994SOL     OW18880   0.626   2.496   0.272
 5994SOL    HW118881   0.649   2.593   0.270
 5994SOL    HW218882   0.618   2.465   0.367
 5995SOL     OW18883   5.096   3.361   1.515
 5995SOL    HW118884   5.070   3.390   1.423
 5995SOL    HW218885   5.021   3.308   1.555
 5996SOL     OW18886   2.823   5.405   1.281
 5996SOL    HW118887   2.840   5.498   1.311
 5996SOL    HW218888   2.727   5.395   1.255
 5997SOL     OW18889   6.896   0.031   3.513
 5997SOL    HW118890   6.801   0.061   3.519
 5997SOL    HW218891   6.912   6.982   3.578
 5998SOL     OW18892   6.456   0.602   1.169
 5998SOL    HW118893   6.380   0.538   1.159
 5998SOL    HW218894   6.481   0.639   1.079
 5999SOL     OW18895   4.391   2.999   1.433
 5999SOL    HW118896   4.346   2.941   1.365
 5999SOL    HW218897   4.464   2.947   1.477
 6000SOL     OW18898   6.485   4.982   6.841
 6000SOL    HW118899   6.455   5.077   6.829
 6000SOL    HW218900   6.552   4.959   6.770
 6001SOL     OW18901   5.769   6.481   5.233
 6001SOL    HW118902   5.855   6.478   5.286
 6001SOL    HW218903   5.767   6.404   5.169
 6002SOL     OW18904   6.292   6.286   4.797
 6002SOL    HW118905   6.209   6.240   4.828
 6002SOL    HW218906   6.323   6.245   4.711
 6003SOL     OW18907   6.980   2.952   3.948
 6003SOL    HW118908   6.929   3.006   3.881
 6003SOL    HW218909   0.007   3.013   4.007
 6004SOL     OW18910   5.729   2.803   3.626
 6004SOL    HW118911   5.791   2.881   3.620
 6004SOL    HW218912   5.780   2.718   3.612
 6005SOL     OW18913   3.907   4.956   5.878
 6005SOL    HW118914   3.877   4.924   5.788
 6005SOL    HW218915   3.866   5.045   5.897
 6006SOL     OW18916   3.838   5.708   5.493
 6006SOL    HW118917   3.775   5.699   5.570
 6006SOL    HW218918   3.787   5.734   5.411
 6007SOL     OW18919   1.496   4.950   5.531
 6007SOL    HW118920   1.494   4.859   5.575
 6007SOL    HW218921   1.536   5.016   5.595
 6008SOL     OW18922   2.567   4.965   6.087
 6008SOL    HW118923   2.615   4.893   6.037
 6008SOL    HW218924   2.623   5.049   6.086
 6009SOL     OW18925   4.045   5.060   3.405
 6009SOL    HW118926   4.139   5.028   3.398
 6009SOL    HW218927   3.983   4.986   3.377
 6010SOL     OW18928   0.066   5.289   5.016
 6010SOL    HW118929   0.064   5.326   5.109
 6010SOL    HW218930   0.089   5.192   5.019
 6011SOL     OW18931   6.408   1.714   2.302
 6011SOL    HW118932   6.339   1.669   2.246
 6011SOL    HW218933   6.491   1.730   2.248
 6012SOL     OW18934   0.210   0.301   5.687
 6012SOL    HW118935   0.260   0.218   5.712
 6012SOL    HW218936   0.130   0.310   5.746
 6013SOL     OW18937   5.667   1.041   2.462
 6013SOL    HW118938   5.654   0.968   2.394
 6013SOL    HW218939   5.673   1.129   2.415
 6014SOL     OW18940   3.666   2.911   4.063
 6014SOL    HW118941   3.740   2.905   4.130
 6014SOL    HW218942   3.700   2.950   3.978
 6015SOL     OW18943   6.642   1.712   4.431
 6015SOL    HW118944   6.611   1.806   4.424
 6015SOL    HW218945   6.695   1.700   4.515
 6016SOL     OW18946   5.306   1.733   4.768
 6016SOL    HW118947   5.359   1.718   4.685
 6016SOL    HW218948   5.339   1.671   4.839
 6017SOL     OW18949   0.305   2.969   5.232
 6017SOL    HW118950   0.385   2.994   5.286
 6017SOL    HW218951   0.230   2.942   5.294
 6018SOL     OW18952   3.516   1.525   5.880
 6018SOL    HW118953   3.557   1.436   5.860
 6018SOL    HW218954   3.526   1.584   5.800
 6019SOL     OW18955   0.077   3.856   6.418
 6019SOL    HW118956   0.067   3.766   6.376
 6019SOL    HW218957   0.039   3.925   6.357
 6020SOL     OW18958   1.127   4.306   0.478
 6020SOL    HW118959   1.114   4.361   0.560
 6020SOL    HW218960   1.051   4.322   0.414
 6021SOL     OW18961   4.179   0.668   2.960
 6021SOL    HW118962   4.114   0.650   3.033
 6021SOL    HW218963   4.270   0.634   2.986
 6022SOL     OW18964   6.798   1.578   2.004
 6022SOL    HW118965   6.791   1.490   2.051
 6022SOL    HW218966   6.882   1.625   2.033
 6023SOL     OW18967   4.510   0.735   1.074
 6023SOL    HW118968   4.584   0.732   1.006
 6023SOL    HW218969   4.437   0.673   1.046
 6024SOL     OW18970   0.598   5.384   0.213
 6024SOL    HW118971   0.616   5.457   0.148
 6024SOL    HW218972   0.502   5.357   0.207
 6025SOL     OW18973   2.523   1.313   4.190
 6025SOL    HW118974   2.462   1.281   4.264
 6025SOL    HW218975   2.519   1.413   4.185
 6026SOL     OW18976   6.476   4.311   4.348
 6026SOL    HW118977   6.519   4.401   4.357
 6026SOL    HW218978   6.400   4.304   4.412
 6027SOL     OW18979   6.288   3.641   5.923
 6027SOL    HW118980   6.271   3.577   5.998
 6027SOL    HW218981   6.236   3.612   5.843
 6028SOL     OW18982   5.245   5.000   6.287
 6028SOL    HW118983   5.291   5.027   6.203
 6028SOL    HW218984   5.214   4.905   6.279
 6029SOL     OW18985   2.435   0.950   3.358
 6029SOL    HW118986   2.528   0.918   3.371
 6029SOL    HW218987   2.431   1.009   3.277
 6030SOL     OW18988   5.260   3.700   4.854
 6030SOL    HW118989   5.195   3.706   4.930
 6030SOL    HW218990   5.243   3.775   4.789
 6031SOL     OW18991   0.534   5.942   5.413
 6031SOL    HW118992   0.590   5.942   5.330
 6031SOL    HW218993   0.532   5.850   5.453
 6032SOL     OW18994   3.094   5.889   3.475
 6032SOL    HW118995   2.998   5.874   3.500
 6032SOL    HW218996   3.100   5.908   3.377
 6033SOL     OW18997   2.063   1.894   2.757
 6033SOL    HW118998   2.135   1.925   2.819
 6033SOL    HW218999   2.102   1.876   2.667
 6034SOL     OW19000   1.510   0.246   6.953
 6034SOL    HW119001   1.421   0.265   6.995
 6034SOL    HW219002   1.578   0.230   7.024
 6035SOL     OW19003   1.858   0.863   3.190
 6035SOL    HW119004   1.915   0.925   3.243
 6035SOL    HW219005   1.912   0.784   3.160
 6036SOL     OW19006   6.234   2.910   0.435
 6036SOL    HW119007   6.318   2.890   0.384
 6036SOL    HW219008   6.185   2.984   0.389
 6037SOL     OW19009   4.454   2.265   1.183
 6037SOL    HW119010   4.520   2.279   1.109
 6037SOL    HW219011   4.486   2.190   1.241
 6038SOL     OW19012   0.637   2.038   5.919
 6038SOL    HW119013   0.583   1.997   5.992
 6038SOL    HW219014   0.732   2.045   5.948
 6039SOL     OW19015   3.028   3.816   3.566
 6039SOL    HW119016   3.081   3.892   3.528
 6039SOL    HW219017   2.994   3.840   3.656
 6040SOL     OW19018   1.194   1.735   6.777
 6040SOL    HW119019   1.226   1.778   6.693
 6040SOL    HW219020   1.256   1.660   6.802
 6041SOL     OW19021   3.064   3.143   6.138
 6041SOL    HW119022   3.003   3.089   6.195
 6041SOL    HW219023   3.106   3.215   6.194
 6042SOL     OW19024   2.741   5.953   3.210
 6042SOL    HW119025   2.712   5.965   3.115
 6042SOL    HW219026   2.831   5.910   3.212
 6043SOL     OW19027   1.757   0.775   4.121
 6043SOL    HW119028   1.798   0.771   4.030
 6043SOL    HW219029   1.807   0.714   4.182
 6044SOL     OW19030   1.626   2.073   1.530
 6044SOL    HW119031   1.571   2.099   1.610
 6044SOL    HW219032   1.565   2.056   1.452
 6045SOL     OW19033   5.099   2.594   3.508
 6045SOL    HW119034   5.173   2.647   3.550
 6045SOL    HW219035   5.025   2.655   3.480
 6046SOL     OW19036   3.425   3.155   2.369
 6046SOL    HW119037   3.463   3.064   2.348
 6046SOL    HW219038   3.378   3.191   2.289
 6047SOL     OW19039   5.777   1.793   0.721
 6047SOL    HW119040   5.812   1.722   0.659
 6047SOL    HW219041   5.756   1.875   0.669
 6048SOL     OW19042   5.507   6.294   4.993
 6048SOL    HW119043   5.597   6.307   5.035
 6048SOL    HW219044   5.511   6.218   4.929
 6049SOL     OW19045   4.583   4.788   5.070
 6049SOL    HW119046   4.606   4.691   5.061
 6049SOL    HW219047   4.499   4.797   5.124
 6050SOL     OW19048   3.481   5.275   1.572
 6050SOL    HW119049   3.418   5.224   1.631
 6050SOL    HW219050   3.575   5.256   1.599
 6051SOL     OW19051   1.482   0.822   3.034
 6051SOL    HW119052   1.458   0.919   3.032
 6051SOL    HW219053   1.444   0.775   2.954
 6052SOL     OW19054   5.605   7.014   0.394
 6052SOL    HW119055   5.692   7.003   0.443
 6052SOL    HW219056   5.625   0.004   0.297
 6053SOL     OW19057   4.374   2.571   5.879
 6053SOL    HW119058   4.288   2.585   5.930
 6053SOL    HW219059   4.420   2.659   5.866
 6054SOL     OW19060   4.075   4.564   0.992
 6054SOL    HW119061   4.125   4.478   0.990
 6054SOL    HW219062   4.026   4.576   0.905
 6055SOL     OW19063   3.488   4.609   0.360
 6055SOL    HW119064   3.560   4.587   0.295
 6055SOL    HW219065   3.517   4.582   0.452
 6056SOL     OW19066   5.995   4.336   5.203
 6056SOL    HW119067   6.012   4.273   5.128
 6056SOL    HW219068   5.896   4.345   5.217
 6057SOL     OW19069   4.799   0.284   3.119
 6057SOL    HW119070   4.705   0.266   3.146
 6057SOL    HW219071   4.805   0.373   3.074
 6058SOL     OW19072   5.711   2.347   6.735
 6058SOL    HW119073   5.676   2.402   6.660
 6058SOL    HW219074   5.709   2.250   6.710
 6059SOL     OW19075   4.979   4.432   6.026
 6059SOL    HW119076   5.073   4.459   6.008
 6059SOL    HW219077   4.972   4.332   6.028
 6060SOL     OW19078   2.889   3.151   6.735
 6060SOL    HW119079   2.817   3.220   6.728
 6060SOL    HW219080   2.972   3.194   6.769
 6061SOL     OW19081   4.164   4.983   0.466
 6061SOL    HW119082   4.219   5.066   0.472
 6061SOL    HW219083   4.161   4.952   0.371
 6062SOL     OW19084   2.317   2.959   0.910
 6062SOL    HW119085   2.338   2.862   0.921
 6062SOL    HW219086   2.392   3.014   0.947
 6063SOL     OW19087   3.549   4.752   5.640
 6063SOL    HW119088   3.553   4.664   5.592
 6063SOL    HW219089   3.498   4.818   5.585
 6064SOL     OW19090   6.814   6.655   0.814
 6064SOL    HW119091   6.756   6.574   0.811
 6064SOL    HW219092   6.892   6.638   0.874
 6065SOL     OW19093   1.083   5.771   2.492
 6065SOL    HW119094   1.096   5.830   2.572
 6065SOL    HW219095   1.165   5.715   2.479
 6066SOL     OW19096   5.023   0.131   3.496
 6066SOL    HW119097   5.062   0.209   3.545
 6066SOL    HW219098   5.032   0.049   3.552
 6067SOL     OW19099   6.051   0.541   5.686
 6067SOL    HW119100   6.028   0.615   5.749
 6067SOL    HW219101   6.022   0.454   5.725
 6068SOL     OW19102   4.787   1.560   5.653
 6068SOL    HW119103   4.781   1.535   5.749
 6068SOL    HW219104   4.719   1.508   5.601
 6069SOL     OW19105   0.060   3.175   6.119
 6069SOL    HW119106   0.147   3.173   6.071
 6069SOL    HW219107   0.012   3.260   6.097
 6070SOL     OW19108   3.353   1.409   1.070
 6070SOL    HW119109   3.446   1.401   1.033
 6070SOL    HW219110   3.324   1.504   1.067
 6071SOL     OW19111   5.280   7.001   5.210
 6071SOL    HW119112   5.363   6.981   5.158
 6071SOL    HW219113   5.303   7.006   5.307
 6072SOL     OW19114   0.369   2.724   0.819
 6072SOL    HW119115   0.457   2.753   0.779
 6072SOL    HW219116   0.370   2.626   0.835
 6073SOL     OW19117   4.718   2.388   0.799
 6073SOL    HW119118   4.693   2.485   0.807
 6073SOL    HW219119   4.642   2.337   0.759
 6074SOL     OW19120   0.959   5.804   2.232
 6074SOL    HW119121   1.029   5.799   2.161
 6074SOL    HW219122   1.002   5.790   2.322
 6075SOL     OW19123   4.722   6.682   6.422
 6075SOL    HW119124   4.623   6.692   6.429
 6075SOL    HW219125   4.744   6.590   6.389
 6076SOL     OW19126   2.262   5.002   3.919
 6076SOL    HW119127   2.294   4.908   3.917
 6076SOL    HW219128   2.165   5.004   3.944
 6077SOL     OW19129   5.981   6.767   1.720
 6077SOL    HW119130   6.015   6.855   1.686
 6077SOL    HW219131   5.938   6.718   1.645
 6078SOL     OW19132   4.532   3.674   0.156
 6078SOL    HW119133   4.464   3.615   0.197
 6078SOL    HW219134   4.576   3.626   0.080
 6079SOL     OW19135   3.891   4.499   6.182
 6079SOL    HW119136   3.942   4.582   6.205
 6079SOL    HW219137   3.862   4.454   6.267
 6080SOL     OW19138   0.946   4.307   0.262
 6080SOL    HW119139   0.958   4.229   0.200
 6080SOL    HW219140   0.910   4.385   0.210
 6081SOL     OW19141   0.839   3.754   4.846
 6081SOL    HW119142   0.873   3.695   4.774
 6081SOL    HW219143   0.890   3.737   4.930
 6082SOL     OW19144   4.230   0.856   1.136
 6082SOL    HW119145   4.209   0.942   1.089
 6082SOL    HW219146   4.190   0.779   1.086
 6083SOL     OW19147   4.993   6.084   6.396
 6083SOL    HW119148   4.997   6.032   6.311
 6083SOL    HW219149   5.062   6.156   6.393
 6084SOL     OW19150   0.547   6.993   2.587
 6084SOL    HW119151   0.590   6.904   2.576
 6084SOL    HW219152   0.512   7.025   2.498
 6085SOL     OW19153   6.970   5.716   0.222
 6085SOL    HW119154   6.976   5.808   0.185
 6085SOL    HW219155   0.011   5.706   0.297
 6086SOL     OW19156   3.852   3.522   6.480
 6086SOL    HW119157   3.790   3.460   6.529
 6086SOL    HW219158   3.804   3.560   6.400
 6087SOL     OW19159   5.241   0.247   0.643
 6087SOL    HW119160   5.218   0.280   0.552
 6087SOL    HW219161   5.328   0.198   0.640
 6088SOL     OW19162   5.204   0.084   3.974
 6088SOL    HW119163   5.111   0.084   4.010
 6088SOL    HW219164   5.269   0.080   4.049
 6089SOL     OW19165   6.192   2.685   2.771
 6089SOL    HW119166   6.164   2.748   2.843
 6089SOL    HW219167   6.184   2.591   2.804
 6090SOL     OW19168   3.485   6.291   4.306
 6090SOL    HW119169   3.394   6.254   4.323
 6090SOL    HW219170   3.478   6.369   4.244
 6091SOL     OW19171   2.286   1.532   1.674
 6091SOL    HW119172   2.317   1.463   1.609
 6091SOL    HW219173   2.296   1.497   1.767
 6092SOL     OW19174   4.367   6.321   1.999
 6092SOL    HW119175   4.396   6.316   1.904
 6092SOL    HW219176   4.286   6.380   2.006
 6093SOL     OW19177   2.067   1.656   2.224
 6093SOL    HW119178   2.035   1.650   2.318
 6093SOL    HW219179   2.166   1.639   2.222
 6094SOL     OW19180   0.279   6.781   4.632
 6094SOL    HW119181   0.251   6.685   4.637
 6094SOL    HW219182   0.285   6.810   4.537
 6095SOL     OW19183   4.194   5.813   0.023
 6095SOL    HW119184   4.188   5.747   6.974
 6095SOL    HW219185   4.139   5.780   0.100
 6096SOL     OW19186   5.999   6.537   2.222
 6096SOL    HW119187   5.994   6.624   2.173
 6096SOL    HW219188   5.907   6.502   2.238
 6097SOL     OW19189   1.878   5.861   2.654
 6097SOL    HW119190   1.798   5.920   2.648
 6097SOL    HW219191   1.930   5.884   2.737
 6098SOL     OW19192   6.945   1.158   4.443
 6098SOL    HW119193   6.988   1.145   4.532
 6098SOL    HW219194   6.897   1.074   4.417
 6099SOL     OW19195   4.921   5.928   6.168
 6099SOL    HW119196   4.886   5.940   6.076
 6099SOL    HW219197   4.902   5.835   6.199
 6100SOL     OW19198   6.698   5.971   3.671
 6100SOL    HW119199   6.747   5.997   3.588
 6100SOL    HW219200   6.611   6.020   3.676
 6101SOL     OW19201   6.540   2.519   1.492
 6101SOL    HW119202   6.456   2.477   1.524
 6101SOL    HW219203   6.540   2.523   1.392
 6102SOL     OW19204   4.191   6.249   2.225
 6102SOL    HW119205   4.205   6.160   2.267
 6102SOL    HW219206   4.240   6.253   2.138
 6103SOL     OW19207   6.657   1.587   1.262
 6103SOL    HW119208   6.646   1.676   1.217
 6103SOL    HW219209   6.732   1.592   1.328
 6104SOL     OW19210   6.241   1.385   4.407
 6104SOL    HW119211   6.170   1.454   4.403
 6104SOL    HW219212   6.206   1.305   4.456
 6105SOL     OW19213   2.611   5.938   5.713
 6105SOL    HW119214   2.538   5.932   5.782
 6105SOL    HW219215   2.602   5.863   5.649
 6106SOL     OW19216   0.201   4.135   6.682
 6106SOL    HW119217   0.229   4.224   6.719
 6106SOL    HW219218   0.154   4.083   6.753
 6107SOL     OW19219   4.648   4.646   4.598
 6107SOL    HW119220   4.617   4.577   4.663
 6107SOL    HW219221   4.571   4.676   4.542
 6108SOL     OW19222   1.490   1.473   1.777
 6108SOL    HW119223   1.489   1.548   1.843
 6108SOL    HW219224   1.480   1.510   1.685
 6109SOL     OW19225   5.661   6.243   3.034
 6109SOL    HW119226   5.578   6.214   2.987
 6109SOL    HW219227   5.638   6.312   3.103
 6110SOL     OW19228   1.396   1.903   5.346
 6110SOL    HW119229   1.469   1.966   5.320
 6110SOL    HW219230   1.428   1.809   5.336
 6111SOL     OW19231   1.517   3.996   1.654
 6111SOL    HW119232   1.539   3.924   1.720
 6111SOL    HW219233   1.422   3.986   1.624
 6112SOL     OW19234   4.086   0.057   2.549
 6112SOL    HW119235   4.101   0.120   2.625
 6112SOL    HW219236   4.088   0.108   2.463
 6113SOL     OW19237   2.490   5.513   0.033
 6113SOL    HW119238   2.488   5.600   0.082
 6113SOL    HW219239   2.528   5.527   6.967
 6114SOL     OW19240   5.116   1.394   0.614
 6114SOL    HW119241   5.069   1.471   0.656
 6114SOL    HW219242   5.202   1.424   0.574
 6115SOL     OW19243   0.943   1.151   5.406
 6115SOL    HW119244   0.848   1.134   5.379
 6115SOL    HW219245   0.993   1.187   5.328
 6116SOL     OW19246   4.220   2.017   4.766
 6116SOL    HW119247   4.141   1.956   4.775
 6116SOL    HW219248   4.255   2.013   4.673
 6117SOL     OW19249   1.395   2.405   2.862
 6117SOL    HW119250   1.337   2.330   2.829
 6117SOL    HW219251   1.483   2.401   2.815
 6118SOL     OW19252   5.993   1.006   0.218
 6118SOL    HW119253   6.009   1.035   0.124
 6118SOL    HW219254   6.066   0.943   0.246
 6119SOL     OW19255   0.328   1.960   0.582
 6119SOL    HW119256   0.359   2.033   0.521
 6119SOL    HW219257   0.231   1.972   0.602
 6120SOL     OW19258   2.308   7.021   5.746
 6120SOL    HW119259   2.228   6.962   5.754
 6120SOL    HW219260   2.287   0.085   5.787
 6121SOL     OW19261   1.293   3.040   5.043
 6121SOL    HW119262   1.349   2.996   5.114
 6121SOL    HW219263   1.280   2.977   4.967
 6122SOL     OW19264   5.185   6.256   5.286
 6122SOL    HW119265   5.172   6.159   5.266
 6122SOL    HW219266   5.120   6.310   5.232
 6123SOL     OW19267   6.134   1.139   5.349
 6123SOL    HW119268   6.226   1.109   5.371
 6123SOL    HW219269   6.117   1.125   5.251
 6124SOL     OW19270   2.125   0.205   4.628
 6124SOL    HW119271   2.209   0.250   4.597
 6124SOL    HW219272   2.063   0.273   4.666
 6125SOL     OW19273   2.236   3.416   6.879
 6125SOL    HW119274   2.289   3.483   6.827
 6125SOL    HW219275   2.140   3.422   6.853
 6126SOL     OW19276   0.103   2.706   4.827
 6126SOL    HW119277   0.167   2.669   4.894
 6126SOL    HW219278   0.126   2.802   4.809
 6127SOL     OW19279   4.274   1.451   1.706
 6127SOL    HW119280   4.323   1.535   1.686
 6127SOL    HW219281   4.188   1.449   1.656
 6128SOL     OW19282   5.838   5.662   0.869
 6128SOL    HW119283   5.826   5.661   0.968
 6128SOL    HW219284   5.848   5.756   0.837
 6129SOL     OW19285   2.004   4.454   3.033
 6129SOL    HW119286   1.926   4.401   3.000
 6129SOL    HW219287   1.977   4.505   3.115
 6130SOL     OW19288   5.178   3.038   1.348
 6130SOL    HW119289   5.110   3.093   1.299
 6130SOL    HW219290   5.154   3.034   1.445
 6131SOL     OW19291   0.151   2.027   2.536
 6131SOL    HW119292   0.196   2.006   2.449
 6131SOL    HW219293   0.205   1.989   2.611
 6132SOL     OW19294   2.970   1.847   6.790
 6132SOL    HW119295   2.918   1.899   6.857
 6132SOL    HW219296   2.947   1.750   6.798
 6133SOL     OW19297   1.671   2.355   4.081
 6133SOL    HW119298   1.731   2.326   4.006
 6133SOL    HW219299   1.679   2.291   4.157
 6134SOL     OW19300   5.257   5.895   6.163
 6134SOL    HW119301   5.317   5.973   6.144
 6134SOL    HW219302   5.206   5.872   6.080
 6135SOL     OW19303   5.687   0.560   7.024
 6135SOL    HW119304   5.729   0.474   0.026
 6135SOL    HW219305   5.752   0.635   0.010
 6136SOL     OW19306   0.787   2.751   2.349
 6136SOL    HW119307   0.688   2.740   2.348
 6136SOL    HW219308   0.827   2.704   2.270
 6137SOL     OW19309   0.440   4.870   3.300
 6137SOL    HW119310   0.372   4.797   3.293
 6137SOL    HW219311   0.503   4.864   3.222
 6138SOL     OW19312   3.283   0.271   1.809
 6138SOL    HW119313   3.378   0.249   1.787
 6138SOL    HW219314   3.230   0.187   1.818
 6139SOL     OW19315   1.198   0.042   5.544
 6139SOL    HW119316   1.226   0.059   5.450
 6139SOL    HW219317   1.237   6.981   5.576
 6140SOL     OW19318   2.073   0.271   2.875
 6140SOL    HW119319   2.161   0.294   2.833
 6140SOL    HW219320   2.038   0.351   2.923
 6141SOL     OW19321   0.032   0.815   5.397
 6141SOL    HW119322   0.065   0.845   5.307
 6141SOL    HW219323   0.100   0.754   5.438
 6142SOL     OW19324   0.383   1.141   0.872
 6142SOL    HW119325   0.406   1.092   0.788
 6142SOL    HW219326   0.388   1.239   0.856
 6143SOL     OW19327   6.306   3.421   6.150
 6143SOL    HW119328   6.229   3.459   6.202
 6143SOL    HW219329   6.384   3.485   6.155
 6144SOL     OW19330   4.973   4.311   2.856
 6144SOL    HW119331   4.881   4.281   2.883
 6144SOL    HW219332   5.009   4.373   2.925
 6145SOL     OW19333   4.889   3.581   4.519
 6145SOL    HW119334   4.827   3.605   4.594
 6145SOL    HW219335   4.912   3.484   4.525
 6146SOL     OW19336   4.005   0.619   4.478
 6146SOL    HW119337   3.997   0.523   4.452
 6146SOL    HW219338   4.001   0.676   4.396
 6147SOL     OW19339   2.392   2.706   4.064
 6147SOL    HW119340   2.462   2.736   4.129
 6147SOL    HW219341   2.359   2.616   4.091
 6148SOL     OW19342   3.897   5.333   0.248
 6148SOL    HW119343   3.830   5.340   0.174
 6148SOL    HW219344   3.981   5.382   0.222
 6149SOL     OW19345   2.919   0.186   1.748
 6149SOL    HW119346   2.833   0.136   1.745
 6149SOL    HW219347   2.929   0.240   1.664
 6150SOL     OW19348   5.849   3.505   6.607
 6150SOL    HW119349   5.863   3.475   6.512
 6150SOL    HW219350   5.904   3.447   6.668
 6151SOL     OW19351   5.063   4.285   4.510
 6151SOL    HW119352   5.139   4.242   4.559
 6151SOL    HW219353   4.982   4.227   4.513
 6152SOL     OW19354   0.655   5.019   3.749
 6152SOL    HW119355   0.676   5.111   3.717
 6152SOL    HW219356   0.608   4.968   3.677
 6153SOL     OW19357   4.830   5.126   0.848
 6153SOL    HW119358   4.888   5.044   0.842
 6153SOL    HW219359   4.802   5.154   0.757
 6154SOL     OW19360   5.618   3.034   2.584
 6154SOL    HW119361   5.528   3.055   2.547
 6154SOL    HW219362   5.664   2.968   2.526
 6155SOL     OW19363   2.273   1.450   3.147
 6155SOL    HW119364   2.230   1.377   3.093
 6155SOL    HW219365   2.339   1.499   3.090
 6156SOL     OW19366   5.483   4.018   1.479
 6156SOL    HW119367   5.484   3.923   1.449
 6156SOL    HW219368   5.457   4.077   1.402
 6157SOL     OW19369   0.692   2.158   3.209
 6157SOL    HW119370   0.791   2.161   3.216
 6157SOL    HW219371   0.660   2.065   3.226
 6158SOL     OW19372   2.505   2.930   5.636
 6158SOL    HW119373   2.515   2.882   5.724
 6158SOL    HW219374   2.532   2.869   5.562
 6159SOL     OW19375   5.667   2.249   0.059
 6159SOL    HW119376   5.706   2.182   7.021
 6159SOL    HW219377   5.596   2.301   0.012
 6160SOL     OW19378   0.505   6.983   6.751
 6160SOL    HW119379   0.518   6.889   6.782
 6160SOL    HW219380   0.431   6.986   6.684
 6161SOL     OW19381   5.150   2.425   6.461
 6161SOL    HW119382   5.142   2.517   6.422
 6161SOL    HW219383   5.193   2.431   6.551
 6162SOL     OW19384   6.554   6.057   2.515
 6162SOL    HW119385   6.513   6.022   2.431
 6162SOL    HW219386   6.483   6.097   2.573
 6163SOL     OW19387   6.101   6.558   2.774
 6163SOL    HW119388   6.068   6.579   2.682
 6163SOL    HW219389   6.135   6.464   2.777
 6164SOL     OW19390   4.079   3.800   4.199
 6164SOL    HW119391   4.041   3.719   4.153
 6164SOL    HW219392   4.110   3.865   4.130
 6165SOL     OW19393   4.230   2.362   0.395
 6165SOL    HW119394   4.277   2.359   0.307
 6165SOL    HW219395   4.180   2.447   0.404
 6166SOL     OW19396   0.582   2.244   6.611
 6166SOL    HW119397   0.517   2.313   6.578
 6166SOL    HW219398   0.585   2.245   6.710
 6167SOL     OW19399   1.534   4.077   3.696
 6167SOL    HW119400   1.565   3.986   3.670
 6167SOL    HW219401   1.613   4.139   3.702
 6168SOL     OW19402   0.085   3.127   4.089
 6168SOL    HW119403   0.051   3.221   4.089
 6168SOL    HW219404   0.090   3.094   4.183
 6169SOL     OW19405   0.708   0.001   6.535
 6169SOL    HW119406   0.711   0.078   6.471
 6169SOL    HW219407   0.629   0.011   6.596
 6170SOL     OW19408   3.983   4.297   0.413
 6170SOL    HW119409   4.017   4.204   0.402
 6170SOL    HW219410   4.032   4.358   0.350
 6171SOL     OW19411   1.192   4.795   2.502
 6171SOL    HW119412   1.230   4.721   2.448
 6171SOL    HW219413   1.170   4.872   2.443
 6172SOL     OW19414   1.239   0.220   2.751
 6172SOL    HW119415   1.278   0.260   2.668
 6172SOL    HW219416   1.272   0.270   2.831
 6173SOL     OW19417   1.415   4.616   3.631
 6173SOL    HW119418   1.323   4.641   3.664
 6173SOL    HW219419   1.437   4.524   3.663
 6174SOL     OW19420   5.389   4.955   2.680
 6174SOL    HW119421   5.395   4.878   2.617
 6174SOL    HW219422   5.364   4.921   2.771
 6175SOL     OW19423   5.254   6.234   2.515
 6175SOL    HW119424   5.320   6.302   2.545
 6175SOL    HW219425   5.281   6.198   2.425
 6176SOL     OW19426   5.715   3.048   6.658
 6176SOL    HW119427   5.663   3.113   6.713
 6176SOL    HW219428   5.811   3.049   6.687
 6177SOL     OW19429   5.266   1.823   2.187
 6177SOL    HW119430   5.221   1.747   2.234
 6177SOL    HW219431   5.294   1.794   2.095
 6178SOL     OW19432   4.839   4.537   0.982
 6178SOL    HW119433   4.864   4.546   1.079
 6178SOL    HW219434   4.902   4.592   0.927
 6179SOL     OW19435   0.518   3.108   4.876
 6179SOL    HW119436   0.571   3.097   4.791
 6179SOL    HW219437   0.553   3.045   4.945
 6180SOL     OW19438   3.805   6.472   0.805
 6180SOL    HW119439   3.783   6.383   0.845
 6180SOL    HW219440   3.843   6.532   0.876
 6181SOL     OW19441   5.078   6.514   6.867
 6181SOL    HW119442   5.110   6.545   6.778
 6181SOL    HW219443   5.154   6.514   6.932
 6182SOL     OW19444   5.568   5.606   5.307
 6182SOL    HW119445   5.518   5.658   5.377
 6182SOL    HW219446   5.621   5.669   5.250
 6183SOL     OW19447   2.494   0.474   2.620
 6183SOL    HW119448   2.572   0.523   2.659
 6183SOL    HW219449   2.506   0.465   2.521
 6184SOL     OW19450   1.459   0.120   6.562
 6184SOL    HW119451   1.517   0.048   6.600
 6184SOL    HW219452   1.483   0.208   6.603
 6185SOL     OW19453   0.047   3.792   6.706
 6185SOL    HW119454   0.058   3.827   6.613
 6185SOL    HW219455   7.015   3.855   6.759
 6186SOL     OW19456   5.575   0.295   3.655
 6186SOL    HW119457   5.527   0.377   3.623
 6186SOL    HW219458   5.668   0.296   3.620
 6187SOL     OW19459   5.125   4.829   3.956
 6187SOL    HW119460   5.123   4.804   3.860
 6187SOL    HW219461   5.071   4.912   3.971
 6188SOL     OW19462   2.722   5.938   1.664
 6188SOL    HW119463   2.629   5.912   1.640
 6188SOL    HW219464   2.786   5.896   1.599
 6189SOL     OW19465   4.906   5.400   2.933
 6189SOL    HW119466   4.839   5.381   3.004
 6189SOL    HW219467   4.865   5.388   2.843
 6190SOL     OW19468   4.744   3.051   6.168
 6190SOL    HW119469   4.687   3.118   6.120
 6190SOL    HW219470   4.691   2.969   6.186
 6191SOL     OW19471   5.261   2.117   0.579
 6191SOL    HW119472   5.224   2.026   0.600
 6191SOL    HW219473   5.212   2.186   0.632
 6192SOL     OW19474   2.987   3.683   0.663
 6192SOL    HW119475   3.003   3.719   0.755
 6192SOL    HW219476   3.030   3.593   0.654
 6193SOL     OW19477   5.623   7.010   2.538
 6193SOL    HW119478   5.637   0.081   2.513
 6193SOL    HW219479   5.609   7.004   2.637
 6194SOL     OW19480   2.213   0.778   1.201
 6194SOL    HW119481   2.151   0.831   1.143
 6194SOL    HW219482   2.225   0.826   1.288
 6195SOL     OW19483   4.233   5.510   6.123
 6195SOL    HW119484   4.223   5.439   6.054
 6195SOL    HW219485   4.274   5.471   6.206
 6196SOL     OW19486   0.963   2.367   6.035
 6196SOL    HW119487   0.891   2.363   5.966
 6196SOL    HW219488   1.052   2.376   5.990
 6197SOL     OW19489   2.687   4.202   0.888
 6197SOL    HW119490   2.653   4.108   0.898
 6197SOL    HW219491   2.779   4.200   0.848
 6198SOL     OW19492   3.346   5.399   3.183
 6198SOL    HW119493   3.429   5.408   3.239
 6198SOL    HW219494   3.369   5.413   3.087
 6199SOL     OW19495   1.084   0.439   1.238
 6199SOL    HW119496   1.028   0.413   1.159
 6199SOL    HW219497   1.159   0.373   1.249
 6200SOL     OW19498   2.553   1.262   6.588
 6200SOL    HW119499   2.557   1.259   6.488
 6200SOL    HW219500   2.465   1.302   6.616
 6201SOL     OW19501   2.020   3.807   5.907
 6201SOL    HW119502   1.988   3.884   5.852
 6201SOL    HW219503   1.951   3.786   5.977
 6202SOL     OW19504   4.173   1.506   1.340
 6202SOL    HW119505   4.119   1.461   1.269
 6202SOL    HW219506   4.121   1.504   1.426
 6203SOL     OW19507   5.077   0.986   3.968
 6203SOL    HW119508   5.152   0.971   4.032
 6203SOL    HW219509   5.005   1.040   4.012
 6204SOL     OW19510   1.062   5.504   5.433
 6204SOL    HW119511   0.984   5.513   5.371
 6204SOL    HW219512   1.145   5.486   5.379
 6205SOL     OW19513   5.559   5.163   6.789
 6205SOL    HW119514   5.504   5.226   6.735
 6205SOL    HW219515   5.522   5.071   6.782
 6206SOL     OW19516   6.708   0.944   1.581
 6206SOL    HW119517   6.804   0.933   1.604
 6206SOL    HW219518   6.661   0.856   1.588
 6207SOL     OW19519   1.169   4.585   5.113
 6207SOL    HW119520   1.238   4.590   5.040
 6207SOL    HW219521   1.161   4.674   5.158
 6208SOL     OW19522   6.759   0.545   5.628
 6208SOL    HW119523   6.661   0.526   5.632
 6208SOL    HW219524   6.806   0.468   5.584
 6209SOL     OW19525   4.671   6.207   0.106
 6209SOL    HW119526   4.638   6.114   0.121
 6209SOL    HW219527   4.725   6.237   0.184
 6210SOL     OW19528   5.287   3.564   2.879
 6210SOL    HW119529   5.346   3.585   2.957
 6210SOL    HW219530   5.333   3.593   2.794
 6211SOL     OW19531   2.554   0.568   6.439
 6211SOL    HW119532   2.542   0.583   6.341
 6211SOL    HW219533   2.576   0.655   6.483
 6212SOL     OW19534   6.667   6.285   3.319
 6212SOL    HW119535   6.582   6.337   3.333
 6212SOL    HW219536   6.695   6.294   3.223
 6213SOL     OW19537   5.909   0.736   6.812
 6213SOL    HW119538   5.990   0.771   6.767
 6213SOL    HW219539   5.932   0.708   6.906
 6214SOL     OW19540   6.240   5.137   2.682
 6214SOL    HW119541   6.161   5.076   2.687
 6214SOL    HW219542   6.242   5.195   2.764
 6215SOL     OW19543   3.168   2.633   0.484
 6215SOL    HW119544   3.078   2.668   0.458
 6215SOL    HW219545   3.161   2.590   0.575
 6216SOL     OW19546   5.998   1.832   1.576
 6216SOL    HW119547   5.965   1.864   1.488
 6216SOL    HW219548   6.039   1.742   1.565
 6217SOL     OW19549   4.895   2.737   1.530
 6217SOL    HW119550   4.815   2.796   1.532
 6217SOL    HW219551   4.960   2.767   1.599
 6218SOL     OW19552   2.633   4.879   4.624
 6218SOL    HW119553   2.645   4.953   4.691
 6218SOL    HW219554   2.626   4.792   4.672
 6219SOL     OW19555   1.575   2.138   4.692
 6219SOL    HW119556   1.590   2.235   4.712
 6219SOL    HW219557   1.523   2.096   4.767
 6220SOL     OW19558   1.802   4.612   6.265
 6220SOL    HW119559   1.716   4.654   6.295
 6220SOL    HW219560   1.784   4.553   6.187
 6221SOL     OW19561   4.619   5.614   4.721
 6221SOL    HW119562   4.598   5.646   4.629
 6221SOL    HW219563   4.696   5.666   4.759
 6222SOL     OW19564   6.945   0.196   1.571
 6222SOL    HW119565   6.955   0.139   1.490
 6222SOL    HW219566   6.858   0.175   1.616
 6223SOL     OW19567   6.042   4.223   4.563
 6223SOL    HW119568   5.992   4.162   4.623
 6223SOL    HW219569   6.140   4.219   4.585
 6224SOL     OW19570   1.746   1.218   5.920
 6224SOL    HW119571   1.752   1.282   5.843
 6224SOL    HW219572   1.823   1.154   5.916
 6225SOL     OW19573   3.458   3.542   1.066
 6225SOL    HW119574   3.502   3.600   0.997
 6225SOL    HW219575   3.506   3.552   1.153
 6226SOL     OW19576   5.685   1.593   3.725
 6226SOL    HW119577   5.702   1.497   3.747
 6226SOL    HW219578   5.591   1.616   3.747
 6227SOL     OW19579   3.286   4.398   6.047
 6227SOL    HW119580   3.217   4.418   6.117
 6227SOL    HW219581   3.275   4.305   6.014
 6228SOL     OW19582   6.792   1.512   2.826
 6228SOL    HW119583   6.725   1.582   2.800
 6228SOL    HW219584   6.767   1.424   2.784
 6229SOL     OW19585   2.471   1.718   2.607
 6229SOL    HW119586   2.531   1.642   2.582
 6229SOL    HW219587   2.428   1.699   2.695
 6230SOL     OW19588   2.792   1.342   4.236
 6230SOL    HW119589   2.784   1.424   4.292
 6230SOL    HW219590   2.704   1.320   4.195
 6231SOL     OW19591   0.093   4.557   1.142
 6231SOL    HW119592   0.005   4.535   1.183
 6231SOL    HW219593   0.161   4.569   1.215
 6232SOL     OW19594   0.291   1.294   6.962
 6232SOL    HW119595   0.221   1.223   6.970
 6232SOL    HW219596   0.358   1.268   6.893
 6233SOL     OW19597   5.531   2.043   6.506
 6233SOL    HW119598   5.622   2.021   6.542
 6233SOL    HW219599   5.509   2.138   6.527
 6234SOL     OW19600   1.584   1.463   4.316
 6234SOL    HW119601   1.502   1.421   4.353
 6234SOL    HW219602   1.590   1.558   4.348
 6235SOL     OW19603   2.293   0.017   3.330
 6235SOL    HW119604   2.227   6.969   3.345
 6235SOL    HW219605   2.340   0.002   3.242
 6236SOL     OW19606   0.193   4.990   1.376
 6236SOL    HW119607   0.264   4.956   1.313
 6236SOL    HW219608   0.109   4.936   1.363
 6237SOL     OW19609   4.324   6.177   0.404
 6237SOL    HW119610   4.298   6.158   0.498
 6237SOL    HW219611   4.325   6.276   0.389
 6238SOL     OW19612   4.918   5.770   2.194
 6238SOL    HW119613   5.008   5.807   2.218
 6238SOL    HW219614   4.930   5.690   2.136
 6239SOL     OW19615   2.878   6.576   2.840
 6239SOL    HW119616   2.870   6.653   2.778
 6239SOL    HW219617   2.958   6.589   2.900
 6240SOL     OW19618   2.377   3.143   0.431
 6240SOL    HW119619   2.352   3.135   0.528
 6240SOL    HW219620   2.303   3.190   0.382
 6241SOL     OW19621   3.060   0.914   1.757
 6241SOL    HW119622   3.054   0.882   1.851
 6241SOL    HW219623   3.063   0.836   1.695
 6242SOL     OW19624   5.076   1.472   3.586
 6242SOL    HW119625   5.017   1.427   3.518
 6242SOL    HW219626   5.152   1.517   3.540
 6243SOL     OW19627   6.107   6.843   3.756
 6243SOL    HW119628   6.028   6.903   3.746
 6243SOL    HW219629   6.093   6.760   3.703
 6244SOL     OW19630   2.500   2.489   2.423
 6244SOL    HW119631   2.577   2.475   2.485
 6244SOL    HW219632   2.457   2.577   2.441
 6245SOL     OW19633   2.645   4.117   1.413
 6245SOL    HW119634   2.724   4.172   1.442
 6245SOL    HW219635   2.561   4.167   1.433
 6246SOL     OW19636   2.850   2.505   6.503
 6246SOL    HW119637   2.867   2.578   6.569
 6246SOL    HW219638   2.910   2.427   6.523
 6247SOL     OW19639   0.239   6.360   3.910
 6247SOL    HW119640   0.256   6.310   3.995
 6247SOL    HW219641   0.156   6.324   3.866
 6248SOL     OW19642   0.885   4.216   1.759
 6248SOL    HW119643   0.815   4.259   1.816
 6248SOL    HW219644   0.896   4.271   1.675
 6249SOL     OW19645   0.121   4.531   0.444
 6249SOL    HW119646   0.024   4.553   0.433
 6249SOL    HW219647   0.131   4.435   0.469
 6250SOL     OW19648   6.948   5.997   0.771
 6250SOL    HW119649   0.010   6.037   0.796
 6250SOL    HW219650   6.881   6.014   0.843
 6251SOL     OW19651   4.256   0.283   1.270
 6251SOL    HW119652   4.294   0.308   1.181
 6251SOL    HW219653   4.254   0.184   1.278
 6252SOL     OW19654   2.427   5.586   4.832
 6252SOL    HW119655   2.470   5.520   4.894
 6252SOL    HW219656   2.379   5.536   4.759
 6253SOL     OW19657   2.403   4.065   1.771
 6253SOL    HW119658   2.323   4.005   1.782
 6253SOL    HW219659   2.408   4.128   1.848
 6254SOL     OW19660   6.174   0.028   6.733
 6254SOL    HW119661   6.142   0.096   6.667
 6254SOL    HW219662   6.189   6.967   6.686
 6255SOL     OW19663   1.087   1.583   1.723
 6255SOL    HW119664   1.136   1.594   1.809
 6255SOL    HW219665   1.009   1.522   1.736
 6256SOL     OW19666   4.116   4.744   2.744
 6256SOL    HW119667   4.041   4.681   2.724
 6256SOL    HW219668   4.162   4.768   2.658
 6257SOL     OW19669   5.655   2.407   1.192
 6257SOL    HW119670   5.593   2.464   1.246
 6257SOL    HW219671   5.634   2.311   1.207
 6258SOL     OW19672   3.995   1.092   2.687
 6258SOL    HW119673   4.076   1.057   2.640
 6258SOL    HW219674   4.014   1.183   2.723
 6259SOL     OW19675   3.015   1.421   1.018
 6259SOL    HW119676   2.949   1.436   0.944
 6259SOL    HW219677   3.104   1.458   0.992
 6260SOL     OW19678   4.236   3.621   0.758
 6260SOL    HW119679   4.190   3.673   0.686
 6260SOL    HW219680   4.236   3.674   0.843
 6261SOL     OW19681   3.746   6.884   7.024
 6261SOL    HW119682   3.650   6.895   6.997
 6261SOL    HW219683   3.762   6.933   0.084
 6262SOL     OW19684   1.635   4.115   0.585
 6262SOL    HW119685   1.724   4.158   0.575
 6262SOL    HW219686   1.601   4.085   0.496
 6263SOL     OW19687   0.142   6.288   6.450
 6263SOL    HW119688   0.153   6.304   6.548
 6263SOL    HW219689   0.231   6.298   6.404
 6264SOL     OW19690   2.620   1.732   1.103
 6264SOL    HW119691   2.570   1.656   1.062
 6264SOL    HW219692   2.694   1.696   1.161
 6265SOL     OW19693   3.556   4.583   1.199
 6265SOL    HW119694   3.460   4.587   1.225
 6265SOL    HW219695   3.564   4.598   1.101
 6266SOL     OW19696   3.706   1.131   3.545
 6266SOL    HW119697   3.708   1.185   3.629
 6266SOL    HW219698   3.777   1.061   3.548
 6267SOL     OW19699   2.865   0.152   0.286
 6267SOL    HW119700   2.870   0.172   0.384
 6267SOL    HW219701   2.770   0.131   0.261
 6268SOL     OW19702   3.133   5.242   3.074
 6268SOL    HW119703   3.104   5.275   2.984
 6268SOL    HW219704   3.162   5.320   3.130
 6269SOL     OW19705   6.142   5.630   2.000
 6269SOL    HW119706   6.061   5.607   2.054
 6269SOL    HW219707   6.224   5.600   2.048
 6270SOL     OW19708   1.780   0.854   5.293
 6270SOL    HW119709   1.854   0.883   5.353
 6270SOL    HW219710   1.700   0.830   5.349
 6271SOL     OW19711   0.240   2.913   6.075
 6271SOL    HW119712   0.167   2.974   6.044
 6271SOL    HW219713   0.249   2.919   6.174
 6272SOL     OW19714   1.658   3.515   4.469
 6272SOL    HW119715   1.676   3.442   4.536
 6272SOL    HW219716   1.676   3.604   4.511
 6273SOL     OW19717   1.491   1.214   1.819
 6273SOL    HW119718   1.537   1.303   1.810
 6273SOL    HW219719   1.415   1.209   1.754
 6274SOL     OW19720   3.243   6.017   6.823
 6274SOL    HW119721   3.246   5.958   6.743
 6274SOL    HW219722   3.225   5.962   6.905
 6275SOL     OW19723   2.802   0.225   5.543
 6275SOL    HW119724   2.763   0.238   5.452
 6275SOL    HW219725   2.730   0.234   5.611
 6276SOL     OW19726   1.012   5.450   3.554
 6276SOL    HW119727   0.986   5.428   3.460
 6276SOL    HW219728   1.082   5.387   3.586
 6277SOL     OW19729   5.246   2.568   2.935
 6277SOL    HW119730   5.298   2.586   2.851
 6277SOL    HW219731   5.151   2.594   2.921
 6278SOL     OW19732   4.677   0.381   4.048
 6278SOL    HW119733   4.599   0.352   3.993
 6278SOL    HW219734   4.653   0.376   4.145
 6279SOL     OW19735   4.163   1.398   0.293
 6279SOL    HW119736   4.207   1.427   0.378
 6279SOL    HW219737   4.067   1.378   0.311
 6280SOL     OW19738   0.620   3.306   5.661
 6280SOL    HW119739   0.675   3.324   5.743
 6280SOL    HW219740   0.577   3.391   5.630
 6281SOL     OW19741   2.146   0.160   5.087
 6281SOL    HW119742   2.084   0.184   5.162
 6281SOL    HW219743   2.169   0.242   5.036
 6282SOL     OW19744   1.668   6.570   5.132
 6282SOL    HW119745   1.715   6.650   5.097
 6282SOL    HW219746   1.569   6.582   5.124
 6283SOL     OW19747   7.001   2.294   5.192
 6283SOL    HW119748   0.035   2.330   5.265
 6283SOL    HW219749   7.013   2.350   5.110
 6284SOL     OW19750   1.497   5.241   5.906
 6284SOL    HW119751   1.515   5.151   5.947
 6284SOL    HW219752   1.441   5.295   5.969
 6285SOL     OW19753   1.441   3.348   3.787
 6285SOL    HW119754   1.424   3.263   3.838
 6285SOL    HW219755   1.482   3.415   3.849
 6286SOL     OW19756   5.664   1.283   2.927
 6286SOL    HW119757   5.583   1.240   2.887
 6286SOL    HW219758   5.744   1.224   2.911
 6287SOL     OW19759   4.772   4.039   1.811
 6287SOL    HW119760   4.802   3.948   1.839
 6287SOL    HW219761   4.782   4.102   1.889
 6288SOL     OW19762   5.322   4.311   0.691
 6288SOL    HW119763   5.296   4.278   0.600
 6288SOL    HW219764   5.241   4.345   0.739
 6289SOL     OW19765   2.389   2.406   3.840
 6289SOL    HW119766   2.398   2.332   3.773
 6289SOL    HW219767   2.314   2.384   3.903
 6290SOL     OW19768   5.274   4.600   4.224
 6290SOL    HW119769   5.352   4.626   4.281
 6290SOL    HW219770   5.294   4.623   4.128
 6291SOL     OW19771   3.595   3.233   3.722
 6291SOL    HW119772   3.570   3.325   3.753
 6291SOL    HW219773   3.568   3.221   3.627
 6292SOL     OW19774   0.825   1.970   3.472
 6292SOL    HW119775   0.869   1.949   3.559
 6292SOL    HW219776   0.884   2.030   3.419
 6293SOL     OW19777   5.317   0.365   6.890
 6293SOL    HW119778   5.262   0.282   6.902
 6293SOL    HW219779   5.410   0.340   6.863
 6294SOL     OW19780   3.272   5.477   2.616
 6294SOL    HW119781   3.270   5.492   2.715
 6294SOL    HW219782   3.212   5.400   2.593
 6295SOL     OW19783   5.519   5.822   5.855
 6295SOL    HW119784   5.593   5.813   5.922
 6295SOL    HW219785   5.449   5.753   5.874
 6296SOL     OW19786   6.297   0.636   3.366
 6296SOL    HW119787   6.250   0.712   3.411
 6296SOL    HW219788   6.385   0.621   3.410
 6297SOL     OW19789   5.039   6.202   6.005
 6297SOL    HW119790   5.034   6.237   6.099
 6297SOL    HW219791   5.062   6.276   5.942
 6298SOL     OW19792   1.032   3.223   5.724
 6298SOL    HW119793   1.128   3.239   5.747
 6298SOL    HW219794   1.016   3.124   5.714
 6299SOL     OW19795   6.235   2.539   6.482
 6299SOL    HW119796   6.320   2.587   6.463
 6299SOL    HW219797   6.253   2.460   6.541
 6300SOL     OW19798   5.659   0.938   4.403
 6300SOL    HW119799   5.566   0.925   4.436
 6300SOL    HW219800   5.693   0.854   4.362
 6301SOL     OW19801   2.654   6.453   1.060
 6301SOL    HW119802   2.744   6.467   1.101
 6301SOL    HW219803   2.646   6.359   1.027
 6302SOL     OW19804   1.781   0.866   3.819
 6302SOL    HW119805   1.683   0.881   3.808
 6302SOL    HW219806   1.831   0.948   3.789
 6303SOL     OW19807   2.370   6.939   5.359
 6303SOL    HW119808   2.319   6.949   5.274
 6303SOL    HW219809   2.380   6.842   5.381
 6304SOL     OW19810   3.122   0.866   0.646
 6304SOL    HW119811   3.161   0.801   0.581
 6304SOL    HW219812   3.100   0.951   0.599
 6305SOL     OW19813   6.672   6.908   1.310
 6305SOL    HW119814   6.762   6.874   1.339
 6305SOL    HW219815   6.625   6.837   1.257
 6306SOL     OW19816   6.518   3.025   3.916
 6306SOL    HW119817   6.486   3.098   3.855
 6306SOL    HW219818   6.461   2.944   3.904
 6307SOL     OW19819   2.782   5.108   5.855
 6307SOL    HW119820   2.860   5.053   5.883
 6307SOL    HW219821   2.769   5.103   5.756
 6308SOL     OW19822   2.144   1.452   5.249
 6308SOL    HW119823   2.172   1.522   5.314
 6308SOL    HW219824   2.211   1.446   5.175
 6309SOL     OW19825   4.767   2.107   4.111
 6309SOL    HW119826   4.730   2.144   4.196
 6309SOL    HW219827   4.698   2.052   4.065
 6310SOL     OW19828   1.366   4.777   4.738
 6310SOL    HW119829   1.362   4.710   4.812
 6310SOL    HW219830   1.357   4.869   4.774
 6311SOL     OW19831   6.982   0.423   4.295
 6311SOL    HW119832   7.024   0.370   4.369
 6311SOL    HW219833   0.011   0.505   4.278
 6312SOL     OW19834   4.666   4.931   6.517
 6312SOL    HW119835   4.620   4.918   6.605
 6312SOL    HW219836   4.758   4.891   6.522
 6313SOL     OW19837   1.834   5.655   3.541
 6313SOL    HW119838   1.912   5.717   3.543
 6313SOL    HW219839   1.799   5.642   3.633
 6314SOL     OW19840   2.574   5.811   2.207
 6314SOL    HW119841   2.541   5.717   2.194
 6314SOL    HW219842   2.603   5.848   2.119
 6315SOL     OW19843   4.272   3.463   6.963
 6315SOL    HW119844   4.219   3.378   6.969
 6315SOL    HW219845   4.313   3.483   0.026
 6316SOL     OW19846   4.597   1.984   6.192
 6316SOL    HW119847   4.599   2.000   6.094
 6316SOL    HW219848   4.690   1.986   6.229
 6317SOL     OW19849   4.910   6.863   2.634
 6317SOL    HW119850   4.822   6.881   2.678
 6317SOL    HW219851   4.974   6.825   2.700
 6318SOL     OW19852   2.599   2.475   5.641
 6318SOL    HW119853   2.574   2.531   5.562
 6318SOL    HW219854   2.554   2.511   5.723
 6319SOL     OW19855   0.660   3.501   3.785
 6319SOL    HW119856   0.595   3.487   3.710
 6319SOL    HW219857   0.718   3.420   3.795
 6320SOL     OW19858   6.210   3.815   3.186
 6320SOL    HW119859   6.255   3.745   3.242
 6320SOL    HW219860   6.138   3.773   3.132
 6321SOL     OW19861   2.895   5.778   0.728
 6321SOL    HW119862   2.927   5.867   0.759
 6321SOL    HW219863   2.863   5.785   0.634
 6322SOL     OW19864   1.231   1.409   6.974
 6322SOL    HW119865   1.287   1.465   6.913
 6322SOL    HW219866   1.279   1.397   0.035
 6323SOL     OW19867   3.277   2.361   1.696
 6323SOL    HW119868   3.329   2.276   1.707
 6323SOL    HW219869   3.181   2.344   1.719
 6324SOL     OW19870   4.414   0.756   5.595
 6324SOL    HW119871   4.355   0.822   5.547
 6324SOL    HW219872   4.414   0.776   5.693
 6325SOL     OW19873   0.721   3.034   2.253
 6325SOL    HW119874   0.724   2.947   2.303
 6325SOL    HW219875   0.628   3.050   2.220
 6326SOL     OW19876   5.538   5.798   1.596
 6326SOL    HW119877   5.635   5.789   1.572
 6326SOL    HW219878   5.482   5.746   1.531
 6327SOL     OW19879   5.758   6.025   5.245
 6327SOL    HW119880   5.787   5.978   5.328
 6327SOL    HW219881   5.659   6.014   5.233
 6328SOL     OW19882   1.696   4.307   0.146
 6328SOL    HW119883   1.696   4.343   0.053
 6328SOL    HW219884   1.621   4.240   0.156
 6329SOL     OW19885   1.863   1.129   3.738
 6329SOL    HW119886   1.870   1.172   3.648
 6329SOL    HW219887   1.949   1.140   3.787
 6330SOL     OW19888   4.518   0.901   0.282
 6330SOL    HW119889   4.485   0.994   0.297
 6330SOL    HW219890   4.617   0.902   0.271
 6331SOL     OW19891   6.587   2.122   0.858
 6331SOL    HW119892   6.614   2.126   0.955
 6331SOL    HW219893   6.497   2.164   0.848
 6332SOL     OW19894   6.377   5.545   1.661
 6332SOL    HW119895   6.300   5.609   1.666
 6332SOL    HW219896   6.359   5.466   1.719
 6333SOL     OW19897   3.360   5.235   3.876
 6333SOL    HW119898   3.387   5.158   3.818
 6333SOL    HW219899   3.260   5.242   3.877
 6334SOL     OW19900   2.441   6.776   2.500
 6334SOL    HW119901   2.345   6.800   2.490
 6334SOL    HW219902   2.450   6.700   2.563
 6335SOL     OW19903   6.480   1.463   6.792
 6335SOL    HW119904   6.455   1.382   6.738
 6335SOL    HW219905   6.431   1.543   6.757
 6336SOL     OW19906   6.881   2.623   4.767
 6336SOL    HW119907   6.837   2.647   4.680
 6336SOL    HW219908   6.970   2.668   4.772
 6337SOL     OW19909   5.200   3.223   6.214
 6337SOL    HW119910   5.271   3.200   6.280
 6337SOL    HW219911   5.117   3.251   6.263
 6338SOL     OW19912   2.596   1.797   2.313
 6338SOL    HW119913   2.523   1.799   2.382
 6338SOL    HW219914   2.602   1.706   2.273
 6339SOL     OW19915   0.569   2.633   3.416
 6339SOL    HW119916   0.553   2.725   3.381
 6339SOL    HW219917   0.499   2.571   3.382
 6340SOL     OW19918   2.768   5.541   3.876
 6340SOL    HW119919   2.767   5.548   3.976
 6340SOL    HW219920   2.697   5.601   3.838
 6341SOL     OW19921   6.775   5.015   3.684
 6341SOL    HW119922   6.819   5.006   3.773
 6341SOL    HW219923   6.678   5.038   3.696
 6342SOL     OW19924   2.383   2.722   2.487
 6342SOL    HW119925   2.298   2.732   2.540
 6342SOL    HW219926   2.435   2.807   2.490
 6343SOL     OW19927   4.163   2.603   6.910
 6343SOL    HW119928   4.090   2.629   6.846
 6343SOL    HW219929   4.251   2.638   6.876
 6344SOL     OW19930   0.177   3.625   5.410
 6344SOL    HW119931   0.194   3.587   5.319
 6344SOL    HW219932   0.264   3.650   5.452
 6345SOL     OW19933   3.976   1.656   2.385
 6345SOL    HW119934   3.957   1.664   2.483
 6345SOL    HW219935   4.024   1.569   2.368
 6346SOL     OW19936   0.159   3.377   3.662
 6346SOL    HW119937   0.108   3.306   3.614
 6346SOL    HW219938   0.253   3.348   3.675
 6347SOL     OW19939   2.746   0.243   1.017
 6347SOL    HW119940   2.753   0.162   0.958
 6347SOL    HW219941   2.826   0.247   1.077
 6348SOL     OW19942   0.784   3.379   4.751
 6348SOL    HW119943   0.834   3.297   4.779
 6348SOL    HW219944   0.848   3.445   4.712
 6349SOL     OW19945   2.944   0.631   1.755
 6349SOL    HW119946   2.910   0.653   1.663
 6349SOL    HW219947   3.034   0.588   1.747
 6350SOL     OW19948   1.432   5.805   2.692
 6350SOL    HW119949   1.368   5.729   2.683
 6350SOL    HW219950   1.511   5.775   2.746
 6351SOL     OW19951   0.035   2.723   2.409
 6351SOL    HW119952   6.980   2.782   2.411
 6351SOL    HW219953   0.101   2.753   2.478
 6352SOL     OW19954   1.320   5.062   3.450
 6352SOL    HW119955   1.321   4.962   3.452
 6352SOL    HW219956   1.379   5.097   3.523
 6353SOL     OW19957   0.295   0.338   6.572
 6353SOL    HW119958   0.284   0.278   6.651
 6353SOL    HW219959   0.317   0.284   6.492
 6354SOL     OW19960   1.022   6.713   2.222
 6354SOL    HW119961   1.022   6.810   2.246
 6354SOL    HW219962   0.928   6.677   2.229
 6355SOL     OW19963   1.550   3.278   3.535
 6355SOL    HW119964   1.555   3.180   3.553
 6355SOL    HW219965   1.509   3.325   3.613
 6356SOL     OW19966   4.875   4.599   1.240
 6356SOL    HW119967   4.948   4.652   1.283
 6356SOL    HW219968   4.789   4.650   1.247
 6357SOL     OW19969   4.521   2.798   0.706
 6357SOL    HW119970   4.447   2.779   0.642
 6357SOL    HW219971   4.494   2.872   0.767
 6358SOL     OW19972   0.021   2.435   4.012
 6358SOL    HW119973   7.014   2.452   3.919
 6358SOL    HW219974   0.071   2.514   4.045
 6359SOL     OW19975   6.908   0.544   5.343
 6359SOL    HW119976   6.860   0.464   5.378
 6359SOL    HW219977   6.944   0.598   5.420
 6360SOL     OW19978   2.716   4.632   4.146
 6360SOL    HW119979   2.694   4.620   4.243
 6360SOL    HW219980   2.747   4.725   4.130
 6361SOL     OW19981   4.330   5.236   6.484
 6361SOL    HW119982   4.427   5.214   6.482
 6361SOL    HW219983   4.287   5.210   6.398
 6362SOL     OW19984   6.066   4.698   6.951
 6362SOL    HW119985   6.128   4.636   6.999
 6362SOL    HW219986   6.100   4.714   6.858
 6363SOL     OW19987   2.043   6.302   4.462
 6363SOL    HW119988   1.971   6.232   4.463
 6363SOL    HW219989   2.065   6.328   4.556
 6364SOL     OW19990   2.872   2.045   5.471
 6364SOL    HW119991   2.807   2.100   5.523
 6364SOL    HW219992   2.965   2.076   5.492
 6365SOL     OW19993   4.736   6.926   3.328
 6365SOL    HW119994   4.706   6.892   3.239
 6365SOL    HW219995   4.817   6.984   3.315
 6366SOL     OW19996   0.933   5.042   5.422
 6366SOL    HW119997   0.926   4.947   5.454
 6366SOL    HW219998   0.984   5.096   5.489
 6367SOL     OW19999   5.236   0.640   3.399
 6367SOL    HW120000   5.326   0.597   3.395
 6367SOL    HW220001   5.223   0.683   3.488
 6368SOL     OW20002   3.145   0.093   4.185
 6368SOL    HW120003   3.198   0.111   4.268
 6368SOL    HW220004   3.193   0.025   4.129
 6369SOL     OW20005   2.880   5.231   4.556
 6369SOL    HW120006   2.860   5.297   4.628
 6369SOL    HW220007   2.882   5.139   4.595
 6370SOL     OW20008   0.197   2.180   1.950
 6370SOL    HW120009   0.127   2.246   1.922
 6370SOL    HW220010   0.273   2.182   1.886
 6371SOL     OW20011   4.966   2.646   2.890
 6371SOL    HW120012   4.894   2.677   2.827
 6371SOL    HW220013   4.935   2.566   2.940
 6372SOL     OW20014   3.250   6.492   2.142
 6372SOL    HW120015   3.246   6.412   2.083
 6372SOL    HW220016   3.171   6.551   2.123
 6373SOL     OW20017   5.313   4.404   5.427
 6373SOL    HW120018   5.239   4.351   5.468
 6373SOL    HW220019   5.357   4.460   5.497
 6374SOL     OW20020   3.061   3.132   3.409
 6374SOL    HW120021   3.021   3.059   3.464
 6374SOL    HW220022   3.066   3.103   3.313
 6375SOL     OW20023   1.520   0.382   2.959
 6375SOL    HW120024   1.427   0.346   2.958
 6375SOL    HW220025   1.568   0.350   2.877
 6376SOL     OW20026   0.312   1.665   4.508
 6376SOL    HW120027   0.248   1.679   4.584
 6376SOL    HW220028   0.361   1.750   4.490
 6377SOL     OW20029   0.349   1.395   5.036
 6377SOL    HW120030   0.375   1.313   4.984
 6377SOL    HW220031   0.254   1.418   5.015
 6378SOL     OW20032   4.914   4.558   4.074
 6378SOL    HW120033   4.959   4.529   4.159
 6378SOL    HW220034   4.958   4.641   4.040
 6379SOL     OW20035   2.747   4.695   3.791
 6379SOL    HW120036   2.650   4.671   3.781
 6379SOL    HW220037   2.804   4.622   3.753
 6380SOL     OW20038   0.653   1.180   5.750
 6380SOL    HW120039   0.703   1.252   5.702
 6380SOL    HW220040   0.579   1.221   5.803
 6381SOL     OW20041   3.113   3.725   2.624
 6381SOL    HW120042   3.045   3.749   2.555
 6381SOL    HW220043   3.204   3.726   2.583
 6382SOL     OW20044   1.309   2.580   6.061
 6382SOL    HW120045   1.390   2.543   6.015
 6382SOL    HW220046   1.273   2.657   6.009
 6383SOL     OW20047   2.394   2.051   4.080
 6383SOL    HW120048   2.485   2.023   4.051
 6383SOL    HW220049   2.396   2.145   4.113
 6384SOL     OW20050   5.609   5.199   2.389
 6384SOL    HW120051   5.591   5.255   2.470
 6384SOL    HW220052   5.527   5.195   2.332
 6385SOL     OW20053   6.625   5.325   3.968
 6385SOL    HW120054   6.540   5.273   3.953
 6385SOL    HW220055   6.689   5.269   4.021
 6386SOL     OW20056   2.403   5.330   1.007
 6386SOL    HW120057   2.439   5.314   0.915
 6386SOL    HW220058   2.325   5.270   1.024
 6387SOL     OW20059   0.590   2.317   5.974
 6387SOL    HW120060   0.608   2.222   5.949
 6387SOL    HW220061   0.588   2.373   5.891
 6388SOL     OW20062   3.412   4.623   1.620
 6388SOL    HW120063   3.478   4.625   1.694
 6388SOL    HW220064   3.322   4.599   1.656
 6389SOL     OW20065   1.224   5.727   3.271
 6389SOL    HW120066   1.286   5.657   3.308
 6389SOL    HW220067   1.149   5.742   3.336
 6390SOL     OW20068   0.142   2.532   3.272
 6390SOL    HW120069   0.058   2.484   3.300
 6390SOL    HW220070   0.220   2.469   3.277
 6391SOL     OW20071   3.287   1.616   0.469
 6391SOL    HW120072   3.373   1.661   0.493
 6391SOL    HW220073   3.253   1.653   0.382
 6392SOL     OW20074   2.067   6.802   3.909
 6392SOL    HW120075   2.065   6.758   3.819
 6392SOL    HW220076   2.106   6.738   3.976
 6393SOL     OW20077   5.680   6.654   0.699
 6393SOL    HW120078   5.650   6.729   0.757
 6393SOL    HW220079   5.632   6.570   0.725
 6394SOL     OW20080   2.710   5.238   0.783
 6394SOL    HW120081   2.653   5.165   0.821
 6394SOL    HW220082   2.797   5.200   0.753
 6395SOL     OW20083   5.986   1.350   1.154
 6395SOL    HW120084   6.078   1.341   1.116
 6395SOL    HW220085   5.978   1.438   1.201
 6396SOL     OW20086   4.733   2.547   5.781
 6396SOL    HW120087   4.670   2.611   5.825
 6396SOL    HW220088   4.766   2.481   5.848
 6397SOL     OW20089   0.278   2.236   6.758
 6397SOL    HW120090   0.358   2.232   6.818
 6397SOL    HW220091   0.289   2.311   6.692
 6398SOL     OW20092   2.701   0.961   1.746
 6398SOL    HW120093   2.787   0.940   1.793
 6398SOL    HW220094   2.714   1.041   1.688
 6399SOL     OW20095   1.612   5.916   0.149
 6399SOL    HW120096   1.706   5.896   0.175
 6399SOL    HW220097   1.611   5.994   0.086
 6400SOL     OW20098   2.503   5.634   3.822
 6400SOL    HW120099   2.480   5.695   3.746
 6400SOL    HW220100   2.418   5.602   3.865
 6401SOL     OW20101   0.094   4.878   3.511
 6401SOL    HW120102   0.138   4.873   3.601
 6401SOL    HW220103   0.110   4.968   3.471
 6402SOL     OW20104   3.052   0.691   3.065
 6402SOL    HW120105   3.141   0.682   3.020
 6402SOL    HW220106   3.029   0.788   3.072
 6403SOL     OW20107   1.292   4.210   0.070
 6403SOL    HW120108   1.330   4.299   0.097
 6403SOL    HW220109   1.225   4.180   0.139
 6404SOL     OW20110   4.137   1.948   3.370
 6404SOL    HW120111   4.200   1.903   3.305
 6404SOL    HW220112   4.116   2.040   3.337
 6405SOL     OW20113   2.229   1.836   2.541
 6405SOL    HW120114   2.308   1.781   2.567
 6405SOL    HW220115   2.259   1.909   2.480
 6406SOL     OW20116   2.229   1.035   3.800
 6406SOL    HW120117   2.231   1.091   3.717
 6406SOL    HW220118   2.178   1.082   3.871
 6407SOL     OW20119   3.011   6.545   4.950
 6407SOL    HW120120   2.987   6.633   4.990
 6407SOL    HW220121   2.942   6.477   4.975
 6408SOL     OW20122   5.869   1.726   6.676
 6408SOL    HW120123   5.774   1.706   6.650
 6408SOL    HW220124   5.880   1.712   6.774
 6409SOL     OW20125   6.406   3.472   2.988
 6409SOL    HW120126   6.492   3.519   2.966
 6409SOL    HW220127   6.329   3.527   2.956
 6410SOL     OW20128   1.404   1.351   0.400
 6410SOL    HW120129   1.437   1.262   0.432
 6410SOL    HW220130   1.478   1.418   0.403
 6411SOL     OW20131   1.043   1.046   3.525
 6411SOL    HW120132   1.129   1.010   3.491
 6411SOL    HW220133   0.989   1.080   3.448
 6412SOL     OW20134   6.995   2.659   5.390
 6412SOL    HW120135   0.039   2.723   5.425
 6412SOL    HW220136   0.015   2.577   5.354
 6413SOL     OW20137   6.196   5.220   2.026
 6413SOL    HW120138   6.119   5.199   1.965
 6413SOL    HW220139   6.172   5.194   2.119
 6414SOL     OW20140   5.849   0.338   1.020
 6414SOL    HW120141   5.865   0.355   1.117
 6414SOL    HW220142   5.923   0.379   0.967
 6415SOL     OW20143   2.104   2.397   2.131
 6415SOL    HW120144   2.170   2.409   2.057
 6415SOL    HW220145   2.033   2.467   2.126
 6416SOL     OW20146   0.822   6.909   6.807
 6416SOL    HW120147   0.759   6.845   6.852
 6416SOL    HW220148   0.796   6.919   6.711
 6417SOL     OW20149   0.497   6.939   3.434
 6417SOL    HW120150   0.428   6.955   3.505
 6417SOL    HW220151   0.463   6.871   3.369
 6418SOL     OW20152   6.549   5.280   2.577
 6418SOL    HW120153   6.554   5.359   2.638
 6418SOL    HW220154   6.565   5.309   2.483
 6419SOL     OW20155   3.503   5.130   1.850
 6419SOL    HW120156   3.547   5.076   1.921
 6419SOL    HW220157   3.480   5.220   1.886
 6420SOL     OW20158   3.126   3.351   6.320
 6420SOL    HW120159   3.179   3.432   6.343
 6420SOL    HW220160   3.138   3.282   6.392
 6421SOL     OW20161   5.748   0.632   1.333
 6421SOL    HW120162   5.676   0.639   1.264
 6421SOL    HW220163   5.707   0.628   1.424
 6422SOL     OW20164   6.438   0.715   3.022
 6422SOL    HW120165   6.504   0.776   3.066
 6422SOL    HW220166   6.396   0.762   2.944
 6423SOL     OW20167   4.693   3.067   1.406
 6423SOL    HW120168   4.619   3.129   1.379
 6423SOL    HW220169   4.766   3.070   1.338
 6424SOL     OW20170   6.264   3.751   6.475
 6424SOL    HW120171   6.309   3.663   6.487
 6424SOL    HW220172   6.292   3.813   6.548
 6425SOL     OW20173   0.126   4.688   2.878
 6425SOL    HW120174   0.166   4.647   2.795
 6425SOL    HW220175   0.069   4.620   2.924
 6426SOL     OW20176   1.022   2.771   3.657
 6426SOL    HW120177   1.055   2.717   3.580
 6426SOL    HW220178   1.065   2.739   3.741
 6427SOL     OW20179   1.418   3.578   6.152
 6427SOL    HW120180   1.338   3.638   6.146
 6427SOL    HW220181   1.494   3.628   6.193
 6428SOL     OW20182   6.640   3.701   2.216
 6428SOL    HW120183   6.635   3.791   2.259
 6428SOL    HW220184   6.715   3.648   2.258
 6429SOL     OW20185   1.782   0.930   4.671
 6429SOL    HW120186   1.713   0.905   4.603
 6429SOL    HW220187   1.740   0.985   4.743
 6430SOL     OW20188   5.110   1.203   1.758
 6430SOL    HW120189   5.166   1.239   1.832
 6430SOL    HW220190   5.035   1.149   1.797
 6431SOL     OW20191   4.743   6.560   2.975
 6431SOL    HW120192   4.786   6.596   3.057
 6431SOL    HW220193   4.661   6.613   2.954
 6432SOL     OW20194   4.606   3.437   0.939
 6432SOL    HW120195   4.512   3.427   0.970
 6432SOL    HW220196   4.667   3.387   1.002
 6433SOL     OW20197   3.277   4.229   1.053
 6433SOL    HW120198   3.326   4.145   1.076
 6433SOL    HW220199   3.263   4.234   0.954
 6434SOL     OW20200   1.081   4.065   1.299
 6434SOL    HW120201   0.984   4.054   1.320
 6434SOL    HW220202   1.123   3.976   1.283
 6435SOL     OW20203   3.936   4.853   0.107
 6435SOL    HW120204   3.847   4.887   0.078
 6435SOL    HW220205   3.986   4.818   0.028
 6436SOL     OW20206   2.098   3.222   3.477
 6436SOL    HW120207   2.010   3.253   3.514
 6436SOL    HW220208   2.163   3.212   3.552
 6437SOL     OW20209   0.873   0.419   7.006
 6437SOL    HW120210   0.865   0.354   6.930
 6437SOL    HW220211   0.921   0.376   0.057
 6438SOL     OW20212   0.960   4.050   4.812
 6438SOL    HW120213   1.055   4.033   4.787
 6438SOL    HW220214   0.914   3.962   4.828
 6439SOL     OW20215   0.919   6.751   0.527
 6439SOL    HW120216   0.930   6.842   0.487
 6439SOL    HW220217   1.009   6.708   0.538
 6440SOL     OW20218   1.421   2.117   2.102
 6440SOL    HW120219   1.380   2.026   2.092
 6440SOL    HW220220   1.431   2.138   2.199
 6441SOL     OW20221   1.693   1.095   3.279
 6441SOL    HW120222   1.686   1.003   3.241
 6441SOL    HW220223   1.736   1.155   3.212
 6442SOL     OW20224   2.404   1.838   4.479
 6442SOL    HW120225   2.342   1.872   4.409
 6442SOL    HW220226   2.351   1.799   4.555
 6443SOL     OW20227   2.797   2.972   0.496
 6443SOL    HW120228   2.708   2.940   0.528
 6443SOL    HW220229   2.804   3.071   0.508
 6444SOL     OW20230   0.689   1.600   3.020
 6444SOL    HW120231   0.589   1.605   3.014
 6444SOL    HW220232   0.718   1.628   3.112
 6445SOL     OW20233   4.179   2.667   5.410
 6445SOL    HW120234   4.158   2.627   5.321
 6445SOL    HW220235   4.142   2.609   5.483
 6446SOL     OW20236   6.866   1.141   6.176
 6446SOL    HW120237   6.842   1.220   6.120
 6446SOL    HW220238   6.810   1.062   6.149
 6447SOL     OW20239   2.074   6.275   2.795
 6447SOL    HW120240   2.153   6.287   2.855
 6447SOL    HW220241   2.003   6.341   2.819
 6448SOL     OW20242   6.443   2.860   2.666
 6448SOL    HW120243   6.365   2.883   2.724
 6448SOL    HW220244   6.416   2.790   2.600
 6449SOL     OW20245   3.638   3.913   1.626
 6449SOL    HW120246   3.615   3.897   1.530
 6449SOL    HW220247   3.592   3.845   1.684
 6450SOL     OW20248   6.566   3.417   1.500
 6450SOL    HW120249   6.472   3.446   1.479
 6450SOL    HW220250   6.575   3.403   1.598
 6451SOL     OW20251   3.033   6.203   5.270
 6451SOL    HW120252   2.959   6.187   5.204
 6451SOL    HW220253   3.121   6.181   5.229
 6452SOL     OW20254   3.366   6.966   4.815
 6452SOL    HW120255   3.328   6.961   4.722
 6452SOL    HW220256   3.421   6.884   4.833
 6453SOL     OW20257   1.455   6.446   0.420
 6453SOL    HW120258   1.371   6.416   0.375
 6453SOL    HW220259   1.444   6.540   0.451
 6454SOL     OW20260   3.099   2.223   4.480
 6454SOL    HW120261   3.194   2.240   4.504
 6454SOL    HW220262   3.042   2.232   4.561
 6455SOL     OW20263   0.274   2.951   4.773
 6455SOL    HW120264   0.366   2.986   4.788
 6455SOL    HW220265   0.211   2.993   4.839
 6456SOL     OW20266   1.230   0.508   3.457
 6456SOL    HW120267   1.172   0.429   3.439
 6456SOL    HW220268   1.303   0.512   3.389
 6457SOL     OW20269   6.521   2.205   1.693
 6457SOL    HW120270   6.518   2.182   1.595
 6457SOL    HW220271   6.445   2.267   1.714
 6458SOL     OW20272   1.476   5.355   3.138
 6458SOL    HW120273   1.452   5.449   3.117
 6458SOL    HW220274   1.569   5.351   3.174
 6459SOL     OW20275   6.656   4.829   0.039
 6459SOL    HW120276   6.721   4.891   0.084
 6459SOL    HW220277   6.591   4.883   7.011
 6460SOL     OW20278   4.453   4.344   0.012
 6460SOL    HW120279   4.387   4.282   0.054
 6460SOL    HW220280   4.545   4.306   0.022
 6461SOL     OW20281   2.683   5.646   5.652
 6461SOL    HW120282   2.624   5.648   5.732
 6461SOL    HW220283   2.779   5.645   5.681
 6462SOL     OW20284   2.112   3.069   5.385
 6462SOL    HW120285   2.161   3.009   5.323
 6462SOL    HW220286   2.170   3.148   5.407
 6463SOL     OW20287   2.552   5.108   6.663
 6463SOL    HW120288   2.499   5.063   6.591
 6463SOL    HW220289   2.630   5.052   6.688
 6464SOL     OW20290   0.291   5.290   3.474
 6464SOL    HW120291   0.255   5.208   3.519
 6464SOL    HW220292   0.221   5.362   3.477
 6465SOL     OW20293   5.951   2.116   4.134
 6465SOL    HW120294   5.966   2.040   4.197
 6465SOL    HW220295   5.952   2.082   4.040
 6466SOL     OW20296   6.993   2.441   4.956
 6466SOL    HW120297   6.963   2.523   4.907
 6466SOL    HW220298   0.059   2.416   4.925
 6467SOL     OW20299   2.227   1.163   0.113
 6467SOL    HW120300   2.296   1.091   0.114
 6467SOL    HW220301   2.138   1.124   0.139
 6468SOL     OW20302   4.627   6.346   1.499
 6468SOL    HW120303   4.686   6.364   1.421
 6468SOL    HW220304   4.545   6.404   1.493
 6469SOL     OW20305   6.648   1.087   4.918
 6469SOL    HW120306   6.739   1.075   4.959
 6469SOL    HW220307   6.579   1.048   4.979
 6470SOL     OW20308   6.568   6.677   5.635
 6470SOL    HW120309   6.549   6.713   5.544
 6470SOL    HW220310   6.644   6.611   5.630
 6471SOL     OW20311   6.685   5.150   6.411
 6471SOL    HW120312   6.756   5.191   6.353
 6471SOL    HW220313   6.596   5.189   6.386
 6472SOL     OW20314   0.711   5.942   1.823
 6472SOL    HW120315   0.636   5.876   1.820
 6472SOL    HW220316   0.727   5.970   1.918
 6473SOL     OW20317   2.131   1.290   6.188
 6473SOL    HW120318   2.032   1.280   6.195
 6473SOL    HW220319   2.173   1.271   6.277
 6474SOL     OW20320   1.231   3.433   6.361
 6474SOL    HW120321   1.230   3.440   6.262
 6474SOL    HW220322   1.289   3.506   6.399
 6475SOL     OW20323   5.511   6.200   3.535
 6475SOL    HW120324   5.530   6.192   3.632
 6475SOL    HW220325   5.448   6.127   3.507
 6476SOL     OW20326   4.457   4.542   3.214
 6476SOL    HW120327   4.409   4.546   3.127
 6476SOL    HW220328   4.409   4.598   3.282
 6477SOL     OW20329   6.471   5.617   6.586
 6477SOL    HW120330   6.384   5.569   6.593
 6477SOL    HW220331   6.486   5.672   6.668
 6478SOL     OW20332   4.087   5.715   2.367
 6478SOL    HW120333   4.050   5.695   2.458
 6478SOL    HW220334   4.020   5.768   2.315
 6479SOL     OW20335   4.525   4.944   1.810
 6479SOL    HW120336   4.577   4.915   1.730
 6479SOL    HW220337   4.434   4.974   1.783
 6480SOL     OW20338   3.286   2.474   5.998
 6480SOL    HW120339   3.303   2.561   5.952
 6480SOL    HW220340   3.321   2.399   5.941
 6481SOL     OW20341   3.744   1.528   1.661
 6481SOL    HW120342   3.717   1.616   1.700
 6481SOL    HW220343   3.700   1.515   1.572
 6482SOL     OW20344   6.593   6.970   6.651
 6482SOL    HW120345   6.530   6.933   6.720
 6482SOL    HW220346   6.541   7.019   6.581
 6483SOL     OW20347   1.811   6.404   2.646
 6483SOL    HW120348   1.882   6.422   2.577
 6483SOL    HW220349   1.839   6.444   2.733
 6484SOL     OW20350   4.750   0.198   2.368
 6484SOL    HW120351   4.712   0.279   2.413
 6484SOL    HW220352   4.809   0.149   2.432
 6485SOL     OW20353   1.946   3.108   3.990
 6485SOL    HW120354   1.905   3.082   3.903
 6485SOL    HW220355   2.028   3.054   4.006
 6486SOL     OW20356   1.087   3.972   4.242
 6486SOL    HW120357   1.134   3.888   4.271
 6486SOL    HW220358   0.995   3.949   4.210
 6487SOL     OW20359   6.182   6.713   3.995
 6487SOL    HW120360   6.158   6.616   3.995
 6487SOL    HW220361   6.144   6.756   3.913
 6488SOL     OW20362   3.320   5.774   5.864
 6488SOL    HW120363   3.317   5.772   5.764
 6488SOL    HW220364   3.245   5.720   5.901
 6489SOL     OW20365   2.110   2.066   6.364
 6489SOL    HW120366   2.028   2.011   6.373
 6489SOL    HW220367   2.107   2.143   6.427
 6490SOL     OW20368   3.835   2.916   0.507
 6490SOL    HW120369   3.798   2.994   0.457
 6490SOL    HW220370   3.908   2.874   0.454
 6491SOL     OW20371   4.806   1.218   6.351
 6491SOL    HW120372   4.772   1.187   6.262
 6491SOL    HW220373   4.905   1.231   6.347
 6492SOL     OW20374   6.320   6.501   0.199
 6492SOL    HW120375   6.380   6.562   0.148
 6492SOL    HW220376   6.332   6.516   0.297
 6493SOL     OW20377   2.187   6.462   6.239
 6493SOL    HW120378   2.205   6.511   6.324
 6493SOL    HW220379   2.088   6.456   6.224
 6494SOL     OW20380   1.083   0.096   3.917
 6494SOL    HW120381   1.130   0.180   3.943
 6494SOL    HW220382   1.057   0.101   3.820
 6495SOL     OW20383   5.024   5.689   3.005
 6495SOL    HW120384   4.942   5.678   3.062
 6495SOL    HW220385   5.019   5.626   2.927
 6496SOL     OW20386   0.313   6.176   1.567
 6496SOL    HW120387   0.265   6.264   1.566
 6496SOL    HW220388   0.409   6.190   1.542
 6497SOL     OW20389   2.392   3.687   1.039
 6497SOL    HW120390   2.323   3.632   0.993
 6497SOL    HW220391   2.404   3.655   1.133
 6498SOL     OW20392   1.727   4.273   4.326
 6498SOL    HW120393   1.750   4.359   4.280
 6498SOL    HW220394   1.801   4.249   4.390
 6499SOL     OW20395   4.736   1.028   4.859
 6499SOL    HW120396   4.679   1.017   4.778
 6499SOL    HW220397   4.810   0.961   4.857
 6500SOL     OW20398   6.088   4.142   3.516
 6500SOL    HW120399   6.104   4.240   3.502
 6500SOL    HW220400   6.115   4.117   3.608
 6501SOL     OW20401   5.866   4.074   1.105
 6501SOL    HW120402   5.925   4.090   1.185
 6501SOL    HW220403   5.786   4.133   1.110
 6502SOL     OW20404   0.769   4.503   4.103
 6502SOL    HW120405   0.814   4.538   4.021
 6502SOL    HW220406   0.815   4.420   4.134
 6503SOL     OW20407   5.862   6.294   3.313
 6503SOL    HW120408   5.890   6.258   3.224
 6503SOL    HW220409   5.782   6.353   3.302
 6504SOL     OW20410   4.411   0.772   6.841
 6504SOL    HW120411   4.461   0.691   6.810
 6504SOL    HW220412   4.411   0.776   6.940
 6505SOL     OW20413   5.774   4.593   0.578
 6505SOL    HW120414   5.818   4.678   0.607
 6505SOL    HW220415   5.724   4.553   0.655
 6506SOL     OW20416   1.117   2.905   0.929
 6506SOL    HW120417   1.178   2.976   0.962
 6506SOL    HW220418   1.023   2.924   0.959
 6507SOL     OW20419   1.867   5.961   1.544
 6507SOL    HW120420   1.924   5.900   1.599
 6507SOL    HW220421   1.917   5.988   1.461
 6508SOL     OW20422   2.367   2.204   3.645
 6508SOL    HW120423   2.410   2.178   3.559
 6508SOL    HW220424   2.269   2.186   3.641
 6509SOL     OW20425   1.893   2.373   4.668
 6509SOL    HW120426   1.795   2.384   4.686
 6509SOL    HW220427   1.928   2.455   4.623
 6510SOL     OW20428   6.787   5.090   6.684
 6510SOL    HW120429   6.764   5.126   6.594
 6510SOL    HW220430   6.820   5.165   6.742
 6511SOL     OW20431   6.512   0.016   5.526
 6511SOL    HW120432   6.586   0.053   5.582
 6511SOL    HW220433   6.461   0.091   5.484
 6512SOL     OW20434   4.653   6.921   2.733
 6512SOL    HW120435   4.679   7.016   2.715
 6512SOL    HW220436   4.569   6.900   2.683
 6513SOL     OW20437   3.540   6.937   4.009
 6513SOL    HW120438   3.529   7.025   3.963
 6513SOL    HW220439   3.637   6.915   4.017
 6514SOL     OW20440   4.799   0.642   4.473
 6514SOL    HW120441   4.838   0.567   4.419
 6514SOL    HW220442   4.798   0.725   4.418
 6515SOL     OW20443   6.973   5.718   4.152
 6515SOL    HW120444   6.888   5.699   4.201
 6515SOL    HW220445   6.962   5.801   4.097
 6516SOL     OW20446   1.166   1.972   6.173
 6516SOL    HW120447   1.212   1.916   6.104
 6516SOL    HW220448   1.143   1.915   6.252
 6517SOL     OW20449   0.536   1.720   0.208
 6517SOL    HW120450   0.466   1.722   0.279
 6517SOL    HW220451   0.601   1.645   0.226
 6518SOL     OW20452   0.773   6.406   1.064
 6518SOL    HW120453   0.813   6.317   1.044
 6518SOL    HW220454   0.711   6.433   0.990
 6519SOL     OW20455   2.219   1.312   4.132
 6519SOL    HW120456   2.281   1.383   4.098
 6519SOL    HW220457   2.272   1.242   4.179
 6520SOL     OW20458   6.375   5.586   2.114
 6520SOL    HW120459   6.356   5.578   2.211
 6520SOL    HW220460   6.470   5.561   2.097
 6521SOL     OW20461   1.256   1.690   4.703
 6521SOL    HW120462   1.343   1.684   4.654
 6521SOL    HW220463   1.183   1.718   4.640
 6522SOL     OW20464   2.490   5.936   6.746
 6522SOL    HW120465   2.461   5.878   6.821
 6522SOL    HW220466   2.431   6.017   6.742
 6523SOL     OW20467   2.117   1.507   6.844
 6523SOL    HW120468   2.182   1.477   6.914
 6523SOL    HW220469   2.032   1.537   6.889
 6524SOL     OW20470   3.930   3.973   3.790
 6524SOL    HW120471   4.029   3.992   3.785
 6524SOL    HW220472   3.905   3.955   3.885
 6525SOL     OW20473   0.650   2.616   3.045
 6525SOL    HW120474   0.644   2.516   3.039
 6525SOL    HW220475   0.558   2.655   3.042
 6526SOL     OW20476   1.139   6.115   4.953
 6526SOL    HW120477   1.164   6.204   4.914
 6526SOL    HW220478   1.045   6.119   4.987
 6527SOL     OW20479   1.239   6.950   4.869
 6527SOL    HW120480   1.221   6.857   4.838
 6527SOL    HW220481   1.337   6.963   4.882
 6528SOL     OW20482   0.712   0.910   4.341
 6528SOL    HW120483   0.726   0.823   4.389
 6528SOL    HW220484   0.636   0.901   4.277
 6529SOL     OW20485   5.903   1.723   2.215
 6529SOL    HW120486   5.811   1.691   2.194
 6529SOL    HW220487   5.898   1.805   2.271
 6530SOL     OW20488   6.830   2.495   0.102
 6530SOL    HW120489   6.895   2.569   0.121
 6530SOL    HW220490   6.759   2.495   0.173
 6531SOL     OW20491   5.608   2.338   3.974
 6531SOL    HW120492   5.557   2.413   4.018
 6531SOL    HW220493   5.611   2.354   3.876
 6532SOL     OW20494   6.278   1.604   6.437
 6532SOL    HW120495   6.311   1.514   6.466
 6532SOL    HW220496   6.236   1.650   6.514
 6533SOL     OW20497   4.973   6.433   0.696
 6533SOL    HW120498   4.955   6.479   0.609
 6533SOL    HW220499   4.995   6.337   0.680
 6534SOL     OW20500   2.139   3.574   1.427
 6534SOL    HW120501   2.175   3.490   1.466
 6534SOL    HW220502   2.201   3.650   1.447
 6535SOL     OW20503   0.559   3.550   4.835
 6535SOL    HW120504   0.580   3.567   4.931
 6535SOL    HW220505   0.616   3.475   4.801
 6536SOL     OW20506   5.851   1.864   0.185
 6536SOL    HW120507   5.758   1.901   0.184
 6536SOL    HW220508   5.876   1.833   0.093
 6537SOL     OW20509   6.949   0.127   6.847
 6537SOL    HW120510   0.007   0.072   6.846
 6537SOL    HW220511   6.923   0.150   6.754
 6538SOL     OW20512   3.478   3.833   0.239
 6538SOL    HW120513   3.559   3.851   0.294
 6538SOL    HW220514   3.397   3.867   0.287
 6539SOL     OW20515   2.000   1.668   6.634
 6539SOL    HW120516   2.033   1.584   6.678
 6539SOL    HW220517   2.070   1.702   6.573
 6540SOL     OW20518   3.677   1.086   4.262
 6540SOL    HW120519   3.637   1.060   4.350
 6540SOL    HW220520   3.621   1.050   4.187
 6541SOL     OW20521   3.225   2.487   5.660
 6541SOL    HW120522   3.270   2.412   5.709
 6541SOL    HW220523   3.126   2.473   5.662
 6542SOL     OW20524   6.109   4.723   3.663
 6542SOL    HW120525   6.111   4.648   3.597
 6542SOL    HW220526   6.093   4.686   3.755
 6543SOL     OW20527   6.299   5.962   6.950
 6543SOL    HW120528   6.280   6.060   6.945
 6543SOL    HW220529   6.230   5.917   7.006
 6544SOL     OW20530   6.789   6.161   3.835
 6544SOL    HW120531   6.757   6.211   3.754
 6544SOL    HW220532   6.763   6.065   3.826
 6545SOL     OW20533   5.265   1.376   5.508
 6545SOL    HW120534   5.332   1.444   5.476
 6545SOL    HW220535   5.178   1.422   5.528
 6546SOL     OW20536   3.423   5.173   6.332
 6546SOL    HW120537   3.433   5.116   6.250
 6546SOL    HW220538   3.446   5.119   6.413
 6547SOL     OW20539   5.136   2.667   6.336
 6547SOL    HW120540   5.167   2.689   6.244
 6547SOL    HW220541   5.083   2.743   6.373
 6548SOL     OW20542   6.384   4.557   6.046
 6548SOL    HW120543   6.333   4.598   6.122
 6548SOL    HW220544   6.325   4.550   5.965
 6549SOL     OW20545   3.973   2.047   0.751
 6549SOL    HW120546   3.965   1.970   0.814
 6549SOL    HW220547   4.039   2.026   0.680
 6550SOL     OW20548   1.010   5.966   3.419
 6550SOL    HW120549   1.080   6.038   3.420
 6550SOL    HW220550   0.922   6.006   3.393
 6551SOL     OW20551   1.757   4.994   1.831
 6551SOL    HW120552   1.846   5.036   1.811
 6551SOL    HW220553   1.685   5.062   1.819
 6552SOL     OW20554   2.333   5.043   5.928
 6552SOL    HW120555   2.269   5.109   5.967
 6552SOL    HW220556   2.400   5.017   5.998
 6553SOL     OW20557   0.330   3.260   1.765
 6553SOL    HW120558   0.257   3.261   1.834
 6553SOL    HW220559   0.391   3.337   1.781
 6554SOL     OW20560   6.613   2.132   6.125
 6554SOL    HW120561   6.694   2.143   6.067
 6554SOL    HW220562   6.588   2.221   6.164
 6555SOL     OW20563   1.808   1.182   2.356
 6555SOL    HW120564   1.846   1.140   2.274
 6555SOL    HW220565   1.755   1.263   2.331
 6556SOL     OW20566   4.480   4.968   4.828
 6556SOL    HW120567   4.435   5.041   4.777
 6556SOL    HW220568   4.579   4.973   4.814
 6557SOL     OW20569   6.024   5.358   0.533
 6557SOL    HW120570   6.026   5.259   0.525
 6557SOL    HW220571   5.955   5.385   0.600
 6558SOL     OW20572   6.160   6.199   0.520
 6558SOL    HW120573   6.069   6.223   0.555
 6558SOL    HW220574   6.151   6.137   0.443
 6559SOL     OW20575   5.426   3.647   1.388
 6559SOL    HW120576   5.480   3.580   1.338
 6559SOL    HW220577   5.335   3.610   1.407
 6560SOL     OW20578   3.584   3.013   1.028
 6560SOL    HW120579   3.543   2.935   1.075
 6560SOL    HW220580   3.588   2.994   0.930
 6561SOL     OW20581   3.895   3.982   2.727
 6561SOL    HW120582   3.867   3.990   2.823
 6561SOL    HW220583   3.968   3.914   2.719
 6562SOL     OW20584   6.331   4.944   6.039
 6562SOL    HW120585   6.259   4.885   6.002
 6562SOL    HW220586   6.405   4.887   6.075
 6563SOL     OW20587   0.485   6.136   0.135
 6563SOL    HW120588   0.432   6.127   0.219
 6563SOL    HW220589   0.580   6.109   0.153
 6564SOL     OW20590   0.939   3.554   2.022
 6564SOL    HW120591   0.916   3.567   2.119
 6564SOL    HW220592   1.012   3.616   1.996
 6565SOL     OW20593   6.522   2.767   4.680
 6565SOL    HW120594   6.498   2.842   4.618
 6565SOL    HW220595   6.484   2.681   4.645
 6566SOL     OW20596   3.324   6.569   0.996
 6566SOL    HW120597   3.307   6.633   0.922
 6566SOL    HW220598   3.376   6.615   1.068
 6567SOL     OW20599   5.023   2.677   0.608
 6567SOL    HW120600   5.023   2.578   0.623
 6567SOL    HW220601   5.017   2.725   0.696
 6568SOL     OW20602   4.332   4.593   1.661
 6568SOL    HW120603   4.379   4.606   1.749
 6568SOL    HW220604   4.270   4.515   1.668
 6569SOL     OW20605   2.088   4.921   0.766
 6569SOL    HW120606   2.182   4.888   0.762
 6569SOL    HW220607   2.031   4.852   0.812
 6570SOL     OW20608   5.365   0.974   1.864
 6570SOL    HW120609   5.290   1.039   1.881
 6570SOL    HW220610   5.450   1.012   1.900
 6571SOL     OW20611   2.203   5.923   3.706
 6571SOL    HW120612   2.297   5.908   3.676
 6571SOL    HW220613   2.183   5.865   3.784
 6572SOL     OW20614   6.740   3.904   5.465
 6572SOL    HW120615   6.753   3.952   5.552
 6572SOL    HW220616   6.688   3.820   5.480
 6573SOL     OW20617   3.218   0.792   2.185
 6573SOL    HW120618   3.279   0.865   2.154
 6573SOL    HW220619   3.272   0.720   2.228
 6574SOL     OW20620   2.659   5.362   2.229
 6574SOL    HW120621   2.586   5.335   2.293
 6574SOL    HW220622   2.640   5.321   2.139
 6575SOL     OW20623   0.878   1.428   1.814
 6575SOL    HW120624   0.929   1.342   1.819
 6575SOL    HW220625   0.780   1.408   1.804
 6576SOL     OW20626   1.223   5.820   6.552
 6576SOL    HW120627   1.203   5.908   6.594
 6576SOL    HW220628   1.143   5.787   6.503
 6577SOL     OW20629   1.357   1.721   3.800
 6577SOL    HW120630   1.449   1.735   3.836
 6577SOL    HW220631   1.341   1.623   3.788
 6578SOL     OW20632   5.983   5.413   3.661
 6578SOL    HW120633   5.913   5.444   3.597
 6578SOL    HW220634   6.042   5.490   3.687
 6579SOL     OW20635   6.811   4.542   3.378
 6579SOL    HW120636   6.866   4.458   3.382
 6579SOL    HW220637   6.865   4.618   3.416
 6580SOL     OW20638   5.497   0.438   1.248
 6580SOL    HW120639   5.400   0.418   1.233
 6580SOL    HW220640   5.522   0.520   1.197
 6581SOL     OW20641   4.456   2.379   6.437
 6581SOL    HW120642   4.490   2.420   6.522
 6581SOL    HW220643   4.512   2.299   6.415
 6582SOL     OW20644   0.231   6.736   3.036
 6582SOL    HW120645   0.157   6.770   3.093
 6582SOL    HW220646   0.258   6.806   2.970
 6583SOL     OW20647   5.502   1.376   5.927
 6583SOL    HW120648   5.425   1.335   5.880
 6583SOL    HW220649   5.577   1.391   5.862
 6584SOL     OW20650   6.144   1.708   6.645
 6584SOL    HW120651   6.167   1.742   6.737
 6584SOL    HW220652   6.045   1.717   6.631
 6585SOL     OW20653   0.281   1.746   6.759
 6585SOL    HW120654   0.314   1.729   6.852
 6585SOL    HW220655   0.351   1.718   6.694
 6586SOL     OW20656   6.805   1.614   5.915
 6586SOL    HW120657   6.869   1.646   5.985
 6586SOL    HW220658   6.711   1.624   5.949
 6587SOL     OW20659   1.716   5.897   4.029
 6587SOL    HW120660   1.747   5.893   3.934
 6587SOL    HW220661   1.712   5.993   4.059
 6588SOL     OW20662   1.517   3.035   0.317
 6588SOL    HW120663   1.440   3.098   0.311
 6588SOL    HW220664   1.575   3.044   0.237
 6589SOL     OW20665   4.711   1.491   5.919
 6589SOL    HW120666   4.744   1.405   5.958
 6589SOL    HW220667   4.637   1.527   5.974
 6590SOL     OW20668   0.006   1.597   4.616
 6590SOL    HW120669   6.964   1.670   4.605
 6590SOL    HW220670   6.990   1.509   4.591
 6591SOL     OW20671   5.650   6.537   2.682
 6591SOL    HW120672   5.563   6.492   2.663
 6591SOL    HW220673   5.702   6.482   2.747
 6592SOL     OW20674   4.626   0.177   4.527
 6592SOL    HW120675   4.628   0.224   4.616
 6592SOL    HW220676   4.581   0.089   4.537
 6593SOL     OW20677   3.325   2.144   3.980
 6593SOL    HW120678   3.279   2.130   4.068
 6593SOL    HW220679   3.423   2.127   3.991
 6594SOL     OW20680   5.079   0.882   6.411
 6594SOL    HW120681   5.108   0.835   6.494
 6594SOL    HW220682   5.003   0.833   6.370
 6595SOL     OW20683   1.385   3.299   0.779
 6595SOL    HW120684   1.422   3.300   0.686
 6595SOL    HW220685   1.410   3.385   0.825
 6596SOL     OW20686   4.664   0.260   5.366
 6596SOL    HW120687   4.763   0.275   5.358
 6596SOL    HW220688   4.646   0.161   5.369
 6597SOL     OW20689   6.591   6.422   4.306
 6597SOL    HW120690   6.648   6.441   4.386
 6597SOL    HW220691   6.649   6.385   4.233
 6598SOL     OW20692   1.504   5.659   5.032
 6598SOL    HW120693   1.568   5.658   4.955
 6598SOL    HW220694   1.414   5.628   5.000
 6599SOL     OW20695   3.973   5.204   6.266
 6599SOL    HW120696   3.917   5.285   6.250
 6599SOL    HW220697   3.920   5.122   6.245
 6600SOL     OW20698   4.576   5.725   4.469
 6600SOL    HW120699   4.591   5.713   4.371
 6600SOL    HW220700   4.625   5.806   4.501
 6601SOL     OW20701   0.405   1.319   0.515
 6601SOL    HW120702   0.467   1.241   0.523
 6601SOL    HW220703   0.313   1.286   0.491
 6602SOL     OW20704   0.528   2.220   1.358
 6602SOL    HW120705   0.625   2.220   1.335
 6602SOL    HW220706   0.507   2.140   1.415
 6603SOL     OW20707   1.746   3.410   3.096
 6603SOL    HW120708   1.806   3.434   3.173
 6603SOL    HW220709   1.688   3.488   3.074
 6604SOL     OW20710   2.794   5.755   2.351
 6604SOL    HW120711   2.776   5.659   2.376
 6604SOL    HW220712   2.725   5.786   2.286
 6605SOL     OW20713   5.214   5.710   0.259
 6605SOL    HW120714   5.278   5.636   0.280
 6605SOL    HW220715   5.225   5.784   0.325
 6606SOL     OW20716   5.027   0.658   2.395
 6606SOL    HW120717   5.121   0.626   2.408
 6606SOL    HW220718   5.014   0.746   2.441
 6607SOL     OW20719   1.645   1.386   2.302
 6607SOL    HW120720   1.685   1.476   2.318
 6607SOL    HW220721   1.619   1.378   2.206
 6608SOL     OW20722   5.304   3.490   3.703
 6608SOL    HW120723   5.263   3.547   3.774
 6608SOL    HW220724   5.329   3.401   3.743
 6609SOL     OW20725   5.744   1.469   6.892
 6609SOL    HW120726   5.655   1.482   6.936
 6609SOL    HW220727   5.741   1.388   6.834
 6610SOL     OW20728   2.023   0.420   0.607
 6610SOL    HW120729   2.010   0.327   0.571
 6610SOL    HW220730   1.952   0.480   0.569
 6611SOL     OW20731   6.353   2.349   3.272
 6611SOL    HW120732   6.301   2.420   3.226
 6611SOL    HW220733   6.333   2.260   3.232
 6612SOL     OW20734   1.629   6.136   7.024
 6612SOL    HW120735   1.559   6.110   6.958
 6612SOL    HW220736   1.697   6.194   6.979
 6613SOL     OW20737   5.171   5.630   3.263
 6613SOL    HW120738   5.123   5.651   3.178
 6613SOL    HW220739   5.243   5.563   3.245
 6614SOL     OW20740   5.379   5.341   6.143
 6614SOL    HW120741   5.445   5.276   6.104
 6614SOL    HW220742   5.290   5.297   6.148
 6615SOL     OW20743   0.470   3.498   5.539
 6615SOL    HW120744   0.379   3.496   5.580
 6615SOL    HW220745   0.472   3.436   5.460
 6616SOL     OW20746   4.939   1.578   5.261
 6616SOL    HW120747   4.855   1.526   5.282
 6616SOL    HW220748   4.916   1.655   5.202
 6617SOL     OW20749   2.661   6.756   4.418
 6617SOL    HW120750   2.756   6.780   4.442
 6617SOL    HW220751   2.599   6.796   4.485
 6618SOL     OW20752   0.964   4.255   2.282
 6618SOL    HW120753   0.906   4.200   2.222
 6618SOL    HW220754   0.934   4.350   2.278
 6619SOL     OW20755   4.366   6.848   3.493
 6619SOL    HW120756   4.288   6.885   3.442
 6619SOL    HW220757   4.420   6.923   3.530
 6620SOL     OW20758   1.509   2.920   6.096
 6620SOL    HW120759   1.565   2.994   6.133
 6620SOL    HW220760   1.479   2.860   6.170
 6621SOL     OW20761   3.009   3.971   0.607
 6621SOL    HW120762   2.998   3.871   0.607
 6621SOL    HW220763   2.990   4.006   0.515
 6622SOL     OW20764   6.528   6.481   0.691
 6622SOL    HW120765   6.596   6.460   0.621
 6622SOL    HW220766   6.436   6.479   0.651
 6623SOL     OW20767   3.835   2.919   2.878
 6623SOL    HW120768   3.878   3.007   2.898
 6623SOL    HW220769   3.905   2.852   2.854
 6624SOL     OW20770   3.814   5.612   5.093
 6624SOL    HW120771   3.858   5.696   5.061
 6624SOL    HW220772   3.738   5.589   5.033
 6625SOL     OW20773   6.421   0.994   6.597
 6625SOL    HW120774   6.341   1.024   6.545
 6625SOL    HW220775   6.498   0.980   6.535
 6626SOL     OW20776   3.135   5.542   3.245
 6626SOL    HW120777   3.231   5.515   3.251
 6626SOL    HW220778   3.109   5.550   3.149
 6627SOL     OW20779   1.823   0.797   5.930
 6627SOL    HW120780   1.868   0.823   6.016
 6627SOL    HW220781   1.730   0.766   5.950
 6628SOL     OW20782   4.441   4.581   2.620
 6628SOL    HW120783   4.472   4.543   2.533
 6628SOL    HW220784   4.342   4.598   2.616
 6629SOL     OW20785   3.181   5.690   1.363
 6629SOL    HW120786   3.192   5.590   1.367
 6629SOL    HW220787   3.232   5.731   1.439
 6630SOL     OW20788   3.190   1.622   0.198
 6630SOL    HW120789   3.183   1.571   0.113
 6630SOL    HW220790   3.099   1.649   0.229
 6631SOL     OW20791   5.407   0.378   2.249
 6631SOL    HW120792   5.348   0.398   2.171
 6631SOL    HW220793   5.460   0.295   2.230
 6632SOL     OW20794   6.895   1.301   0.434
 6632SOL    HW120795   6.930   1.332   0.345
 6632SOL    HW220796   6.856   1.378   0.484
 6633SOL     OW20797   1.551   6.208   0.254
 6633SOL    HW120798   1.585   6.181   0.164
 6633SOL    HW220799   1.614   6.274   0.295
 6634SOL     OW20800   6.556   3.044   5.695
 6634SOL    HW120801   6.623   3.048   5.769
 6634SOL    HW220802   6.468   3.077   5.728
 6635SOL     OW20803   4.835   5.606   3.256
 6635SOL    HW120804   4.814   5.513   3.285
 6635SOL    HW220805   4.877   5.656   3.333
 6636SOL     OW20806   1.352   2.853   4.659
 6636SOL    HW120807   1.393   2.943   4.644
 6636SOL    HW220808   1.303   2.853   4.746
 6637SOL     OW20809   0.885   0.636   0.682
 6637SOL    HW120810   0.859   0.702   0.752
 6637SOL    HW220811   0.961   0.672   0.628
 6638SOL     OW20812   1.703   5.583   5.727
 6638SOL    HW120813   1.735   5.515   5.793
 6638SOL    HW220814   1.663   5.537   5.648
 6639SOL     OW20815   5.799   4.429   6.431
 6639SOL    HW120816   5.886   4.438   6.381
 6639SOL    HW220817   5.789   4.335   6.462
 6640SOL     OW20818   0.122   2.006   3.410
 6640SOL    HW120819   0.113   2.016   3.509
 6640SOL    HW220820   0.166   2.087   3.372
 6641SOL     OW20821   3.138   4.095   6.393
 6641SOL    HW120822   3.052   4.049   6.372
 6641SOL    HW220823   3.147   4.105   6.492
 6642SOL     OW20824   1.672   4.936   6.600
 6642SOL    HW120825   1.611   5.008   6.567
 6642SOL    HW220826   1.670   4.859   6.536
 6643SOL     OW20827   5.935   4.034   6.176
 6643SOL    HW120828   5.926   3.936   6.159
 6643SOL    HW220829   5.859   4.083   6.133
 6644SOL     OW20830   3.002   4.814   1.975
 6644SOL    HW120831   3.088   4.779   1.938
 6644SOL    HW220832   2.937   4.738   1.985
 6645SOL     OW20833   6.731   4.675   6.443
 6645SOL    HW120834   6.706   4.659   6.348
 6645SOL    HW220835   6.805   4.612   6.469
 6646SOL     OW20836   3.436   5.491   4.654
 6646SOL    HW120837   3.394   5.401   4.654
 6646SOL    HW220838   3.373   5.558   4.694
 6647SOL     OW20839   3.656   0.502   1.798
 6647SOL    HW120840   3.753   0.523   1.809
 6647SOL    HW220841   3.633   0.501   1.701
 6648SOL     OW20842   4.293   5.755   2.684
 6648SOL    HW120843   4.328   5.768   2.592
 6648SOL    HW220844   4.357   5.794   2.750
 6649SOL     OW20845   5.045   1.887   6.617
 6649SOL    HW120846   4.954   1.845   6.610
 6649SOL    HW220847   5.068   1.930   6.529
 6650SOL     OW20848   4.105   1.092   3.712
 6650SOL    HW120849   4.118   1.108   3.810
 6650SOL    HW220850   4.028   1.030   3.698
 6651SOL     OW20851   1.138   2.215   6.990
 6651SOL    HW120852   1.064   2.170   6.941
 6651SOL    HW220853   1.222   2.210   6.936
 6652SOL     OW20854   6.874   5.398   1.585
 6652SOL    HW120855   6.835   5.324   1.638
 6652SOL    HW220856   6.970   5.410   1.609
 6653SOL     OW20857   2.960   3.828   2.830
 6653SOL    HW120858   3.042   3.815   2.774
 6653SOL    HW220859   2.881   3.843   2.770
 6654SOL     OW20860   2.153   3.258   1.509
 6654SOL    HW120861   2.170   3.285   1.414
 6654SOL    HW220862   2.239   3.227   1.551
 6655SOL     OW20863   3.035   6.889   1.964
 6655SOL    HW120864   2.987   6.909   1.878
 6655SOL    HW220865   3.105   6.959   1.981
 6656SOL     OW20866   6.893   1.306   1.237
 6656SOL    HW120867   6.926   1.384   1.183
 6656SOL    HW220868   6.903   1.222   1.183
 6657SOL     OW20869   3.888   6.869   6.104
 6657SOL    HW120870   3.968   6.849   6.048
 6657SOL    HW220871   3.916   6.923   6.183
 6658SOL     OW20872   5.865   1.268   5.144
 6658SOL    HW120873   5.955   1.227   5.132
 6658SOL    HW220874   5.815   1.264   5.057
 6659SOL     OW20875   2.901   3.437   0.197
 6659SOL    HW120876   2.888   3.485   0.110
 6659SOL    HW220877   2.893   3.339   0.182
 6660SOL     OW20878   6.798   6.994   2.225
 6660SOL    HW120879   6.731   6.934   2.181
 6660SOL    HW220880   6.765   7.020   2.316
 6661SOL     OW20881   6.451   5.368   3.589
 6661SOL    HW120882   6.442   5.274   3.620
 6661SOL    HW220883   6.548   5.395   3.591
 6662SOL     OW20884   2.244   0.767   0.480
 6662SOL    HW120885   2.238   0.839   0.549
 6662SOL    HW220886   2.198   0.796   0.396
 6663SOL     OW20887   0.169   5.470   2.095
 6663SOL    HW120888   0.229   5.437   2.022
 6663SOL    HW220889   0.224   5.496   2.174
 6664SOL     OW20890   1.164   0.345   2.398
 6664SOL    HW120891   1.143   0.266   2.340
 6664SOL    HW220892   1.078   0.392   2.421
 6665SOL     OW20893   1.696   6.097   2.980
 6665SOL    HW120894   1.686   6.032   2.905
 6665SOL    HW220895   1.735   6.051   3.060
 6666SOL     OW20896   6.582   1.780   5.150
 6666SOL    HW120897   6.587   1.786   5.250
 6666SOL    HW220898   6.487   1.771   5.122
 6667SOL     OW20899   6.203   5.461   4.551
 6667SOL    HW120900   6.242   5.545   4.589
 6667SOL    HW220901   6.184   5.397   4.625
 6668SOL     OW20902   0.632   4.826   2.250
 6668SOL    HW120903   0.589   4.915   2.269
 6668SOL    HW220904   0.692   4.835   2.170
 6669SOL     OW20905   2.547   5.074   3.912
 6669SOL    HW120906   2.546   5.126   3.997
 6669SOL    HW220907   2.454   5.043   3.891
 6670SOL     OW20908   3.509   4.932   6.899
 6670SOL    HW120909   3.551   4.937   6.990
 6670SOL    HW220910   3.578   4.952   6.830
 6671SOL     OW20911   6.416   4.227   6.409
 6671SOL    HW120912   6.401   4.294   6.483
 6671SOL    HW220913   6.357   4.250   6.332
 6672SOL     OW20914   1.248   0.811   5.571
 6672SOL    HW120915   1.261   0.854   5.482
 6672SOL    HW220916   1.171   0.852   5.617
 6673SOL     OW20917   4.874   5.099   2.436
 6673SOL    HW120918   4.923   5.122   2.519
 6673SOL    HW220919   4.905   5.010   2.403
 6674SOL     OW20920   0.960   6.159   5.263
 6674SOL    HW120921   1.059   6.148   5.253
 6674SOL    HW220922   0.916   6.151   5.173
 6675SOL     OW20923   5.621   4.227   0.036
 6675SOL    HW120924   5.602   4.164   0.111
 6675SOL    HW220925   5.535   4.267   0.003
 6676SOL     OW20926   1.071   3.218   5.431
 6676SOL    HW120927   1.072   3.209   5.531
 6676SOL    HW220928   1.165   3.209   5.396
 6677SOL     OW20929   0.707   3.742   0.661
 6677SOL    HW120930   0.628   3.760   0.602
 6677SOL    HW220931   0.744   3.829   0.695
 6678SOL     OW20932   1.187   2.650   6.291
 6678SOL    HW120933   1.096   2.672   6.255
 6678SOL    HW220934   1.236   2.592   6.226
 6679SOL     OW20935   1.380   2.671   5.605
 6679SOL    HW120936   1.421   2.580   5.599
 6679SOL    HW220937   1.337   2.694   5.518
 6680SOL     OW20938   4.298   6.564   6.141
 6680SOL    HW120939   4.233   6.506   6.190
 6680SOL    HW220940   4.391   6.542   6.169
 6681SOL     OW20941   5.102   5.092   0.185
 6681SOL    HW120942   5.132   5.163   0.121
 6681SOL    HW220943   5.167   5.086   0.261
 6682SOL     OW20944   0.404   5.447   2.613
 6682SOL    HW120945   0.469   5.520   2.590
 6682SOL    HW220946   0.422   5.414   2.705
 6683SOL     OW20947   4.830   1.808   5.115
 6683SOL    HW120948   4.899   1.880   5.115
 6683SOL    HW220949   4.778   1.812   5.201
 6684SOL     OW20950   1.597   6.585   2.493
 6684SOL    HW120951   1.514   6.641   2.493
 6684SOL    HW220952   1.602   6.532   2.577
 6685SOL     OW20953   5.425   2.829   6.279
 6685SOL    HW120954   5.352   2.875   6.230
 6685SOL    HW220955   5.387   2.783   6.360
 6686SOL     OW20956   6.260   3.881   4.124
 6686SOL    HW120957   6.216   3.842   4.204
 6686SOL    HW220958   6.307   3.965   4.149
 6687SOL     OW20959   1.004   1.665   0.786
 6687SOL    HW120960   1.031   1.643   0.880
 6687SOL    HW220961   1.085   1.666   0.727
 6688SOL     OW20962   0.658   4.548   2.820
 6688SOL    HW120963   0.564   4.579   2.836
 6688SOL    HW220964   0.675   4.467   2.876
 6689SOL     OW20965   5.216   3.989   0.697
 6689SOL    HW120966   5.204   3.992   0.796
 6689SOL    HW220967   5.221   4.083   0.661
 6690SOL     OW20968   1.846   3.113   1.563
 6690SOL    HW120969   1.757   3.141   1.599
 6690SOL    HW220970   1.918   3.170   1.604
 6691SOL     OW20971   2.558   6.229   1.465
 6691SOL    HW120972   2.550   6.245   1.564
 6691SOL    HW220973   2.655   6.223   1.440
 6692SOL     OW20974   3.140   4.356   5.261
 6692SOL    HW120975   3.110   4.261   5.265
 6692SOL    HW220976   3.074   4.410   5.209
 6693SOL     OW20977   4.343   3.909   5.376
 6693SOL    HW120978   4.310   4.000   5.402
 6693SOL    HW220979   4.276   3.865   5.315
 6694SOL     OW20980   4.716   6.434   0.829
 6694SOL    HW120981   4.740   6.340   0.853
 6694SOL    HW220982   4.794   6.478   0.784
 6695SOL     OW20983   0.753   1.529   6.715
 6695SOL    HW120984   0.809   1.611   6.722
 6695SOL    HW220985   0.811   1.451   6.691
 6696SOL     OW20986   2.180   3.249   1.790
 6696SOL    HW120987   2.248   3.316   1.820
 6696SOL    HW220988   2.117   3.292   1.725
 6697SOL     OW20989   4.091   1.367   2.695
 6697SOL    HW120990   4.174   1.347   2.643
 6697SOL    HW220991   4.115   1.410   2.782
 6698SOL     OW20992   3.957   2.895   6.884
 6698SOL    HW120993   4.055   2.907   6.898
 6698SOL    HW220994   3.941   2.814   6.828
 6699SOL     OW20995   3.603   4.549   6.853
 6699SOL    HW120996   3.599   4.649   6.855
 6699SOL    HW220997   3.697   4.521   6.835
 6700SOL     OW20998   0.213   5.378   1.217
 6700SOL    HW120999   0.119   5.376   1.182
 6700SOL    HW221000   0.272   5.323   1.159
 6701SOL     OW21001   0.333   1.762   0.402
 6701SOL    HW121002   0.262   1.695   0.425
 6701SOL    HW221003   0.338   1.831   0.474
 6702SOL     OW21004   2.141   1.325   1.024
 6702SOL    HW121005   2.049   1.291   1.008
 6702SOL    HW221006   2.202   1.292   0.953
 6703SOL     OW21007   0.060   1.314   6.202
 6703SOL    HW121008   0.071   1.339   6.106
 6703SOL    HW221009   7.016   1.243   6.211
 6704SOL     OW21010   4.564   2.499   2.752
 6704SOL    HW121011   4.517   2.501   2.840
 6704SOL    HW221012   4.541   2.414   2.704
 6705SOL     OW21013   6.502   2.198   1.408
 6705SOL    HW121014   6.455   2.157   1.330
 6705SOL    HW221015   6.542   2.286   1.381
 6706SOL     OW21016   0.718   3.942   6.827
 6706SOL    HW121017   0.738   3.980   6.917
 6706SOL    HW221018   0.796   3.956   6.766
 6707SOL     OW21019   6.612   5.536   4.163
 6707SOL    HW121020   6.662   5.505   4.082
 6707SOL    HW221021   6.547   5.465   4.191
 6708SOL     OW21022   2.163   5.642   1.877
 6708SOL    HW121023   2.231   5.592   1.823
 6708SOL    HW221024   2.202   5.663   1.967
 6709SOL     OW21025   3.867   0.062   1.505
 6709SOL    HW121026   3.917   0.118   1.571
 6709SOL    HW221027   3.920   7.005   1.484
 6710SOL     OW21028   3.096   2.819   6.419
 6710SOL    HW121029   3.019   2.879   6.439
 6710SOL    HW221030   3.068   2.750   6.352
 6711SOL     OW21031   4.990   3.844   6.648
 6711SOL    HW121032   5.054   3.892   6.588
 6711SOL    HW221033   5.037   3.765   6.689
 6712SOL     OW21034   3.787   5.443   0.473
 6712SOL    HW121035   3.811   5.387   0.552
 6712SOL    HW221036   3.828   5.403   0.390
 6713SOL     OW21037   2.084   2.614   1.706
 6713SOL    HW121038   2.096   2.555   1.786
 6713SOL    HW221039   2.172   2.653   1.680
 6714SOL     OW21040   5.268   0.721   4.303
 6714SOL    HW121041   5.282   0.633   4.258
 6714SOL    HW221042   5.344   0.738   4.366
 6715SOL     OW21043   0.463   2.053   0.798
 6715SOL    HW121044   0.505   1.987   0.861
 6715SOL    HW221045   0.447   2.009   0.710
 6716SOL     OW21046   2.125   5.971   1.347
 6716SOL    HW121047   2.176   6.052   1.377
 6716SOL    HW221048   2.189   5.903   1.309
 6717SOL     OW21049   4.110   2.598   0.461
 6717SOL    HW121050   4.023   2.548   0.465
 6717SOL    HW221051   4.094   2.689   0.423
 6718SOL     OW21052   3.513   7.021   0.171
 6718SOL    HW121053   3.441   0.017   0.237
 6718SOL    HW221054   3.473   7.012   0.080
 6719SOL     OW21055   0.321   6.054   5.318
 6719SOL    HW121056   0.262   5.997   5.260
 6719SOL    HW221057   0.396   5.997   5.353
 6720SOL     OW21058   2.343   5.184   1.565
 6720SOL    HW121059   2.391   5.153   1.646
 6720SOL    HW221060   2.397   5.162   1.483
 6721SOL     OW21061   5.141   6.770   3.835
 6721SOL    HW121062   5.134   6.674   3.807
 6721SOL    HW221063   5.134   6.776   3.935
 6722SOL     OW21064   4.322   3.353   6.690
 6722SOL    HW121065   4.304   3.424   6.758
 6722SOL    HW221066   4.237   3.305   6.668
 6723SOL     OW21067   3.033   6.695   3.907
 6723SOL    HW121068   3.071   6.670   3.996
 6723SOL    HW221069   2.933   6.698   3.914
 6724SOL     OW21070   3.058   4.816   5.171
 6724SOL    HW121071   2.996   4.778   5.102
 6724SOL    HW221072   3.101   4.742   5.222
 6725SOL     OW21073   0.622   5.176   2.575
 6725SOL    HW121074   0.631   5.274   2.590
 6725SOL    HW221075   0.563   5.136   2.645
 6726SOL     OW21076   2.411   2.694   4.425
 6726SOL    HW121077   2.454   2.652   4.505
 6726SOL    HW221078   2.359   2.775   4.454
 6727SOL     OW21079   4.372   3.345   5.913
 6727SOL    HW121080   4.340   3.435   5.884
 6727SOL    HW221081   4.429   3.354   5.994
 6728SOL     OW21082   4.130   1.526   3.849
 6728SOL    HW121083   4.096   1.444   3.896
 6728SOL    HW221084   4.143   1.505   3.752
 6729SOL     OW21085   6.456   0.750   2.613
 6729SOL    HW121086   6.392   0.789   2.547
 6729SOL    HW221087   6.522   0.693   2.565
 6730SOL     OW21088   2.434   0.962   0.154
 6730SOL    HW121089   2.499   0.983   0.081
 6730SOL    HW221090   2.463   0.880   0.202
 6731SOL     OW21091   2.585   4.737   1.671
 6731SOL    HW121092   2.569   4.677   1.592
 6731SOL    HW221093   2.673   4.716   1.712
 6732SOL     OW21094   2.938   6.380   0.820
 6732SOL    HW121095   2.984   6.436   0.751
 6732SOL    HW221096   2.847   6.355   0.788
 6733SOL     OW21097   5.239   6.153   4.943
 6733SOL    HW121098   5.318   6.104   4.906
 6733SOL    HW221099   5.259   6.251   4.947
 6734SOL     OW21100   1.933   3.088   5.640
 6734SOL    HW121101   1.933   3.044   5.551
 6734SOL    HW221102   1.971   3.180   5.632
 6735SOL     OW21103   6.790   5.077   5.736
 6735SOL    HW121104   6.882   5.107   5.763
 6735SOL    HW221105   6.796   5.022   5.653
 6736SOL     OW21106   2.318   3.009   1.791
 6736SOL    HW121107   2.274   3.099   1.797
 6736SOL    HW221108   2.395   3.014   1.728
 6737SOL     OW21109   2.356   1.637   2.182
 6737SOL    HW121110   2.335   1.679   2.095
 6737SOL    HW221111   2.456   1.628   2.192
 6738SOL     OW21112   2.325   1.050   2.818
 6738SOL    HW121113   2.346   1.053   2.720
 6738SOL    HW221114   2.266   0.971   2.837
 6739SOL     OW21115   3.640   6.397   5.094
 6739SOL    HW121116   3.669   6.476   5.148
 6739SOL    HW221117   3.683   6.400   5.004
 6740SOL     OW21118   1.674   1.820   3.707
 6740SOL    HW121119   1.706   1.730   3.679
 6740SOL    HW221120   1.654   1.875   3.626
 6741SOL     OW21121   6.812   0.367   5.909
 6741SOL    HW121122   6.810   0.460   5.872
 6741SOL    HW221123   6.810   0.370   6.009
 6742SOL     OW21124   6.165   6.110   5.151
 6742SOL    HW121125   6.191   6.144   5.241
 6742SOL    HW221126   6.247   6.082   5.101
 6743SOL     OW21127   3.735   3.375   1.457
 6743SOL    HW121128   3.748   3.329   1.545
 6743SOL    HW221129   3.776   3.320   1.384
 6744SOL     OW21130   4.728   4.862   5.834
 6744SOL    HW121131   4.706   4.879   5.738
 6744SOL    HW221132   4.756   4.947   5.878
 6745SOL     OW21133   1.731   4.866   3.708
 6745SOL    HW121134   1.813   4.922   3.718
 6745SOL    HW221135   1.701   4.834   3.798
 6746SOL     OW21136   0.316   2.378   1.289
 6746SOL    HW121137   0.386   2.318   1.328
 6746SOL    HW221138   0.349   2.418   1.204
 6747SOL     OW21139   5.396   6.527   4.852
 6747SOL    HW121140   5.430   6.449   4.904
 6747SOL    HW221141   5.460   6.603   4.859
 6748SOL     OW21142   1.395   0.345   2.552
 6748SOL    HW121143   1.448   0.304   2.478
 6748SOL    HW221144   1.313   0.387   2.515
 6749SOL     OW21145   4.553   0.428   0.060
 6749SOL    HW121146   4.610   0.462   0.135
 6749SOL    HW221147   4.514   0.506   0.010
 6750SOL     OW21148   2.299   2.467   4.893
 6750SOL    HW121149   2.247   2.526   4.954
 6750SOL    HW221150   2.384   2.439   4.938
 6751SOL     OW21151   2.547   2.035   4.868
 6751SOL    HW121152   2.515   2.009   4.959
 6751SOL    HW221153   2.585   2.128   4.871
 6752SOL     OW21154   5.715   2.979   0.738
 6752SOL    HW121155   5.690   2.903   0.678
 6752SOL    HW221156   5.807   2.964   0.774
 6753SOL     OW21157   4.506   2.565   6.629
 6753SOL    HW121158   4.605   2.578   6.634
 6753SOL    HW221159   4.462   2.652   6.610
 6754SOL     OW21160   6.256   1.067   6.393
 6754SOL    HW121161   6.241   1.019   6.307
 6754SOL    HW221162   6.197   1.148   6.397
 6755SOL     OW21163   4.712   1.793   4.229
 6755SOL    HW121164   4.633   1.733   4.239
 6755SOL    HW221165   4.688   1.871   4.171
 6756SOL     OW21166   4.890   5.218   4.387
 6756SOL    HW121167   4.954   5.169   4.447
 6756SOL    HW221168   4.942   5.273   4.321
 6757SOL     OW21169   5.917   5.848   1.821
 6757SOL    HW121170   5.942   5.781   1.891
 6757SOL    HW221171   5.901   5.937   1.864
 6758SOL     OW21172   5.075   2.457   1.988
 6758SOL    HW121173   5.167   2.462   2.027
 6758SOL    HW221174   5.079   2.409   1.900
 6759SOL     OW21175   0.675   5.392   3.238
 6759SOL    HW121176   0.576   5.404   3.250
 6759SOL    HW221177   0.717   5.481   3.220
 6760SOL     OW21178   6.630   4.094   3.982
 6760SOL    HW121179   6.693   4.045   3.922
 6760SOL    HW221180   6.623   4.189   3.951
 6761SOL     OW21181   4.651   2.499   5.519
 6761SOL    HW121182   4.583   2.568   5.492
 6761SOL    HW221183   4.694   2.526   5.605
 6762SOL     OW21184   6.128   4.636   3.935
 6762SOL    HW121185   6.078   4.663   4.017
 6762SOL    HW221186   6.217   4.597   3.961
 6763SOL     OW21187   6.408   6.789   5.814
 6763SOL    HW121188   6.311   6.765   5.804
 6763SOL    HW221189   6.461   6.745   5.742
 6764SOL     OW21190   2.778   4.170   6.701
 6764SOL    HW121191   2.722   4.237   6.750
 6764SOL    HW221192   2.865   4.212   6.673
 6765SOL     OW21193   5.741   4.129   2.179
 6765SOL    HW121194   5.776   4.138   2.085
 6765SOL    HW221195   5.749   4.217   2.225
 6766SOL     OW21196   1.837   0.502   5.966
 6766SOL    HW121197   1.925   0.545   5.947
 6766SOL    HW221198   1.769   0.532   5.900
 6767SOL     OW21199   6.600   2.873   6.664
 6767SOL    HW121200   6.565   2.800   6.605
 6767SOL    HW221201   6.541   2.881   6.745
 6768SOL     OW21202   6.587   0.567   3.908
 6768SOL    HW121203   6.583   0.660   3.871
 6768SOL    HW221204   6.573   0.502   3.833
 6769SOL     OW21205   2.078   2.747   5.468
 6769SOL    HW121206   2.105   2.842   5.453
 6769SOL    HW221207   1.983   2.734   5.439
 6770SOL     OW21208   0.450   1.176   3.278
 6770SOL    HW121209   0.373   1.159   3.339
 6770SOL    HW221210   0.528   1.120   3.305
 6771SOL     OW21211   3.831   2.075   3.246
 6771SOL    HW121212   3.912   2.127   3.275
 6771SOL    HW221213   3.855   2.017   3.168
 6772SOL     OW21214   6.988   1.332   1.651
 6772SOL    HW121215   0.024   1.341   1.573
 6772SOL    HW221216   6.894   1.324   1.618
 6773SOL     OW21217   1.321   6.723   1.113
 6773SOL    HW121218   1.370   6.692   1.031
 6773SOL    HW221219   1.281   6.645   1.160
 6774SOL     OW21220   2.260   2.169   4.885
 6774SOL    HW121221   2.236   2.131   4.975
 6774SOL    HW221222   2.249   2.268   4.887
 6775SOL     OW21223   0.912   2.006   4.447
 6775SOL    HW121224   0.956   2.050   4.369
 6775SOL    HW221225   0.965   1.925   4.474
 6776SOL     OW21226   3.392   4.049   2.590
 6776SOL    HW121227   3.443   4.081   2.509
 6776SOL    HW221228   3.299   4.025   2.563
 6777SOL     OW21229   6.411   5.613   0.086
 6777SOL    HW121230   6.388   5.657   0.173
 6777SOL    HW221231   6.353   5.533   0.073
 6778SOL     OW21232   6.081   4.584   2.870
 6778SOL    HW121233   6.083   4.491   2.908
 6778SOL    HW221234   6.085   4.579   2.771
 6779SOL     OW21235   5.185   3.635   5.903
 6779SOL    HW121236   5.285   3.628   5.901
 6779SOL    HW221237   5.147   3.556   5.949
 6780SOL     OW21238   2.918   2.240   3.181
 6780SOL    HW121239   3.000   2.247   3.237
 6780SOL    HW221240   2.943   2.236   3.084
 6781SOL     OW21241   0.208   1.459   3.405
 6781SOL    HW121242   0.177   1.431   3.314
 6781SOL    HW221243   0.245   1.551   3.402
 6782SOL     OW21244   6.790   1.427   2.468
 6782SOL    HW121245   6.696   1.453   2.445
 6782SOL    HW221246   6.791   1.381   2.557
 6783SOL     OW21247   1.637   4.689   5.558
 6783SOL    HW121248   1.621   4.681   5.459
 6783SOL    HW221249   1.727   4.729   5.574
 6784SOL     OW21250   2.255   3.671   1.726
 6784SOL    HW121251   2.306   3.604   1.779
 6784SOL    HW221252   2.160   3.641   1.716
 6785SOL     OW21253   5.785   6.253   5.047
 6785SOL    HW121254   5.798   6.166   5.093
 6785SOL    HW221255   5.833   6.252   4.959
 6786SOL     OW21256   5.670   1.863   6.017
 6786SOL    HW121257   5.726   1.904   6.090
 6786SOL    HW221258   5.575   1.858   6.047
 6787SOL     OW21259   3.789   1.775   6.836
 6787SOL    HW121260   3.745   1.858   6.803
 6787SOL    HW221261   3.845   1.736   6.763
 6788SOL     OW21262   6.785   4.466   2.837
 6788SOL    HW121263   6.712   4.438   2.900
 6788SOL    HW221264   6.838   4.385   2.810
 6789SOL     OW21265   5.665   4.014   3.615
 6789SOL    HW121266   5.632   3.971   3.699
 6789SOL    HW221267   5.692   4.109   3.634
 6790SOL     OW21268   0.440   4.783   6.147
 6790SOL    HW121269   0.488   4.870   6.136
 6790SOL    HW221270   0.504   4.714   6.180
 6791SOL     OW21271   3.292   0.632   2.951
 6791SOL    HW121272   3.386   0.618   2.982
 6791SOL    HW221273   3.292   0.680   2.863
 6792SOL     OW21274   3.781   0.102   5.463
 6792SOL    HW121275   3.720   0.168   5.420
 6792SOL    HW221276   3.783   0.018   5.409
 6793SOL     OW21277   2.026   3.425   6.403
 6793SOL    HW121278   2.033   3.458   6.309
 6793SOL    HW221279   1.946   3.465   6.447
 6794SOL     OW21280   4.909   2.027   5.582
 6794SOL    HW121281   4.874   2.114   5.547
 6794SOL    HW221282   4.833   1.962   5.590
 6795SOL     OW21283   0.585   0.547   1.336
 6795SOL    HW121284   0.683   0.564   1.350
 6795SOL    HW221285   0.559   0.464   1.385
 6796SOL     OW21286   6.163   1.130   2.502
 6796SOL    HW121287   6.082   1.088   2.542
 6796SOL    HW221288   6.225   1.158   2.575
 6797SOL     OW21289   0.988   2.318   1.372
 6797SOL    HW121290   0.935   2.389   1.419
 6797SOL    HW221291   0.985   2.234   1.426
 6798SOL     OW21292   5.693   6.906   1.660
 6798SOL    HW121293   5.786   6.888   1.628
 6798SOL    HW221294   5.675   7.004   1.654
 6799SOL     OW21295   6.576   0.870   3.285
 6799SOL    HW121296   6.578   0.784   3.336
 6799SOL    HW221297   6.638   0.936   3.327
 6800SOL     OW21298   6.796   2.214   1.350
 6800SOL    HW121299   6.825   2.120   1.367
 6800SOL    HW221300   6.807   2.268   1.434
 6801SOL     OW21301   1.130   6.207   6.351
 6801SOL    HW121302   1.063   6.273   6.382
 6801SOL    HW221303   1.149   6.220   6.254
 6802SOL     OW21304   3.406   5.004   2.216
 6802SOL    HW121305   3.340   5.048   2.155
 6802SOL    HW221306   3.392   5.037   2.309
 6803SOL     OW21307   5.488   5.103   5.577
 6803SOL    HW121308   5.569   5.069   5.528
 6803SOL    HW221309   5.427   5.026   5.596
 6804SOL     OW21310   3.714   5.061   3.141
 6804SOL    HW121311   3.711   5.161   3.149
 6804SOL    HW221312   3.621   5.025   3.134
 6805SOL     OW21313   0.016   4.665   4.689
 6805SOL    HW121314   0.058   4.685   4.777
 6805SOL    HW221315   6.947   4.695   4.688
 6806SOL     OW21316   6.829   1.984   2.217
 6806SOL    HW121317   6.908   1.927   2.193
 6806SOL    HW221318   6.846   2.078   2.186
 6807SOL     OW21319   3.105   3.734   2.170
 6807SOL    HW121320   3.182   3.782   2.212
 6807SOL    HW221321   3.139   3.665   2.106
 6808SOL     OW21322   3.169   1.268   4.301
 6808SOL    HW121323   3.153   1.334   4.228
 6808SOL    HW221324   3.190   1.179   4.262
 6809SOL     OW21325   5.587   3.371   0.422
 6809SOL    HW121326   5.577   3.272   0.424
 6809SOL    HW221327   5.500   3.414   0.400
 6810SOL     OW21328   2.717   0.630   4.529
 6810SOL    HW121329   2.620   0.612   4.512
 6810SOL    HW221330   2.755   0.683   4.453
 6811SOL     OW21331   6.264   1.330   0.550
 6811SOL    HW121332   6.204   1.273   0.494
 6811SOL    HW221333   6.233   1.329   0.645
 6812SOL     OW21334   3.818   4.288   5.175
 6812SOL    HW121335   3.791   4.207   5.122
 6812SOL    HW221336   3.818   4.368   5.115
 6813SOL     OW21337   6.572   3.463   1.764
 6813SOL    HW121338   6.669   3.451   1.785
 6813SOL    HW221339   6.548   3.560   1.775
 6814SOL     OW21340   5.405   1.066   6.629
 6814SOL    HW121341   5.346   1.059   6.710
 6814SOL    HW221342   5.452   1.154   6.630
 6815SOL     OW21343   1.230   4.939   6.285
 6815SOL    HW121344   1.198   4.913   6.193
 6815SOL    HW221345   1.327   4.964   6.280
 6816SOL     OW21346   6.950   0.768   3.293
 6816SOL    HW121347   6.937   0.694   3.358
 6816SOL    HW221348   6.926   0.736   3.201
 6817SOL     OW21349   4.218   2.000   1.685
 6817SOL    HW121350   4.215   1.930   1.756
 6817SOL    HW221351   4.226   2.090   1.727
 6818SOL     OW21352   1.695   6.975   5.463
 6818SOL    HW121353   1.705   0.031   5.520
 6818SOL    HW221354   1.738   6.990   5.375
 6819SOL     OW21355   4.499   4.382   1.658
 6819SOL    HW121356   4.444   4.465   1.656
 6819SOL    HW221357   4.453   4.311   1.711
 6820SOL     OW21358   2.956   5.138   2.121
 6820SOL    HW121359   2.998   5.049   2.104
 6820SOL    HW221360   3.007   5.185   2.193
 6821SOL     OW21361   3.837   2.613   5.322
 6821SOL    HW121362   3.889   2.540   5.278
 6821SOL    HW221363   3.740   2.600   5.305
 6822SOL     OW21364   5.996   2.646   6.187
 6822SOL    HW121365   6.074   2.697   6.224
 6822SOL    HW221366   5.934   2.709   6.142
 6823SOL     OW21367   6.031   2.195   4.987
 6823SOL    HW121368   5.936   2.164   4.980
 6823SOL    HW221369   6.048   2.230   5.079
 6824SOL     OW21370   1.125   0.183   6.027
 6824SOL    HW121371   1.087   0.231   5.948
 6824SOL    HW221372   1.200   0.124   5.998
 6825SOL     OW21373   5.329   4.759   0.839
 6825SOL    HW121374   5.389   4.839   0.835
 6825SOL    HW221375   5.344   4.710   0.926
 6826SOL     OW21376   6.434   5.308   4.267
 6826SOL    HW121377   6.401   5.265   4.183
 6826SOL    HW221378   6.370   5.289   4.341
 6827SOL     OW21379   4.525   6.048   4.355
 6827SOL    HW121380   4.438   6.097   4.349
 6827SOL    HW221381   4.522   5.986   4.434
 6828SOL     OW21382   2.672   2.373   2.657
 6828SOL    HW121383   2.726   2.310   2.602
 6828SOL    HW221384   2.620   2.322   2.726
 6829SOL     OW21385   3.845   6.616   3.625
 6829SOL    HW121386   3.873   6.597   3.720
 6829SOL    HW221387   3.820   6.530   3.580
 6830SOL     OW21388   4.961   6.423   2.870
 6830SOL    HW121389   4.919   6.333   2.881
 6830SOL    HW221390   4.892   6.494   2.884
 6831SOL     OW21391   1.596   2.261   6.087
 6831SOL    HW121392   1.519   2.282   6.027
 6831SOL    HW221393   1.664   2.334   6.081
 6832SOL     OW21394   3.152   2.890   6.939
 6832SOL    HW121395   3.180   2.878   6.843
 6832SOL    HW221396   3.211   2.836   6.998
 6833SOL     OW21397   3.444   5.091   5.885
 6833SOL    HW121398   3.540   5.068   5.869
 6833SOL    HW221399   3.408   5.141   5.806
 6834SOL     OW21400   5.820   6.534   0.477
 6834SOL    HW121401   5.917   6.514   0.494
 6834SOL    HW221402   5.774   6.551   0.564
 6835SOL     OW21403   2.891   1.637   5.324
 6835SOL    HW121404   2.812   1.667   5.269
 6835SOL    HW221405   2.948   1.716   5.347
 6836SOL     OW21406   2.510   4.496   6.475
 6836SOL    HW121407   2.579   4.504   6.404
 6836SOL    HW221408   2.549   4.520   6.563
 6837SOL     OW21409   0.661   1.006   1.922
 6837SOL    HW121410   0.621   1.096   1.903
 6837SOL    HW221411   0.612   0.963   1.998
 6838SOL     OW21412   3.082   3.764   5.060
 6838SOL    HW121413   2.995   3.799   5.093
 6838SOL    HW221414   3.106   3.810   4.974
 6839SOL     OW21415   6.266   3.199   4.871
 6839SOL    HW121416   6.169   3.175   4.874
 6839SOL    HW221417   6.276   3.295   4.844
 6840SOL     OW21418   2.272   6.805   4.730
 6840SOL    HW121419   2.223   6.876   4.779
 6840SOL    HW221420   2.223   6.782   4.646
 6841SOL     OW21421   4.744   6.165   0.819
 6841SOL    HW121422   4.684   6.190   0.743
 6841SOL    HW221423   4.742   6.065   0.830
 6842SOL     OW21424   0.559   3.773   5.293
 6842SOL    HW121425   0.475   3.783   5.345
 6842SOL    HW221426   0.599   3.863   5.276
 6843SOL     OW21427   3.906   2.069   1.948
 6843SOL    HW121428   3.873   2.089   1.856
 6843SOL    HW221429   3.834   2.090   2.015
 6844SOL     OW21430   4.384   5.197   3.956
 6844SOL    HW121431   4.454   5.219   3.888
 6844SOL    HW221432   4.427   5.153   4.035
 6845SOL     OW21433   4.365   4.652   1.270
 6845SOL    HW121434   4.355   4.713   1.349
 6845SOL    HW221435   4.341   4.559   1.297
 6846SOL     OW21436   3.101   3.034   3.163
 6846SOL    HW121437   3.092   3.040   3.064
 6846SOL    HW221438   3.159   2.956   3.187
 6847SOL     OW21439   5.864   3.602   2.212
 6847SOL    HW121440   5.915   3.583   2.295
 6847SOL    HW221441   5.860   3.518   2.156
 6848SOL     OW21442   0.747   6.348   3.231
 6848SOL    HW121443   0.821   6.372   3.293
 6848SOL    HW221444   0.782   6.341   3.138
 6849SOL     OW21445   3.256   6.747   3.754
 6849SOL    HW121446   3.190   6.780   3.822
 6849SOL    HW221447   3.207   6.725   3.670
 6850SOL     OW21448   5.344   2.634   2.661
 6850SOL    HW121449   5.432   2.588   2.664
 6850SOL    HW221450   5.286   2.590   2.592
 6851SOL     OW21451   1.085   5.707   5.746
 6851SOL    HW121452   1.081   5.798   5.785
 6851SOL    HW221453   1.008   5.652   5.780
 6852SOL     OW21454   0.043   4.631   2.178
 6852SOL    HW121455   0.029   4.721   2.136
 6852SOL    HW221456   0.123   4.587   2.138
 6853SOL     OW21457   0.814   3.345   5.853
 6853SOL    HW121458   0.855   3.340   5.944
 6853SOL    HW221459   0.874   3.302   5.787
 6854SOL     OW21460   6.684   1.852   6.191
 6854SOL    HW121461   6.685   1.804   6.279
 6854SOL    HW221462   6.696   1.950   6.207
 6855SOL     OW21463   3.074   6.064   1.372
 6855SOL    HW121464   3.098   6.110   1.458
 6855SOL    HW221465   3.150   6.006   1.342
 6856SOL     OW21466   6.883   3.431   4.942
 6856SOL    HW121467   6.980   3.423   4.961
 6856SOL    HW221468   6.866   3.515   4.889
 6857SOL     OW21469   4.262   1.860   5.519
 6857SOL    HW121470   4.224   1.904   5.438
 6857SOL    HW221471   4.359   1.882   5.526
 6858SOL     OW21472   4.117   3.498   4.320
 6858SOL    HW121473   4.062   3.527   4.398
 6858SOL    HW221474   4.183   3.570   4.297
 6859SOL     OW21475   3.982   6.868   0.860
 6859SOL    HW121476   4.033   6.857   0.775
 6859SOL    HW221477   3.921   6.947   0.851
 6860SOL     OW21478   5.059   3.634   6.807
 6860SOL    HW121479   5.091   3.550   6.851
 6860SOL    HW221480   4.969   3.658   6.844
 6861SOL     OW21481   6.476   4.610   0.160
 6861SOL    HW121482   6.532   4.684   0.123
 6861SOL    HW221483   6.516   4.577   0.245
 6862SOL     OW21484   3.856   5.605   4.038
 6862SOL    HW121485   3.853   5.624   4.136
 6862SOL    HW221486   3.916   5.670   3.992
 6863SOL     OW21487   5.811   2.807   3.941
 6863SOL    HW121488   5.762   2.793   4.027
 6863SOL    HW221489   5.819   2.719   3.893
 6864SOL     OW21490   4.192   6.071   5.205
 6864SOL    HW121491   4.170   5.974   5.216
 6864SOL    HW221492   4.285   6.080   5.169
 6865SOL     OW21493   6.554   4.936   4.157
 6865SOL    HW121494   6.477   4.933   4.222
 6865SOL    HW221495   6.622   4.867   4.184
 6866SOL     OW21496   6.882   2.989   2.176
 6866SOL    HW121497   6.794   3.025   2.145
 6866SOL    HW221498   6.917   2.924   2.109
 6867SOL     OW21499   1.970   4.150   2.851
 6867SOL    HW121500   2.025   4.070   2.830
 6867SOL    HW221501   1.955   4.156   2.949
 6868SOL     OW21502   1.731   5.248   5.411
 6868SOL    HW121503   1.779   5.336   5.422
 6868SOL    HW221504   1.688   5.223   5.498
 6869SOL     OW21505   6.081   3.536   5.791
 6869SOL    HW121506   6.044   3.463   5.849
 6869SOL    HW221507   6.070   3.510   5.695
 6870SOL     OW21508   5.580   3.550   2.772
 6870SOL    HW121509   5.616   3.600   2.851
 6870SOL    HW221510   5.628   3.463   2.764
 6871SOL     OW21511   5.245   5.885   1.281
 6871SOL    HW121512   5.298   5.896   1.197
 6871SOL    HW221513   5.215   5.790   1.291
 6872SOL     OW21514   2.474   3.459   6.313
 6872SOL    HW121515   2.567   3.424   6.318
 6872SOL    HW221516   2.477   3.558   6.294
 6873SOL     OW21517   5.537   3.067   5.652
 6873SOL    HW121518   5.614   3.042   5.593
 6873SOL    HW221519   5.506   3.159   5.628
 6874SOL     OW21520   0.569   2.536   5.749
 6874SOL    HW121521   0.541   2.583   5.665
 6874SOL    HW221522   0.649   2.581   5.787
 6875SOL     OW21523   2.751   1.779   3.594
 6875SOL    HW121524   2.747   1.837   3.513
 6875SOL    HW221525   2.669   1.794   3.649
 6876SOL     OW21526   4.089   6.109   6.767
 6876SOL    HW121527   4.093   6.088   6.669
 6876SOL    HW221528   4.169   6.163   6.792
 6877SOL     OW21529   2.475   4.262   0.085
 6877SOL    HW121530   2.403   4.314   0.131
 6877SOL    HW221531   2.557   4.260   0.142
 6878SOL     OW21532   2.074   1.442   5.555
 6878SOL    HW121533   2.152   1.484   5.508
 6878SOL    HW221534   1.990   1.488   5.526
 6879SOL     OW21535   1.486   2.561   6.509
 6879SOL    HW121536   1.512   2.571   6.413
 6879SOL    HW221537   1.407   2.618   6.529
 6880SOL     OW21538   2.117   4.226   5.167
 6880SOL    HW121539   2.142   4.308   5.117
 6880SOL    HW221540   2.192   4.160   5.164
 6881SOL     OW21541   6.565   4.375   1.796
 6881SOL    HW121542   6.536   4.285   1.766
 6881SOL    HW221543   6.665   4.378   1.802
 6882SOL     OW21544   1.723   0.200   5.671
 6882SOL    HW121545   1.756   0.292   5.692
 6882SOL    HW221546   1.627   0.192   5.696
 6883SOL     OW21547   3.688   6.548   1.575
 6883SOL    HW121548   3.656   6.621   1.515
 6883SOL    HW221549   3.769   6.505   1.533
 6884SOL     OW21550   2.309   4.711   3.978
 6884SOL    HW121551   2.352   4.622   3.962
 6884SOL    HW221552   2.344   4.750   4.063
 6885SOL     OW21553   2.894   5.604   4.656
 6885SOL    HW121554   2.930   5.540   4.724
 6885SOL    HW221555   2.886   5.695   4.698
 6886SOL     OW21556   5.983   1.585   2.883
 6886SOL    HW121557   5.903   1.525   2.885
 6886SOL    HW221558   5.979   1.643   2.802
 6887SOL     OW21559   6.097   0.904   4.521
 6887SOL    HW121560   6.183   0.891   4.570
 6887SOL    HW221561   6.023   0.918   4.587
 6888SOL     OW21562   5.342   6.862   4.599
 6888SOL    HW121563   5.360   6.930   4.528
 6888SOL    HW221564   5.249   6.828   4.590
 6889SOL     OW21565   1.517   4.591   5.794
 6889SOL    HW121566   1.459   4.511   5.782
 6889SOL    HW221567   1.560   4.615   5.707
 6890SOL     OW21568   1.847   0.280   1.253
 6890SOL    HW121569   1.908   0.327   1.190
 6890SOL    HW221570   1.770   0.341   1.276
 6891SOL     OW21571   1.714   4.608   4.639
 6891SOL    HW121572   1.652   4.541   4.679
 6891SOL    HW221573   1.773   4.563   4.572
 6892SOL     OW21574   3.511   1.007   4.042
 6892SOL    HW121575   3.494   1.028   3.946
 6892SOL    HW221576   3.432   1.036   4.097
 6893SOL     OW21577   4.671   5.483   2.559
 6893SOL    HW121578   4.694   5.559   2.498
 6893SOL    HW221579   4.571   5.475   2.565
 6894SOL     OW21580   6.523   4.811   6.179
 6894SOL    HW121581   6.595   4.806   6.248
 6894SOL    HW221582   6.450   4.747   6.202
 6895SOL     OW21583   3.277   5.530   6.823
 6895SOL    HW121584   3.260   5.594   6.747
 6895SOL    HW221585   3.361   5.555   6.870
 6896SOL     OW21586   3.540   0.510   3.039
 6896SOL    HW121587   3.491   0.425   3.059
 6896SOL    HW221588   3.638   0.490   3.032
 6897SOL     OW21589   3.278   3.337   0.486
 6897SOL    HW121590   3.338   3.409   0.450
 6897SOL    HW221591   3.213   3.310   0.415
 6898SOL     OW21592   4.181   2.080   2.014
 6898SOL    HW121593   4.081   2.083   2.011
 6898SOL    HW221594   4.218   2.141   1.944
 6899SOL     OW21595   4.867   6.036   6.642
 6899SOL    HW121596   4.911   6.042   6.732
 6899SOL    HW221597   4.931   6.065   6.571
 6900SOL     OW21598   4.641   0.597   6.205
 6900SOL    HW121599   4.603   0.553   6.124
 6900SOL    HW221600   4.568   0.623   6.267
 6901SOL     OW21601   1.560   0.705   6.293
 6901SOL    HW121602   1.571   0.732   6.197
 6901SOL    HW221603   1.483   0.756   6.333
 6902SOL     OW21604   6.590   5.712   0.905
 6902SOL    HW121605   6.559   5.711   0.810
 6902SOL    HW221606   6.519   5.754   0.962
 6903SOL     OW21607   4.439   4.085   0.847
 6903SOL    HW121608   4.365   4.100   0.781
 6903SOL    HW221609   4.468   4.173   0.885
 6904SOL     OW21610   6.956   1.198   3.045
 6904SOL    HW121611   6.923   1.292   3.050
 6904SOL    HW221612   6.908   1.142   3.113
 6905SOL     OW21613   5.703   6.375   1.021
 6905SOL    HW121614   5.756   6.352   0.939
 6905SOL    HW221615   5.667   6.291   1.062
 6906SOL     OW21616   4.121   0.977   3.344
 6906SOL    HW121617   4.104   1.055   3.404
 6906SOL    HW221618   4.083   0.996   3.253
 6907SOL     OW21619   4.057   1.551   1.581
 6907SOL    HW121620   3.959   1.535   1.596
 6907SOL    HW221621   4.088   1.625   1.641
 6908SOL     OW21622   1.325   6.676   6.030
 6908SOL    HW121623   1.395   6.749   6.026
 6908SOL    HW221624   1.248   6.707   6.085
 6909SOL     OW21625   4.165   3.905   6.652
 6909SOL    HW121626   4.128   3.888   6.561
 6909SOL    HW221627   4.190   3.819   6.695
 6910SOL     OW21628   6.363   1.444   1.556
 6910SOL    HW121629   6.388   1.523   1.612
 6910SOL    HW221630   6.395   1.360   1.601
 6911SOL     OW21631   3.935   1.250   4.693
 6911SOL    HW121632   3.883   1.321   4.741
 6911SOL    HW221633   3.902   1.160   4.721
 6912SOL     OW21634   4.913   4.920   0.246
 6912SOL    HW121635   4.922   4.896   0.343
 6912SOL    HW221636   4.993   4.973   0.218
 6913SOL     OW21637   5.294   4.929   5.019
 6913SOL    HW121638   5.300   4.989   5.099
 6913SOL    HW221639   5.385   4.919   4.978
 6914SOL     OW21640   6.179   4.818   0.489
 6914SOL    HW121641   6.239   4.845   0.414
 6914SOL    HW221642   6.161   4.720   0.484
 6915SOL     OW21643   0.441   5.104   2.786
 6915SOL    HW121644   0.445   5.110   2.886
 6915SOL    HW221645   0.350   5.131   2.754
 6916SOL     OW21646   6.063   2.117   6.935
 6916SOL    HW121647   6.118   2.138   7.016
 6916SOL    HW221648   6.075   2.190   6.867
 6917SOL     OW21649   4.317   5.855   6.498
 6917SOL    HW121650   4.296   5.926   6.431
 6917SOL    HW221651   4.403   5.810   6.472
 6918SOL     OW21652   0.517   3.339   4.037
 6918SOL    HW121653   0.466   3.312   3.955
 6918SOL    HW221654   0.614   3.345   4.015
 6919SOL     OW21655   2.100   6.077   3.076
 6919SOL    HW121656   2.051   6.155   3.116
 6919SOL    HW221657   2.180   6.109   3.025
 6920SOL     OW21658   4.911   6.610   4.334
 6920SOL    HW121659   4.900   6.526   4.282
 6920SOL    HW221660   5.008   6.630   4.346
 6921SOL     OW21661   0.635   1.062   3.640
 6921SOL    HW121662   0.539   1.079   3.661
 6921SOL    HW221663   0.677   1.011   3.715
 6922SOL     OW21664   2.648   6.352   0.712
 6922SOL    HW121665   2.573   6.314   0.767
 6922SOL    HW221666   2.624   6.446   0.685
 6923SOL     OW21667   5.005   0.708   3.969
 6923SOL    HW121668   5.017   0.806   3.954
 6923SOL    HW221669   5.034   0.684   4.062
 6924SOL     OW21670   0.271   5.411   1.493
 6924SOL    HW121671   0.254   5.371   1.403
 6924SOL    HW221672   0.368   5.402   1.516
 6925SOL     OW21673   4.526   5.593   2.865
 6925SOL    HW121674   4.431   5.619   2.881
 6925SOL    HW221675   4.530   5.529   2.788
 6926SOL     OW21676   3.317   3.259   4.635
 6926SOL    HW121677   3.326   3.219   4.726
 6926SOL    HW221678   3.288   3.189   4.571
 6927SOL     OW21679   4.516   4.073   5.857
 6927SOL    HW121680   4.540   4.164   5.890
 6927SOL    HW221681   4.517   4.008   5.933
 6928SOL     OW21682   5.670   0.607   6.542
 6928SOL    HW121683   5.603   0.545   6.502
 6928SOL    HW221684   5.633   0.645   6.627
 6929SOL     OW21685   4.142   5.459   0.201
 6929SOL    HW121686   4.229   5.445   0.153
 6929SOL    HW221687   4.154   5.437   0.298
 6930SOL     OW21688   0.803   0.159   3.830
 6930SOL    HW121689   0.779   0.069   3.791
 6930SOL    HW221690   0.812   0.225   3.756
 6931SOL     OW21691   1.591   1.612   1.191
 6931SOL    HW121692   1.524   1.561   1.137
 6931SOL    HW221693   1.580   1.710   1.174
 6932SOL     OW21694   2.859   2.092   0.976
 6932SOL    HW121695   2.949   2.058   0.948
 6932SOL    HW221696   2.848   2.082   1.075
 6933SOL     OW21697   4.281   5.695   5.832
 6933SOL    HW121698   4.288   5.745   5.746
 6933SOL    HW221699   4.184   5.677   5.851
 6934SOL     OW21700   4.952   3.213   0.170
 6934SOL    HW121701   4.905   3.291   0.212
 6934SOL    HW221702   4.889   3.164   0.110
 6935SOL     OW21703   4.450   5.651   3.675
 6935SOL    HW121704   4.387   5.599   3.617
 6935SOL    HW221705   4.403   5.678   3.759
 6936SOL     OW21706   0.988   3.958   1.771
 6936SOL    HW121707   0.995   3.922   1.864
 6936SOL    HW221708   0.961   4.054   1.775
 6937SOL     OW21709   4.511   6.787   5.268
 6937SOL    HW121710   4.551   6.733   5.342
 6937SOL    HW221711   4.413   6.798   5.284
 6938SOL     OW21712   5.036   2.764   5.071
 6938SOL    HW121713   5.007   2.734   5.162
 6938SOL    HW221714   4.968   2.827   5.033
 6939SOL     OW21715   0.443   4.296   2.932
 6939SOL    HW121716   0.457   4.291   2.833
 6939SOL    HW221717   0.511   4.239   2.978
 6940SOL     OW21718   5.273   0.540   5.446
 6940SOL    HW121719   5.188   0.590   5.428
 6940SOL    HW221720   5.272   0.454   5.396
 6941SOL     OW21721   4.104   3.664   3.554
 6941SOL    HW121722   4.097   3.564   3.551
 6941SOL    HW221723   4.197   3.691   3.576
 6942SOL     OW21724   6.792   2.266   6.971
 6942SOL    HW121725   6.812   2.320   0.027
 6942SOL    HW221726   6.875   2.253   6.917
 6943SOL     OW21727   5.057   5.441   6.870
 6943SOL    HW121728   5.113   5.469   6.791
 6943SOL    HW221729   5.043   5.520   6.930
 6944SOL     OW21730   1.128   5.420   6.198
 6944SOL    HW121731   1.042   5.470   6.184
 6944SOL    HW221732   1.144   5.409   6.296
 6945SOL     OW21733   6.120   2.853   5.898
 6945SOL    HW121734   6.140   2.759   5.927
 6945SOL    HW221735   6.165   2.871   5.811
 6946SOL     OW21736   5.465   3.949   2.842
 6946SOL    HW121737   5.543   4.011   2.841
 6946SOL    HW221738   5.459   3.901   2.755
 6947SOL     OW21739   3.683   6.297   3.263
 6947SOL    HW121740   3.700   6.396   3.266
 6947SOL    HW221741   3.721   6.254   3.345
 6948SOL     OW21742   4.683   0.676   5.250
 6948SOL    HW121743   4.627   0.754   5.224
 6948SOL    HW221744   4.717   0.688   5.343
 6949SOL     OW21745   5.339   0.077   2.940
 6949SOL    HW121746   5.349   0.160   2.996
 6949SOL    HW221747   5.265   0.089   2.875
 6950SOL     OW21748   2.287   0.750   3.237
 6950SOL    HW121749   2.347   0.817   3.280
 6950SOL    HW221750   2.240   0.697   3.307
 6951SOL     OW21751   6.325   5.488   6.018
 6951SOL    HW121752   6.286   5.398   6.037
 6951SOL    HW221753   6.315   5.546   6.098
 6952SOL     OW21754   0.609   5.005   5.479
 6952SOL    HW121755   0.650   5.078   5.535
 6952SOL    HW221756   0.651   4.918   5.504
 6953SOL     OW21757   4.525   1.240   5.327
 6953SOL    HW121758   4.541   1.212   5.232
 6953SOL    HW221759   4.574   1.178   5.388
 6954SOL     OW21760   6.534   3.836   3.576
 6954SOL    HW121761   6.496   3.793   3.657
 6954SOL    HW221762   6.631   3.854   3.590
 6955SOL     OW21763   6.602   5.834   1.670
 6955SOL    HW121764   6.678   5.774   1.646
 6955SOL    HW221765   6.560   5.803   1.756
 6956SOL     OW21766   4.305   5.236   1.130
 6956SOL    HW121767   4.366   5.314   1.140
 6956SOL    HW221768   4.229   5.244   1.195
 6957SOL     OW21769   0.415   4.454   1.620
 6957SOL    HW121770   0.427   4.462   1.718
 6957SOL    HW221771   0.403   4.545   1.580
 6958SOL     OW21772   3.156   3.177   6.540
 6958SOL    HW121773   3.147   3.234   6.622
 6958SOL    HW221774   3.155   3.080   6.566
 6959SOL     OW21775   3.210   1.495   4.519
 6959SOL    HW121776   3.214   1.402   4.481
 6959SOL    HW221777   3.115   1.527   4.519
 6960SOL     OW21778   0.713   4.689   6.606
 6960SOL    HW121779   0.632   4.636   6.632
 6960SOL    HW221780   0.794   4.633   6.617
 6961SOL     OW21781   1.101   0.553   2.913
 6961SOL    HW121782   1.138   0.637   2.875
 6961SOL    HW221783   1.016   0.572   2.962
 6962SOL     OW21784   5.127   4.214   1.263
 6962SOL    HW121785   5.099   4.118   1.265
 6962SOL    HW221786   5.069   4.267   1.325
 6963SOL     OW21787   0.017   4.903   1.652
 6963SOL    HW121788   0.057   4.812   1.658
 6963SOL    HW221789   6.996   4.912   1.564
 6964SOL     OW21790   4.518   5.622   5.194
 6964SOL    HW121791   4.460   5.660   5.122
 6964SOL    HW221792   4.605   5.592   5.155
 6965SOL     OW21793   0.030   3.082   5.609
 6965SOL    HW121794   0.080   3.166   5.589
 6965SOL    HW221795   6.966   3.105   5.648
 6966SOL     OW21796   4.580   2.156   3.535
 6966SOL    HW121797   4.590   2.237   3.592
 6966SOL    HW221798   4.485   2.146   3.507
 6967SOL     OW21799   1.307   1.158   5.926
 6967SOL    HW121800   1.288   1.198   6.015
 6967SOL    HW221801   1.254   1.205   5.856
 6968SOL     OW21802   5.051   5.930   1.897
 6968SOL    HW121803   5.114   5.928   1.974
 6968SOL    HW221804   5.052   6.021   1.855
 6969SOL     OW21805   3.249   2.151   0.714
 6969SOL    HW121806   3.328   2.212   0.711
 6969SOL    HW221807   3.192   2.167   0.633
 6970SOL     OW21808   5.193   4.202   0.136
 6970SOL    HW121809   5.213   4.114   0.179
 6970SOL    HW221810   5.095   4.208   0.116
 6971SOL     OW21811   5.493   1.114   1.373
 6971SOL    HW121812   5.504   1.204   1.415
 6971SOL    HW221813   5.424   1.062   1.423
 6972SOL     OW21814   5.333   4.935   4.329
 6972SOL    HW121815   5.350   4.962   4.235
 6972SOL    HW221816   5.419   4.911   4.373
 6973SOL     OW21817   2.001   4.308   3.496
 6973SOL    HW121818   2.046   4.377   3.553
 6973SOL    HW221819   2.061   4.230   3.484
 6974SOL     OW21820   3.312   3.763   4.513
 6974SOL    HW121821   3.245   3.834   4.493
 6974SOL    HW221822   3.265   3.682   4.549
 6975SOL     OW21823   4.375   0.845   5.864
 6975SOL    HW121824   4.376   0.945   5.874
 6975SOL    HW221825   4.400   0.802   5.950
 6976SOL     OW21826   2.269   4.896   6.768
 6976SOL    HW121827   2.181   4.935   6.739
 6976SOL    HW221828   2.327   4.970   6.803
 6977SOL     OW21829   3.510   1.761   2.762
 6977SOL    HW121830   3.462   1.734   2.845
 6977SOL    HW221831   3.576   1.690   2.737
 6978SOL     OW21832   0.100   0.610   1.950
 6978SOL    HW121833   0.155   0.671   2.006
 6978SOL    HW221834   0.017   0.585   1.999
 6979SOL     OW21835   0.546   5.082   2.307
 6979SOL    HW121836   0.531   5.138   2.226
 6979SOL    HW221837   0.584   5.138   2.380
 6980SOL     OW21838   2.947   1.237   4.445
 6980SOL    HW121839   2.896   1.279   4.369
 6980SOL    HW221840   3.044   1.239   4.425
 6981SOL     OW21841   1.809   5.404   0.474
 6981SOL    HW121842   1.720   5.364   0.456
 6981SOL    HW221843   1.878   5.332   0.480
 6982SOL     OW21844   0.385   6.921   4.845
 6982SOL    HW121845   0.416   7.016   4.837
 6982SOL    HW221846   0.371   6.883   4.754
 6983SOL     OW21847   6.462   0.238   4.195
 6983SOL    HW121848   6.560   0.253   4.207
 6983SOL    HW221849   6.423   0.313   4.142
 6984SOL     OW21850   1.851   1.231   6.211
 6984SOL    HW121851   1.798   1.153   6.242
 6984SOL    HW221852   1.830   1.249   6.114
 6985SOL     OW21853   4.746   5.998   2.157
 6985SOL    HW121854   4.802   5.916   2.169
 6985SOL    HW221855   4.739   6.047   2.245
 6986SOL     OW21856   2.162   6.477   5.959
 6986SOL    HW121857   2.181   6.429   6.044
 6986SOL    HW221858   2.215   6.562   5.954
 6987SOL     OW21859   0.671   3.470   6.691
 6987SOL    HW121860   0.614   3.499   6.614
 6987SOL    HW221861   0.754   3.426   6.656
 6988SOL     OW21862   5.350   1.382   3.710
 6988SOL    HW121863   5.258   1.399   3.674
 6988SOL    HW221864   5.410   1.355   3.635
 6989SOL     OW21865   1.202   1.886   3.609
 6989SOL    HW121866   1.281   1.863   3.665
 6989SOL    HW221867   1.194   1.985   3.600
 6990SOL     OW21868   3.557   3.197   0.238
 6990SOL    HW121869   3.548   3.186   0.337
 6990SOL    HW221870   3.588   3.290   0.218
 6991SOL     OW21871   2.752   4.447   5.925
 6991SOL    HW121872   2.736   4.427   5.828
 6991SOL    HW221873   2.768   4.361   5.975
 6992SOL     OW21874   5.550   6.674   3.938
 6992SOL    HW121875   5.474   6.630   3.987
 6992SOL    HW221876   5.516   6.754   3.889
 6993SOL     OW21877   0.329   0.047   2.997
 6993SOL    HW121878   0.233   0.026   2.979
 6993SOL    HW221879   0.375   0.072   2.911
 6994SOL     OW21880   1.906   3.067   6.925
 6994SOL    HW121881   1.896   3.105   6.833
 6994SOL    HW221882   1.984   3.110   6.971
 6995SOL     OW21883   5.892   5.400   3.288
 6995SOL    HW121884   5.944   5.480   3.260
 6995SOL    HW221885   5.843   5.419   3.372
 6996SOL     OW21886   2.460   0.596   5.675
 6996SOL    HW121887   2.559   0.600   5.691
 6996SOL    HW221888   2.438   0.513   5.622
 6997SOL     OW21889   4.690   7.016   4.871
 6997SOL    HW121890   4.713   0.061   4.938
 6997SOL    HW221891   4.658   6.934   4.919
 6998SOL     OW21892   1.128   3.583   2.846
 6998SOL    HW121893   1.099   3.588   2.751
 6998SOL    HW221894   1.048   3.593   2.906
 6999SOL     OW21895   3.268   1.478   5.503
 6999SOL    HW121896   3.285   1.560   5.448
 6999SOL    HW221897   3.171   1.470   5.521
 7000SOL     OW21898   0.630   6.308   2.309
 7000SOL    HW121899   0.630   6.209   2.312
 7000SOL    HW221900   0.611   6.338   2.215
 7001SOL     OW21901   2.549   3.212   5.741
 7001SOL    HW121902   2.497   3.207   5.656
 7001SOL    HW221903   2.542   3.304   5.780
 7002SOL     OW21904   1.088   5.010   3.146
 7002SOL    HW121905   1.053   5.006   3.052
 7002SOL    HW221906   1.167   5.071   3.149
 7003SOL     OW21907   3.245   6.325   1.096
 7003SOL    HW121908   3.257   6.416   1.055
 7003SOL    HW221909   3.148   6.309   1.112
 7004SOL     OW21910   1.636   3.878   1.385
 7004SOL    HW121911   1.673   3.886   1.292
 7004SOL    HW221912   1.669   3.955   1.440
 7005SOL     OW21913   5.363   5.972   6.437
 7005SOL    HW121914   5.387   6.057   6.484
 7005SOL    HW221915   5.293   5.991   6.368
 7006SOL     OW21916   4.599   4.505   5.107
 7006SOL    HW121917   4.638   4.496   5.016
 7006SOL    HW221918   4.502   4.481   5.106
 7007SOL     OW21919   4.455   6.009   3.136
 7007SOL    HW121920   4.390   5.943   3.176
 7007SOL    HW221921   4.424   6.102   3.156
 7008SOL     OW21922   1.411   5.067   3.831
 7008SOL    HW121923   1.325   5.110   3.805
 7008SOL    HW221924   1.481   5.088   3.763
 7009SOL     OW21925   0.448   4.529   2.364
 7009SOL    HW121926   0.439   4.561   2.270
 7009SOL    HW221927   0.433   4.605   2.427
 7010SOL     OW21928   3.799   5.052   6.451
 7010SOL    HW121929   3.834   5.017   6.538
 7010SOL    HW221930   3.807   4.980   6.381
 7011SOL     OW21931   2.899   0.158   5.985
 7011SOL    HW121932   2.836   0.220   5.937
 7011SOL    HW221933   2.989   0.201   5.989
 7012SOL     OW21934   1.614   0.584   1.615
 7012SOL    HW121935   1.523   0.550   1.638
 7012SOL    HW221936   1.645   0.543   1.530
 7013SOL     OW21937   1.117   6.822   1.322
 7013SOL    HW121938   1.128   6.772   1.408
 7013SOL    HW221939   1.191   6.797   1.259
 7014SOL     OW21940   2.901   4.371   1.266
 7014SOL    HW121941   2.817   4.424   1.257
 7014SOL    HW221942   2.917   4.351   1.363
 7015SOL     OW21943   4.868   2.433   2.557
 7015SOL    HW121944   4.823   2.397   2.475
 7015SOL    HW221945   4.829   2.523   2.578
 7016SOL     OW21946   4.491   5.065   1.179
 7016SOL    HW121947   4.420   5.132   1.158
 7016SOL    HW221948   4.451   4.974   1.190
 7017SOL     OW21949   2.974   1.796   3.357
 7017SOL    HW121950   3.062   1.844   3.362
 7017SOL    HW221951   2.901   1.860   3.382
 7018SOL     OW21952   0.665   4.966   5.179
 7018SOL    HW121953   0.742   4.924   5.131
 7018SOL    HW221954   0.660   4.930   5.272
 7019SOL     OW21955   2.603   5.744   0.158
 7019SOL    HW121956   2.609   5.808   0.235
 7019SOL    HW221957   2.671   5.671   0.169
 7020SOL     OW21958   6.262   6.543   6.615
 7020SOL    HW121959   6.214   6.467   6.573
 7020SOL    HW221960   6.358   6.518   6.630
 7021SOL     OW21961   2.220   1.258   6.437
 7021SOL    HW121962   2.253   1.324   6.504
 7021SOL    HW221963   2.196   1.173   6.484
 7022SOL     OW21964   5.549   4.101   6.809
 7022SOL    HW121965   5.614   4.116   6.884
 7022SOL    HW221966   5.491   4.022   6.831
 7023SOL     OW21967   6.387   3.591   2.213
 7023SOL    HW121968   6.469   3.605   2.158
 7023SOL    HW221969   6.326   3.670   2.203
 7024SOL     OW21970   1.630   5.970   0.553
 7024SOL    HW121971   1.538   6.001   0.528
 7024SOL    HW221972   1.696   6.002   0.485
 7025SOL     OW21973   3.047   2.296   6.506
 7025SOL    HW121974   3.043   2.207   6.552
 7025SOL    HW221975   3.009   2.287   6.414
 7026SOL     OW21976   3.737   1.626   1.154
 7026SOL    HW121977   3.794   1.659   1.229
 7026SOL    HW221978   3.784   1.552   1.106
 7027SOL     OW21979   3.949   6.351   4.490
 7027SOL    HW121980   3.946   6.255   4.519
 7027SOL    HW221981   4.044   6.375   4.468
 7028SOL     OW21982   4.107   6.495   4.140
 7028SOL    HW121983   4.071   6.584   4.170
 7028SOL    HW221984   4.193   6.510   4.090
 7029SOL     OW21985   3.435   0.322   6.939
 7029SOL    HW121986   3.433   0.280   6.848
 7029SOL    HW221987   3.344   0.359   6.960
 7030SOL     OW21988   0.619   3.931   4.839
 7030SOL    HW121989   0.678   3.857   4.872
 7030SOL    HW221990   0.636   3.945   4.741
 7031SOL     OW21991   1.684   5.853   4.341
 7031SOL    HW121992   1.700   5.838   4.243
 7031SOL    HW221993   1.724   5.777   4.393
 7032SOL     OW21994   6.257   0.863   2.432
 7032SOL    HW121995   6.186   0.793   2.430
 7032SOL    HW221996   6.215   0.953   2.444
 7033SOL     OW21997   7.004   1.092   3.673
 7033SOL    HW121998   0.064   1.041   3.682
 7033SOL    HW221999   7.018   1.169   3.611
 7034SOL     OW22000   6.389   6.808   2.620
 7034SOL    HW122001   6.386   6.724   2.567
 7034SOL    HW222002   6.485   6.838   2.630
 7035SOL     OW22003   6.720   5.607   2.581
 7035SOL    HW122004   6.724   5.701   2.617
 7035SOL    HW222005   6.652   5.555   2.632
 7036SOL     OW22006   6.960   5.039   2.189
 7036SOL    HW122007   6.973   4.965   2.256
 7036SOL    HW222008   7.019   5.116   2.213
 7037SOL     OW22009   1.064   6.409   5.887
 7037SOL    HW122010   1.086   6.380   5.794
 7037SOL    HW222011   0.992   6.479   5.884
 7038SOL     OW22012   0.821   4.462   4.386
 7038SOL    HW122013   0.736   4.512   4.399
 7038SOL    HW222014   0.806   4.385   4.324
 7039SOL     OW22015   3.754   0.857   6.033
 7039SOL    HW122016   3.665   0.889   6.065
 7039SOL    HW222017   3.744   0.766   5.993
 7040SOL     OW22018   5.273   2.212   6.307
 7040SOL    HW122019   5.249   2.278   6.379
 7040SOL    HW222020   5.319   2.260   6.232
 7041SOL     OW22021   1.714   1.998   2.796
 7041SOL    HW122022   1.701   2.073   2.862
 7041SOL    HW222023   1.804   2.007   2.753
 7042SOL     OW22024   3.493   6.201   6.451
 7042SOL    HW122025   3.509   6.113   6.408
 7042SOL    HW222026   3.486   6.189   6.550
 7043SOL     OW22027   2.395   1.845   3.215
 7043SOL    HW122028   2.391   1.772   3.146
 7043SOL    HW222029   2.488   1.882   3.218
 7044SOL     OW22030   4.634   4.767   2.871
 7044SOL    HW122031   4.733   4.764   2.859
 7044SOL    HW222032   4.591   4.807   2.791
 7045SOL     OW22033   5.676   5.532   1.225
 7045SOL    HW122034   5.765   5.573   1.244
 7045SOL    HW222035   5.682   5.433   1.237
 7046SOL     OW22036   3.617   0.643   4.469
 7046SOL    HW122037   3.558   0.692   4.534
 7046SOL    HW222038   3.626   0.548   4.498
 7047SOL     OW22039   1.128   0.995   4.543
 7047SOL    HW122040   1.106   0.915   4.598
 7047SOL    HW222041   1.049   1.020   4.486
 7048SOL     OW22042   6.615   5.799   0.415
 7048SOL    HW122043   6.525   5.835   0.391
 7048SOL    HW222044   6.685   5.843   0.357
 7049SOL     OW22045   2.312   1.262   0.815
 7049SOL    HW122046   2.338   1.238   0.722
 7049SOL    HW222047   2.390   1.248   0.876
 7050SOL     OW22048   3.265   4.104   4.503
 7050SOL    HW122049   3.243   4.168   4.577
 7050SOL    HW222050   3.362   4.080   4.509
 7051SOL     OW22051   0.146   0.143   1.721
 7051SOL    HW122052   0.130   0.063   1.779
 7051SOL    HW222053   0.067   0.159   1.663
 7052SOL     OW22054   0.314   2.194   3.808
 7052SOL    HW122055   0.312   2.267   3.740
 7052SOL    HW222056   0.407   2.160   3.818
 7053SOL     OW22057   0.804   4.317   6.895
 7053SOL    HW122058   0.734   4.356   6.835
 7053SOL    HW222059   0.765   4.242   6.948
 7054SOL     OW22060   6.504   6.440   1.858
 7054SOL    HW122061   6.481   6.381   1.781
 7054SOL    HW222062   6.547   6.386   1.930
 7055SOL     OW22063   4.563   0.619   4.107
 7055SOL    HW122064   4.643   0.559   4.097
 7055SOL    HW222065   4.575   0.701   4.051
 7056SOL     OW22066   5.381   4.950   4.030
 7056SOL    HW122067   5.290   4.914   4.006
 7056SOL    HW222068   5.400   5.031   3.975
 7057SOL     OW22069   6.951   5.841   3.478
 7057SOL    HW122070   0.023   5.850   3.458
 7057SOL    HW222071   6.904   5.927   3.455
 7058SOL     OW22072   0.908   5.479   5.822
 7058SOL    HW122073   0.976   5.449   5.755
 7058SOL    HW222074   0.816   5.468   5.784
 7059SOL     OW22075   1.097   0.204   2.173
 7059SOL    HW122076   1.028   0.212   2.101
 7059SOL    HW222077   1.186   0.188   2.132
 7060SOL     OW22078   3.504   6.226   1.832
 7060SOL    HW122079   3.537   6.143   1.876
 7060SOL    HW222080   3.527   6.224   1.735
 7061SOL     OW22081   0.663   0.408   3.136
 7061SOL    HW122082   0.723   0.486   3.123
 7061SOL    HW222083   0.591   0.409   3.066
 7062SOL     OW22084   5.421   2.033   5.023
 7062SOL    HW122085   5.462   1.960   5.078
 7062SOL    HW222086   5.441   2.018   4.927
 7063SOL     OW22087   2.356   6.580   1.519
 7063SOL    HW122088   2.403   6.513   1.576
 7063SOL    HW222089   2.336   6.662   1.574
 7064SOL     OW22090   3.582   2.196   1.559
 7064SOL    HW122091   3.530   2.282   1.562
 7064SOL    HW222092   3.573   2.148   1.646
 7065SOL     OW22093   4.746   3.555   1.785
 7065SOL    HW122094   4.786   3.476   1.831
 7065SOL    HW222095   4.761   3.548   1.687
 7066SOL     OW22096   4.182   6.691   0.225
 7066SOL    HW122097   4.111   6.742   0.274
 7066SOL    HW222098   4.179   6.715   0.128
 7067SOL     OW22099   0.692   3.851   5.853
 7067SOL    HW122100   0.728   3.937   5.888
 7067SOL    HW222101   0.619   3.869   5.787
 7068SOL     OW22102   1.373   1.187   3.704
 7068SOL    HW122103   1.299   1.237   3.659
 7068SOL    HW222104   1.455   1.245   3.707
 7069SOL     OW22105   0.492   4.137   5.489
 7069SOL    HW122106   0.423   4.208   5.500
 7069SOL    HW222107   0.503   4.087   5.575
 7070SOL     OW22108   6.283   4.682   5.117
 7070SOL    HW122109   6.248   4.673   5.210
 7070SOL    HW222110   6.233   4.621   5.056
 7071SOL     OW22111   1.670   5.672   5.331
 7071SOL    HW122112   1.608   5.609   5.377
 7071SOL    HW222113   1.627   5.706   5.248
 7072SOL     OW22114   6.994   6.491   6.474
 7072SOL    HW122115   0.022   6.542   6.541
 7072SOL    HW222116   0.022   6.413   6.441
 7073SOL     OW22117   0.424   0.764   5.200
 7073SOL    HW122118   0.400   0.819   5.120
 7073SOL    HW222119   0.351   0.698   5.219
 7074SOL     OW22120   3.252   1.857   1.838
 7074SOL    HW122121   3.190   1.935   1.843
 7074SOL    HW222122   3.277   1.828   1.930
 7075SOL     OW22123   1.813   5.653   4.462
 7075SOL    HW122124   1.860   5.590   4.524
 7075SOL    HW222125   1.773   5.602   4.386
 7076SOL     OW22126   3.517   1.695   6.319
 7076SOL    HW122127   3.533   1.666   6.413
 7076SOL    HW222128   3.595   1.747   6.285
 7077SOL     OW22129   2.352   5.557   5.635
 7077SOL    HW122130   2.392   5.554   5.727
 7077SOL    HW222131   2.424   5.546   5.566
 7078SOL     OW22132   5.549   0.820   3.451
 7078SOL    HW122133   5.627   0.860   3.498
 7078SOL    HW222134   5.480   0.890   3.434
 7079SOL     OW22135   6.237   6.387   6.029
 7079SOL    HW122136   6.266   6.327   6.104
 7079SOL    HW222137   6.294   6.469   6.027
 7080SOL     OW22138   4.179   2.077   3.762
 7080SOL    HW122139   4.090   2.108   3.728
 7080SOL    HW222140   4.250   2.139   3.727
 7081SOL     OW22141   3.404   1.326   5.687
 7081SOL    HW122142   3.333   1.309   5.755
 7081SOL    HW222143   3.367   1.382   5.613
 7082SOL     OW22144   6.000   1.265   6.583
 7082SOL    HW122145   5.955   1.354   6.573
 7082SOL    HW222146   6.028   1.253   6.678
 7083SOL     OW22147   3.350   0.149   5.787
 7083SOL    HW122148   3.425   0.211   5.766
 7083SOL    HW222149   3.286   0.147   5.710
 7084SOL     OW22150   6.857   6.443   5.887
 7084SOL    HW122151   6.819   6.494   5.964
 7084SOL    HW222152   6.931   6.384   5.919
 7085SOL     OW22153   2.245   2.378   2.388
 7085SOL    HW122154   2.336   2.418   2.400
 7085SOL    HW222155   2.218   2.385   2.292
 7086SOL     OW22156   5.498   0.849   6.509
 7086SOL    HW122157   5.472   0.934   6.556
 7086SOL    HW222158   5.596   0.834   6.519
 7087SOL     OW22159   0.943   3.577   4.655
 7087SOL    HW122160   1.036   3.544   4.666
 7087SOL    HW222161   0.925   3.592   4.557
 7088SOL     OW22162   5.407   3.396   4.217
 7088SOL    HW122163   5.343   3.346   4.276
 7088SOL    HW222164   5.469   3.331   4.173
 7089SOL     OW22165   3.771   2.017   6.601
 7089SOL    HW122166   3.777   2.070   6.516
 7089SOL    HW222167   3.860   2.017   6.647
 7090SOL     OW22168   2.226   1.977   5.074
 7090SOL    HW122169   2.167   1.938   5.004
 7090SOL    HW222170   2.287   1.906   5.109
 7091SOL     OW22171   6.819   0.799   0.729
 7091SOL    HW122172   6.862   0.712   0.750
 7091SOL    HW222173   6.792   0.801   0.633
 7092SOL     OW22174   3.592   4.046   1.238
 7092SOL    HW122175   3.524   4.061   1.310
 7092SOL    HW222176   3.547   4.017   1.154
 7093SOL     OW22177   3.699   3.743   4.677
 7093SOL    HW122178   3.649   3.780   4.755
 7093SOL    HW222179   3.793   3.777   4.679
 7094SOL     OW22180   0.983   6.747   5.648
 7094SOL    HW122181   0.998   6.792   5.735
 7094SOL    HW222182   0.911   6.795   5.597
 7095SOL     OW22183   1.018   2.978   6.449
 7095SOL    HW122184   1.042   3.008   6.541
 7095SOL    HW222185   1.078   3.022   6.383
 7096SOL     OW22186   4.269   2.328   4.031
 7096SOL    HW122187   4.319   2.261   4.085
 7096SOL    HW222188   4.318   2.344   3.945
 7097SOL     OW22189   0.286   1.042   1.882
 7097SOL    HW122190   0.206   1.102   1.880
 7097SOL    HW222191   0.266   0.963   1.941
 7098SOL     OW22192   1.692   5.904   6.331
 7098SOL    HW122193   1.753   5.947   6.264
 7098SOL    HW222194   1.669   5.812   6.302
 7099SOL     OW22195   1.133   1.201   5.162
 7099SOL    HW122196   1.082   1.278   5.124
 7099SOL    HW222197   1.223   1.233   5.192
 7100SOL     OW22198   4.849   3.697   1.270
 7100SOL    HW122199   4.890   3.607   1.287
 7100SOL    HW222200   4.843   3.712   1.171
 7101SOL     OW22201   3.046   0.442   4.899
 7101SOL    HW122202   2.991   0.379   4.954
 7101SOL    HW222203   3.118   0.481   4.956
 7102SOL     OW22204   3.642   1.187   0.754
 7102SOL    HW122205   3.590   1.253   0.699
 7102SOL    HW222206   3.674   1.113   0.695
 7103SOL     OW22207   3.401   6.442   0.432
 7103SOL    HW122208   3.368   6.356   0.471
 7103SOL    HW222209   3.479   6.423   0.372
 7104SOL     OW22210   1.665   2.135   3.513
 7104SOL    HW122211   1.656   2.038   3.491
 7104SOL    HW222212   1.599   2.188   3.460
 7105SOL     OW22213   3.484   3.319   4.389
 7105SOL    HW122214   3.403   3.344   4.336
 7105SOL    HW222215   3.519   3.231   4.356
 7106SOL     OW22216   3.975   3.128   4.523
 7106SOL    HW122217   3.910   3.203   4.512
 7106SOL    HW222218   4.045   3.134   4.452
 7107SOL     OW22219   2.902   1.103   0.550
 7107SOL    HW122220   2.901   1.105   0.650
 7107SOL    HW222221   2.905   1.197   0.515
 7108SOL     OW22222   4.999   6.066   0.943
 7108SOL    HW122223   5.031   6.079   1.037
 7108SOL    HW222224   4.899   6.073   0.941
 7109SOL     OW22225   3.570   0.267   6.142
 7109SOL    HW122226   3.547   0.322   6.222
 7109SOL    HW222227   3.486   0.230   6.101
 7110SOL     OW22228   4.482   5.025   4.370
 7110SOL    HW122229   4.425   5.088   4.424
 7110SOL    HW222230   4.569   5.010   4.418
 7111SOL     OW22231   2.081   3.270   4.285
 7111SOL    HW122232   2.094   3.369   4.272
 7111SOL    HW222233   2.110   3.223   4.202
 7112SOL     OW22234   1.343   6.547   3.926
 7112SOL    HW122235   1.282   6.553   4.005
 7112SOL    HW222236   1.308   6.480   3.861
 7113SOL     OW22237   3.621   3.932   4.293
 7113SOL    HW122238   3.645   3.848   4.245
 7113SOL    HW222239   3.575   3.995   4.230
 7114SOL     OW22240   4.503   1.298   1.720
 7114SOL    HW122241   4.588   1.347   1.740
 7114SOL    HW222242   4.426   1.362   1.719
 7115SOL     OW22243   4.702   1.398   1.452
 7115SOL    HW122244   4.735   1.487   1.420
 7115SOL    HW222245   4.612   1.380   1.412
 7116SOL     OW22246   5.357   3.820   3.699
 7116SOL    HW122247   5.284   3.761   3.733
 7116SOL    HW222248   5.367   3.807   3.600
 7117SOL     OW22249   6.214   6.104   2.441
 7117SOL    HW122250   6.286   6.070   2.381
 7117SOL    HW222251   6.250   6.176   2.500
 7118SOL     OW22252   5.409   3.701   0.596
 7118SOL    HW122253   5.369   3.661   0.513
 7118SOL    HW222254   5.337   3.746   0.649
 7119SOL     OW22255   6.338   1.236   2.720
 7119SOL    HW122256   6.332   1.177   2.801
 7119SOL    HW222257   6.394   1.317   2.742
 7120SOL     OW22258   4.956   1.686   4.269
 7120SOL    HW122259   4.988   1.700   4.363
 7120SOL    HW222260   4.870   1.736   4.255
 7121SOL     OW22261   2.462   6.634   3.789
 7121SOL    HW122262   2.403   6.611   3.712
 7121SOL    HW222263   2.405   6.656   3.869
 7122SOL     OW22264   6.594   1.073   6.966
 7122SOL    HW122265   6.570   1.170   6.954
 7122SOL    HW222266   6.511   1.019   6.972
 7123SOL     OW22267   3.255   5.435   1.419
 7123SOL    HW122268   3.351   5.462   1.410
 7123SOL    HW222269   3.241   5.386   1.505
 7124SOL     OW22270   0.038   5.301   6.605
 7124SOL    HW122271   0.059   5.344   6.518
 7124SOL    HW222272   0.031   5.202   6.594
 7125SOL     OW22273   6.442   6.578   2.479
 7125SOL    HW122274   6.375   6.601   2.409
 7125SOL    HW222275   6.525   6.632   2.466
 7126SOL     OW22276   1.873   4.442   0.293
 7126SOL    HW122277   1.814   4.394   0.229
 7126SOL    HW222278   1.878   4.390   0.379
 7127SOL     OW22279   3.308   5.870   4.441
 7127SOL    HW122280   3.323   5.951   4.498
 7127SOL    HW222281   3.283   5.898   4.348
 7128SOL     OW22282   3.531   4.315   1.001
 7128SOL    HW122283   3.443   4.330   1.047
 7128SOL    HW222284   3.606   4.328   1.065
 7129SOL     OW22285   3.112   0.418   1.507
 7129SOL    HW122286   3.012   0.423   1.509
 7129SOL    HW222287   3.149   0.467   1.586
 7130SOL     OW22288   2.752   5.123   3.725
 7130SOL    HW122289   2.688   5.104   3.800
 7130SOL    HW222290   2.763   5.041   3.669
 7131SOL     OW22291   2.450   1.321   2.632
 7131SOL    HW122292   2.511   1.396   2.607
 7131SOL    HW222293   2.497   1.234   2.619
 7132SOL     OW22294   3.609   4.103   2.753
 7132SOL    HW122295   3.535   4.109   2.685
 7132SOL    HW222296   3.697   4.109   2.706
 7133SOL     OW22297   4.733   5.334   3.302
 7133SOL    HW122298   4.719   5.364   3.396
 7133SOL    HW222299   4.700   5.241   3.291
 7134SOL     OW22300   6.049   5.687   3.986
 7134SOL    HW122301   6.023   5.631   4.065
 7134SOL    HW222302   6.100   5.767   4.016
 7135SOL     OW22303   1.554   0.954   4.186
 7135SOL    HW122304   1.557   1.027   4.117
 7135SOL    HW222305   1.636   0.897   4.178
 7136SOL     OW22306   1.462   1.079   0.449
 7136SOL    HW122307   1.443   1.019   0.527
 7136SOL    HW222308   1.526   1.033   0.386
 7137SOL     OW22309   4.466   0.649   4.362
 7137SOL    HW122310   4.479   0.633   4.264
 7137SOL    HW222311   4.508   0.736   4.388
 7138SOL     OW22312   2.827   3.656   1.025
 7138SOL    HW122313   2.849   3.559   1.012
 7138SOL    HW222314   2.808   3.673   1.122
 7139SOL     OW22315   4.462   3.228   1.707
 7139SOL    HW122316   4.378   3.206   1.756
 7139SOL    HW222317   4.539   3.179   1.748
 7140SOL     OW22318   6.262   4.354   5.233
 7140SOL    HW122319   6.301   4.374   5.143
 7140SOL    HW222320   6.162   4.356   5.227
 7141SOL     OW22321   2.687   0.498   0.881
 7141SOL    HW122322   2.659   0.575   0.938
 7141SOL    HW222323   2.697   0.417   0.938
 7142SOL     OW22324   4.345   6.135   3.765
 7142SOL    HW122325   4.364   6.129   3.863
 7142SOL    HW222326   4.257   6.182   3.752
 7143SOL     OW22327   1.625   3.930   6.400
 7143SOL    HW122328   1.664   3.841   6.381
 7143SOL    HW222329   1.613   3.981   6.314
 7144SOL     OW22330   1.232   1.710   3.216
 7144SOL    HW122331   1.212   1.654   3.135
 7144SOL    HW222332   1.156   1.703   3.281
 7145SOL     OW22333   4.573   6.942   6.691
 7145SOL    HW122334   4.551   0.012   6.709
 7145SOL    HW222335   4.507   6.904   6.626
 7146SOL     OW22336   2.880   6.484   0.394
 7146SOL    HW122337   2.800   6.492   0.453
 7146SOL    HW222338   2.946   6.422   0.435
 7147SOL     OW22339   6.882   0.679   3.046
 7147SOL    HW122340   6.960   0.725   3.003
 7147SOL    HW222341   6.798   0.730   3.025
 7148SOL     OW22342   1.341   6.698   1.686
 7148SOL    HW122343   1.249   6.732   1.670
 7148SOL    HW222344   1.371   6.643   1.608
 7149SOL     OW22345   6.450   1.460   3.319
 7149SOL    HW122346   6.367   1.422   3.361
 7149SOL    HW222347   6.473   1.547   3.364
 7150SOL     OW22348   5.242   2.540   0.379
 7150SOL    HW122349   5.288   2.507   0.296
 7150SOL    HW222350   5.293   2.508   0.459
 7151SOL     OW22351   2.040   5.805   1.680
 7151SOL    HW122352   2.037   5.730   1.613
 7151SOL    HW222353   2.081   5.773   1.765
 7152SOL     OW22354   1.051   2.886   4.335
 7152SOL    HW122355   1.093   2.974   4.356
 7152SOL    HW222356   0.952   2.896   4.329
 7153SOL     OW22357   4.565   0.968   4.631
 7153SOL    HW122358   4.578   0.966   4.532
 7153SOL    HW222359   4.489   0.908   4.656
 7154SOL     OW22360   4.002   5.869   4.164
 7154SOL    HW122361   4.019   5.928   4.244
 7154SOL    HW222362   4.082   5.871   4.104
 7155SOL     OW22363   1.422   6.646   2.075
 7155SOL    HW122364   1.380   6.576   2.017
 7155SOL    HW222365   1.450   6.724   2.018
 7156SOL     OW22366   6.466   5.447   5.315
 7156SOL    HW122367   6.536   5.508   5.277
 7156SOL    HW222368   6.377   5.469   5.275
 7157SOL     OW22369   5.287   5.441   0.517
 7157SOL    HW122370   5.210   5.378   0.516
 7157SOL    HW222371   5.254   5.535   0.507
 7158SOL     OW22372   0.199   6.737   3.457
 7158SOL    HW122373   0.279   6.697   3.413
 7158SOL    HW222374   0.202   6.720   3.555
 7159SOL     OW22375   0.486   4.971   0.438
 7159SOL    HW122376   0.450   5.031   0.509
 7159SOL    HW222377   0.583   4.952   0.457
 7160SOL     OW22378   6.318   0.333   2.110
 7160SOL    HW122379   6.293   0.276   2.189
 7160SOL    HW222380   6.243   0.332   2.044
 7161SOL     OW22381   3.394   2.889   4.094
 7161SOL    HW122382   3.488   2.885   4.060
 7161SOL    HW222383   3.366   2.798   4.125
 7162SOL     OW22384   3.999   4.910   3.974
 7162SOL    HW122385   3.946   4.929   4.056
 7162SOL    HW222386   4.029   4.996   3.933
 7163SOL     OW22387   3.227   0.346   3.526
 7163SOL    HW122388   3.320   0.347   3.488
 7163SOL    HW222389   3.229   0.303   3.616
 7164SOL     OW22390   2.079   1.324   3.624
 7164SOL    HW122391   2.152   1.274   3.577
 7164SOL    HW222392   2.002   1.335   3.562
 7165SOL     OW22393   5.152   0.981   0.801
 7165SOL    HW122394   5.205   1.012   0.880
 7165SOL    HW222395   5.204   0.912   0.751
 7166SOL     OW22396   4.998   4.942   0.981
 7166SOL    HW122397   5.026   4.859   0.932
 7166SOL    HW222398   5.079   4.997   1.001
 7167SOL     OW22399   4.890   3.416   5.259
 7167SOL    HW122400   4.821   3.462   5.204
 7167SOL    HW222401   4.845   3.359   5.328
 7168SOL     OW22402   1.370   0.781   3.931
 7168SOL    HW122403   1.404   0.859   3.879
 7168SOL    HW222404   1.415   0.697   3.900
 7169SOL     OW22405   1.683   3.116   6.225
 7169SOL    HW122406   1.720   3.098   6.316
 7169SOL    HW222407   1.630   3.201   6.227
 7170SOL     OW22408   5.570   4.846   3.507
 7170SOL    HW122409   5.475   4.824   3.528
 7170SOL    HW222410   5.578   4.874   3.412
 7171SOL     OW22411   4.163   2.950   5.448
 7171SOL    HW122412   4.174   2.854   5.423
 7171SOL    HW222413   4.176   2.960   5.546
 7172SOL     OW22414   1.843   6.877   0.555
 7172SOL    HW122415   1.804   6.856   0.645
 7172SOL    HW222416   1.836   6.975   0.538
 7173SOL     OW22417   0.092   6.260   5.061
 7173SOL    HW122418   0.149   6.331   5.021
 7173SOL    HW222419   0.135   6.170   5.045
 7174SOL     OW22420   1.930   5.598   0.285
 7174SOL    HW122421   1.896   5.528   0.348
 7174SOL    HW222422   1.990   5.660   0.335
 7175SOL     OW22423   4.932   4.073   0.164
 7175SOL    HW122424   4.984   4.013   0.103
 7175SOL    HW222425   4.848   4.027   0.192
 7176SOL     OW22426   6.479   4.194   1.436
 7176SOL    HW122427   6.453   4.208   1.341
 7176SOL    HW222428   6.399   4.163   1.488
 7177SOL     OW22429   0.749   6.023   3.344
 7177SOL    HW122430   0.676   6.048   3.408
 7177SOL    HW222431   0.751   5.924   3.332
 7178SOL     OW22432   0.979   2.933   4.761
 7178SOL    HW122433   1.044   2.971   4.695
 7178SOL    HW222434   0.909   2.881   4.712
 7179SOL     OW22435   3.001   3.811   5.372
 7179SOL    HW122436   2.911   3.797   5.330
 7179SOL    HW222437   3.060   3.733   5.352
 7180SOL     OW22438   0.572   6.331   1.236
 7180SOL    HW122439   0.660   6.335   1.188
 7180SOL    HW222440   0.524   6.247   1.211
 7181SOL     OW22441   4.727   0.438   1.109
 7181SOL    HW122442   4.698   0.470   1.199
 7181SOL    HW222443   4.774   0.513   1.061
 7182SOL     OW22444   2.510   4.561   5.467
 7182SOL    HW122445   2.540   4.567   5.371
 7182SOL    HW222446   2.415   4.530   5.470
 7183SOL     OW22447   1.976   4.902   3.417
 7183SOL    HW122448   1.902   4.968   3.402
 7183SOL    HW222449   1.995   4.895   3.515
 7184SOL     OW22450   1.815   6.516   4.102
 7184SOL    HW122451   1.826   6.527   4.003
 7184SOL    HW222452   1.901   6.484   4.142
 7185SOL     OW22453   4.424   2.708   6.890
 7185SOL    HW122454   4.461   2.688   6.981
 7185SOL    HW222455   4.498   2.742   6.831
 7186SOL     OW22456   6.673   5.965   5.279
 7186SOL    HW122457   6.752   5.996   5.227
 7186SOL    HW222458   6.703   5.906   5.354
 7187SOL     OW22459   1.692   4.233   2.013
 7187SOL    HW122460   1.640   4.277   2.086
 7187SOL    HW222461   1.689   4.290   1.931
 7188SOL     OW22462   4.965   0.542   2.010
 7188SOL    HW122463   4.902   0.511   1.939
 7188SOL    HW222464   4.914   0.593   2.079
 7189SOL     OW22465   0.116   1.190   5.218
 7189SOL    HW122466   0.179   1.119   5.249
 7189SOL    HW222467   0.115   1.265   5.283
 7190SOL     OW22468   5.878   4.043   3.014
 7190SOL    HW122469   5.902   4.002   3.102
 7190SOL    HW222470   5.929   4.129   3.003
 7191SOL     OW22471   1.200   3.685   2.324
 7191SOL    HW122472   1.233   3.590   2.326
 7191SOL    HW222473   1.270   3.743   2.282
 7192SOL     OW22474   2.784   4.652   6.618
 7192SOL    HW122475   2.878   4.618   6.619
 7192SOL    HW222476   2.767   4.702   6.533
 7193SOL     OW22477   3.910   1.675   4.149
 7193SOL    HW122478   3.832   1.691   4.089
 7193SOL    HW222479   3.995   1.688   4.098
 7194SOL     OW22480   2.641   2.309   1.699
 7194SOL    HW122481   2.605   2.397   1.731
 7194SOL    HW222482   2.694   2.266   1.772
 7195SOL     OW22483   0.460   5.372   0.723
 7195SOL    HW122484   0.405   5.446   0.760
 7195SOL    HW222485   0.556   5.402   0.716
 7196SOL     OW22486   3.017   3.159   2.900
 7196SOL    HW122487   2.941   3.211   2.939
 7196SOL    HW222488   2.993   3.130   2.807
 7197SOL     OW22489   7.009   1.758   5.111
 7197SOL    HW122490   7.007   1.848   5.155
 7197SOL    HW222491   0.073   1.716   5.123
 7198SOL     OW22492   1.466   6.953   6.344
 7198SOL    HW122493   1.459   0.002   6.410
 7198SOL    HW222494   1.452   6.865   6.391
 7199SOL     OW22495   0.016   0.082   2.697
 7199SOL    HW122496   0.098   0.025   2.698
 7199SOL    HW222497   6.960   0.024   2.700
 7200SOL     OW22498   2.159   1.125   1.542
 7200SOL    HW122499   2.201   1.199   1.489
 7200SOL    HW222500   2.094   1.164   1.607
 7201SOL     OW22501   1.554   4.748   4.231
 7201SOL    HW122502   1.517   4.781   4.317
 7201SOL    HW222503   1.480   4.735   4.165
 7202SOL     OW22504   4.222   0.452   6.305
 7202SOL    HW122505   4.250   0.537   6.349
 7202SOL    HW222506   4.128   0.460   6.274
 7203SOL     OW22507   5.714   0.913   6.728
 7203SOL    HW122508   5.763   0.827   6.743
 7203SOL    HW222509   5.618   0.900   6.754
 7204SOL     OW22510   5.878   1.114   2.992
 7204SOL    HW122511   5.947   1.085   2.925
 7204SOL    HW222512   5.919   1.176   3.058
 7205SOL     OW22513   1.761   5.075   3.366
 7205SOL    HW122514   1.735   5.143   3.435
 7205SOL    HW222515   1.702   4.995   3.374
 7206SOL     OW22516   6.680   1.454   0.766
 7206SOL    HW122517   6.755   1.390   0.786
 7206SOL    HW222518   6.657   1.449   0.669
 7207SOL     OW22519   3.169   6.475   1.405
 7207SOL    HW122520   3.222   6.425   1.337
 7207SOL    HW222521   3.171   6.425   1.492
 7208SOL     OW22522   3.166   0.154   5.593
 7208SOL    HW122523   3.219   0.125   5.513
 7208SOL    HW222524   3.087   0.207   5.563
 7209SOL     OW22525   3.893   3.220   4.015
 7209SOL    HW122526   3.867   3.139   3.962
 7209SOL    HW222527   3.813   3.281   4.023
 7210SOL     OW22528   4.628   1.040   3.764
 7210SOL    HW122529   4.670   1.063   3.676
 7210SOL    HW222530   4.559   0.969   3.751
 7211SOL     OW22531   1.516   5.704   4.031
 7211SOL    HW122532   1.593   5.768   4.029
 7211SOL    HW222533   1.451   5.726   3.958
 7212SOL     OW22534   6.076   6.150   4.183
 7212SOL    HW122535   6.059   6.248   4.188
 7212SOL    HW222536   6.095   6.124   4.089
 7213SOL     OW22537   5.942   1.042   5.680
 7213SOL    HW122538   5.946   1.131   5.634
 7213SOL    HW222539   5.867   0.988   5.642
 7214SOL     OW22540   1.757   5.004   5.302
 7214SOL    HW122541   1.707   4.960   5.376
 7214SOL    HW222542   1.766   5.102   5.321
 7215SOL     OW22543   0.346   3.876   4.209
 7215SOL    HW122544   0.287   3.828   4.274
 7215SOL    HW222545   0.323   3.973   4.208
 7216SOL     OW22546   2.430   0.213   0.016
 7216SOL    HW122547   2.393   0.141   6.983
 7216SOL    HW222548   2.492   0.270   6.989
 7217SOL     OW22549   1.017   3.109   2.603
 7217SOL    HW122550   1.013   3.019   2.561
 7217SOL    HW222551   1.110   3.125   2.638
 7218SOL     OW22552   4.562   2.183   5.592
 7218SOL    HW122553   4.643   2.218   5.544
 7218SOL    HW222554   4.498   2.258   5.608
 7219SOL     OW22555   4.123   6.639   2.777
 7219SOL    HW122556   4.154   6.546   2.801
 7219SOL    HW222557   4.034   6.656   2.819
 7220SOL     OW22558   6.834   1.134   2.292
 7220SOL    HW122559   6.870   1.121   2.385
 7220SOL    HW222560   6.789   1.050   2.262
 7221SOL     OW22561   5.240   3.899   5.950
 7221SOL    HW122562   5.161   3.922   6.006
 7221SOL    HW222563   5.232   3.805   5.918
 7222SOL     OW22564   0.368   5.848   1.211
 7222SOL    HW122565   0.453   5.821   1.166
 7222SOL    HW222566   0.330   5.770   1.261
 7223SOL     OW22567   3.322   1.850   6.026
 7223SOL    HW122568   3.421   1.858   6.015
 7223SOL    HW222569   3.299   1.855   6.123
 7224SOL     OW22570   5.644   0.098   4.939
 7224SOL    HW122571   5.588   0.174   4.971
 7224SOL    HW222572   5.596   0.049   4.866
 7225SOL     OW22573   2.273   6.059   0.126
 7225SOL    HW122574   2.279   6.134   0.193
 7225SOL    HW222575   2.359   6.051   0.077
 7226SOL     OW22576   0.257   6.783   0.305
 7226SOL    HW122577   0.280   6.837   0.386
 7226SOL    HW222578   0.271   6.686   0.324
 7227SOL     OW22579   0.106   2.721   6.785
 7227SOL    HW122580   0.120   2.734   6.687
 7227SOL    HW222581   0.175   2.658   6.820
 7228SOL     OW22582   0.512   0.313   1.974
 7228SOL    HW122583   0.447   0.389   1.980
 7228SOL    HW222584   0.506   0.272   1.883
 7229SOL     OW22585   1.124   0.178   4.275
 7229SOL    HW122586   1.061   0.256   4.278
 7229SOL    HW222587   1.076   0.097   4.309
 7230SOL     OW22588   4.970   4.836   3.519
 7230SOL    HW122589   5.011   4.764   3.574
 7230SOL    HW222590   4.877   4.810   3.493
 7231SOL     OW22591   5.955   1.366   5.664
 7231SOL    HW122592   5.935   1.329   5.573
 7231SOL    HW222593   6.021   1.441   5.656
 7232SOL     OW22594   4.084   4.848   2.482
 7232SOL    HW122595   3.996   4.859   2.529
 7232SOL    HW222596   4.101   4.929   2.426
 7233SOL     OW22597   0.440   2.877   5.672
 7233SOL    HW122598   0.394   2.816   5.738
 7233SOL    HW222599   0.399   2.968   5.678
 7234SOL     OW22600   6.185   1.890   1.845
 7234SOL    HW122601   6.149   1.878   1.752
 7234SOL    HW222602   6.278   1.927   1.840
 7235SOL     OW22603   5.479   3.396   5.386
 7235SOL    HW122604   5.478   3.492   5.356
 7235SOL    HW222605   5.394   3.377   5.436
 7236SOL     OW22606   3.571   0.772   3.042
 7236SOL    HW122607   3.620   0.790   2.957
 7236SOL    HW222608   3.553   0.674   3.050
 7237SOL     OW22609   5.769   6.050   5.888
 7237SOL    HW122610   5.861   6.072   5.857
 7237SOL    HW222611   5.771   5.966   5.942
 7238SOL     OW22612   2.444   2.129   2.245
 7238SOL    HW122613   2.540   2.154   2.226
 7238SOL    HW222614   2.397   2.112   2.158
 7239SOL     OW22615   3.022   1.526   2.134
 7239SOL    HW122616   3.053   1.472   2.056
 7239SOL    HW222617   3.006   1.621   2.104
 7240SOL     OW22618   2.427   4.652   0.405
 7240SOL    HW122619   2.434   4.611   0.496
 7240SOL    HW222620   2.456   4.747   0.409
 7241SOL     OW22621   3.269   6.999   5.209
 7241SOL    HW122622   3.367   6.985   5.196
 7241SOL    HW222623   3.250   0.071   5.221
 7242SOL     OW22624   6.123   4.146   6.694
 7242SOL    HW122625   6.070   4.212   6.748
 7242SOL    HW222626   6.063   4.102   6.627
 7243SOL     OW22627   0.542   5.721   0.494
 7243SOL    HW122628   0.471   5.652   0.510
 7243SOL    HW222629   0.572   5.759   0.582
 7244SOL     OW22630   5.689   1.805   1.339
 7244SOL    HW122631   5.638   1.827   1.422
 7244SOL    HW222632   5.692   1.705   1.327
 7245SOL     OW22633   0.344   2.006   4.464
 7245SOL    HW122634   0.253   2.039   4.439
 7245SOL    HW222635   0.376   1.940   4.395
 7246SOL     OW22636   6.922   6.640   5.487
 7246SOL    HW122637   6.992   6.640   5.558
 7246SOL    HW222638   6.848   6.578   5.514
 7247SOL     OW22639   3.025   5.927   2.438
 7247SOL    HW122640   2.990   5.983   2.513
 7247SOL    HW222641   2.960   5.854   2.418
 7248SOL     OW22642   4.075   0.882   4.567
 7248SOL    HW122643   3.994   0.923   4.608
 7248SOL    HW222644   4.057   0.785   4.548
 7249SOL     OW22645   6.060   5.108   6.874
 7249SOL    HW122646   5.965   5.101   6.843
 7249SOL    HW222647   6.092   5.202   6.864
 7250SOL     OW22648   3.261   4.514   6.367
 7250SOL    HW122649   3.316   4.586   6.324
 7250SOL    HW222650   3.309   4.480   6.448
 7251SOL     OW22651   5.824   0.117   5.242
 7251SOL    HW122652   5.839   0.020   5.221
 7251SOL    HW222653   5.738   0.128   5.291
 7252SOL     OW22654   3.767   2.982   4.623
 7252SOL    HW122655   3.705   3.055   4.652
 7252SOL    HW222656   3.856   3.020   4.599
 7253SOL     OW22657   4.180   5.902   1.266
 7253SOL    HW122658   4.261   5.947   1.304
 7253SOL    HW222659   4.100   5.961   1.280
 7254SOL     OW22660   4.381   6.573   4.539
 7254SOL    HW122661   4.371   6.662   4.495
 7254SOL    HW222662   4.477   6.549   4.545
 7255SOL     OW22663   2.971   3.834   2.394
 7255SOL    HW122664   2.920   3.749   2.407
 7255SOL    HW222665   2.999   3.841   2.298
 7256SOL     OW22666   4.312   4.922   3.912
 7256SOL    HW122667   4.299   5.021   3.917
 7256SOL    HW222668   4.282   4.889   3.823
 7257SOL     OW22669   6.081   2.931   3.450
 7257SOL    HW122670   6.071   2.897   3.543
 7257SOL    HW222671   6.106   3.027   3.452
 7258SOL     OW22672   3.402   0.013   4.520
 7258SOL    HW122673   3.381   0.105   4.486
 7258SOL    HW222674   3.499   0.007   4.543
 7259SOL     OW22675   2.321   4.648   6.685
 7259SOL    HW122676   2.407   4.609   6.717
 7259SOL    HW222677   2.305   4.737   6.729
 7260SOL     OW22678   3.378   1.999   2.653
 7260SOL    HW122679   3.444   2.056   2.603
 7260SOL    HW222680   3.424   1.917   2.686
 7261SOL     OW22681   1.969   3.733   1.729
 7261SOL    HW122682   2.004   3.814   1.777
 7261SOL    HW222683   1.927   3.671   1.794
 7262SOL     OW22684   5.941   1.484   4.811
 7262SOL    HW122685   6.008   1.556   4.827
 7262SOL    HW222686   5.851   1.525   4.793
 7263SOL     OW22687   2.581   5.895   1.947
 7263SOL    HW122688   2.530   5.982   1.951
 7263SOL    HW222689   2.673   5.913   1.913
 7264SOL     OW22690   0.572   0.065   5.643
 7264SOL    HW122691   0.623   0.019   5.716
 7264SOL    HW222692   0.636   0.114   5.584
 7265SOL     OW22693   4.462   4.973   5.741
 7265SOL    HW122694   4.370   5.010   5.752
 7265SOL    HW222695   4.460   4.897   5.677
 7266SOL     OW22696   4.959   0.779   1.795
 7266SOL    HW122697   4.957   0.878   1.782
 7266SOL    HW222698   4.999   0.758   1.885
 7267SOL     OW22699   6.972   4.281   3.953
 7267SOL    HW122700   0.022   4.344   3.970
 7267SOL    HW222701   6.924   4.262   4.039
 7268SOL     OW22702   3.134   6.980   1.554
 7268SOL    HW122703   3.043   6.994   1.516
 7268SOL    HW222704   3.183   6.911   1.500
 7269SOL     OW22705   1.553   6.024   2.228
 7269SOL    HW122706   1.480   6.025   2.297
 7269SOL    HW222707   1.533   6.093   2.158
 7270SOL     OW22708   3.123   1.422   2.641
 7270SOL    HW122709   3.065   1.344   2.666
 7270SOL    HW222710   3.120   1.436   2.542
 7271SOL     OW22711   6.687   3.485   3.483
 7271SOL    HW122712   6.773   3.471   3.531
 7271SOL    HW222713   6.696   3.564   3.422
 7272SOL     OW22714   6.075   2.412   2.218
 7272SOL    HW122715   6.096   2.510   2.229
 7272SOL    HW222716   6.056   2.372   2.308
 7273SOL     OW22717   5.208   4.824   0.225
 7273SOL    HW122718   5.247   4.752   0.168
 7273SOL    HW222719   5.169   4.895   0.167
 7274SOL     OW22720   6.354   4.943   5.498
 7274SOL    HW122721   6.360   4.926   5.596
 7274SOL    HW222722   6.324   4.860   5.451
 7275SOL     OW22723   6.882   6.813   0.336
 7275SOL    HW122724   6.893   6.770   0.425
 7275SOL    HW222725   6.788   6.801   0.304
 7276SOL     OW22726   2.632   2.505   3.938
 7276SOL    HW122727   2.544   2.503   3.891
 7276SOL    HW222728   2.621   2.544   4.029
 7277SOL     OW22729   5.172   2.128   4.938
 7277SOL    HW122730   5.155   2.189   4.860
 7277SOL    HW222731   5.270   2.116   4.951
 7278SOL     OW22732   2.655   1.496   2.526
 7278SOL    HW122733   2.688   1.449   2.607
 7278SOL    HW222734   2.710   1.469   2.447
 7279SOL     OW22735   5.709   4.935   1.270
 7279SOL    HW122736   5.794   4.937   1.323
 7279SOL    HW222737   5.633   4.913   1.331
 7280SOL     OW22738   6.383   2.345   5.538
 7280SOL    HW122739   6.319   2.284   5.493
 7280SOL    HW222740   6.477   2.315   5.520
 7281SOL     OW22741   3.979   6.105   2.499
 7281SOL    HW122742   4.044   6.049   2.448
 7281SOL    HW222743   3.891   6.105   2.453
 7282SOL     OW22744   6.828   4.666   2.650
 7282SOL    HW122745   6.824   4.602   2.727
 7282SOL    HW222746   6.879   4.625   2.574
 7283SOL     OW22747   4.275   4.692   3.028
 7283SOL    HW122748   4.195   4.679   3.085
 7283SOL    HW222749   4.248   4.691   2.932
 7284SOL     OW22750   6.812   1.453   3.108
 7284SOL    HW122751   6.884   1.494   3.164
 7284SOL    HW222752   6.804   1.502   3.022
 7285SOL     OW22753   4.994   2.921   1.916
 7285SOL    HW122754   4.896   2.922   1.938
 7285SOL    HW222755   5.033   3.011   1.936
 7286SOL     OW22756   0.514   1.683   1.863
 7286SOL    HW122757   0.433   1.739   1.877
 7286SOL    HW222758   0.529   1.669   1.765
 7287SOL     OW22759   1.578   2.586   3.937
 7287SOL    HW122760   1.637   2.563   4.014
 7287SOL    HW222761   1.604   2.532   3.857
 7288SOL     OW22762   2.551   2.192   2.844
 7288SOL    HW122763   2.523   2.237   2.929
 7288SOL    HW222764   2.563   2.094   2.861
 7289SOL     OW22765   5.950   1.903   1.308
 7289SOL    HW122766   6.009   1.865   1.237
 7289SOL    HW222767   5.870   1.845   1.320
 7290SOL     OW22768   3.539   1.408   5.348
 7290SOL    HW122769   3.522   1.506   5.347
 7290SOL    HW222770   3.460   1.360   5.309
 7291SOL     OW22771   4.098   0.952   0.543
 7291SOL    HW122772   4.018   1.007   0.522
 7291SOL    HW222773   4.153   0.998   0.612
 7292SOL     OW22774   2.640   0.596   2.309
 7292SOL    HW122775   2.670   0.689   2.289
 7292SOL    HW222776   2.719   0.534   2.308
 7293SOL     OW22777   1.088   0.395   4.962
 7293SOL    HW122778   1.096   0.318   4.899
 7293SOL    HW222779   0.994   0.429   4.963
 7294SOL     OW22780   2.681   6.225   2.767
 7294SOL    HW122781   2.598   6.195   2.720
 7294SOL    HW222782   2.682   6.325   2.771
 7295SOL     OW22783   5.881   5.586   2.083
 7295SOL    HW122784   5.806   5.553   2.026
 7295SOL    HW222785   5.877   5.543   2.173
 7296SOL     OW22786   4.868   4.859   2.285
 7296SOL    HW122787   4.906   4.890   2.198
 7296SOL    HW222788   4.919   4.779   2.317
 7297SOL     OW22789   4.295   6.286   1.402
 7297SOL    HW122790   4.279   6.279   1.304
 7297SOL    HW222791   4.347   6.369   1.421
 7298SOL     OW22792   4.463   5.477   0.079
 7298SOL    HW122793   4.554   5.486   0.040
 7298SOL    HW222794   4.447   5.382   0.106
 7299SOL     OW22795   1.241   2.722   6.548
 7299SOL    HW122796   1.215   2.681   6.461
 7299SOL    HW222797   1.223   2.820   6.545
 7300SOL     OW22798   0.592   5.315   2.174
 7300SOL    HW122799   0.526   5.355   2.110
 7300SOL    HW222800   0.625   5.385   2.237
 7301SOL     OW22801   4.868   0.896   5.393
 7301SOL    HW122802   4.904   0.977   5.439
 7301SOL    HW222803   4.840   0.919   5.300
 7302SOL     OW22804   5.256   1.334   5.776
 7302SOL    HW122805   5.252   1.349   5.677
 7302SOL    HW222806   5.169   1.362   5.817
 7303SOL     OW22807   1.723   1.401   1.604
 7303SOL    HW122808   1.788   1.428   1.675
 7303SOL    HW222809   1.697   1.482   1.551
 7304SOL     OW22810   2.872   5.560   1.803
 7304SOL    HW122811   2.955   5.594   1.848
 7304SOL    HW222812   2.897   5.513   1.719
 7305SOL     OW22813   6.467   1.707   0.483
 7305SOL    HW122814   6.552   1.750   0.453
 7305SOL    HW222815   6.483   1.609   0.497
 7306SOL     OW22816   1.696   2.486   1.975
 7306SOL    HW122817   1.706   2.561   2.041
 7306SOL    HW222818   1.760   2.499   1.899
 7307SOL     OW22819   2.244   0.281   1.514
 7307SOL    HW122820   2.228   0.199   1.460
 7307SOL    HW222821   2.332   0.321   1.489
 7308SOL     OW22822   5.005   0.929   3.241
 7308SOL    HW122823   5.032   0.944   3.336
 7308SOL    HW222824   4.938   0.998   3.214
 7309SOL     OW22825   1.961   5.339   3.342
 7309SOL    HW122826   2.028   5.407   3.314
 7309SOL    HW222827   2.005   5.267   3.395
 7310SOL     OW22828   2.532   2.546   6.088
 7310SOL    HW122829   2.441   2.569   6.052
 7310SOL    HW222830   2.524   2.523   6.185
 7311SOL     OW22831   6.899   6.510   6.970
 7311SOL    HW122832   6.850   6.583   6.923
 7311SOL    HW222833   6.869   6.421   6.935
 7312SOL     OW22834   6.865   2.097   4.075
 7312SOL    HW122835   6.964   2.090   4.058
 7312SOL    HW222836   6.823   2.153   4.003
 7313SOL     OW22837   2.854   0.441   2.325
 7313SOL    HW122838   2.810   0.352   2.336
 7313SOL    HW222839   2.933   0.431   2.264
 7314SOL     OW22840   0.954   4.022   6.659
 7314SOL    HW122841   1.051   4.011   6.682
 7314SOL    HW222842   0.931   4.119   6.660
 7315SOL     OW22843   1.422   4.187   2.474
 7315SOL    HW122844   1.509   4.218   2.435
 7315SOL    HW222845   1.346   4.219   2.417
 7316SOL     OW22846   3.087   1.980   0.853
 7316SOL    HW122847   3.073   1.895   0.802
 7316SOL    HW222848   3.158   2.035   0.809
 7317SOL     OW22849   3.911   1.154   0.896
 7317SOL    HW122850   3.824   1.152   0.847
 7317SOL    HW222851   3.967   1.229   0.861
 7318SOL     OW22852   3.972   6.407   0.273
 7318SOL    HW122853   4.071   6.400   0.262
 7318SOL    HW222854   3.930   6.317   0.257
 7319SOL     OW22855   5.662   4.678   6.756
 7319SOL    HW122856   5.591   4.742   6.786
 7319SOL    HW222857   5.619   4.597   6.717
 7320SOL     OW22858   0.188   2.638   1.570
 7320SOL    HW122859   0.144   2.606   1.486
 7320SOL    HW222860   0.251   2.712   1.548
 7321SOL     OW22861   1.885   0.239   6.911
 7321SOL    HW122862   1.984   0.234   6.901
 7321SOL    HW222863   1.861   0.305   6.982
 7322SOL     OW22864   0.802   2.583   2.793
 7322SOL    HW122865   0.719   2.605   2.844
 7322SOL    HW222866   0.779   2.535   2.709
 7323SOL     OW22867   1.298   2.579   1.458
 7323SOL    HW122868   1.244   2.626   1.388
 7323SOL    HW222869   1.393   2.609   1.452
 7324SOL     OW22870   5.509   4.812   2.936
 7324SOL    HW122871   5.433   4.807   3.000
 7324SOL    HW222872   5.567   4.890   2.959
 7325SOL     OW22873   4.387   1.340   5.776
 7325SOL    HW122874   4.389   1.425   5.829
 7325SOL    HW222875   4.293   1.315   5.756
 7326SOL     OW22876   3.502   6.943   0.508
 7326SOL    HW122877   3.407   6.976   0.505
 7326SOL    HW222878   3.563   7.018   0.482
 7327SOL     OW22879   0.674   3.801   3.604
 7327SOL    HW122880   0.737   3.772   3.676
 7327SOL    HW222881   0.725   3.825   3.522
 7328SOL     OW22882   4.202   4.710   4.621
 7328SOL    HW122883   4.121   4.754   4.581
 7328SOL    HW222884   4.180   4.616   4.647
 7329SOL     OW22885   3.350   3.449   1.429
 7329SOL    HW122886   3.393   3.387   1.363
 7329SOL    HW222887   3.305   3.396   1.501
 7330SOL     OW22888   2.888   2.957   1.734
 7330SOL    HW122889   2.905   3.033   1.797
 7330SOL    HW222890   2.925   2.980   1.644
 7331SOL     OW22891   5.176   0.768   2.800
 7331SOL    HW122892   5.263   0.802   2.763
 7331SOL    HW222893   5.195   0.691   2.861
 7332SOL     OW22894   3.399   5.339   6.008
 7332SOL    HW122895   3.308   5.298   6.007
 7332SOL    HW222896   3.469   5.268   6.008
 7333SOL     OW22897   0.178   2.049   0.899
 7333SOL    HW122898   0.207   2.077   0.991
 7333SOL    HW222899   0.253   2.062   0.835
 7334SOL     OW22900   2.589   0.028   4.283
 7334SOL    HW122901   2.617   0.112   4.329
 7334SOL    HW222902   2.654   6.980   4.303
 7335SOL     OW22903   6.510   3.269   2.164
 7335SOL    HW122904   6.422   3.287   2.120
 7335SOL    HW222905   6.561   3.202   2.110
 7336SOL     OW22906   1.675   6.635   2.232
 7336SOL    HW122907   1.656   6.718   2.180
 7336SOL    HW222908   1.663   6.653   2.330
 7337SOL     OW22909   2.109   2.114   3.649
 7337SOL    HW122910   2.048   2.110   3.570
 7337SOL    HW222911   2.058   2.091   3.732
 7338SOL     OW22912   5.654   2.903   1.513
 7338SOL    HW122913   5.630   2.878   1.607
 7338SOL    HW222914   5.741   2.952   1.513
 7339SOL     OW22915   6.232   5.207   4.431
 7339SOL    HW122916   6.166   5.158   4.488
 7339SOL    HW222917   6.203   5.302   4.421
 7340SOL     OW22918   2.470   0.171   0.736
 7340SOL    HW122919   2.439   0.127   0.820
 7340SOL    HW222920   2.392   0.209   0.687
 7341SOL     OW22921   5.849   5.013   4.436
 7341SOL    HW122922   5.892   5.052   4.355
 7341SOL    HW222923   5.857   4.913   4.434
 7342SOL     OW22924   0.362   6.051   0.436
 7342SOL    HW122925   0.274   6.094   0.452
 7342SOL    HW222926   0.349   5.960   0.396
 7343SOL     OW22927   5.647   3.706   2.385
 7343SOL    HW122928   5.695   3.632   2.337
 7343SOL    HW222929   5.551   3.707   2.357
 7344SOL     OW22930   1.349   6.995   0.156
 7344SOL    HW122931   1.339   0.055   0.208
 7344SOL    HW222932   1.270   6.937   0.173
 7345SOL     OW22933   3.732   5.658   6.828
 7345SOL    HW122934   3.668   5.733   6.841
 7345SOL    HW222935   3.801   5.660   6.900
 7346SOL     OW22936   3.939   4.612   1.723
 7346SOL    HW122937   4.007   4.584   1.790
 7346SOL    HW222938   3.952   4.708   1.700
 7347SOL     OW22939   6.146   1.642   3.346
 7347SOL    HW122940   6.076   1.578   3.314
 7347SOL    HW222941   6.196   1.601   3.423
 7348SOL     OW22942   1.476   1.828   3.244
 7348SOL    HW122943   1.383   1.793   3.232
 7348SOL    HW222944   1.510   1.863   3.157
 7349SOL     OW22945   3.285   1.212   0.642
 7349SOL    HW122946   3.323   1.156   0.716
 7349SOL    HW222947   3.280   1.157   0.558
 7350SOL     OW22948   2.412   1.651   3.031
 7350SOL    HW122949   2.362   1.623   2.949
 7350SOL    HW222950   2.510   1.648   3.012
 7351SOL     OW22951   4.154   4.395   6.458
 7351SOL    HW122952   4.102   4.311   6.441
 7351SOL    HW222953   4.127   4.434   6.545
 7352SOL     OW22954   0.328   1.405   2.129
 7352SOL    HW122955   0.308   1.396   2.031
 7352SOL    HW222956   0.319   1.316   2.173
 7353SOL     OW22957   5.253   2.460   5.387
 7353SOL    HW122958   5.330   2.515   5.419
 7353SOL    HW222959   5.281   2.407   5.307
 7354SOL     OW22960   5.561   4.559   5.928
 7354SOL    HW122961   5.605   4.631   5.875
 7354SOL    HW222962   5.618   4.534   6.006
 7355SOL     OW22963   1.815   5.301   2.172
 7355SOL    HW122964   1.900   5.260   2.139
 7355SOL    HW222965   1.835   5.383   2.225
 7356SOL     OW22966   6.127   1.593   5.681
 7356SOL    HW122967   6.157   1.638   5.766
 7356SOL    HW222968   6.051   1.644   5.641
 7357SOL     OW22969   6.408   1.584   0.210
 7357SOL    HW122970   6.485   1.555   0.154
 7357SOL    HW222971   6.441   1.640   0.286
 7358SOL     OW22972   3.374   1.048   3.815
 7358SOL    HW122973   3.376   0.966   3.758
 7358SOL    HW222974   3.291   1.100   3.796
 7359SOL     OW22975   3.870   2.996   3.581
 7359SOL    HW122976   3.950   2.949   3.543
 7359SOL    HW222977   3.799   3.004   3.511
 7360SOL     OW22978   0.780   3.025   5.245
 7360SOL    HW122979   0.846   3.088   5.205
 7360SOL    HW222980   0.749   2.960   5.175
 7361SOL     OW22981   5.362   6.096   2.209
 7361SOL    HW122982   5.367   6.042   2.293
 7361SOL    HW222983   5.324   6.186   2.229
 7362SOL     OW22984   1.884   5.967   6.140
 7362SOL    HW122985   1.928   6.044   6.093
 7362SOL    HW222986   1.939   5.885   6.129
 7363SOL     OW22987   4.847   3.064   6.395
 7363SOL    HW122988   4.831   3.062   6.297
 7363SOL    HW222989   4.820   3.153   6.431
 7364SOL     OW22990   4.294   6.555   1.699
 7364SOL    HW122991   4.210   6.595   1.662
 7364SOL    HW222992   4.274   6.516   1.789
 7365SOL     OW22993   3.483   0.120   2.504
 7365SOL    HW122994   3.545   0.168   2.566
 7365SOL    HW222995   3.400   0.174   2.492
 7366SOL     OW22996   1.041   5.436   6.801
 7366SOL    HW122997   1.077   5.347   6.829
 7366SOL    HW222998   0.998   5.428   6.711
 7367SOL     OW22999   4.705   3.671   1.022
 7367SOL    HW123000   4.679   3.582   0.987
 7367SOL    HW223001   4.663   3.743   0.967
 7368SOL     OW23002   3.132   3.865   4.823
 7368SOL    HW123003   3.164   3.960   4.822
 7368SOL    HW223004   3.046   3.858   4.772
 7369SOL     OW23005   4.143   3.344   0.473
 7369SOL    HW123006   4.234   3.372   0.507
 7369SOL    HW223007   4.136   3.245   0.476
 7370SOL     OW23008   2.058   6.635   0.994
 7370SOL    HW123009   1.995   6.570   1.037
 7370SOL    HW223010   2.147   6.591   0.980
 7371SOL     OW23011   2.289   5.111   4.861
 7371SOL    HW123012   2.233   5.152   4.932
 7371SOL    HW223013   2.293   5.012   4.874
 7372SOL     OW23014   3.564   0.314   5.720
 7372SOL    HW123015   3.639   0.315   5.786
 7372SOL    HW223016   3.598   0.340   5.629
 7373SOL     OW23017   3.991   0.922   1.655
 7373SOL    HW123018   4.057   0.895   1.725
 7373SOL    HW223019   3.994   0.858   1.579
 7374SOL     OW23020   1.749   2.975   6.488
 7374SOL    HW123021   1.817   3.046   6.472
 7374SOL    HW223022   1.736   2.962   6.587
 7375SOL     OW23023   1.576   0.584   3.851
 7375SOL    HW123024   1.567   0.509   3.916
 7375SOL    HW223025   1.673   0.601   3.833
 7376SOL     OW23026   2.157   3.732   6.703
 7376SOL    HW123027   2.226   3.666   6.674
 7376SOL    HW223028   2.197   3.823   6.709
 7377SOL     OW23029   4.319   4.307   1.266
 7377SOL    HW123030   4.419   4.315   1.270
 7377SOL    HW223031   4.295   4.220   1.223
 7378SOL     OW23032   6.885   1.111   5.049
 7378SOL    HW123033   6.939   1.192   5.027
 7378SOL    HW223034   6.885   1.097   5.148
 7379SOL     OW23035   3.750   1.261   1.718
 7379SOL    HW123036   3.653   1.238   1.720
 7379SOL    HW223037   3.761   1.359   1.699
 7380SOL     OW23038   0.303   3.533   6.473
 7380SOL    HW123039   0.275   3.610   6.416
 7380SOL    HW223040   0.402   3.521   6.467
 7381SOL     OW23041   5.250   1.820   1.316
 7381SOL    HW123042   5.325   1.791   1.257
 7381SOL    HW223043   5.173   1.851   1.259
 7382SOL     OW23044   0.133   5.827   4.402
 7382SOL    HW123045   0.057   5.866   4.453
 7382SOL    HW223046   0.098   5.772   4.326
 7383SOL     OW23047   7.009   6.274   3.075
 7383SOL    HW123048   6.966   6.360   3.049
 7383SOL    HW223049   0.060   6.255   3.013
 7384SOL     OW23050   5.366   6.957   2.487
 7384SOL    HW123051   5.449   7.011   2.492
 7384SOL    HW223052   5.286   7.017   2.491
 7385SOL     OW23053   4.928   6.059   1.557
 7385SOL    HW123054   4.969   6.084   1.645
 7385SOL    HW223055   4.992   6.002   1.505
 7386SOL     OW23056   0.886   2.210   5.232
 7386SOL    HW123057   0.829   2.290   5.216
 7386SOL    HW223058   0.908   2.165   5.145
 7387SOL     OW23059   4.215   5.937   3.304
 7387SOL    HW123060   4.125   5.977   3.289
 7387SOL    HW223061   4.239   5.941   3.401
 7388SOL     OW23062   6.267   4.943   3.598
 7388SOL    HW123063   6.242   5.032   3.560
 7388SOL    HW223064   6.199   4.874   3.570
 7389SOL     OW23065   1.626   4.024   6.159
 7389SOL    HW123066   1.546   3.983   6.115
 7389SOL    HW223067   1.623   4.123   6.149
 7390SOL     OW23068   1.400   0.036   5.366
 7390SOL    HW123069   1.483   7.009   5.384
 7390SOL    HW223070   1.418   0.133   5.378
 7391SOL     OW23071   5.983   3.212   6.689
 7391SOL    HW123072   5.946   3.226   6.781
 7391SOL    HW223073   6.034   3.126   6.687
 7392SOL     OW23074   1.455   4.687   4.495
 7392SOL    HW123075   1.498   4.598   4.509
 7392SOL    HW223076   1.423   4.723   4.582
 7393SOL     OW23077   0.192   3.963   2.671
 7393SOL    HW123078   0.175   3.900   2.746
 7393SOL    HW223079   0.288   3.989   2.670
 7394SOL     OW23080   3.811   3.837   6.656
 7394SOL    HW123081   3.864   3.854   6.739
 7394SOL    HW223082   3.769   3.746   6.661
 7395SOL     OW23083   0.625   0.290   0.770
 7395SOL    HW123084   0.664   0.270   0.680
 7395SOL    HW223085   0.525   0.285   0.764
 7396SOL     OW23086   0.757   0.243   6.377
 7396SOL    HW123087   0.831   0.262   6.442
 7396SOL    HW223088   0.685   0.311   6.390
 7397SOL     OW23089   5.771   4.968   5.163
 7397SOL    HW123090   5.704   5.015   5.221
 7397SOL    HW223091   5.841   5.033   5.134
 7398SOL     OW23092   4.411   4.655   3.738
 7398SOL    HW123093   4.492   4.693   3.783
 7398SOL    HW223094   4.434   4.568   3.694
 7399SOL     OW23095   4.928   3.937   5.807
 7399SOL    HW123096   4.888   3.865   5.749
 7399SOL    HW223097   4.952   3.897   5.896
 7400SOL     OW23098   2.644   5.637   6.445
 7400SOL    HW123099   2.593   5.603   6.524
 7400SOL    HW223100   2.639   5.736   6.441
 7401SOL     OW23101   0.111   2.016   3.694
 7401SOL    HW123102   0.163   2.096   3.725
 7401SOL    HW223103   0.014   2.031   3.713
 7402SOL     OW23104   2.733   0.591   3.860
 7402SOL    HW123105   2.759   0.519   3.795
 7402SOL    HW223106   2.789   0.672   3.844
 7403SOL     OW23107   1.845   3.791   2.870
 7403SOL    HW123108   1.929   3.742   2.891
 7403SOL    HW223109   1.811   3.764   2.780
 7404SOL     OW23110   1.524   0.043   1.888
 7404SOL    HW123111   1.579   0.118   1.926
 7404SOL    HW223112   1.491   0.069   1.797
 7405SOL     OW23113   2.911   4.887   5.992
 7405SOL    HW123114   2.883   4.895   6.087
 7405SOL    HW223115   3.011   4.896   5.986
 7406SOL     OW23116   0.649   4.713   1.585
 7406SOL    HW123117   0.679   4.640   1.523
 7406SOL    HW223118   0.619   4.792   1.531
 7407SOL     OW23119   1.464   6.431   6.391
 7407SOL    HW123120   1.405   6.511   6.403
 7407SOL    HW223121   1.482   6.389   6.480
 7408SOL     OW23122   1.977   4.311   5.873
 7408SOL    HW123123   1.906   4.377   5.899
 7408SOL    HW223124   1.935   4.221   5.861
 7409SOL     OW23125   2.170   5.464   5.201
 7409SOL    HW123126   2.169   5.564   5.206
 7409SOL    HW223127   2.253   5.429   5.244
 7410SOL     OW23128   6.875   4.996   0.887
 7410SOL    HW123129   6.816   5.025   0.963
 7410SOL    HW223130   6.836   5.028   0.801
 7411SOL     OW23131   3.808   6.088   5.047
 7411SOL    HW123132   3.743   6.130   4.983
 7411SOL    HW223133   3.887   6.149   5.058
 7412SOL     OW23134   0.951   1.864   0.213
 7412SOL    HW123135   0.852   1.874   0.207
 7412SOL    HW223136   0.994   1.903   0.132
 7413SOL     OW23137   6.329   4.029   4.857
 7413SOL    HW123138   6.251   3.978   4.893
 7413SOL    HW223139   6.364   3.982   4.776
 7414SOL     OW23140   6.669   7.014   2.467
 7414SOL    HW123141   6.588   0.045   2.451
 7414SOL    HW223142   6.705   0.007   2.558
 7415SOL     OW23143   1.990   2.614   3.470
 7415SOL    HW123144   1.918   2.547   3.492
 7415SOL    HW223145   1.956   2.706   3.486
 7416SOL     OW23146   3.713   0.819   3.967
 7416SOL    HW123147   3.720   0.750   4.039
 7416SOL    HW223148   3.650   0.891   3.995
 7417SOL     OW23149   1.285   6.419   7.011
 7417SOL    HW123150   1.378   6.447   0.006
 7417SOL    HW223151   1.287   6.342   6.946
 7418SOL     OW23152   1.813   3.461   0.744
 7418SOL    HW123153   1.741   3.414   0.692
 7418SOL    HW223154   1.885   3.397   0.768
 7419SOL     OW23155   6.415   0.993   5.047
 7419SOL    HW123156   6.461   0.928   5.108
 7419SOL    HW223157   6.350   0.943   4.989
 7420SOL     OW23158   6.961   6.300   1.746
 7420SOL    HW123159   6.974   6.371   1.816
 7420SOL    HW223160   6.880   6.246   1.769
 7421SOL     OW23161   3.924   3.597   1.317
 7421SOL    HW123162   4.003   3.658   1.329
 7421SOL    HW223163   3.842   3.641   1.355
 7422SOL     OW23164   0.205   3.331   0.461
 7422SOL    HW123165   0.241   3.248   0.505
 7422SOL    HW223166   0.261   3.409   0.486
 7423SOL     OW23167   1.625   5.376   6.717
 7423SOL    HW123168   1.630   5.474   6.696
 7423SOL    HW223169   1.672   5.358   6.804
 7424SOL     OW23170   5.456   0.750   4.491
 7424SOL    HW123171   5.512   0.683   4.540
 7424SOL    HW223172   5.432   0.825   4.553
 7425SOL     OW23173   3.696   5.637   5.711
 7425SOL    HW123174   3.670   5.712   5.772
 7425SOL    HW223175   3.648   5.553   5.740
 7426SOL     OW23176   1.139   1.266   6.539
 7426SOL    HW123177   1.098   1.343   6.490
 7426SOL    HW223178   1.082   1.185   6.529
 7427SOL     OW23179   4.290   5.129   4.725
 7427SOL    HW123180   4.282   5.203   4.793
 7427SOL    HW223181   4.281   5.168   4.634
 7428SOL     OW23182   3.678   2.135   6.174
 7428SOL    HW123183   3.717   2.146   6.083
 7428SOL    HW223184   3.578   2.137   6.168
 7429SOL     OW23185   0.457   0.448   2.958
 7429SOL    HW123186   0.469   0.547   2.966
 7429SOL    HW223187   0.362   0.425   2.976
 7430SOL     OW23188   6.359   4.056   5.168
 7430SOL    HW123189   6.416   4.132   5.134
 7430SOL    HW223190   6.313   4.012   5.091
 7431SOL     OW23191   0.850   4.507   2.281
 7431SOL    HW123192   0.910   4.582   2.256
 7431SOL    HW223193   0.843   4.501   2.381
 7432SOL     OW23194   0.687   6.505   5.277
 7432SOL    HW123195   0.783   6.501   5.304
 7432SOL    HW223196   0.676   6.460   5.188
 7433SOL     OW23197   6.408   5.320   0.542
 7433SOL    HW123198   6.335   5.261   0.509
 7433SOL    HW223199   6.496   5.282   0.515
 7434SOL     OW23200   3.809   1.292   6.003
 7434SOL    HW123201   3.833   1.299   6.100
 7434SOL    HW223202   3.879   1.240   5.955
 7435SOL     OW23203   2.437   6.574   0.137
 7435SOL    HW123204   2.339   6.578   0.154
 7435SOL    HW223205   2.485   6.546   0.220
 7436SOL     OW23206   4.887   2.913   0.249
 7436SOL    HW123207   4.860   2.838   0.309
 7436SOL    HW223208   4.950   2.974   0.297
 7437SOL     OW23209   0.908   5.967   5.753
 7437SOL    HW123210   0.846   6.020   5.694
 7437SOL    HW223211   1.002   6.001   5.741
 7438SOL     OW23212   6.769   4.681   1.614
 7438SOL    HW123213   6.699   4.612   1.594
 7438SOL    HW223214   6.857   4.637   1.630
 7439SOL     OW23215   2.325   0.306   3.718
 7439SOL    HW123216   2.404   0.265   3.672
 7439SOL    HW223217   2.241   0.283   3.667
 7440SOL     OW23218   1.533   2.619   4.368
 7440SOL    HW123219   1.478   2.564   4.304
 7440SOL    HW223220   1.629   2.590   4.363
 7441SOL     OW23221   5.646   1.313   4.158
 7441SOL    HW123222   5.656   1.217   4.132
 7441SOL    HW223223   5.619   1.319   4.255
 7442SOL     OW23224   1.120   0.858   6.497
 7442SOL    HW123225   1.075   0.926   6.439
 7442SOL    HW223226   1.101   0.878   6.593
 7443SOL     OW23227   0.435   1.292   6.651
 7443SOL    HW123228   0.502   1.275   6.722
 7443SOL    HW223229   0.457   1.377   6.603
 7444SOL     OW23230   0.770   3.102   6.608
 7444SOL    HW123231   0.755   3.049   6.525
 7444SOL    HW223232   0.854   3.071   6.653
 7445SOL     OW23233   5.353   1.758   1.903
 7445SOL    HW123234   5.279   1.805   1.854
 7445SOL    HW223235   5.384   1.679   1.849
 7446SOL     OW23236   6.623   4.076   0.712
 7446SOL    HW123237   6.685   4.011   0.755
 7446SOL    HW223238   6.544   4.093   0.772
 7447SOL     OW23239   1.248   3.790   6.173
 7447SOL    HW123240   1.241   3.856   6.248
 7447SOL    HW223241   1.276   3.837   6.090
 7448SOL     OW23242   6.690   0.163   5.719
 7448SOL    HW123243   6.694   0.083   5.780
 7448SOL    HW223244   6.726   0.243   5.767
 7449SOL     OW23245   5.680   1.967   2.164
 7449SOL    HW123246   5.694   1.889   2.104
 7449SOL    HW223247   5.738   1.957   2.245
 7450SOL     OW23248   4.683   2.057   3.003
 7450SOL    HW123249   4.731   1.970   2.990
 7450SOL    HW223250   4.714   2.123   2.935
 7451SOL     OW23251   2.253   0.639   4.305
 7451SOL    HW123252   2.301   0.575   4.244
 7451SOL    HW223253   2.240   0.726   4.257
 7452SOL     OW23254   1.877   6.485   4.896
 7452SOL    HW123255   1.942   6.424   4.850
 7452SOL    HW223256   1.869   6.457   4.992
 7453SOL     OW23257   5.362   6.475   4.308
 7453SOL    HW123258   5.423   6.475   4.387
 7453SOL    HW223259   5.274   6.434   4.334
 7454SOL     OW23260   1.158   3.804   1.254
 7454SOL    HW123261   1.153   3.745   1.334
 7454SOL    HW223262   1.071   3.799   1.204
 7455SOL     OW23263   4.607   2.579   0.482
 7455SOL    HW123264   4.579   2.586   0.577
 7455SOL    HW223265   4.698   2.620   0.471
 7456SOL     OW23266   1.648   3.416   4.771
 7456SOL    HW123267   1.579   3.382   4.834
 7456SOL    HW223268   1.705   3.484   4.816
 7457SOL     OW23269   6.311   0.923   5.367
 7457SOL    HW123270   6.285   0.831   5.337
 7457SOL    HW223271   6.304   0.929   5.466
 7458SOL     OW23272   2.544   1.030   0.745
 7458SOL    HW123273   2.627   0.981   0.718
 7458SOL    HW223274   2.511   0.996   0.832
 7459SOL     OW23275   4.351   0.564   4.735
 7459SOL    HW123276   4.309   0.492   4.681
 7459SOL    HW223277   4.323   0.555   4.831
 7460SOL     OW23278   0.739   4.346   0.433
 7460SOL    HW123279   0.808   4.276   0.413
 7460SOL    HW223280   0.709   4.336   0.528
 7461SOL     OW23281   5.128   0.961   4.473
 7461SOL    HW123282   5.179   0.875   4.470
 7461SOL    HW223283   5.158   1.015   4.552
 7462SOL     OW23284   1.983   2.045   2.429
 7462SOL    HW123285   2.077   2.057   2.398
 7462SOL    HW223286   1.974   2.079   2.522
 7463SOL     OW23287   4.079   3.793   2.264
 7463SOL    HW123288   4.096   3.810   2.167
 7463SOL    HW223289   4.101   3.698   2.286
 7464SOL     OW23290   5.041   6.175   0.686
 7464SOL    HW123291   5.037   6.151   0.783
 7464SOL    HW223292   4.987   6.110   0.633
 7465SOL     OW23293   2.824   0.296   1.517
 7465SOL    HW123294   2.777   0.339   1.440
 7465SOL    HW223295   2.768   0.221   1.552
 7466SOL     OW23296   0.486   0.506   0.129
 7466SOL    HW123297   0.578   0.527   0.162
 7466SOL    HW223298   0.492   0.466   0.037
 7467SOL     OW23299   0.146   1.690   1.051
 7467SOL    HW123300   0.152   1.715   0.954
 7467SOL    HW223301   0.169   1.594   1.062
 7468SOL     OW23302   6.075   1.398   2.486
 7468SOL    HW123303   6.123   1.311   2.500
 7468SOL    HW223304   6.119   1.470   2.540
 7469SOL     OW23305   1.152   0.636   1.021
 7469SOL    HW123306   1.145   0.604   1.116
 7469SOL    HW223307   1.060   0.643   0.982
 7470SOL     OW23308   7.009   2.271   2.572
 7470SOL    HW123309   0.034   2.321   2.643
 7470SOL    HW223310   0.044   2.203   2.530
 7471SOL     OW23311   6.125   6.768   5.725
 7471SOL    HW123312   6.120   6.672   5.697
 7471SOL    HW223313   6.039   6.795   5.769
 7472SOL     OW23314   3.655   0.249   3.812
 7472SOL    HW123315   3.559   0.227   3.793
 7472SOL    HW223316   3.665   0.271   3.909
 7473SOL     OW23317   6.804   3.645   4.193
 7473SOL    HW123318   6.722   3.631   4.138
 7473SOL    HW223319   6.808   3.576   4.266
 7474SOL     OW23320   3.758   0.997   3.134
 7474SOL    HW123321   3.697   1.042   3.199
 7474SOL    HW223322   3.717   0.912   3.101
 7475SOL     OW23323   3.681   0.924   1.001
 7475SOL    HW123324   3.612   0.961   1.062
 7475SOL    HW223325   3.651   0.933   0.906
 7476SOL     OW23326   3.494   6.717   4.171
 7476SOL    HW123327   3.514   6.781   4.096
 7476SOL    HW223328   3.553   6.637   4.162
 7477SOL     OW23329   3.953   1.319   3.958
 7477SOL    HW123330   3.874   1.301   4.018
 7477SOL    HW223331   4.035   1.328   4.014
 7478SOL     OW23332   1.821   4.379   0.576
 7478SOL    HW123333   1.838   4.394   0.674
 7478SOL    HW223334   1.743   4.434   0.547
 7479SOL     OW23335   4.684   0.929   6.557
 7479SOL    HW123336   4.705   0.903   6.651
 7479SOL    HW223337   4.764   0.974   6.516
 7480SOL     OW23338   6.582   5.387   1.282
 7480SOL    HW123339   6.540   5.355   1.367
 7480SOL    HW223340   6.675   5.352   1.275
 7481SOL     OW23341   5.466   5.310   0.692
 7481SOL    HW123342   5.417   5.359   0.620
 7481SOL    HW223343   5.565   5.327   0.682
 7482SOL     OW23344   4.889   0.732   2.772
 7482SOL    HW123345   4.842   0.808   2.818
 7482SOL    HW223346   4.983   0.759   2.750
 7483SOL     OW23347   3.607   0.934   5.074
 7483SOL    HW123348   3.637   0.997   5.146
 7483SOL    HW223349   3.541   0.980   5.015
 7484SOL     OW23350   1.752   6.240   2.399
 7484SOL    HW123351   1.711   6.329   2.420
 7484SOL    HW223352   1.686   6.183   2.351
 7485SOL     OW23353   2.975   5.970   6.312
 7485SOL    HW123354   3.072   5.961   6.290
 7485SOL    HW223355   2.937   5.880   6.335
 7486SOL     OW23356   3.007   6.391   5.690
 7486SOL    HW123357   3.006   6.471   5.630
 7486SOL    HW223358   2.944   6.322   5.654
 7487SOL     OW23359   3.204   6.183   4.334
 7487SOL    HW123360   3.207   6.090   4.299
 7487SOL    HW223361   3.110   6.216   4.335
 7488SOL     OW23362   4.093   0.151   6.007
 7488SOL    HW123363   4.018   0.188   6.060
 7488SOL    HW223364   4.157   0.103   6.067
 7489SOL     OW23365   5.247   2.976   3.908
 7489SOL    HW123366   5.160   2.934   3.882
 7489SOL    HW223367   5.289   3.019   3.828
 7490SOL     OW23368   5.329   0.863   1.186
 7490SOL    HW123369   5.298   0.950   1.147
 7490SOL    HW223370   5.352   0.877   1.282
 7491SOL     OW23371   6.493   6.031   6.279
 7491SOL    HW123372   6.590   6.014   6.260
 7491SOL    HW223373   6.481   6.047   6.377
 7492SOL     OW23374   1.657   2.539   5.003
 7492SOL    HW123375   1.646   2.638   4.997
 7492SOL    HW223376   1.751   2.514   4.978
 7493SOL     OW23377   5.563   3.449   6.592
 7493SOL    HW123378   5.646   3.496   6.622
 7493SOL    HW223379   5.557   3.452   6.492
 7494SOL     OW23380   5.330   6.952   2.194
 7494SOL    HW123381   5.241   6.951   2.150
 7494SOL    HW223382   5.319   6.938   2.292
 7495SOL     OW23383   1.875   2.164   0.798
 7495SOL    HW123384   1.971   2.140   0.815
 7495SOL    HW223385   1.832   2.092   0.743
 7496SOL     OW23386   0.954   4.668   6.209
 7496SOL    HW123387   1.015   4.721   6.150
 7496SOL    HW223388   0.972   4.691   6.305
 7497SOL     OW23389   1.704   4.291   2.422
 7497SOL    HW123390   1.696   4.264   2.518
 7497SOL    HW223391   1.793   4.332   2.405
 7498SOL     OW23392   3.660   1.822   4.777
 7498SOL    HW123393   3.741   1.810   4.719
 7498SOL    HW223394   3.648   1.742   4.835
 7499SOL     OW23395   5.397   0.010   4.382
 7499SOL    HW123396   5.463   0.081   4.409
 7499SOL    HW223397   5.425   6.995   4.295
 7500SOL     OW23398   4.671   6.028   1.759
 7500SOL    HW123399   4.732   6.105   1.777
 7500SOL    HW223400   4.724   5.943   1.762
 7501SOL     OW23401   0.242   4.114   4.027
 7501SOL    HW123402   0.163   4.056   4.041
 7501SOL    HW223403   0.270   4.110   3.931
 7502SOL     OW23404   2.852   0.944   5.318
 7502SOL    HW123405   2.767   0.993   5.338
 7502SOL    HW223406   2.922   0.969   5.385
 7503SOL     OW23407   3.107   1.258   0.066
 7503SOL    HW123408   3.150   1.273   0.155
 7503SOL    HW223409   3.111   1.342   0.013
 7504SOL     OW23410   3.792   6.575   3.314
 7504SOL    HW123411   3.733   6.647   3.278
 7504SOL    HW223412   3.887   6.597   3.293
 7505SOL     OW23413   1.810   1.298   4.838
 7505SOL    HW123414   1.805   1.265   4.744
 7505SOL    HW223415   1.887   1.254   4.885
 7506SOL     OW23416   3.601   0.599   2.375
 7506SOL    HW123417   3.568   0.680   2.423
 7506SOL    HW223418   3.701   0.602   2.367
 7507SOL     OW23419   0.769   6.204   6.150
 7507SOL    HW123420   0.794   6.295   6.119
 7507SOL    HW223421   0.830   6.136   6.109
 7508SOL     OW23422   5.969   7.020   2.655
 7508SOL    HW123423   5.913   6.948   2.697
 7508SOL    HW223424   6.016   6.983   2.575
 7509SOL     OW23425   5.029   3.430   5.986
 7509SOL    HW123426   4.949   3.455   5.932
 7509SOL    HW223427   5.026   3.332   6.006
 7510SOL     OW23428   3.673   4.162   4.735
 7510SOL    HW123429   3.762   4.160   4.690
 7510SOL    HW223430   3.602   4.138   4.669
 7511SOL     OW23431   1.647   0.356   1.906
 7511SOL    HW123432   1.713   0.337   1.980
 7511SOL    HW223433   1.693   0.403   1.832
 7512SOL     OW23434   2.623   2.869   1.667
 7512SOL    HW123435   2.585   2.949   1.619
 7512SOL    HW223436   2.712   2.893   1.705
 7513SOL     OW23437   1.555   2.059   6.921
 7513SOL    HW123438   1.464   2.091   6.893
 7513SOL    HW223439   1.617   2.064   6.843
 7514SOL     OW23440   2.779   5.488   2.449
 7514SOL    HW123441   2.733   5.449   2.370
 7514SOL    HW223442   2.742   5.449   2.533
 7515SOL     OW23443   6.886   6.591   2.313
 7515SOL    HW123444   6.900   6.493   2.322
 7515SOL    HW223445   6.958   6.640   2.364
 7516SOL     OW23446   0.681   0.635   3.430
 7516SOL    HW123447   0.591   0.600   3.404
 7516SOL    HW223448   0.687   0.639   3.530
 7517SOL     OW23449   0.278   3.863   0.770
 7517SOL    HW123450   0.201   3.799   0.765
 7517SOL    HW223451   0.244   3.956   0.784
 7518SOL     OW23452   4.761   5.290   4.038
 7518SOL    HW123453   4.738   5.233   3.959
 7518SOL    HW223454   4.859   5.285   4.055
 7519SOL     OW23455   1.647   6.168   4.202
 7519SOL    HW123456   1.570   6.123   4.158
 7519SOL    HW223457   1.709   6.205   4.132
 7520SOL     OW23458   1.415   6.594   3.572
 7520SOL    HW123459   1.438   6.683   3.610
 7520SOL    HW223460   1.496   6.555   3.528
 7521SOL     OW23461   4.780   4.335   5.217
 7521SOL    HW123462   4.842   4.314   5.141
 7521SOL    HW223463   4.733   4.421   5.198
 7522SOL     OW23464   2.193   1.227   1.273
 7522SOL    HW123465   2.255   1.265   1.342
 7522SOL    HW223466   2.188   1.289   1.195
 7523SOL     OW23467   5.999   0.304   6.180
 7523SOL    HW123468   6.022   0.258   6.095
 7523SOL    HW223469   6.044   0.394   6.183
 7524SOL     OW23470   0.612   2.005   5.402
 7524SOL    HW123471   0.705   1.976   5.426
 7524SOL    HW223472   0.557   2.013   5.485
 7525SOL     OW23473   1.123   1.057   0.605
 7525SOL    HW123474   1.204   1.111   0.580
 7525SOL    HW223475   1.040   1.108   0.584
 7526SOL     OW23476   3.605   2.874   4.446
 7526SOL    HW123477   3.648   2.919   4.524
 7526SOL    HW223478   3.610   2.775   4.459
 7527SOL     OW23479   5.328   4.322   3.109
 7527SOL    HW123480   5.268   4.302   3.032
 7527SOL    HW223481   5.357   4.418   3.105
 7528SOL     OW23482   4.991   2.596   0.090
 7528SOL    HW123483   5.054   2.672   0.100
 7528SOL    HW223484   4.976   2.554   0.180
 7529SOL     OW23485   3.674   0.846   5.467
 7529SOL    HW123486   3.762   0.800   5.452
 7529SOL    HW223487   3.661   0.915   5.396
 7530SOL     OW23488   0.477   4.098   2.218
 7530SOL    HW123489   0.455   4.020   2.277
 7530SOL    HW223490   0.395   4.130   2.172
 7531SOL     OW23491   4.181   1.849   3.632
 7531SOL    HW123492   4.184   1.934   3.684
 7531SOL    HW223493   4.156   1.869   3.537
 7532SOL     OW23494   5.068   5.747   2.505
 7532SOL    HW123495   5.081   5.685   2.428
 7532SOL    HW223496   5.015   5.827   2.476
 7533SOL     OW23497   3.446   1.621   4.645
 7533SOL    HW123498   3.532   1.590   4.604
 7533SOL    HW223499   3.369   1.593   4.589
 7534SOL     OW23500   4.519   6.590   4.815
 7534SOL    HW123501   4.432   6.578   4.767
 7534SOL    HW223502   4.555   6.501   4.841
 7535SOL     OW23503   2.733   2.538   5.905
 7535SOL    HW123504   2.825   2.563   5.933
 7535SOL    HW223505   2.672   2.540   5.985
 7536SOL     OW23506   4.331   5.653   4.769
 7536SOL    HW123507   4.264   5.581   4.785
 7536SOL    HW223508   4.411   5.615   4.723
 7537SOL     OW23509   2.246   4.864   5.688
 7537SOL    HW123510   2.209   4.772   5.704
 7537SOL    HW223511   2.235   4.919   5.770
 7538SOL     OW23512   2.870   3.464   3.061
 7538SOL    HW123513   2.826   3.492   3.146
 7538SOL    HW223514   2.966   3.445   3.078
 7539SOL     OW23515   1.997   2.846   5.018
 7539SOL    HW123516   2.036   2.865   5.108
 7539SOL    HW223517   2.068   2.850   4.949
 7540SOL     OW23518   2.606   1.074   6.993
 7540SOL    HW123519   2.691   1.119   7.023
 7540SOL    HW223520   2.624   1.025   6.908
 7541SOL     OW23521   6.297   2.076   5.183
 7541SOL    HW123522   6.263   2.155   5.133
 7541SOL    HW223523   6.390   2.093   5.213
 7542SOL     OW23524   1.292   6.822   5.701
 7542SOL    HW123525   1.344   6.738   5.716
 7542SOL    HW223526   1.204   6.800   5.658
 7543SOL     OW23527   3.989   3.199   0.922
 7543SOL    HW123528   3.930   3.212   0.842
 7543SOL    HW223529   3.955   3.255   0.997
 7544SOL     OW23530   2.138   2.357   3.116
 7544SOL    HW123531   2.175   2.360   3.023
 7544SOL    HW223532   2.089   2.442   3.134
 7545SOL     OW23533   5.420   6.876   3.716
 7545SOL    HW123534   5.332   6.854   3.759
 7545SOL    HW223535   5.422   6.840   3.623
 7546SOL     OW23536   4.945   0.848   6.682
 7546SOL    HW123537   5.033   0.800   6.682
 7546SOL    HW223538   4.960   0.944   6.660
 7547SOL     OW23539   3.698   0.144   0.491
 7547SOL    HW123540   3.629   0.210   0.459
 7547SOL    HW223541   3.787   0.188   0.493
 7548SOL     OW23542   2.636   2.486   1.366
 7548SOL    HW123543   2.727   2.487   1.325
 7548SOL    HW223544   2.607   2.580   1.384
 7549SOL     OW23545   5.433   2.431   3.142
 7549SOL    HW123546   5.375   2.420   3.222
 7549SOL    HW223547   5.379   2.470   3.067
 7550SOL     OW23548   2.256   5.890   2.723
 7550SOL    HW123549   2.234   5.934   2.636
 7550SOL    HW223550   2.324   5.819   2.708
 7551SOL     OW23551   4.967   3.108   6.692
 7551SOL    HW123552   4.896   3.154   6.639
 7551SOL    HW223553   5.057   3.129   6.653
 7552SOL     OW23554   3.053   5.209   4.200
 7552SOL    HW123555   3.134   5.234   4.253
 7552SOL    HW223556   2.971   5.225   4.256
 7553SOL     OW23557   3.911   5.763   6.006
 7553SOL    HW123558   3.814   5.762   6.032
 7553SOL    HW223559   3.965   5.727   6.082
 7554SOL     OW23560   5.724   1.493   0.470
 7554SOL    HW123561   5.696   1.430   0.397
 7554SOL    HW223562   5.659   1.569   0.475
 7555SOL     OW23563   0.312   6.298   5.415
 7555SOL    HW123564   0.300   6.209   5.373
 7555SOL    HW223565   0.389   6.295   5.479
 7556SOL     OW23566   0.134   2.738   4.309
 7556SOL    HW123567   0.066   2.809   4.289
 7556SOL    HW223568   0.220   2.782   4.336
 7557SOL     OW23569   4.991   4.172   6.021
 7557SOL    HW123570   5.025   4.119   6.099
 7557SOL    HW223571   4.934   4.113   5.964
 7558SOL     OW23572   1.834   3.503   3.363
 7558SOL    HW123573   1.801   3.461   3.448
 7558SOL    HW223574   1.795   3.595   3.354
 7559SOL     OW23575   0.476   4.541   0.944
 7559SOL    HW123576   0.520   4.475   0.883
 7559SOL    HW223577   0.477   4.631   0.902
 7560SOL     OW23578   5.255   6.757   0.524
 7560SOL    HW123579   5.227   6.700   0.447
 7560SOL    HW223580   5.355   6.766   0.524
 7561SOL     OW23581   6.310   3.388   0.638
 7561SOL    HW123582   6.387   3.445   0.609
 7561SOL    HW223583   6.334   3.291   0.628
 7562SOL     OW23584   4.866   6.786   5.318
 7562SOL    HW123585   4.826   6.872   5.350
 7562SOL    HW223586   4.921   6.803   5.236
 7563SOL     OW23587   2.784   0.970   2.338
 7563SOL    HW123588   2.727   0.937   2.262
 7563SOL    HW223589   2.861   0.908   2.351
 7564SOL     OW23590   4.924   0.143   2.893
 7564SOL    HW123591   4.898   0.199   2.972
 7564SOL    HW223592   4.941   0.049   2.923
 7565SOL     OW23593   4.623   4.831   0.012
 7565SOL    HW123594   4.712   4.786   0.005
 7565SOL    HW223595   4.579   4.805   0.098
 7566SOL     OW23596   0.866   6.082   4.334
 7566SOL    HW123597   0.785   6.029   4.309
 7566SOL    HW223598   0.926   6.024   4.390
 7567SOL     OW23599   3.121   4.871   6.888
 7567SOL    HW123600   3.028   4.885   6.922
 7567SOL    HW223601   3.182   4.940   6.929
 7568SOL     OW23602   4.993   5.491   3.705
 7568SOL    HW123603   4.994   5.531   3.797
 7568SOL    HW223604   5.087   5.481   3.672
 7569SOL     OW23605   4.050   5.786   0.241
 7569SOL    HW123606   3.956   5.803   0.212
 7569SOL    HW223607   4.049   5.750   0.335
 7570SOL     OW23608   5.721   5.567   4.045
 7570SOL    HW123609   5.804   5.582   4.099
 7570SOL    HW223610   5.641   5.599   4.096
 7571SOL     OW23611   5.723   4.137   1.503
 7571SOL    HW123612   5.637   4.092   1.485
 7571SOL    HW223613   5.710   4.236   1.501
 7572SOL     OW23614   3.284   0.705   4.551
 7572SOL    HW123615   3.260   0.792   4.594
 7572SOL    HW223616   3.216   0.682   4.481
 7573SOL     OW23617   0.412   6.101   4.252
 7573SOL    HW123618   0.455   6.011   4.237
 7573SOL    HW223619   0.484   6.169   4.269
 7574SOL     OW23620   5.624   6.662   3.383
 7574SOL    HW123621   5.653   6.691   3.474
 7574SOL    HW223622   5.559   6.728   3.345
 7575SOL     OW23623   3.974   1.149   5.463
 7575SOL    HW123624   3.890   1.200   5.449
 7575SOL    HW223625   4.019   1.135   5.375
 7576SOL     OW23626   5.896   2.822   0.444
 7576SOL    HW123627   5.950   2.905   0.460
 7576SOL    HW223628   5.802   2.837   0.473
 7577SOL     OW23629   6.451   1.245   4.796
 7577SOL    HW123630   6.512   1.198   4.859
 7577SOL    HW223631   6.457   1.344   4.811
 7578SOL     OW23632   2.085   5.259   4.704
 7578SOL    HW123633   2.028   5.201   4.646
 7578SOL    HW223634   2.162   5.205   4.739
 7579SOL     OW23635   3.629   1.504   2.608
 7579SOL    HW123636   3.545   1.452   2.624
 7579SOL    HW223637   3.654   1.498   2.511
 7580SOL     OW23638   1.840   4.548   2.601
 7580SOL    HW123639   1.863   4.611   2.527
 7580SOL    HW223640   1.913   4.482   2.613
 7581SOL     OW23641   4.869   1.132   1.030
 7581SOL    HW123642   4.912   1.059   1.084
 7581SOL    HW223643   4.903   1.128   0.936
 7582SOL     OW23644   3.258   1.179   1.121
 7582SOL    HW123645   3.278   1.273   1.096
 7582SOL    HW223646   3.172   1.150   1.079
 7583SOL     OW23647   5.610   3.306   2.256
 7583SOL    HW123648   5.672   3.335   2.329
 7583SOL    HW223649   5.614   3.207   2.245
 7584SOL     OW23650   2.750   6.596   1.475
 7584SOL    HW123651   2.701   6.662   1.531
 7584SOL    HW223652   2.756   6.508   1.523
 7585SOL     OW23653   1.406   4.708   6.665
 7585SOL    HW123654   1.437   4.681   6.573
 7585SOL    HW223655   1.403   4.807   6.671
 7586SOL     OW23656   2.972   0.324   2.842
 7586SOL    HW123657   3.013   0.235   2.821
 7586SOL    HW223658   2.949   0.327   2.940
 7587SOL     OW23659   1.012   1.825   6.353
 7587SOL    HW123660   0.987   1.882   6.432
 7587SOL    HW223661   1.080   1.758   6.381
 7588SOL     OW23662   0.583   4.811   3.023
 7588SOL    HW123663   0.652   4.842   3.088
 7588SOL    HW223664   0.614   4.827   2.930
 7589SOL     OW23665   5.775   5.915   0.567
 7589SOL    HW123666   5.844   5.919   0.638
 7589SOL    HW223667   5.800   5.844   0.501
 7590SOL     OW23668   2.653   1.448   6.028
 7590SOL    HW123669   2.748   1.454   6.058
 7590SOL    HW223670   2.650   1.410   5.935
 7591SOL     OW23671   6.675   4.821   6.666
 7591SOL    HW123672   6.727   4.906   6.671
 7591SOL    HW223673   6.694   4.776   6.579
 7592SOL     OW23674   6.333   5.202   6.595
 7592SOL    HW123675   6.341   5.125   6.532
 7592SOL    HW223676   6.385   5.279   6.560
 7593SOL     OW23677   4.996   2.074   0.367
 7593SOL    HW123678   4.924   2.074   0.299
 7593SOL    HW223679   5.045   2.161   0.365
 7594SOL     OW23680   0.810   6.077   4.029
 7594SOL    HW123681   0.808   5.986   4.071
 7594SOL    HW223682   0.892   6.126   4.058
 7595SOL     OW23683   0.043   3.155   6.424
 7595SOL    HW123684   0.088   3.205   6.498
 7595SOL    HW223685   0.033   3.215   6.344
 7596SOL     OW23686   5.210   4.259   1.797
 7596SOL    HW123687   5.194   4.290   1.891
 7596SOL    HW223688   5.219   4.160   1.796
 7597SOL     OW23689   3.989   5.208   1.672
 7597SOL    HW123690   4.044   5.268   1.731
 7597SOL    HW223691   4.041   5.187   1.589
 7598SOL     OW23692   0.186   0.385   3.007
 7598SOL    HW123693   0.154   0.459   2.948
 7598SOL    HW223694   0.124   0.307   3.000
 7599SOL     OW23695   6.520   1.919   3.155
 7599SOL    HW123696   6.503   1.826   3.124
 7599SOL    HW223697   6.596   1.920   3.220
 7600SOL     OW23698   1.426   1.044   2.036
 7600SOL    HW123699   1.433   1.077   2.130
 7600SOL    HW223700   1.456   1.115   1.972
 7601SOL     OW23701   1.483   5.970   4.535
 7601SOL    HW123702   1.532   5.955   4.449
 7601SOL    HW223703   1.503   6.063   4.569
 7602SOL     OW23704   1.577   4.215   4.864
 7602SOL    HW123705   1.522   4.132   4.879
 7602SOL    HW223706   1.588   4.264   4.951
 7603SOL     OW23707   1.055   6.108   1.240
 7603SOL    HW123708   1.024   6.137   1.330
 7603SOL    HW223709   1.139   6.158   1.215
 7604SOL     OW23710   4.050   5.859   4.739
 7604SOL    HW123711   4.007   5.933   4.687
 7604SOL    HW223712   4.144   5.885   4.760
 7605SOL     OW23713   0.125   4.317   0.154
 7605SOL    HW123714   0.217   4.299   0.118
 7605SOL    HW223715   0.132   4.350   0.248
 7606SOL     OW23716   6.704   2.656   2.232
 7606SOL    HW123717   6.744   2.728   2.289
 7606SOL    HW223718   6.624   2.618   2.278
 7607SOL     OW23719   4.874   0.141   6.316
 7607SOL    HW123720   4.835   0.053   6.292
 7607SOL    HW223721   4.924   0.179   6.237
 7608SOL     OW23722   2.975   3.491   4.228
 7608SOL    HW123723   3.030   3.568   4.196
 7608SOL    HW223724   2.932   3.445   4.150
 7609SOL     OW23725   0.891   3.735   3.739
 7609SOL    HW123726   0.938   3.735   3.651
 7609SOL    HW223727   0.920   3.656   3.793
 7610SOL     OW23728   5.370   0.541   0.584
 7610SOL    HW123729   5.315   0.457   0.591
 7610SOL    HW223730   5.401   0.552   0.490
 7611SOL     OW23731   1.381   1.611   0.120
 7611SOL    HW123732   1.442   1.679   0.079
 7611SOL    HW223733   1.307   1.658   0.168
 7612SOL     OW23734   3.920   2.005   3.908
 7612SOL    HW123735   3.872   2.048   3.832
 7612SOL    HW223736   3.983   1.935   3.873
 7613SOL     OW23737   5.138   0.790   1.494
 7613SOL    HW123738   5.107   0.874   1.450
 7613SOL    HW223739   5.089   0.712   1.455
 7614SOL     OW23740   3.786   1.928   1.142
 7614SOL    HW123741   3.723   1.998   1.174
 7614SOL    HW223742   3.774   1.844   1.196
 7615SOL     OW23743   3.842   5.408   6.107
 7615SOL    HW123744   3.926   5.416   6.053
 7615SOL    HW223745   3.778   5.480   6.079
 7616SOL     OW23746   6.549   4.109   3.503
 7616SOL    HW123747   6.486   4.176   3.464
 7616SOL    HW223748   6.500   4.024   3.523
 7617SOL     OW23749   3.095   5.107   3.404
 7617SOL    HW123750   3.011   5.114   3.351
 7617SOL    HW223751   3.130   5.198   3.424
 7618SOL     OW23752   1.658   2.203   6.530
 7618SOL    HW123753   1.672   2.302   6.529
 7618SOL    HW223754   1.697   2.165   6.614
 7619SOL     OW23755   6.383   3.482   5.643
 7619SOL    HW123756   6.347   3.444   5.558
 7619SOL    HW223757   6.368   3.581   5.645
 7620SOL     OW23758   4.154   0.024   0.459
 7620SOL    HW123759   4.090   6.988   0.412
 7620SOL    HW223760   4.107   0.070   0.534
 7621SOL     OW23761   1.790   1.035   1.129
 7621SOL    HW123762   1.873   0.995   1.091
 7621SOL    HW223763   1.814   1.095   1.206
 7622SOL     OW23764   3.949   3.371   1.179
 7622SOL    HW123765   3.866   3.316   1.164
 7622SOL    HW223766   3.929   3.445   1.242
 7623SOL     OW23767   4.571   6.500   6.158
 7623SOL    HW123768   4.536   6.410   6.131
 7623SOL    HW223769   4.621   6.493   6.244
 7624SOL     OW23770   1.164   1.226   2.879
 7624SOL    HW123771   1.070   1.235   2.912
 7624SOL    HW223772   1.203   1.317   2.865
 7625SOL     OW23773   5.217   0.448   1.145
 7625SOL    HW123774   5.203   0.523   1.080
 7625SOL    HW223775   5.165   0.368   1.115
 7626SOL     OW23776   1.399   6.329   4.433
 7626SOL    HW123777   1.429   6.257   4.496
 7626SOL    HW223778   1.464   6.405   4.436
 7627SOL     OW23779   0.072   2.995   0.754
 7627SOL    HW123780   0.050   2.964   0.847
 7627SOL    HW223781   0.040   3.089   0.743
 7628SOL     OW23782   2.886   1.431   0.763
 7628SOL    HW123783   2.968   1.426   0.706
 7628SOL    HW223784   2.813   1.479   0.714
 7629SOL     OW23785   6.855   5.583   2.985
 7629SOL    HW123786   6.783   5.651   2.968
 7629SOL    HW223787   6.941   5.616   2.945
 7630SOL     OW23788   6.584   0.238   2.148
 7630SOL    HW123789   6.661   0.258   2.088
 7630SOL    HW223790   6.500   0.277   2.110
 7631SOL     OW23791   0.814   1.618   4.284
 7631SOL    HW123792   0.757   1.626   4.365
 7631SOL    HW223793   0.770   1.558   4.217
 7632SOL     OW23794   4.583   2.081   1.355
 7632SOL    HW123795   4.662   2.020   1.358
 7632SOL    HW223796   4.582   2.139   1.437
 7633SOL     OW23797   5.577   3.241   6.754
 7633SOL    HW123798   5.567   3.298   6.835
 7633SOL    HW223799   5.578   3.300   6.673
 7634SOL     OW23800   2.205   0.519   2.035
 7634SOL    HW123801   2.285   0.519   1.974
 7634SOL    HW223802   2.146   0.596   2.013
 7635SOL     OW23803   2.574   5.294   5.901
 7635SOL    HW123804   2.644   5.230   5.872
 7635SOL    HW223805   2.525   5.256   5.980
 7636SOL     OW23806   0.783   0.867   3.864
 7636SOL    HW123807   0.860   0.840   3.922
 7636SOL    HW223808   0.804   0.847   3.768
 7637SOL     OW23809   1.291   6.235   4.200
 7637SOL    HW123810   1.320   6.283   4.283
 7637SOL    HW223811   1.364   6.174   4.170
 7638SOL     OW23812   5.194   5.590   1.910
 7638SOL    HW123813   5.193   5.660   1.838
 7638SOL    HW223814   5.284   5.546   1.912
 7639SOL     OW23815   1.031   1.460   5.095
 7639SOL    HW123816   0.949   1.473   5.041
 7639SOL    HW223817   1.108   1.505   5.051
 7640SOL     OW23818   2.473   1.678   0.525
 7640SOL    HW123819   2.417   1.759   0.540
 7640SOL    HW223820   2.414   1.598   0.519
 7641SOL     OW23821   6.022   3.988   2.458
 7641SOL    HW123822   5.923   3.979   2.448
 7641SOL    HW223823   6.057   3.912   2.513
 7642SOL     OW23824   2.270   2.075   2.413
 7642SOL    HW123825   2.339   2.104   2.347
 7642SOL    HW223826   2.262   2.142   2.486
 7643SOL     OW23827   4.746   2.718   2.732
 7643SOL    HW123828   4.679   2.644   2.733
 7643SOL    HW223829   4.753   2.755   2.639
 7644SOL     OW23830   0.206   2.867   3.247
 7644SOL    HW123831   0.169   2.780   3.279
 7644SOL    HW223832   0.205   2.933   3.321
 7645SOL     OW23833   4.552   4.569   0.134
 7645SOL    HW123834   4.508   4.480   0.145
 7645SOL    HW223835   4.483   4.641   0.137
 7646SOL     OW23836   2.374   2.095   1.981
 7646SOL    HW123837   2.315   2.027   1.936
 7646SOL    HW223838   2.378   2.178   1.926
 7647SOL     OW23839   1.789   4.060   1.620
 7647SOL    HW123840   1.801   4.135   1.554
 7647SOL    HW223841   1.692   4.050   1.642
 7648SOL     OW23842   4.369   1.338   3.611
 7648SOL    HW123843   4.319   1.420   3.582
 7648SOL    HW223844   4.365   1.329   3.710
 7649SOL     OW23845   2.653   0.815   2.119
 7649SOL    HW123846   2.567   0.838   2.075
 7649SOL    HW223847   2.703   0.748   2.063
 7650SOL     OW23848   6.525   3.734   1.788
 7650SOL    HW123849   6.432   3.749   1.820
 7650SOL    HW223850   6.556   3.815   1.736
 7651SOL     OW23851   3.191   0.402   6.685
 7651SOL    HW123852   3.171   0.310   6.649
 7651SOL    HW223853   3.107   0.457   6.684
 7652SOL     OW23854   0.138   3.851   3.379
 7652SOL    HW123855   0.187   3.932   3.413
 7652SOL    HW223856   0.124   3.786   3.453
 7653SOL     OW23857   2.549   1.663   1.675
 7653SOL    HW123858   2.568   1.748   1.723
 7653SOL    HW223859   2.458   1.631   1.698
 7654SOL     OW23860   5.154   3.398   4.070
 7654SOL    HW123861   5.199   3.468   4.125
 7654SOL    HW223862   5.223   3.349   4.015
 7655SOL     OW23863   2.733   6.622   4.727
 7655SOL    HW123864   2.725   6.626   4.827
 7655SOL    HW223865   2.829   6.637   4.701
 7656SOL     OW23866   6.911   6.107   5.151
 7656SOL    HW123867   6.991   6.166   5.140
 7656SOL    HW223868   6.935   6.030   5.211
 7657SOL     OW23869   3.183   1.552   3.510
 7657SOL    HW123870   3.130   1.478   3.550
 7657SOL    HW223871   3.151   1.640   3.546
 7658SOL     OW23872   4.150   1.205   5.704
 7658SOL    HW123873   4.116   1.219   5.611
 7658SOL    HW223874   4.086   1.147   5.755
 7659SOL     OW23875   6.212   6.627   0.795
 7659SOL    HW123876   6.253   6.545   0.755
 7659SOL    HW223877   6.113   6.622   0.788
 7660SOL     OW23878   5.275   5.779   2.954
 7660SOL    HW123879   5.192   5.731   2.983
 7660SOL    HW223880   5.322   5.815   3.035
 7661SOL     OW23881   6.212   2.848   3.792
 7661SOL    HW123882   6.239   2.815   3.882
 7661SOL    HW223883   6.114   2.870   3.794
 7662SOL     OW23884   1.209   3.653   2.006
 7662SOL    HW123885   1.208   3.753   2.004
 7662SOL    HW223886   1.263   3.622   2.084
 7663SOL     OW23887   0.749   4.525   6.357
 7663SOL    HW123888   0.832   4.561   6.313
 7663SOL    HW223889   0.719   4.588   6.428
 7664SOL     OW23890   3.167   6.142   3.628
 7664SOL    HW123891   3.121   6.065   3.584
 7664SOL    HW223892   3.107   6.222   3.626
 7665SOL     OW23893   2.889   0.790   4.360
 7665SOL    HW123894   2.972   0.740   4.383
 7665SOL    HW223895   2.902   0.888   4.379
 7666SOL     OW23896   1.287   0.270   1.298
 7666SOL    HW123897   1.374   0.280   1.250
 7666SOL    HW223898   1.247   0.181   1.276
 7667SOL     OW23899   4.857   6.979   6.671
 7667SOL    HW123900   4.908   6.986   6.585
 7667SOL    HW223901   4.759   6.974   6.651
 7668SOL     OW23902   3.843   4.193   1.340
 7668SOL    HW123903   3.897   4.239   1.269
 7668SOL    HW223904   3.768   4.143   1.297
 7669SOL     OW23905   4.430   0.303   3.924
 7669SOL    HW123906   4.337   0.335   3.908
 7669SOL    HW223907   4.489   0.333   3.849
 7670SOL     OW23908   1.262   5.624   0.425
 7670SOL    HW123909   1.259   5.678   0.341
 7670SOL    HW223910   1.302   5.678   0.498
 7671SOL     OW23911   6.066   1.910   4.269
 7671SOL    HW123912   6.032   1.870   4.354
 7671SOL    HW223913   6.129   1.846   4.225
 7672SOL     OW23914   5.470   0.884   3.927
 7672SOL    HW123915   5.484   0.963   3.867
 7672SOL    HW223916   5.409   0.911   4.002
 7673SOL     OW23917   0.551   4.756   0.771
 7673SOL    HW123918   0.547   4.855   0.755
 7673SOL    HW223919   0.544   4.708   0.684
 7674SOL     OW23920   6.614   1.828   4.801
 7674SOL    HW123921   6.663   1.769   4.866
 7674SOL    HW223922   6.598   1.917   4.844
 7675SOL     OW23923   4.489   0.085   2.110
 7675SOL    HW123924   4.581   0.063   2.077
 7675SOL    HW223925   4.472   0.036   2.196
 7676SOL     OW23926   1.465   0.589   6.737
 7676SOL    HW123927   1.403   0.617   6.811
 7676SOL    HW223928   1.452   0.650   6.659
 7677SOL     OW23929   1.746   3.653   2.633
 7677SOL    HW123930   1.771   3.681   2.541
 7677SOL    HW223931   1.668   3.590   2.629
 7678SOL     OW23932   0.240   0.669   0.860
 7678SOL    HW123933   0.292   0.745   0.898
 7678SOL    HW223934   0.250   0.667   0.761
 7679SOL     OW23935   0.723   5.435   5.065
 7679SOL    HW123936   0.779   5.394   4.993
 7679SOL    HW223937   0.730   5.381   5.148
 7680SOL     OW23938   3.108   3.751   0.033
 7680SOL    HW123939   3.128   3.676   0.096
 7680SOL    HW223940   3.190   3.806   0.020
 7681SOL     OW23941   2.973   1.740   0.329
 7681SOL    HW123942   2.945   1.803   0.255
 7681SOL    HW223943   2.962   1.786   0.417
 7682SOL     OW23944   3.146   0.042   1.796
 7682SOL    HW123945   3.156   7.017   1.711
 7682SOL    HW223946   3.071   0.108   1.787
 7683SOL     OW23947   6.088   2.066   3.123
 7683SOL    HW123948   6.060   1.970   3.115
 7683SOL    HW223949   6.184   2.075   3.098
 7684SOL     OW23950   4.270   1.893   6.281
 7684SOL    HW123951   4.326   1.967   6.315
 7684SOL    HW223952   4.175   1.924   6.271
 7685SOL     OW23953   3.760   2.796   0.749
 7685SOL    HW123954   3.683   2.840   0.795
 7685SOL    HW223955   3.774   2.840   0.660
 7686SOL     OW23956   4.335   6.719   4.023
 7686SOL    HW123957   4.353   6.802   4.075
 7686SOL    HW223958   4.294   6.742   3.935
 7687SOL     OW23959   5.034   5.577   5.520
 7687SOL    HW123960   4.962   5.604   5.456
 7687SOL    HW223961   5.026   5.480   5.540
 7688SOL     OW23962   6.995   6.420   4.864
 7688SOL    HW123963   7.012   6.350   4.934
 7688SOL    HW223964   7.011   6.511   4.904
 7689SOL     OW23965   4.569   6.952   4.621
 7689SOL    HW123966   4.599   6.953   4.716
 7689SOL    HW223967   4.646   6.930   4.562
 7690SOL     OW23968   5.727   4.550   3.271
 7690SOL    HW123969   5.803   4.603   3.308
 7690SOL    HW223970   5.681   4.503   3.347
 7691SOL     OW23971   5.359   2.840   4.114
 7691SOL    HW123972   5.316   2.867   4.200
 7691SOL    HW223973   5.326   2.898   4.040
 7692SOL     OW23974   1.944   6.356   2.051
 7692SOL    HW123975   1.849   6.386   2.064
 7692SOL    HW223976   1.975   6.309   2.133
 7693SOL     OW23977   4.188   1.161   6.129
 7693SOL    HW123978   4.277   1.193   6.161
 7693SOL    HW223979   4.121   1.234   6.140
 7694SOL     OW23980   6.746   4.739   4.218
 7694SOL    HW123981   6.784   4.661   4.167
 7694SOL    HW223982   6.815   4.773   4.282
 7695SOL     OW23983   4.394   6.857   0.784
 7695SOL    HW123984   4.460   6.853   0.710
 7695SOL    HW223985   4.306   6.889   0.749
 7696SOL     OW23986   0.206   2.504   4.583
 7696SOL    HW123987   0.155   2.426   4.546
 7696SOL    HW223988   0.143   2.564   4.632
 7697SOL     OW23989   2.150   1.694   3.227
 7697SOL    HW123990   2.190   1.612   3.187
 7697SOL    HW223991   2.213   1.771   3.214
 7698SOL     OW23992   6.801   2.960   4.979
 7698SOL    HW123993   6.827   2.996   4.890
 7698SOL    HW223994   6.785   2.862   4.972
 7699SOL     OW23995   2.683   5.807   1.041
 7699SOL    HW123996   2.687   5.894   0.992
 7699SOL    HW223997   2.774   5.766   1.043
 7700SOL     OW23998   4.671   6.323   5.090
 7700SOL    HW123999   4.686   6.322   4.991
 7700SOL    HW224000   4.604   6.394   5.113
 7701SOL     OW24001   0.510   1.627   5.018
 7701SOL    HW124002   0.516   1.654   4.922
 7701SOL    HW224003   0.436   1.561   5.030
 7702SOL     OW24004   3.470   5.519   5.832
 7702SOL    HW124005   3.430   5.606   5.860
 7702SOL    HW224006   3.443   5.448   5.897
 7703SOL     OW24007   0.460   1.530   5.499
 7703SOL    HW124008   0.424   1.463   5.435
 7703SOL    HW224009   0.513   1.599   5.448
 7704SOL     OW24010   4.367   4.085   6.711
 7704SOL    HW124011   4.311   4.011   6.674
 7704SOL    HW224012   4.312   4.144   6.769
 7705SOL     OW24013   3.481   5.581   5.242
 7705SOL    HW124014   3.569   5.533   5.248
 7705SOL    HW224015   3.422   5.551   5.316
 7706SOL     OW24016   6.113   0.701   5.052
 7706SOL    HW124017   6.024   0.660   5.071
 7706SOL    HW224018   6.179   0.670   5.121
 7707SOL     OW24019   6.898   5.507   6.343
 7707SOL    HW124020   6.875   5.419   6.302
 7707SOL    HW224021   6.855   5.516   6.432
 7708SOL     OW24022   4.675   6.317   4.007
 7708SOL    HW124023   4.637   6.329   3.915
 7708SOL    HW224024   4.617   6.254   4.059
 7709SOL     OW24025   4.676   2.267   1.591
 7709SOL    HW124026   4.739   2.317   1.651
 7709SOL    HW224027   4.673   2.171   1.618
 7710SOL     OW24028   2.717   0.234   0.581
 7710SOL    HW124029   2.647   0.205   0.646
 7710SOL    HW224030   2.739   0.330   0.596
 7711SOL     OW24031   5.484   6.436   5.634
 7711SOL    HW124032   5.452   6.420   5.541
 7711SOL    HW224033   5.537   6.358   5.666
 7712SOL     OW24034   6.120   5.021   0.862
 7712SOL    HW124035   6.026   5.047   0.842
 7712SOL    HW224036   6.126   4.921   0.872
 7713SOL     OW24037   1.341   4.417   6.531
 7713SOL    HW124038   1.344   4.431   6.630
 7713SOL    HW224039   1.385   4.330   6.508
 7714SOL     OW24040   5.993   4.318   4.082
 7714SOL    HW124041   5.951   4.379   4.015
 7714SOL    HW224042   6.031   4.373   4.157
 7715SOL     OW24043   5.077   0.363   1.530
 7715SOL    HW124044   5.064   0.461   1.522
 7715SOL    HW224045   5.097   0.324   1.440
 7716SOL     OW24046   4.771   2.426   2.903
 7716SOL    HW124047   4.693   2.442   2.842
 7716SOL    HW224048   4.820   2.344   2.873
 7717SOL     OW24049   2.986   1.498   5.533
 7717SOL    HW124050   2.960   1.524   5.439
 7717SOL    HW224051   2.962   1.572   5.596
 7718SOL     OW24052   2.721   0.909   3.379
 7718SOL    HW124053   2.777   0.991   3.388
 7718SOL    HW224054   2.712   0.865   3.469
 7719SOL     OW24055   0.113   2.103   4.277
 7719SOL    HW124056   0.102   2.130   4.181
 7719SOL    HW224057   0.029   2.059   4.309
 7720SOL     OW24058   6.157   6.573   1.096
 7720SOL    HW124059   6.085   6.642   1.105
 7720SOL    HW224060   6.208   6.588   1.011
 7721SOL     OW24061   2.332   4.390   3.596
 7721SOL    HW124062   2.349   4.311   3.537
 7721SOL    HW224063   2.357   4.366   3.690
 7722SOL     OW24064   6.366   4.489   4.032
 7722SOL    HW124065   6.367   4.399   3.988
 7722SOL    HW224066   6.449   4.539   4.006
 7723SOL     OW24067   6.740   3.301   0.543
 7723SOL    HW124068   6.738   3.255   0.631
 7723SOL    HW224069   6.788   3.243   0.477
 7724SOL     OW24070   1.395   4.711   1.136
 7724SOL    HW124071   1.433   4.742   1.049
 7724SOL    HW224072   1.382   4.612   1.133
 7725SOL     OW24073   5.933   2.773   3.299
 7725SOL    HW124074   5.904   2.826   3.220
 7725SOL    HW224075   6.008   2.820   3.345
 7726SOL     OW24076   0.699   4.191   2.990
 7726SOL    HW124077   0.769   4.263   2.992
 7726SOL    HW224078   0.731   4.116   2.932
 7727SOL     OW24079   6.464   2.912   3.241
 7727SOL    HW124080   6.484   2.988   3.179
 7727SOL    HW224081   6.550   2.876   3.278
 7728SOL     OW24082   1.850   3.162   3.253
 7728SOL    HW124083   1.814   3.225   3.184
 7728SOL    HW224084   1.947   3.147   3.236
 7729SOL     OW24085   5.061   2.559   1.144
 7729SOL    HW124086   5.089   2.645   1.188
 7729SOL    HW224087   5.043   2.576   1.047
 7730SOL     OW24088   4.998   6.957   2.397
 7730SOL    HW124089   4.973   6.928   2.490
 7730SOL    HW224090   4.927   6.927   2.333
 7731SOL     OW24091   5.983   1.253   6.858
 7731SOL    HW124092   5.884   1.267   6.858
 7731SOL    HW224093   6.026   1.317   6.922
 7732SOL     OW24094   4.487   5.975   0.210
 7732SOL    HW124095   4.442   6.041   0.271
 7732SOL    HW224096   4.432   5.965   0.127
 7733SOL     OW24097   3.558   0.660   1.304
 7733SOL    HW124098   3.472   0.612   1.324
 7733SOL    HW224099   3.594   0.701   1.388
 7734SOL     OW24100   1.328   2.480   3.969
 7734SOL    HW124101   1.305   2.461   4.064
 7734SOL    HW224102   1.424   2.507   3.962
 7735SOL     OW24103   5.381   4.391   6.433
 7735SOL    HW124104   5.313   4.458   6.404
 7735SOL    HW224105   5.346   4.340   6.511
 7736SOL     OW24106   5.588   4.631   0.110
 7736SOL    HW124107   5.673   4.666   0.071
 7736SOL    HW224108   5.585   4.653   0.207
 7737SOL     OW24109   4.789   1.999   0.746
 7737SOL    HW124110   4.784   1.985   0.845
 7737SOL    HW224111   4.815   2.094   0.727
 7738SOL     OW24112   2.784   5.562   0.244
 7738SOL    HW124113   2.879   5.580   0.218
 7738SOL    HW224114   2.773   5.465   0.266
 7739SOL     OW24115   0.591   2.476   1.489
 7739SOL    HW124116   0.542   2.413   1.429
 7739SOL    HW224117   0.551   2.473   1.580
 7740SOL     OW24118   0.212   6.914   2.752
 7740SOL    HW124119   0.139   6.846   2.741
 7740SOL    HW224120   0.295   6.881   2.708
 7741SOL     OW24121   1.266   5.963   4.277
 7741SOL    HW124122   1.193   5.910   4.320
 7741SOL    HW224123   1.260   6.059   4.306
 7742SOL     OW24124   6.027   2.019   3.439
 7742SOL    HW124125   6.059   1.969   3.519
 7742SOL    HW224126   6.102   2.030   3.374
 7743SOL     OW24127   4.649   2.581   4.588
 7743SOL    HW124128   4.713   2.538   4.652
 7743SOL    HW224129   4.563   2.602   4.636
 7744SOL     OW24130   6.437   0.051   3.339
 7744SOL    HW124131   6.374   0.069   3.263
 7744SOL    HW224132   6.413   6.991   3.383
 7745SOL     OW24133   3.641   2.718   5.930
 7745SOL    HW124134   3.629   2.792   5.864
 7745SOL    HW224135   3.585   2.640   5.904
 7746SOL     OW24136   1.563   0.342   0.196
 7746SOL    HW124137   1.634   0.323   0.263
 7746SOL    HW224138   1.473   0.340   0.241
 7747SOL     OW24139   5.216   6.306   0.936
 7747SOL    HW124140   5.127   6.259   0.937
 7747SOL    HW224141   5.207   6.392   0.885
 7748SOL     OW24142   2.660   4.501   6.248
 7748SOL    HW124143   2.564   4.494   6.220
 7748SOL    HW224144   2.718   4.511   6.167
 7749SOL     OW24145   5.372   2.786   5.600
 7749SOL    HW124146   5.462   2.797   5.560
 7749SOL    HW224147   5.304   2.773   5.528
 7750SOL     OW24148   0.102   5.927   1.688
 7750SOL    HW124149   0.046   5.925   1.606
 7750SOL    HW224150   0.152   5.840   1.696
 7751SOL     OW24151   0.878   2.653   2.099
 7751SOL    HW124152   0.961   2.619   2.054
 7751SOL    HW224153   0.817   2.693   2.031
 7752SOL     OW24154   4.568   1.385   4.301
 7752SOL    HW124155   4.642   1.364   4.237
 7752SOL    HW224156   4.545   1.303   4.353
 7753SOL     OW24157   2.708   1.276   5.277
 7753SOL    HW124158   2.808   1.281   5.280
 7753SOL    HW224159   2.671   1.369   5.270
 7754SOL     OW24160   4.524   6.781   1.957
 7754SOL    HW124161   4.612   6.753   1.919
 7754SOL    HW224162   4.537   6.823   2.046
 7755SOL     OW24163   1.504   4.185   5.879
 7755SOL    HW124164   1.407   4.198   5.859
 7755SOL    HW224165   1.526   4.227   5.967
 7756SOL     OW24166   3.188   5.868   1.634
 7756SOL    HW124167   3.245   5.946   1.606
 7756SOL    HW224168   3.244   5.802   1.683
 7757SOL     OW24169   0.163   4.416   2.782
 7757SOL    HW124170   0.079   4.363   2.773
 7757SOL    HW224171   0.225   4.370   2.846
 7758SOL     OW24172   1.683   0.428   5.443
 7758SOL    HW124173   1.674   0.520   5.406
 7758SOL    HW224174   1.767   0.421   5.497
 7759SOL     OW24175   2.683   1.998   6.563
 7759SOL    HW124176   2.679   2.069   6.633
 7759SOL    HW224177   2.743   2.026   6.489
 7760SOL     OW24178   4.479   3.236   1.327
 7760SOL    HW124179   4.413   3.305   1.357
 7760SOL    HW224180   4.442   3.145   1.345
 7761SOL     OW24181   4.903   5.956   4.477
 7761SOL    HW124182   4.868   6.034   4.425
 7761SOL    HW224183   4.966   5.903   4.419
 7762SOL     OW24184   6.605   0.502   2.848
 7762SOL    HW124185   6.614   0.431   2.917
 7762SOL    HW224186   6.547   0.576   2.882
 7763SOL     OW24187   2.601   0.039   4.666
 7763SOL    HW124188   2.576   6.968   4.674
 7763SOL    HW224189   2.618   0.076   4.758
 7764SOL     OW24190   3.123   4.085   5.312
 7764SOL    HW124191   3.076   3.999   5.295
 7764SOL    HW224192   3.216   4.067   5.345
 7765SOL     OW24193   6.760   3.042   4.426
 7765SOL    HW124194   6.712   3.025   4.340
 7765SOL    HW224195   6.762   3.140   4.444
 7766SOL     OW24196   6.637   3.842   6.785
 7766SOL    HW124197   6.650   3.790   6.700
 7766SOL    HW224198   6.561   3.802   6.836
 7767SOL     OW24199   2.686   0.955   3.086
 7767SOL    HW124200   2.611   0.899   3.050
 7767SOL    HW224201   2.689   0.947   3.186
 7768SOL     OW24202   4.645   5.382   3.036
 7768SOL    HW124203   4.660   5.396   3.134
 7768SOL    HW224204   4.616   5.467   2.993
 7769SOL     OW24205   3.340   2.670   5.303
 7769SOL    HW124206   3.295   2.582   5.288
 7769SOL    HW224207   3.355   2.684   5.401
 7770SOL     OW24208   2.144   3.338   4.778
 7770SOL    HW124209   2.180   3.301   4.692
 7770SOL    HW224210   2.078   3.410   4.758
 7771SOL     OW24211   2.495   2.231   6.131
 7771SOL    HW124212   2.556   2.152   6.138
 7771SOL    HW224213   2.538   2.300   6.073
 7772SOL     OW24214   4.782   0.031   1.755
 7772SOL    HW124215   4.863   6.998   1.762
 7772SOL    HW224216   4.807   0.125   1.777
 7773SOL     OW24217   3.438   6.362   6.957
 7773SOL    HW124218   3.477   6.283   7.006
 7773SOL    HW224219   3.362   6.400   7.010
 7774SOL     OW24220   4.299   1.923   2.607
 7774SOL    HW124221   4.208   1.890   2.630
 7774SOL    HW224222   4.297   2.022   2.597
 7775SOL     OW24223   3.199   0.485   6.984
 7775SOL    HW124224   3.215   0.551   6.911
 7775SOL    HW224225   3.143   0.528   0.030
 7776SOL     OW24226   1.657   1.035   4.906
 7776SOL    HW124227   1.560   1.058   4.904
 7776SOL    HW224228   1.707   1.105   4.956
 7777SOL     OW24229   5.629   5.119   3.608
 7777SOL    HW124230   5.703   5.128   3.542
 7777SOL    HW224231   5.586   5.030   3.599
 7778SOL     OW24232   6.204   5.232   2.953
 7778SOL    HW124233   6.266   5.240   3.031
 7778SOL    HW224234   6.113   5.264   2.980
 7779SOL     OW24235   3.698   5.868   2.658
 7779SOL    HW124236   3.682   5.943   2.595
 7779SOL    HW224237   3.686   5.899   2.752
 7780SOL     OW24238   6.300   5.877   4.451
 7780SOL    HW124239   6.212   5.919   4.428
 7780SOL    HW224240   6.306   5.786   4.410
 7781SOL     OW24241   1.769   2.318   0.610
 7781SOL    HW124242   1.761   2.251   0.536
 7781SOL    HW224243   1.801   2.271   0.693
 7782SOL     OW24244   5.667   4.117   4.211
 7782SOL    HW124245   5.612   4.038   4.240
 7782SOL    HW224246   5.764   4.094   4.218
 7783SOL     OW24247   0.971   0.323   5.370
 7783SOL    HW124248   1.013   0.357   5.454
 7783SOL    HW224249   1.041   0.278   5.314
 7784SOL     OW24250   2.143   2.774   2.639
 7784SOL    HW124251   2.189   2.853   2.599
 7784SOL    HW224252   2.045   2.781   2.624
 7785SOL     OW24253   0.590   6.748   2.463
 7785SOL    HW124254   0.543   6.744   2.375
 7785SOL    HW224255   0.670   6.689   2.461
 7786SOL     OW24256   4.399   0.321   6.119
 7786SOL    HW124257   4.417   0.245   6.181
 7786SOL    HW224258   4.333   0.383   6.160
 7787SOL     OW24259   2.290   2.558   1.315
 7787SOL    HW124260   2.309   2.491   1.387
 7787SOL    HW224261   2.257   2.643   1.356
 7788SOL     OW24262   6.855   4.347   1.719
 7788SOL    HW124263   6.832   4.328   1.624
 7788SOL    HW224264   6.945   4.391   1.724
 7789SOL     OW24265   3.550   1.429   6.150
 7789SOL    HW124266   3.643   1.443   6.184
 7789SOL    HW224267   3.544   1.464   6.056
 7790SOL     OW24268   4.763   4.571   1.637
 7790SOL    HW124269   4.681   4.522   1.667
 7790SOL    HW224270   4.843   4.511   1.646
 7791SOL     OW24271   2.715   5.093   2.327
 7791SOL    HW124272   2.769   5.171   2.295
 7791SOL    HW224273   2.760   5.008   2.300
 7792SOL     OW24274   1.190   1.906   2.452
 7792SOL    HW124275   1.229   1.914   2.360
 7792SOL    HW224276   1.124   1.831   2.453
 7793SOL     OW24277   4.594   1.061   6.131
 7793SOL    HW124278   4.559   1.032   6.220
 7793SOL    HW224279   4.529   1.034   6.059
 7794SOL     OW24280   0.806   6.479   3.703
 7794SOL    HW124281   0.712   6.446   3.707
 7794SOL    HW224282   0.822   6.524   3.616
 7795SOL     OW24283   3.020   6.135   6.552
 7795SOL    HW124284   2.999   6.075   6.475
 7795SOL    HW224285   2.936   6.158   6.600
 7796SOL     OW24286   3.994   3.499   6.191
 7796SOL    HW124287   3.924   3.561   6.156
 7796SOL    HW224288   3.998   3.506   6.291
 7797SOL     OW24289   0.944   6.450   2.665
 7797SOL    HW124290   0.903   6.459   2.574
 7797SOL    HW224291   1.036   6.490   2.664
 7798SOL     OW24292   1.200   3.171   0.478
 7798SOL    HW124293   1.245   3.208   0.397
 7798SOL    HW224294   1.257   3.100   0.519
 7799SOL     OW24295   2.452   5.862   3.622
 7799SOL    HW124296   2.429   5.843   3.527
 7799SOL    HW224297   2.502   5.948   3.627
 7800SOL     OW24298   0.405   6.585   1.571
 7800SOL    HW124299   0.335   6.514   1.579
 7800SOL    HW224300   0.404   6.642   1.653
 7801SOL     OW24301   1.828   2.371   2.489
 7801SOL    HW124302   1.832   2.282   2.444
 7801SOL    HW224303   1.906   2.427   2.461
 7802SOL     OW24304   0.314   3.952   4.574
 7802SOL    HW124305   0.261   3.936   4.657
 7802SOL    HW224306   0.308   4.048   4.549
 7803SOL     OW24307   4.097   2.518   5.634
 7803SOL    HW124308   4.012   2.466   5.633
 7803SOL    HW224309   4.084   2.601   5.689
 7804SOL     OW24310   3.074   1.857   5.376
 7804SOL    HW124311   2.999   1.919   5.400
 7804SOL    HW224312   3.143   1.907   5.323
 7805SOL     OW24313   5.635   2.768   0.566
 7805SOL    HW124314   5.697   2.693   0.542
 7805SOL    HW224315   5.562   2.773   0.498
 7806SOL     OW24316   6.825   2.603   5.663
 7806SOL    HW124317   6.871   2.640   5.582
 7806SOL    HW224318   6.732   2.575   5.638
 7807SOL     OW24319   2.688   4.812   6.362
 7807SOL    HW124320   2.658   4.729   6.315
 7807SOL    HW224321   2.610   4.873   6.375
 7808SOL     OW24322   4.997   3.674   3.205
 7808SOL    HW124323   4.988   3.621   3.290
 7808SOL    HW224324   4.908   3.713   3.180
 7809SOL     OW24325   5.107   5.069   3.633
 7809SOL    HW124326   5.097   5.137   3.559
 7809SOL    HW224327   5.080   4.979   3.599
 7810SOL     OW24328   3.762   6.756   5.444
 7810SOL    HW124329   3.789   6.779   5.538
 7810SOL    HW224330   3.814   6.814   5.381
 7811SOL     OW24331   1.466   5.634   3.045
 7811SOL    HW124332   1.379   5.672   3.076
 7811SOL    HW224333   1.502   5.690   2.970
 7812SOL     OW24334   2.778   1.775   6.062
 7812SOL    HW124335   2.811   1.681   6.057
 7812SOL    HW224336   2.856   1.837   6.072
 7813SOL     OW24337   5.323   0.797   0.666
 7813SOL    HW124338   5.413   0.841   0.670
 7813SOL    HW224339   5.334   0.699   0.652
 7814SOL     OW24340   6.818   3.388   2.033
 7814SOL    HW124341   6.901   3.376   2.089
 7814SOL    HW224342   6.739   3.399   2.092
 7815SOL     OW24343   5.739   3.719   5.366
 7815SOL    HW124344   5.796   3.687   5.290
 7815SOL    HW224345   5.749   3.818   5.376
 7816SOL     OW24346   0.700   1.207   5.134
 7816SOL    HW124347   0.634   1.151   5.083
 7816SOL    HW224348   0.714   1.167   5.224
 7817SOL     OW24349   2.873   2.980   6.265
 7817SOL    HW124350   2.808   3.055   6.274
 7817SOL    HW224351   2.852   2.909   6.333
 7818SOL     OW24352   5.924   0.947   2.333
 7818SOL    HW124353   5.915   0.849   2.349
 7818SOL    HW224354   5.914   0.997   2.419
 7819SOL     OW24355   1.495   3.771   3.903
 7819SOL    HW124356   1.462   3.861   3.931
 7819SOL    HW224357   1.422   3.722   3.856
 7820SOL     OW24358   1.931   6.889   6.456
 7820SOL    HW124359   1.989   6.959   6.498
 7820SOL    HW224360   1.980   6.847   6.380
 7821SOL     OW24361   5.185   5.548   6.650
 7821SOL    HW124362   5.267   5.496   6.624
 7821SOL    HW224363   5.198   5.644   6.625
 7822SOL     OW24364   1.410   0.964   5.292
 7822SOL    HW124365   1.397   1.063   5.297
 7822SOL    HW224366   1.390   0.932   5.200
 7823SOL     OW24367   1.709   3.107   5.942
 7823SOL    HW124368   1.698   3.096   6.041
 7823SOL    HW224369   1.716   3.205   5.921
 7824SOL     OW24370   4.999   2.523   3.198
 7824SOL    HW124371   4.996   2.423   3.191
 7824SOL    HW224372   4.907   2.558   3.214
 7825SOL     OW24373   3.450   3.604   2.268
 7825SOL    HW124374   3.386   3.618   2.344
 7825SOL    HW224375   3.405   3.550   2.197
 7826SOL     OW24376   6.936   0.274   0.676
 7826SOL    HW124377   6.889   0.205   0.732
 7826SOL    HW224378   6.885   0.289   0.592
 7827SOL     OW24379   5.372   4.474   1.484
 7827SOL    HW124380   5.434   4.465   1.562
 7827SOL    HW224381   5.282   4.438   1.509
 7828SOL     OW24382   0.279   6.285   0.586
 7828SOL    HW124383   0.367   6.330   0.572
 7828SOL    HW224384   0.206   6.353   0.575
 7829SOL     OW24385   3.994   2.777   1.556
 7829SOL    HW124386   3.894   2.780   1.560
 7829SOL    HW224387   4.023   2.747   1.465
 7830SOL     OW24388   6.168   2.551   6.912
 7830SOL    HW124389   6.145   2.594   6.825
 7830SOL    HW224390   6.085   2.518   6.956
 7831SOL     OW24391   1.979   2.795   6.985
 7831SOL    HW124392   2.012   2.867   6.924
 7831SOL    HW224393   1.965   2.833   0.051
 7832SOL     OW24394   2.525   2.623   5.430
 7832SOL    HW124395   2.554   2.711   5.392
 7832SOL    HW224396   2.425   2.619   5.431
 7833SOL     OW24397   0.432   6.857   0.075
 7833SOL    HW124398   0.350   6.839   0.129
 7833SOL    HW224399   0.432   6.953   0.046
 7834SOL     OW24400   0.845   0.627   1.348
 7834SOL    HW124401   0.849   0.724   1.369
 7834SOL    HW224402   0.929   0.599   1.301
 7835SOL     OW24403   2.033   2.560   5.109
 7835SOL    HW124404   1.992   2.651   5.120
 7835SOL    HW224405   2.090   2.539   5.189
 7836SOL     OW24406   2.179   6.618   0.233
 7836SOL    HW124407   2.099   6.676   0.249
 7836SOL    HW224408   2.230   6.607   0.318
 7837SOL     OW24409   6.093   0.167   2.841
 7837SOL    HW124410   6.184   0.126   2.834
 7837SOL    HW224411   6.035   0.131   2.768
 7838SOL     OW24412   3.712   0.245   4.084
 7838SOL    HW124413   3.679   0.338   4.104
 7838SOL    HW224414   3.687   0.184   4.160
 7839SOL     OW24415   6.352   4.566   4.699
 7839SOL    HW124416   6.285   4.555   4.773
 7839SOL    HW224417   6.441   4.588   4.738
 7840SOL     OW24418   6.000   3.160   4.940
 7840SOL    HW124419   6.063   3.087   4.967
 7840SOL    HW224420   5.905   3.128   4.949
 7841SOL     OW24421   0.894   2.023   6.551
 7841SOL    HW124422   0.822   2.043   6.484
 7841SOL    HW224423   0.916   2.105   6.603
 7842SOL     OW24424   2.789   0.899   2.762
 7842SOL    HW124425   2.786   0.897   2.862
 7842SOL    HW224426   2.880   0.873   2.731
 7843SOL     OW24427   5.017   3.187   0.815
 7843SOL    HW124428   5.052   3.111   0.870
 7843SOL    HW224429   5.092   3.250   0.795
 7844SOL     OW24430   4.392   1.063   3.324
 7844SOL    HW124431   4.331   0.985   3.338
 7844SOL    HW224432   4.340   1.142   3.294
 7845SOL     OW24433   6.958   1.330   4.038
 7845SOL    HW124434   0.012   1.309   4.095
 7845SOL    HW224435   6.921   1.419   4.065
 7846SOL     OW24436   2.931   6.886   2.368
 7846SOL    HW124437   3.014   6.884   2.311
 7846SOL    HW224438   2.947   6.943   2.448
 7847SOL     OW24439   6.779   0.780   0.454
 7847SOL    HW124440   6.873   0.746   0.455
 7847SOL    HW224441   6.742   0.773   0.361
 7848SOL     OW24442   5.010   4.074   1.559
 7848SOL    HW124443   4.943   4.041   1.493
 7848SOL    HW224444   4.967   4.084   1.648
 7849SOL     OW24445   6.494   3.845   5.215
 7849SOL    HW124446   6.517   3.834   5.312
 7849SOL    HW224447   6.434   3.923   5.203
 7850SOL     OW24448   1.416   0.808   4.807
 7850SOL    HW124449   1.479   0.731   4.813
 7850SOL    HW224450   1.356   0.808   4.887
 7851SOL     OW24451   5.610   6.660   6.910
 7851SOL    HW124452   5.639   6.622   6.823
 7851SOL    HW224453   5.666   6.621   6.983
 7852SOL     OW24454   2.621   5.978   0.369
 7852SOL    HW124455   2.531   5.936   0.365
 7852SOL    HW224456   2.622   6.061   0.314
 7853SOL     OW24457   2.678   3.066   0.263
 7853SOL    HW124458   2.673   3.134   0.336
 7853SOL    HW224459   2.722   2.984   0.298
 7854SOL     OW24460   3.356   3.935   2.254
 7854SOL    HW124461   3.411   3.947   2.172
 7854SOL    HW224462   3.308   4.020   2.275
 7855SOL     OW24463   4.533   6.238   5.790
 7855SOL    HW124464   4.628   6.256   5.817
 7855SOL    HW224465   4.473   6.308   5.830
 7856SOL     OW24466   5.012   3.318   6.422
 7856SOL    HW124467   4.925   3.306   6.470
 7856SOL    HW224468   5.066   3.389   6.468
 7857SOL     OW24469   6.926   1.429   5.524
 7857SOL    HW124470   7.023   1.407   5.511
 7857SOL    HW224471   6.888   1.461   5.437
 7858SOL     OW24472   6.345   4.008   2.952
 7858SOL    HW124473   6.260   3.979   2.995
 7858SOL    HW224474   6.406   4.047   3.022
 7859SOL     OW24475   1.056   5.719   6.819
 7859SOL    HW124476   1.041   5.624   6.791
 7859SOL    HW224477   1.121   5.722   6.895
 7860SOL     OW24478   4.073   6.844   2.085
 7860SOL    HW124479   4.111   6.934   2.065
 7860SOL    HW224480   4.092   6.820   2.180
 7861SOL     OW24481   4.726   4.592   0.336
 7861SOL    HW124482   4.657   4.569   0.267
 7861SOL    HW224483   4.804   4.530   0.326
 7862SOL     OW24484   3.167   4.602   1.746
 7862SOL    HW124485   3.203   4.682   1.793
 7862SOL    HW224486   3.093   4.562   1.800
 7863SOL     OW24487   6.641   5.845   2.144
 7863SOL    HW124488   6.703   5.898   2.085
 7863SOL    HW224489   6.692   5.770   2.186
 7864SOL     OW24490   0.405   5.451   4.811
 7864SOL    HW124491   0.382   5.419   4.903
 7864SOL    HW224492   0.475   5.522   4.817
 7865SOL     OW24493   3.287   0.034   3.301
 7865SOL    HW124494   3.252   0.126   3.318
 7865SOL    HW224495   3.386   0.033   3.315
 7866SOL     OW24496   2.618   2.313   4.356
 7866SOL    HW124497   2.713   2.307   4.327
 7866SOL    HW224498   2.583   2.222   4.377
 7867SOL     OW24499   5.872   4.225   1.919
 7867SOL    HW124500   5.885   4.251   1.824
 7867SOL    HW224501   5.961   4.201   1.959
 7868SOL     OW24502   5.576   6.717   0.412
 7868SOL    HW124503   5.587   6.807   0.369
 7868SOL    HW224504   5.649   6.704   0.479
 7869SOL     OW24505   0.525   3.435   1.826
 7869SOL    HW124506   0.556   3.442   1.921
 7869SOL    HW224507   0.533   3.525   1.783
 7870SOL     OW24508   7.025   5.837   3.750
 7870SOL    HW124509   6.957   5.872   3.815
 7870SOL    HW224510   6.981   5.818   3.662
 7871SOL     OW24511   5.134   2.979   3.206
 7871SOL    HW124512   5.039   3.002   3.183
 7871SOL    HW224513   5.160   2.895   3.160
 7872SOL     OW24514   6.989   3.242   3.015
 7872SOL    HW124515   6.977   3.315   2.949
 7872SOL    HW224516   6.902   3.223   3.061
 7873SOL     OW24517   0.327   4.986   5.395
 7873SOL    HW124518   0.312   4.888   5.382
 7873SOL    HW224519   0.421   5.002   5.426
 7874SOL     OW24520   5.783   1.356   0.939
 7874SOL    HW124521   5.857   1.392   0.995
 7874SOL    HW224522   5.818   1.283   0.879
 7875SOL     OW24523   4.127   3.198   6.583
 7875SOL    HW124524   4.067   3.168   6.657
 7875SOL    HW224525   4.081   3.182   6.495
 7876SOL     OW24526   5.940   0.608   3.590
 7876SOL    HW124527   5.979   0.619   3.498
 7876SOL    HW224528   5.887   0.689   3.614
 7877SOL     OW24529   6.828   2.103   2.701
 7877SOL    HW124530   6.762   2.153   2.757
 7877SOL    HW224531   6.898   2.166   2.667
 7878SOL     OW24532   4.842   3.790   1.843
 7878SOL    HW124533   4.792   3.710   1.810
 7878SOL    HW224534   4.933   3.791   1.802
 7879SOL     OW24535   5.154   0.356   4.062
 7879SOL    HW124536   5.184   0.339   3.968
 7879SOL    HW224537   5.224   0.409   4.110
 7880SOL     OW24538   0.309   6.991   6.468
 7880SOL    HW124539   0.226   6.972   6.520
 7880SOL    HW224540   0.339   6.907   6.422
 7881SOL     OW24541   0.121   4.933   4.337
 7881SOL    HW124542   0.167   5.016   4.306
 7881SOL    HW224543   0.100   4.941   4.434
 7882SOL     OW24544   6.744   4.118   2.873
 7882SOL    HW124545   6.667   4.175   2.901
 7882SOL    HW224546   6.810   4.173   2.822
 7883SOL     OW24547   3.461   1.545   4.120
 7883SOL    HW124548   3.477   1.533   4.022
 7883SOL    HW224549   3.385   1.607   4.135
 7884SOL     OW24550   0.528   4.312   4.583
 7884SOL    HW124551   0.601   4.244   4.580
 7884SOL    HW224552   0.506   4.334   4.678
 7885SOL     OW24553   5.930   5.248   3.073
 7885SOL    HW124554   5.915   5.328   3.131
 7885SOL    HW224555   5.857   5.242   3.004
 7886SOL     OW24556   4.827   2.819   2.489
 7886SOL    HW124557   4.924   2.816   2.513
 7886SOL    HW224558   4.802   2.913   2.464
 7887SOL     OW24559   3.118   3.452   0.688
 7887SOL    HW124560   3.075   3.406   0.766
 7887SOL    HW224561   3.137   3.385   0.616
 7888SOL     OW24562   5.217   2.214   4.151
 7888SOL    HW124563   5.146   2.272   4.191
 7888SOL    HW224564   5.245   2.250   4.063
 7889SOL     OW24565   5.861   5.068   0.871
 7889SOL    HW124566   5.821   5.152   0.907
 7889SOL    HW224567   5.828   4.990   0.925
 7890SOL     OW24568   1.249   3.470   4.664
 7890SOL    HW124569   1.272   3.436   4.755
 7890SOL    HW224570   1.301   3.552   4.644
 7891SOL     OW24571   0.684   1.906   4.529
 7891SOL    HW124572   0.760   1.947   4.477
 7891SOL    HW224573   0.604   1.966   4.523
 7892SOL     OW24574   1.093   2.678   5.731
 7892SOL    HW124575   1.029   2.627   5.673
 7892SOL    HW224576   1.182   2.682   5.686
 7893SOL     OW24577   6.141   0.699   0.532
 7893SOL    HW124578   6.045   0.728   0.526
 7893SOL    HW224579   6.149   0.604   0.502
 7894SOL     OW24580   3.193   1.325   6.566
 7894SOL    HW124581   3.096   1.325   6.591
 7894SOL    HW224582   3.211   1.401   6.504
 7895SOL     OW24583   4.284   6.517   3.717
 7895SOL    HW124584   4.275   6.617   3.723
 7895SOL    HW224585   4.335   6.483   3.796
 7896SOL     OW24586   3.200   1.971   1.106
 7896SOL    HW124587   3.202   2.063   1.145
 7896SOL    HW224588   3.167   1.976   1.011
 7897SOL     OW24589   3.878   3.939   6.939
 7897SOL    HW124590   3.885   3.852   6.988
 7897SOL    HW224591   3.873   4.014   7.006
 7898SOL     OW24592   5.359   0.476   4.204
 7898SOL    HW124593   5.392   0.420   4.279
 7898SOL    HW224594   5.432   0.488   4.136
 7899SOL     OW24595   5.128   4.425   2.018
 7899SOL    HW124596   5.119   4.495   1.947
 7899SOL    HW224597   5.045   4.423   2.073
 7900SOL     OW24598   0.499   4.003   0.807
 7900SOL    HW124599   0.493   4.027   0.904
 7900SOL    HW224600   0.438   3.926   0.787
 7901SOL     OW24601   6.352   1.374   6.040
 7901SOL    HW124602   6.404   1.401   5.959
 7901SOL    HW224603   6.269   1.325   6.012
 7902SOL     OW24604   0.493   6.459   3.200
 7902SOL    HW124605   0.476   6.459   3.101
 7902SOL    HW224606   0.578   6.409   3.219
 7903SOL     OW24607   2.514   2.433   5.070
 7903SOL    HW124608   2.567   2.473   5.145
 7903SOL    HW224609   2.563   2.355   5.032
 7904SOL     OW24610   5.242   0.456   2.030
 7904SOL    HW124611   5.320   0.511   2.001
 7904SOL    HW224612   5.157   0.499   1.998
 7905SOL     OW24613   5.432   0.500   0.335
 7905SOL    HW124614   5.411   0.517   0.239
 7905SOL    HW224615   5.523   0.461   0.343
 7906SOL     OW24616   1.635   5.761   0.839
 7906SOL    HW124617   1.643   5.860   0.826
 7906SOL    HW224618   1.621   5.741   0.936
 7907SOL     OW24619   6.245   0.419   2.870
 7907SOL    HW124620   6.287   0.424   2.960
 7907SOL    HW224621   6.183   0.341   2.866
 7908SOL     OW24622   6.961   0.460   6.897
 7908SOL    HW124623   6.969   0.509   6.984
 7908SOL    HW224624   6.959   0.362   6.914
 7909SOL     OW24625   5.465   4.066   2.074
 7909SOL    HW124626   5.383   4.108   2.113
 7909SOL    HW224627   5.540   4.071   2.139
 7910SOL     OW24628   1.983   3.694   0.728
 7910SOL    HW124629   1.928   3.611   0.726
 7910SOL    HW224630   1.940   3.761   0.789
 7911SOL     OW24631   0.777   4.043   1.100
 7911SOL    HW124632   0.812   4.133   1.074
 7911SOL    HW224633   0.679   4.039   1.081
 7912SOL     OW24634   5.471   5.659   0.365
 7912SOL    HW124635   5.495   5.563   0.380
 7912SOL    HW224636   5.446   5.701   0.452
 7913SOL     OW24637   0.859   3.805   1.193
 7913SOL    HW124638   0.853   3.903   1.176
 7913SOL    HW224639   0.768   3.769   1.213
 7914SOL     OW24640   6.298   5.505   5.014
 7914SOL    HW124641   6.350   5.575   4.966
 7914SOL    HW224642   6.331   5.414   4.986
 7915SOL     OW24643   3.601   6.477   2.978
 7915SOL    HW124644   3.521   6.496   3.034
 7915SOL    HW224645   3.639   6.388   3.003
 7916SOL     OW24646   1.816   0.666   4.387
 7916SOL    HW124647   1.755   0.605   4.335
 7916SOL    HW224648   1.761   0.735   4.434
 7917SOL     OW24649   4.235   3.239   0.813
 7917SOL    HW124650   4.224   3.207   0.719
 7917SOL    HW224651   4.156   3.210   0.867
 7918SOL     OW24652   2.469   1.382   4.744
 7918SOL    HW124653   2.390   1.337   4.786
 7918SOL    HW224654   2.551   1.357   4.795
 7919SOL     OW24655   1.648   6.039   2.615
 7919SOL    HW124656   1.577   6.040   2.544
 7919SOL    HW224657   1.631   6.113   2.679
 7920SOL     OW24658   4.834   6.797   0.880
 7920SOL    HW124659   4.909   6.820   0.818
 7920SOL    HW224660   4.860   6.720   0.938
 7921SOL     OW24661   4.987   1.629   1.916
 7921SOL    HW124662   5.022   1.570   1.843
 7921SOL    HW224663   4.887   1.625   1.918
 7922SOL     OW24664   0.606   5.725   1.115
 7922SOL    HW124665   0.679   5.784   1.152
 7922SOL    HW224666   0.612   5.723   1.015
 7923SOL     OW24667   3.887   1.496   0.513
 7923SOL    HW124668   3.903   1.416   0.456
 7923SOL    HW224669   3.793   1.527   0.503
 7924SOL     OW24670   6.200   6.869   0.513
 7924SOL    HW124671   6.105   6.888   0.489
 7924SOL    HW224672   6.221   6.912   0.601
 7925SOL     OW24673   2.228   6.336   0.553
 7925SOL    HW124674   2.294   6.261   0.561
 7925SOL    HW224675   2.155   6.324   0.621
 7926SOL     OW24676   4.114   5.676   6.589
 7926SOL    HW124677   4.025   5.710   6.558
 7926SOL    HW224678   4.184   5.746   6.570
 7927SOL     OW24679   4.403   6.855   1.716
 7927SOL    HW124680   4.350   6.773   1.695
 7927SOL    HW224681   4.444   6.847   1.807
 7928SOL     OW24682   6.612   1.282   3.174
 7928SOL    HW124683   6.545   1.333   3.229
 7928SOL    HW224684   6.677   1.346   3.134
 7929SOL     OW24685   3.736   4.466   5.684
 7929SOL    HW124686   3.674   4.404   5.733
 7929SOL    HW224687   3.724   4.454   5.586
 7930SOL     OW24688   4.285   6.019   5.441
 7930SOL    HW124689   4.309   6.089   5.509
 7930SOL    HW224690   4.249   6.064   5.359
 7931SOL     OW24691   3.578   2.294   0.481
 7931SOL    HW124692   3.649   2.232   0.449
 7931SOL    HW224693   3.488   2.254   0.464
 7932SOL     OW24694   0.948   5.534   2.102
 7932SOL    HW124695   0.963   5.473   2.179
 7932SOL    HW224696   0.914   5.622   2.135
 7933SOL     OW24697   0.538   0.854   6.006
 7933SOL    HW124698   0.516   0.935   6.062
 7933SOL    HW224699   0.458   0.796   5.999
 7934SOL     OW24700   1.081   4.660   0.971
 7934SOL    HW124701   1.114   4.749   0.939
 7934SOL    HW224702   1.157   4.596   0.978
 7935SOL     OW24703   5.555   3.118   2.827
 7935SOL    HW124704   5.476   3.063   2.851
 7935SOL    HW224705   5.589   3.090   2.737
 7936SOL     OW24706   3.187   5.958   4.211
 7936SOL    HW124707   3.094   5.924   4.198
 7936SOL    HW224708   3.229   5.975   4.121
 7937SOL     OW24709   2.881   6.742   6.824
 7937SOL    HW124710   2.881   6.790   6.912
 7937SOL    HW224711   2.942   6.662   6.830
 7938SOL     OW24712   3.460   6.562   4.614
 7938SOL    HW124713   3.417   6.611   4.539
 7938SOL    HW224714   3.478   6.625   4.690
 7939SOL     OW24715   0.644   1.652   4.517
 7939SOL    HW124716   0.648   1.752   4.524
 7939SOL    HW224717   0.603   1.627   4.429
 7940SOL     OW24718   4.878   0.678   3.363
 7940SOL    HW124719   4.873   0.581   3.388
 7940SOL    HW224720   4.966   0.696   3.318
 7941SOL     OW24721   4.085   6.671   1.581
 7941SOL    HW124722   4.047   6.724   1.657
 7941SOL    HW224723   4.085   6.727   1.498
 7942SOL     OW24724   1.758   4.631   1.638
 7942SOL    HW124725   1.837   4.636   1.577
 7942SOL    HW224726   1.683   4.585   1.592
 7943SOL     OW24727   1.323   5.897   6.183
 7943SOL    HW124728   1.388   5.913   6.108
 7943SOL    HW224729   1.344   5.810   6.228
 7944SOL     OW24730   1.900   2.738   0.673
 7944SOL    HW124731   1.857   2.754   0.762
 7944SOL    HW224732   1.841   2.679   0.618
 7945SOL     OW24733   5.669   4.642   2.818
 7945SOL    HW124734   5.713   4.588   2.890
 7945SOL    HW224735   5.618   4.718   2.859
 7946SOL     OW24736   3.752   1.325   5.471
 7946SOL    HW124737   3.723   1.309   5.565
 7946SOL    HW224738   3.676   1.366   5.419
 7947SOL     OW24739   1.316   3.267   5.322
 7947SOL    HW124740   1.387   3.261   5.252
 7947SOL    HW224741   1.278   3.359   5.323
 7948SOL     OW24742   1.261   4.622   2.295
 7948SOL    HW124743   1.295   4.528   2.302
 7948SOL    HW224744   1.329   4.678   2.248
 7949SOL     OW24745   3.201   5.371   6.616
 7949SOL    HW124746   3.227   5.429   6.693
 7949SOL    HW224747   3.235   5.278   6.629
 7950SOL     OW24748   5.878   5.219   5.400
 7950SOL    HW124749   5.970   5.180   5.403
 7950SOL    HW224750   5.873   5.286   5.326
 7951SOL     OW24751   2.745   5.553   3.089
 7951SOL    HW124752   2.672   5.515   3.146
 7951SOL    HW224753   2.790   5.628   3.137
 7952SOL     OW24754   4.764   3.218   6.955
 7952SOL    HW124755   4.732   3.247   6.865
 7952SOL    HW224756   4.833   3.147   6.944
 7953SOL     OW24757   2.753   0.958   1.029
 7953SOL    HW124758   2.797   0.869   1.020
 7953SOL    HW224759   2.654   0.945   1.041
 7954SOL     OW24760   3.484   3.016   0.024
 7954SOL    HW124761   3.455   2.940   0.082
 7954SOL    HW224762   3.514   3.092   0.081
 7955SOL     OW24763   1.761   0.606   6.764
 7955SOL    HW124764   1.774   0.563   6.853
 7955SOL    HW224765   1.669   0.644   6.759
 7956SOL     OW24766   6.393   6.183   1.067
 7956SOL    HW124767   6.473   6.228   1.027
 7956SOL    HW224768   6.335   6.251   1.111
 7957SOL     OW24769   4.688   0.655   5.565
 7957SOL    HW124770   4.687   0.556   5.561
 7957SOL    HW224771   4.597   0.688   5.589
 7958SOL     OW24772   5.650   2.360   0.314
 7958SOL    HW124773   5.682   2.302   0.239
 7958SOL    HW224774   5.566   2.322   0.352
 7959SOL     OW24775   5.666   1.530   6.060
 7959SOL    HW124776   5.729   1.542   5.984
 7959SOL    HW224777   5.594   1.466   6.035
 7960SOL     OW24778   0.282   0.506   5.334
 7960SOL    HW124779   0.202   0.517   5.275
 7960SOL    HW224780   0.270   0.559   5.418
 7961SOL     OW24781   7.016   0.632   0.445
 7961SOL    HW124782   6.988   0.545   0.487
 7961SOL    HW224783   0.090   0.639   0.449
 7962SOL     OW24784   5.986   0.264   5.718
 7962SOL    HW124785   6.061   0.242   5.655
 7962SOL    HW224786   5.904   0.213   5.692
 7963SOL     OW24787   0.138   5.000   5.196
 7963SOL    HW124788   0.175   5.015   5.104
 7963SOL    HW224789   0.208   5.022   5.264
 7964SOL     OW24790   6.191   3.773   2.547
 7964SOL    HW124791   6.180   3.771   2.646
 7964SOL    HW224792   6.288   3.770   2.524
 7965SOL     OW24793   3.795   1.744   6.341
 7965SOL    HW124794   3.741   1.758   6.424
 7965SOL    HW224795   3.867   1.813   6.335
 7966SOL     OW24796   4.823   3.932   5.078
 7966SOL    HW124797   4.756   3.963   5.145
 7966SOL    HW224798   4.812   3.834   5.063
 7967SOL     OW24799   1.347   4.939   2.698
 7967SOL    HW124800   1.324   4.887   2.781
 7967SOL    HW224801   1.284   4.914   2.625
 7968SOL     OW24802   6.623   2.093   4.200
 7968SOL    HW124803   6.714   2.073   4.163
 7968SOL    HW224804   6.616   2.058   4.294
 7969SOL     OW24805   4.700   5.359   6.937
 7969SOL    HW124806   4.685   5.285   6.871
 7969SOL    HW224807   4.731   5.321   7.024
 7970SOL     OW24808   5.941   2.686   2.605
 7970SOL    HW124809   5.967   2.718   2.514
 7970SOL    HW224810   6.012   2.711   2.671
 7971SOL     OW24811   2.960   0.889   0.378
 7971SOL    HW124812   2.934   0.970   0.430
 7971SOL    HW224813   3.000   0.917   0.291
 7972SOL     OW24814   3.816   3.671   3.229
 7972SOL    HW124815   3.781   3.692   3.137
 7972SOL    HW224816   3.916   3.662   3.225
 7973SOL     OW24817   6.736   3.811   2.885
 7973SOL    HW124818   6.799   3.773   2.953
 7973SOL    HW224819   6.777   3.893   2.845
 7974SOL     OW24820   6.529   2.097   5.302
 7974SOL    HW124821   6.562   2.019   5.356
 7974SOL    HW224822   6.566   2.181   5.340
 7975SOL     OW24823   5.065   0.668   0.788
 7975SOL    HW124824   5.092   0.737   0.721
 7975SOL    HW224825   4.993   0.611   0.750
 7976SOL     OW24826   0.385   0.190   6.337
 7976SOL    HW124827   0.476   0.162   6.305
 7976SOL    HW224828   0.349   0.122   6.400
 7977SOL     OW24829   5.568   5.938   2.883
 7977SOL    HW124830   5.584   6.027   2.841
 7977SOL    HW224831   5.549   5.870   2.812
 7978SOL     OW24832   0.116   4.637   0.897
 7978SOL    HW124833   0.098   4.598   0.987
 7978SOL    HW224834   0.193   4.589   0.856
 7979SOL     OW24835   1.438   3.109   4.692
 7979SOL    HW124836   1.393   3.168   4.758
 7979SOL    HW224837   1.443   3.155   4.603
 7980SOL     OW24838   4.313   5.087   6.703
 7980SOL    HW124839   4.282   4.996   6.675
 7980SOL    HW224840   4.313   5.148   6.624
 7981SOL     OW24841   1.658   4.618   3.296
 7981SOL    HW124842   1.644   4.529   3.253
 7981SOL    HW224843   1.677   4.604   3.394
 7982SOL     OW24844   0.393   1.756   5.853
 7982SOL    HW124845   0.310   1.765   5.798
 7982SOL    HW224846   0.456   1.692   5.810
 7983SOL     OW24847   4.673   0.964   1.913
 7983SOL    HW124848   4.604   0.923   1.853
 7983SOL    HW224849   4.725   1.033   1.862
 7984SOL     OW24850   1.271   1.883   2.165
 7984SOL    HW124851   1.308   1.796   2.199
 7984SOL    HW224852   1.195   1.865   2.103
 7985SOL     OW24853   2.164   1.908   5.485
 7985SOL    HW124854   2.073   1.891   5.447
 7985SOL    HW224855   2.156   1.927   5.583
 7986SOL     OW24856   2.540   1.383   3.648
 7986SOL    HW124857   2.495   1.399   3.560
 7986SOL    HW224858   2.522   1.461   3.709
 7987SOL     OW24859   1.572   3.168   0.952
 7987SOL    HW124860   1.530   3.209   0.871
 7987SOL    HW224861   1.571   3.234   1.027
 7988SOL     OW24862   0.238   1.742   0.765
 7988SOL    HW124863   0.315   1.679   0.757
 7988SOL    HW224864   0.256   1.823   0.708
 7989SOL     OW24865   1.244   4.636   0.433
 7989SOL    HW124866   1.286   4.724   0.454
 7989SOL    HW224867   1.189   4.606   0.511
 7990SOL     OW24868   3.061   5.127   5.415
 7990SOL    HW124869   3.056   5.125   5.315
 7990SOL    HW224870   3.082   5.035   5.449
 7991SOL     OW24871   5.910   1.908   4.806
 7991SOL    HW124872   5.851   1.906   4.724
 7991SOL    HW224873   5.891   1.991   4.858
 7992SOL     OW24874   2.792   0.509   0.633
 7992SOL    HW124875   2.890   0.527   0.645
 7992SOL    HW224876   2.747   0.511   0.722
 7993SOL     OW24877   6.742   5.856   1.184
 7993SOL    HW124878   6.806   5.927   1.215
 7993SOL    HW224879   6.756   5.773   1.238
 7994SOL     OW24880   5.363   0.642   2.975
 7994SOL    HW124881   5.459   0.663   2.994
 7994SOL    HW224882   5.308   0.659   3.057
 7995SOL     OW24883   0.050   4.565   1.683
 7995SOL    HW124884   0.083   4.549   1.590
 7995SOL    HW224885   0.122   4.609   1.736
 7996SOL     OW24886   3.507   0.566   2.685
 7996SOL    HW124887   3.507   0.537   2.589
 7996SOL    HW224888   3.587   0.624   2.702
 7997SOL     OW24889   0.741   2.270   0.193
 7997SOL    HW124890   0.716   2.360   0.228
 7997SOL    HW224891   0.667   2.235   0.136
 7998SOL     OW24892   2.529   0.750   0.306
 7998SOL    HW124893   2.550   0.738   0.403
 7998SOL    HW224894   2.460   0.682   0.279
 7999SOL     OW24895   1.069   0.961   5.230
 7999SOL    HW124896   1.105   1.034   5.173
 7999SOL    HW224897   1.014   1.000   5.304
 8000SOL     OW24898   5.777   5.601   7.025
 8000SOL    HW124899   5.727   5.516   7.013
 8000SOL    HW224900   5.827   5.622   6.941
 8001SOL     OW24901   4.869   6.919   1.152
 8001SOL    HW124902   4.881   6.918   1.053
 8001SOL    HW224903   4.784   6.967   1.174
 8002SOL     OW24904   1.032   6.792   5.258
 8002SOL    HW124905   0.980   6.825   5.337
 8002SOL    HW224906   1.036   6.865   5.189
 8003SOL     OW24907   2.609   6.754   3.127
 8003SOL    HW124908   2.648   6.672   3.169
 8003SOL    HW224909   2.676   6.828   3.129
 8004SOL     OW24910   1.133   3.306   3.803
 8004SOL    HW124911   1.231   3.325   3.796
 8004SOL    HW224912   1.117   3.209   3.786
 8005SOL     OW24913   2.500   0.618   3.651
 8005SOL    HW124914   2.560   0.556   3.600
 8005SOL    HW224915   2.405   0.602   3.625
 8006SOL     OW24916   3.461   4.532   5.373
 8006SOL    HW124917   3.480   4.627   5.346
 8006SOL    HW224918   3.546   4.480   5.372
 8007SOL     OW24919   6.132   1.067   7.010
 8007SOL    HW124920   6.061   1.116   6.960
 8007SOL    HW224921   6.191   1.132   0.032
 8008SOL     OW24922   5.013   6.489   6.166
 8008SOL    HW124923   5.108   6.474   6.195
 8008SOL    HW224924   5.007   6.573   6.113
 8009SOL     OW24925   5.201   1.076   6.815
 8009SOL    HW124926   5.122   1.100   6.759
 8009SOL    HW224927   5.169   1.038   6.902
 8010SOL     OW24928   2.229   2.567   5.328
 8010SOL    HW124929   2.179   2.640   5.375
 8010SOL    HW224930   2.225   2.484   5.384
 8011SOL     OW24931   4.148   1.746   1.832
 8011SOL    HW124932   4.191   1.741   1.922
 8011SOL    HW224933   4.053   1.775   1.841
 8012SOL     OW24934   1.056   2.828   5.229
 8012SOL    HW124935   1.018   2.888   5.300
 8012SOL    HW224936   1.062   2.877   5.143
 8013SOL     OW24937   2.085   2.843   3.148
 8013SOL    HW124938   2.170   2.793   3.132
 8013SOL    HW224939   2.094   2.899   3.231
 8014SOL     OW24940   1.732   1.021   2.880
 8014SOL    HW124941   1.687   0.943   2.924
 8014SOL    HW224942   1.689   1.037   2.791
 8015SOL     OW24943   2.041   0.023   5.341
 8015SOL    HW124944   2.047   6.963   5.393
 8015SOL    HW224945   1.951   0.032   5.300
 8016SOL     OW24946   4.662   1.491   5.220
 8016SOL    HW124947   4.639   1.478   5.124
 8016SOL    HW224948   4.614   1.422   5.275
 8017SOL     OW24949   6.596   6.793   0.577
 8017SOL    HW124950   6.582   6.834   0.667
 8017SOL    HW224951   6.558   6.700   0.577
 8018SOL     OW24952   4.491   1.960   6.950
 8018SOL    HW124953   4.459   2.020   7.023
 8018SOL    HW224954   4.467   1.865   6.971
 8019SOL     OW24955   3.184   3.036   0.887
 8019SOL    HW124956   3.238   3.091   0.823
 8019SOL    HW224957   3.144   2.958   0.839
 8020SOL     OW24958   0.290   0.230   5.107
 8020SOL    HW124959   0.255   0.322   5.087
 8020SOL    HW224960   0.370   0.212   5.050
 8021SOL     OW24961   1.477   2.202   2.628
 8021SOL    HW124962   1.405   2.265   2.656
 8021SOL    HW224963   1.564   2.233   2.667
 8022SOL     OW24964   4.796   1.386   1.729
 8022SOL    HW124965   4.784   1.472   1.777
 8022SOL    HW224966   4.800   1.403   1.630
 8023SOL     OW24967   4.626   6.118   3.366
 8023SOL    HW124968   4.552   6.053   3.344
 8023SOL    HW224969   4.632   6.187   3.293
 8024SOL     OW24970   2.237   6.568   6.501
 8024SOL    HW124971   2.257   6.665   6.483
 8024SOL    HW224972   2.321   6.521   6.528
 8025SOL     OW24973   1.854   5.111   1.389
 8025SOL    HW124974   1.940   5.142   1.430
 8025SOL    HW224975   1.851   5.011   1.392
 8026SOL     OW24976   0.836   5.856   6.858
 8026SOL    HW124977   0.919   5.801   6.848
 8026SOL    HW224978   0.769   5.829   6.789
 8027SOL     OW24979   3.381   6.706   6.873
 8027SOL    HW124980   3.353   6.686   6.966
 8027SOL    HW224981   3.469   6.662   6.854
 8028SOL     OW24982   2.714   5.794   5.220
 8028SOL    HW124983   2.780   5.730   5.261
 8028SOL    HW224984   2.630   5.745   5.197
 8029SOL     OW24985   6.522   0.474   0.547
 8029SOL    HW124986   6.472   0.391   0.571
 8029SOL    HW224987   6.472   0.554   0.579
 8030SOL     OW24988   0.138   4.248   0.466
 8030SOL    HW124989   0.045   4.271   0.495
 8030SOL    HW224990   0.199   4.253   0.545
 8031SOL     OW24991   0.019   0.968   2.439
 8031SOL    HW124992   0.115   0.991   2.455
 8031SOL    HW224993   0.004   0.952   2.341
 8032SOL     OW24994   5.263   2.688   1.514
 8032SOL    HW124995   5.206   2.702   1.595
 8032SOL    HW224996   5.358   2.710   1.536
 8033SOL     OW24997   4.311   3.670   1.059
 8033SOL    HW124998   4.397   3.709   1.026
 8033SOL    HW224999   4.300   3.578   1.024
 8034SOL     OW25000   5.756   0.646   5.568
 8034SOL    HW125001   5.822   0.617   5.499
 8034SOL    HW225002   5.745   0.573   5.635
 8035SOL     OW25003   5.388   1.595   2.839
 8035SOL    HW125004   5.321   1.527   2.809
 8035SOL    HW225005   5.411   1.580   2.935
 8036SOL     OW25006   6.383   2.941   3.623
 8036SOL    HW125007   6.322   2.900   3.690
 8036SOL    HW225008   6.430   2.869   3.572
 8037SOL     OW25009   0.672   2.786   6.069
 8037SOL    HW125010   0.591   2.729   6.086
 8037SOL    HW225011   0.730   2.742   6.001
 8038SOL     OW25012   6.744   5.901   2.647
 8038SOL    HW125013   6.671   5.954   2.602
 8038SOL    HW225014   6.779   5.952   2.725
 8039SOL     OW25015   1.267   2.039   4.920
 8039SOL    HW125016   1.229   1.967   4.862
 8039SOL    HW225017   1.216   2.042   5.006
 8040SOL     OW25018   1.833   5.373   6.426
 8040SOL    HW125019   1.829   5.287   6.476
 8040SOL    HW225020   1.887   5.440   6.478
 8041SOL     OW25021   3.525   1.782   3.040
 8041SOL    HW125022   3.570   1.693   3.037
 8041SOL    HW225023   3.426   1.769   3.033
 8042SOL     OW25024   4.024   4.244   5.358
 8042SOL    HW125025   3.945   4.197   5.398
 8042SOL    HW225026   3.995   4.293   5.276
 8043SOL     OW25027   5.471   4.935   0.082
 8043SOL    HW125028   5.482   4.922   0.180
 8043SOL    HW225029   5.560   4.952   0.040
 8044SOL     OW25030   3.238   3.696   1.358
 8044SOL    HW125031   3.299   3.621   1.384
 8044SOL    HW225032   3.165   3.704   1.426
 8045SOL     OW25033   0.789   1.156   2.822
 8045SOL    HW125034   0.709   1.195   2.869
 8045SOL    HW225035   0.830   1.227   2.764
 8046SOL     OW25036   0.292   4.976   2.412
 8046SOL    HW125037   0.384   4.989   2.373
 8046SOL    HW225038   0.277   5.042   2.484
 8047SOL     OW25039   4.218   6.701   5.651
 8047SOL    HW125040   4.295   6.762   5.631
 8047SOL    HW225041   4.133   6.746   5.627
 8048SOL     OW25042   3.706   3.444   0.244
 8048SOL    HW125043   3.761   3.430   0.162
 8048SOL    HW225044   3.767   3.457   0.323
 8049SOL     OW25045   2.089   0.257   0.842
 8049SOL    HW125046   2.157   0.272   0.914
 8049SOL    HW225047   2.080   0.340   0.787
 8050SOL     OW25048   1.652   4.293   5.098
 8050SOL    HW125049   1.740   4.249   5.080
 8050SOL    HW225050   1.604   4.242   5.170
 8051SOL     OW25051   3.580   5.818   4.237
 8051SOL    HW125052   3.529   5.745   4.283
 8051SOL    HW225053   3.588   5.797   4.139
 8052SOL     OW25054   2.244   2.726   2.203
 8052SOL    HW125055   2.297   2.738   2.286
 8052SOL    HW225056   2.304   2.735   2.123
 8053SOL     OW25057   2.455   2.866   6.087
 8053SOL    HW125058   2.395   2.934   6.045
 8053SOL    HW225059   2.409   2.825   6.166
 8054SOL     OW25060   5.633   4.038   5.151
 8054SOL    HW125061   5.587   4.115   5.195
 8054SOL    HW225062   5.565   3.972   5.119
 8055SOL     OW25063   0.093   0.576   4.888
 8055SOL    HW125064   0.063   0.671   4.892
 8055SOL    HW225065   0.076   0.532   4.976
 8056SOL     OW25066   2.757   0.993   4.831
 8056SOL    HW125067   2.768   1.040   4.743
 8056SOL    HW225068   2.700   1.048   4.891
 8057SOL     OW25069   2.462   2.496   2.155
 8057SOL    HW125070   2.368   2.465   2.140
 8057SOL    HW225071   2.494   2.464   2.244
 8058SOL     OW25072   3.068   6.903   3.334
 8058SOL    HW125073   3.014   6.910   3.250
 8058SOL    HW225074   3.150   6.958   3.325
 8059SOL     OW25075   2.712   3.272   6.371
 8059SOL    HW125076   2.649   3.232   6.304
 8059SOL    HW225077   2.672   3.264   6.462
 8060SOL     OW25078   6.504   0.312   5.429
 8060SOL    HW125079   6.579   0.303   5.363
 8060SOL    HW225080   6.419   0.332   5.381
 8061SOL     OW25081   0.335   1.333   1.846
 8061SOL    HW125082   0.349   1.236   1.866
 8061SOL    HW225083   0.238   1.355   1.856
 8062SOL     OW25084   4.617   5.859   5.340
 8062SOL    HW125085   4.651   5.936   5.285
 8062SOL    HW225086   4.554   5.804   5.284
 8063SOL     OW25087   3.423   6.543   3.172
 8063SOL    HW125088   3.405   6.510   3.264
 8063SOL    HW225089   3.343   6.595   3.139
 8064SOL     OW25090   5.930   2.441   7.009
 8064SOL    HW125091   5.857   2.444   6.941
 8064SOL    HW225092   5.909   2.370   0.051
 8065SOL     OW25093   3.265   6.401   4.959
 8065SOL    HW125094   3.173   6.429   4.931
 8065SOL    HW225095   3.302   6.467   5.024
 8066SOL     OW25096   0.127   0.217   4.372
 8066SOL    HW125097   0.171   0.198   4.285
 8066SOL    HW225098   0.101   0.130   4.416
 8067SOL     OW25099   4.896   3.344   3.645
 8067SOL    HW125100   4.814   3.287   3.646
 8067SOL    HW225101   4.964   3.306   3.707
 8068SOL     OW25102   6.294   4.456   1.113
 8068SOL    HW125103   6.221   4.495   1.058
 8068SOL    HW225104   6.262   4.370   1.154
 8069SOL     OW25105   2.637   4.619   2.448
 8069SOL    HW125106   2.664   4.665   2.364
 8069SOL    HW225107   2.627   4.687   2.521
 8070SOL     OW25108   5.328   4.571   0.065
 8070SOL    HW125109   5.422   4.605   0.070
 8070SOL    HW225110   5.328   4.480   0.024
 8071SOL     OW25111   3.371   6.612   6.089
 8071SOL    HW125112   3.330   6.689   6.040
 8071SOL    HW225113   3.333   6.526   6.054
 8072SOL     OW25114   2.013   2.668   6.498
 8072SOL    HW125115   2.072   2.596   6.536
 8072SOL    HW225116   1.955   2.705   6.571
 8073SOL     OW25117   3.855   0.238   6.123
 8073SOL    HW125118   3.789   0.256   6.050
 8073SOL    HW225119   3.824   0.161   6.178
 8074SOL     OW25120   1.573   1.418   0.083
 8074SOL    HW125121   1.576   1.412   7.009
 8074SOL    HW225122   1.506   1.487   0.110
 8075SOL     OW25123   0.343   6.420   0.100
 8075SOL    HW125124   0.392   6.496   0.142
 8075SOL    HW225125   0.408   6.348   0.076
 8076SOL     OW25126   6.696   6.608   0.240
 8076SOL    HW125127   6.645   6.543   0.296
 8076SOL    HW225128   6.644   6.630   0.157
 8077SOL     OW25129   4.073   5.391   0.727
 8077SOL    HW125130   4.157   5.344   0.700
 8077SOL    HW225131   4.096   5.469   0.786
 8078SOL     OW25132   0.559   0.807   1.442
 8078SOL    HW125133   0.654   0.838   1.441
 8078SOL    HW225134   0.547   0.734   1.376
 8079SOL     OW25135   1.862   2.104   4.885
 8079SOL    HW125136   1.892   2.177   4.824
 8079SOL    HW225137   1.845   2.142   4.976
 8080SOL     OW25138   1.016   3.630   2.557
 8080SOL    HW125139   1.075   3.664   2.484
 8080SOL    HW225140   0.980   3.541   2.532
 8081SOL     OW25141   5.915   5.354   4.823
 8081SOL    HW125142   5.894   5.376   4.728
 8081SOL    HW225143   6.014   5.343   4.833
 8082SOL     OW25144   3.192   1.972   2.417
 8082SOL    HW125145   3.122   1.917   2.462
 8082SOL    HW225146   3.240   2.028   2.484
 8083SOL     OW25147   5.673   1.965   5.171
 8083SOL    HW125148   5.704   2.011   5.088
 8083SOL    HW225149   5.684   2.026   5.250
 8084SOL     OW25150   2.771   0.389   6.520
 8084SOL    HW125151   2.797   0.361   6.612
 8084SOL    HW225152   2.691   0.449   6.525
 8085SOL     OW25153   0.400   5.971   4.651
 8085SOL    HW125154   0.370   6.037   4.582
 8085SOL    HW225155   0.493   5.993   4.680
 8086SOL     OW25156   0.497   1.603   2.153
 8086SOL    HW125157   0.532   1.622   2.061
 8086SOL    HW225158   0.439   1.522   2.151
 8087SOL     OW25159   1.134   0.610   0.334
 8087SOL    HW125160   1.164   0.673   0.262
 8087SOL    HW225161   1.122   0.662   0.419
 8088SOL     OW25162   5.071   0.053   5.527
 8088SOL    HW125163   5.054   0.123   5.596
 8088SOL    HW225164   5.014   6.998   5.546
 8089SOL     OW25165   5.824   2.569   5.889
 8089SOL    HW125166   5.744   2.628   5.899
 8089SOL    HW225167   5.817   2.491   5.951
 8090SOL     OW25168   4.097   2.062   6.508
 8090SOL    HW125169   4.161   2.137   6.526
 8090SOL    HW225170   4.032   2.090   6.437
 8091SOL     OW25171   1.401   4.568   4.978
 8091SOL    HW125172   1.368   4.489   4.927
 8091SOL    HW225173   1.501   4.573   4.973
 8092SOL     OW25174   5.191   2.259   5.782
 8092SOL    HW125175   5.137   2.176   5.794
 8092SOL    HW225176   5.284   2.245   5.815
 8093SOL     OW25177   3.424   6.587   2.317
 8093SOL    HW125178   3.361   6.537   2.257
 8093SOL    HW225179   3.493   6.633   2.261
 8094SOL     OW25180   1.419   4.224   4.130
 8094SOL    HW125181   1.472   4.271   4.201
 8094SOL    HW225182   1.325   4.258   4.131
 8095SOL     OW25183   1.294   4.423   5.602
 8095SOL    HW125184   1.243   4.337   5.597
 8095SOL    HW225185   1.233   4.499   5.576
 8096SOL     OW25186   0.759   6.625   2.212
 8096SOL    HW125187   0.716   6.709   2.178
 8096SOL    HW225188   0.730   6.548   2.156
 8097SOL     OW25189   3.128   5.761   5.347
 8097SOL    HW125190   3.098   5.769   5.252
 8097SOL    HW225191   3.228   5.762   5.351
 8098SOL     OW25192   1.069   5.352   4.345
 8098SOL    HW125193   1.051   5.373   4.249
 8098SOL    HW225194   0.995   5.295   4.382
 8099SOL     OW25195   2.928   5.867   4.719
 8099SOL    HW125196   2.865   5.905   4.651
 8099SOL    HW225197   2.897   5.889   4.811
 8100SOL     OW25198   6.752   0.757   6.321
 8100SOL    HW125199   6.774   0.812   6.401
 8100SOL    HW225200   6.808   0.675   6.320
 8101SOL     OW25201   2.090   6.359   1.548
 8101SOL    HW125202   2.185   6.355   1.578
 8101SOL    HW225203   2.030   6.329   1.622
 8102SOL     OW25204   0.702   2.939   4.300
 8102SOL    HW125205   0.645   3.020   4.311
 8102SOL    HW225206   0.708   2.915   4.203
 8103SOL     OW25207   3.462   1.479   2.197
 8103SOL    HW125208   3.556   1.478   2.231
 8103SOL    HW225209   3.418   1.565   2.223
 8104SOL     OW25210   2.461   6.436   6.590
 8104SOL    HW125211   2.461   6.426   6.689
 8104SOL    HW225212   2.554   6.457   6.559
 8105SOL     OW25213   6.952   1.668   2.465
 8105SOL    HW125214   6.904   1.580   2.459
 8105SOL    HW225215   6.896   1.733   2.517
 8106SOL     OW25216   1.932   5.783   4.921
 8106SOL    HW125217   1.870   5.832   4.981
 8106SOL    HW225218   1.930   5.685   4.944
 8107SOL     OW25219   1.550   5.323   5.199
 8107SOL    HW125220   1.602   5.283   5.274
 8107SOL    HW225221   1.613   5.356   5.128
 8108SOL     OW25222   0.321   0.871   6.841
 8108SOL    HW125223   0.245   0.914   6.794
 8108SOL    HW225224   0.295   0.851   6.936
 8109SOL     OW25225   6.506   3.410   6.753
 8109SOL    HW125226   6.541   3.390   6.662
 8109SOL    HW225227   6.513   3.329   6.811
 8110SOL     OW25228   4.475   5.101   0.512
 8110SOL    HW125229   4.523   5.088   0.425
 8110SOL    HW225230   4.506   5.032   0.577
 8111SOL     OW25231   5.762   0.875   3.027
 8111SOL    HW125232   5.810   0.961   3.006
 8111SOL    HW225233   5.826   0.799   3.019
 8112SOL     OW25234   0.959   2.545   5.520
 8112SOL    HW125235   0.914   2.592   5.444
 8112SOL    HW225236   1.005   2.463   5.484
 8113SOL     OW25237   6.123   2.528   0.961
 8113SOL    HW125238   6.113   2.606   0.900
 8113SOL    HW225239   6.041   2.518   1.017
 8114SOL     OW25240   1.679   4.421   1.829
 8114SOL    HW125241   1.600   4.372   1.792
 8114SOL    HW225242   1.726   4.467   1.754
 8115SOL     OW25243   2.594   6.811   0.109
 8115SOL    HW125244   2.645   6.726   0.121
 8115SOL    HW225245   2.573   6.849   0.199
 8116SOL     OW25246   3.409   5.002   1.266
 8116SOL    HW125247   3.365   4.954   1.342
 8116SOL    HW225248   3.508   5.001   1.280
 8117SOL     OW25249   2.709   0.163   2.937
 8117SOL    HW125250   2.762   0.234   2.983
 8117SOL    HW225251   2.618   0.156   2.977
 8118SOL     OW25252   6.304   3.388   0.126
 8118SOL    HW125253   6.248   3.415   0.204
 8118SOL    HW225254   6.365   3.464   0.101
 8119SOL     OW25255   6.262   5.886   6.225
 8119SOL    HW125256   6.347   5.938   6.235
 8119SOL    HW225257   6.282   5.788   6.225
 8120SOL     OW25258   2.013   6.333   0.834
 8120SOL    HW125259   1.943   6.304   0.768
 8120SOL    HW225260   1.969   6.364   0.918
 8121SOL     OW25261   1.339   3.751   2.929
 8121SOL    HW125262   1.296   3.665   2.900
 8121SOL    HW225263   1.292   3.828   2.885
 8122SOL     OW25264   1.034   4.260   2.531
 8122SOL    HW125265   1.029   4.257   2.431
 8122SOL    HW225266   1.054   4.169   2.567
 8123SOL     OW25267   0.454   2.145   6.185
 8123SOL    HW125268   0.410   2.187   6.106
 8123SOL    HW225269   0.477   2.050   6.164
 8124SOL     OW25270   5.412   5.187   3.903
 8124SOL    HW125271   5.445   5.170   3.811
 8124SOL    HW225272   5.465   5.260   3.945
 8125SOL     OW25273   0.845   0.122   3.353
 8125SOL    HW125274   0.837   0.033   3.308
 8125SOL    HW225275   0.767   0.179   3.328
 8126SOL     OW25276   3.831   5.378   3.883
 8126SOL    HW125277   3.829   5.468   3.926
 8126SOL    HW225278   3.774   5.314   3.935
 8127SOL     OW25279   2.907   2.685   0.466
 8127SOL    HW125280   2.855   2.762   0.504
 8127SOL    HW225281   2.848   2.634   0.402
 8128SOL     OW25282   3.095   3.029   2.293
 8128SOL    HW125283   3.181   3.007   2.339
 8128SOL    HW225284   3.038   2.947   2.288
 8129SOL     OW25285   1.430   2.604   0.601
 8129SOL    HW125286   1.371   2.626   0.523
 8129SOL    HW225287   1.409   2.512   0.633
 8130SOL     OW25288   1.308   5.587   6.625
 8130SOL    HW125289   1.293   5.685   6.609
 8130SOL    HW225290   1.283   5.565   6.719
 8131SOL     OW25291   2.119   3.127   0.980
 8131SOL    HW125292   2.026   3.090   0.989
 8131SOL    HW225293   2.182   3.053   0.956
 8132SOL     OW25294   6.346   0.043   3.904
 8132SOL    HW125295   6.398   0.123   3.933
 8132SOL    HW225296   6.265   0.073   3.853
 8133SOL     OW25297   3.672   4.972   1.376
 8133SOL    HW125298   3.706   4.921   1.455
 8133SOL    HW225299   3.743   4.978   1.306
 8134SOL     OW25300   6.272   0.669   5.290
 8134SOL    HW125301   6.214   0.602   5.336
 8134SOL    HW225302   6.368   0.641   5.298
 8135SOL     OW25303   2.680   0.101   1.945
 8135SOL    HW125304   2.687   0.023   1.882
 8135SOL    HW225305   2.713   0.074   2.035
 8136SOL     OW25306   4.607   4.758   2.299
 8136SOL    HW125307   4.592   4.673   2.351
 8136SOL    HW225308   4.681   4.809   2.342
 8137SOL     OW25309   4.033   1.773   4.798
 8137SOL    HW125310   4.008   1.824   4.880
 8137SOL    HW225311   4.130   1.749   4.802
 8138SOL     OW25312   5.644   0.784   1.866
 8138SOL    HW125313   5.686   0.812   1.953
 8138SOL    HW225314   5.652   0.858   1.800
 8139SOL     OW25315   1.286   1.332   2.584
 8139SOL    HW125316   1.248   1.424   2.599
 8139SOL    HW225317   1.386   1.337   2.582
 8140SOL     OW25318   4.243   0.792   3.966
 8140SOL    HW125319   4.236   0.712   3.905
 8140SOL    HW225320   4.152   0.832   3.978
 8141SOL     OW25321   4.202   5.441   5.434
 8141SOL    HW125322   4.177   5.346   5.452
 8141SOL    HW225323   4.139   5.480   5.367
 8142SOL     OW25324   5.562   4.629   0.415
 8142SOL    HW125325   5.507   4.547   0.398
 8142SOL    HW225326   5.643   4.605   0.467
 8143SOL     OW25327   5.719   4.190   6.104
 8143SOL    HW125328   5.723   4.284   6.137
 8143SOL    HW225329   5.643   4.142   6.149
 8144SOL     OW25330   5.534   6.906   6.830
 8144SOL    HW125331   5.594   6.974   6.787
 8144SOL    HW225332   5.581   6.818   6.833
 8145SOL     OW25333   6.257   5.545   2.699
 8145SOL    HW125334   6.240   5.642   2.714
 8145SOL    HW225335   6.174   5.493   2.717
 8146SOL     OW25336   3.481   1.010   5.962
 8146SOL    HW125337   3.442   1.063   6.037
 8146SOL    HW225338   3.556   1.062   5.921
 8147SOL     OW25339   4.657   2.229   4.393
 8147SOL    HW125340   4.752   2.207   4.412
 8147SOL    HW225341   4.652   2.307   4.331
 8148SOL     OW25342   5.452   2.872   3.105
 8148SOL    HW125343   5.371   2.819   3.132
 8148SOL    HW225344   5.436   2.913   3.016
 8149SOL     OW25345   4.066   5.088   2.702
 8149SOL    HW125346   4.146   5.072   2.760
 8149SOL    HW225347   4.015   5.003   2.692
 8150SOL     OW25348   0.878   5.174   0.025
 8150SOL    HW125349   0.833   5.241   0.084
 8150SOL    HW225350   0.855   5.193   6.955
 8151SOL     OW25351   1.272   2.011   4.577
 8151SOL    HW125352   1.231   2.100   4.594
 8151SOL    HW225353   1.359   2.023   4.529
 8152SOL     OW25354   1.963   0.643   3.504
 8152SOL    HW125355   1.898   0.706   3.460
 8152SOL    HW225356   2.014   0.593   3.434
 8153SOL     OW25357   2.728   6.826   1.343
 8153SOL    HW125358   2.640   6.854   1.382
 8153SOL    HW225359   2.745   6.730   1.366
 8154SOL     OW25360   1.867   6.444   3.832
 8154SOL    HW125361   1.792   6.431   3.767
 8154SOL    HW225362   1.948   6.395   3.801
 8155SOL     OW25363   3.348   2.888   2.605
 8155SOL    HW125364   3.304   2.976   2.622
 8155SOL    HW225365   3.343   2.865   2.508
 8156SOL     OW25366   5.789   0.938   5.183
 8156SOL    HW125367   5.702   0.954   5.228
 8156SOL    HW225368   5.858   0.912   5.252
 8157SOL     OW25369   5.823   3.860   6.871
 8157SOL    HW125370   5.746   3.911   6.832
 8157SOL    HW225371   5.885   3.831   6.798
 8158SOL     OW25372   1.499   5.691   1.490
 8158SOL    HW125373   1.435   5.623   1.455
 8158SOL    HW225374   1.575   5.644   1.537
 8159SOL     OW25375   2.009   5.153   1.841
 8159SOL    HW125376   1.960   5.239   1.860
 8159SOL    HW225377   2.063   5.127   1.920
 8160SOL     OW25378   4.379   1.728   1.688
 8160SOL    HW125379   4.283   1.740   1.713
 8160SOL    HW225380   4.402   1.789   1.613
 8161SOL     OW25381   5.035   1.062   0.001
 8161SOL    HW125382   4.974   1.083   6.950
 8161SOL    HW225383   5.020   1.129   0.074
 8162SOL     OW25384   5.559   6.763   1.290
 8162SOL    HW125385   5.536   6.669   1.314
 8162SOL    HW225386   5.644   6.763   1.236
 8163SOL     OW25387   2.404   4.414   5.068
 8163SOL    HW125388   2.447   4.502   5.088
 8163SOL    HW225389   2.426   4.349   5.141
 8164SOL     OW25390   4.042   2.450   1.451
 8164SOL    HW125391   4.086   2.365   1.424
 8164SOL    HW225392   4.095   2.527   1.416
 8165SOL     OW25393   2.184   4.099   1.552
 8165SOL    HW125394   2.112   4.159   1.589
 8165SOL    HW225395   2.143   4.011   1.526
 8166SOL     OW25396   2.807   0.626   1.989
 8166SOL    HW125397   2.824   0.536   2.029
 8166SOL    HW225398   2.828   0.624   1.891
 8167SOL     OW25399   5.956   2.449   3.972
 8167SOL    HW125400   5.977   2.447   3.874
 8167SOL    HW225401   5.916   2.361   3.999
 8168SOL     OW25402   3.637   1.085   2.896
 8168SOL    HW125403   3.676   1.177   2.900
 8168SOL    HW225404   3.659   1.035   2.980
 8169SOL     OW25405   4.281   3.680   6.823
 8169SOL    HW125406   4.327   3.747   6.880
 8169SOL    HW225407   4.266   3.596   6.876
 8170SOL     OW25408   0.796   5.779   4.094
 8170SOL    HW125409   0.832   5.761   4.003
 8170SOL    HW225410   0.835   5.713   4.159
 8171SOL     OW25411   0.920   2.029   5.968
 8171SOL    HW125412   1.014   2.052   5.994
 8171SOL    HW225413   0.909   2.038   5.869
 8172SOL     OW25414   0.547   6.469   0.553
 8172SOL    HW125415   0.498   6.553   0.575
 8172SOL    HW225416   0.618   6.488   0.486
 8173SOL     OW25417   3.870   2.863   0.125
 8173SOL    HW125418   3.929   2.879   0.046
 8173SOL    HW225419   3.799   2.797   0.100
 8174SOL     OW25420   5.452   0.616   1.928
 8174SOL    HW125421   5.424   0.589   1.836
 8174SOL    HW225422   5.497   0.705   1.924
 8175SOL     OW25423   0.692   2.104   6.398
 8175SOL    HW125424   0.695   2.175   6.328
 8175SOL    HW225425   0.631   2.133   6.472
 8176SOL     OW25426   2.586   5.645   1.821
 8176SOL    HW125427   2.684   5.631   1.837
 8176SOL    HW225428   2.561   5.738   1.845
 8177SOL     OW25429   0.163   6.520   4.632
 8177SOL    HW125430   0.088   6.497   4.695
 8177SOL    HW225431   0.248   6.477   4.664
 8178SOL     OW25432   1.517   6.246   6.624
 8178SOL    HW125433   1.506   6.168   6.563
 8178SOL    HW225434   1.614   6.269   6.633
 8179SOL     OW25435   3.326   2.746   0.059
 8179SOL    HW125436   3.404   2.730   7.024
 8179SOL    HW225437   3.337   2.691   0.143
 8180SOL     OW25438   6.702   6.844   5.030
 8180SOL    HW125439   6.676   6.748   5.039
 8180SOL    HW225440   6.701   6.887   5.121
 8181SOL     OW25441   2.395   2.067   3.404
 8181SOL    HW125442   2.393   2.149   3.346
 8181SOL    HW225443   2.344   1.994   3.360
 8182SOL     OW25444   4.340   2.169   5.125
 8182SOL    HW125445   4.345   2.256   5.173
 8182SOL    HW225446   4.432   2.132   5.115
 8183SOL     OW25447   1.619   3.856   4.496
 8183SOL    HW125448   1.687   3.923   4.525
 8183SOL    HW225449   1.563   3.895   4.423
 8184SOL     OW25450   0.154   6.867   5.097
 8184SOL    HW125451   0.115   6.957   5.078
 8184SOL    HW225452   0.156   6.852   5.195
 8185SOL     OW25453   3.302   1.251   2.298
 8185SOL    HW125454   3.226   1.304   2.336
 8185SOL    HW225455   3.379   1.312   2.278
 8186SOL     OW25456   3.886   6.142   5.929
 8186SOL    HW125457   3.948   6.065   5.919
 8186SOL    HW225458   3.873   6.163   6.026
 8187SOL     OW25459   1.866   1.497   5.121
 8187SOL    HW125460   1.795   1.501   5.050
 8187SOL    HW225461   1.956   1.497   5.078
 8188SOL     OW25462   6.212   2.523   3.137
 8188SOL    HW125463   6.112   2.524   3.130
 8188SOL    HW225464   6.243   2.607   3.182
 8189SOL     OW25465   6.183   4.324   2.916
 8189SOL    HW125466   6.255   4.378   2.872
 8189SOL    HW225467   6.172   4.237   2.868
 8190SOL     OW25468   5.141   3.688   4.111
 8190SOL    HW125469   5.171   3.781   4.132
 8190SOL    HW225470   5.125   3.680   4.013
 8191SOL     OW25471   0.912   5.350   3.825
 8191SOL    HW125472   0.975   5.374   3.751
 8191SOL    HW225473   0.951   5.275   3.878
 8192SOL     OW25474   2.149   4.931   2.095
 8192SOL    HW125475   2.162   4.832   2.087
 8192SOL    HW225476   2.073   4.949   2.157
 8193SOL     OW25477   3.883   6.929   5.256
 8193SOL    HW125478   3.916   7.018   5.225
 8193SOL    HW225479   3.938   6.856   5.215
 8194SOL     OW25480   6.607   0.805   0.225
 8194SOL    HW125481   6.550   0.886   0.239
 8194SOL    HW225482   6.638   0.802   0.130
 8195SOL     OW25483   6.659   6.397   0.460
 8195SOL    HW125484   6.633   6.314   0.411
 8195SOL    HW225485   6.759   6.399   0.470
 8196SOL     OW25486   2.681   6.719   6.029
 8196SOL    HW125487   2.676   6.819   6.025
 8196SOL    HW225488   2.614   6.684   6.095
 8197SOL     OW25489   0.683   0.497   6.133
 8197SOL    HW125490   0.632   0.496   6.219
 8197SOL    HW225491   0.623   0.468   6.059
 8198SOL     OW25492   2.813   6.946   3.128
 8198SOL    HW125493   2.842   6.963   3.034
 8198SOL    HW225494   2.823   0.004   3.182
 8199SOL     OW25495   6.815   3.356   0.081
 8199SOL    HW125496   6.790   3.279   0.023
 8199SOL    HW225497   6.914   3.356   0.097
 8200SOL     OW25498   5.483   4.162   0.884
 8200SOL    HW125499   5.430   4.214   0.818
 8200SOL    HW225500   5.467   4.064   0.872
 8201SOL     OW25501   5.906   6.989   3.276
 8201SOL    HW125502   5.816   7.006   3.317
 8201SOL    HW225503   5.914   0.016   3.191
 8202SOL     OW25504   1.201   3.912   3.725
 8202SOL    HW125505   1.143   3.931   3.804
 8202SOL    HW225506   1.213   3.996   3.672
 8203SOL     OW25507   5.745   3.523   1.510
 8203SOL    HW125508   5.798   3.450   1.467
 8203SOL    HW225509   5.685   3.484   1.580
 8204SOL     OW25510   3.611   0.196   1.481
 8204SOL    HW125511   3.704   0.162   1.494
 8204SOL    HW225512   3.559   0.184   1.566
 8205SOL     OW25513   5.773   5.249   2.041
 8205SOL    HW125514   5.682   5.243   2.000
 8205SOL    HW225515   5.765   5.279   2.136
 8206SOL     OW25516   4.548   1.978   4.743
 8206SOL    HW125517   4.490   1.917   4.687
 8206SOL    HW225518   4.580   1.928   4.824
 8207SOL     OW25519   2.765   5.906   6.942
 8207SOL    HW125520   2.733   5.904   6.848
 8207SOL    HW225521   2.784   5.813   6.973
 8208SOL     OW25522   1.526   4.324   1.124
 8208SOL    HW125523   1.548   4.420   1.108
 8208SOL    HW225524   1.538   4.273   1.039
 8209SOL     OW25525   0.576   0.140   5.063
 8209SOL    HW125526   0.630   0.203   5.119
 8209SOL    HW225527   0.558   0.056   5.116
 8210SOL     OW25528   2.760   1.358   0.100
 8210SOL    HW125529   2.692   1.367   0.028
 8210SOL    HW225530   2.810   1.272   0.089
 8211SOL     OW25531   3.351   2.996   4.483
 8211SOL    HW125532   3.433   2.940   4.495
 8211SOL    HW225533   3.314   2.981   4.391
 8212SOL     OW25534   3.286   0.168   1.175
 8212SOL    HW125535   3.285   0.191   1.273
 8212SOL    HW225536   3.373   0.127   1.152
 8213SOL     OW25537   4.543   4.013   1.689
 8213SOL    HW125538   4.636   4.034   1.717
 8213SOL    HW225539   4.478   4.061   1.748
 8214SOL     OW25540   4.028   5.668   4.536
 8214SOL    HW125541   4.013   5.579   4.579
 8214SOL    HW225542   4.029   5.740   4.606
 8215SOL     OW25543   4.167   6.873   6.778
 8215SOL    HW125544   4.240   6.859   6.845
 8215SOL    HW225545   4.085   6.825   6.808
 8216SOL     OW25546   5.480   5.164   1.496
 8216SOL    HW125547   5.465   5.256   1.530
 8216SOL    HW225548   5.578   5.146   1.488
 8217SOL     OW25549   2.050   6.223   3.751
 8217SOL    HW125550   2.071   6.193   3.658
 8217SOL    HW225551   2.134   6.242   3.801
 8218SOL     OW25552   1.874   6.750   5.068
 8218SOL    HW125553   1.878   6.833   5.125
 8218SOL    HW225554   1.966   6.723   5.041
 8219SOL     OW25555   3.613   3.741   0.955
 8219SOL    HW125556   3.561   3.826   0.948
 8219SOL    HW225557   3.711   3.761   0.942
 8220SOL     OW25558   4.045   3.224   4.254
 8220SOL    HW125559   4.000   3.219   4.164
 8220SOL    HW225560   4.065   3.319   4.276
 8221SOL     OW25561   5.624   3.496   3.314
 8221SOL    HW125562   5.646   3.592   3.297
 8221SOL    HW225563   5.696   3.438   3.275
 8222SOL     OW25564   6.040   3.406   0.625
 8222SOL    HW125565   6.137   3.387   0.643
 8222SOL    HW225566   6.028   3.503   0.605
 8223SOL     OW25567   0.850   5.874   5.322
 8223SOL    HW125568   0.900   5.861   5.407
 8223SOL    HW225569   0.865   5.966   5.287
 8224SOL     OW25570   5.549   1.681   0.434
 8224SOL    HW125571   5.553   1.733   0.349
 8224SOL    HW225572   5.509   1.737   0.507
 8225SOL     OW25573   5.315   1.251   0.804
 8225SOL    HW125574   5.399   1.255   0.750
 8225SOL    HW225575   5.238   1.228   0.745
 8226SOL     OW25576   4.153   0.456   0.424
 8226SOL    HW125577   4.228   0.427   0.364
 8226SOL    HW225578   4.095   0.521   0.375
 8227SOL     OW25579   4.742   2.367   3.168
 8227SOL    HW125580   4.656   2.408   3.199
 8227SOL    HW225581   4.742   2.363   3.068
 8228SOL     OW25582   2.045   0.506   4.738
 8228SOL    HW125583   1.976   0.557   4.789
 8228SOL    HW225584   2.051   0.541   4.645
 8229SOL     OW25585   4.869   4.192   0.981
 8229SOL    HW125586   4.833   4.115   1.034
 8229SOL    HW225587   4.953   4.225   1.024
 8230SOL     OW25588   5.967   0.724   6.193
 8230SOL    HW125589   5.871   0.724   6.166
 8230SOL    HW225590   5.978   0.781   6.275
 8231SOL     OW25591   2.219   1.373   2.450
 8231SOL    HW125592   2.243   1.434   2.374
 8231SOL    HW225593   2.301   1.329   2.485
 8232SOL     OW25594   3.568   5.905   2.938
 8232SOL    HW125595   3.615   5.982   2.982
 8232SOL    HW225596   3.522   5.850   3.007
 8233SOL     OW25597   0.861   1.221   6.112
 8233SOL    HW125598   0.907   1.133   6.103
 8233SOL    HW225599   0.882   1.278   6.033
 8234SOL     OW25600   1.099   2.123   0.490
 8234SOL    HW125601   1.074   2.163   0.402
 8234SOL    HW225602   1.048   2.039   0.504
 8235SOL     OW25603   0.779   5.845   1.303
 8235SOL    HW125604   0.852   5.783   1.329
 8235SOL    HW225605   0.784   5.928   1.358
 8236SOL     OW25606   0.598   6.379   0.824
 8236SOL    HW125607   0.526   6.446   0.842
 8236SOL    HW225608   0.657   6.412   0.750
 8237SOL     OW25609   4.162   4.987   0.192
 8237SOL    HW125610   4.065   4.976   0.169
 8237SOL    HW225611   4.218   4.973   0.110
 8238SOL     OW25612   0.861   4.008   0.466
 8238SOL    HW125613   0.920   3.967   0.535
 8238SOL    HW225614   0.766   4.004   0.496
 8239SOL     OW25615   1.706   1.212   5.177
 8239SOL    HW125616   1.709   1.173   5.269
 8239SOL    HW225617   1.792   1.259   5.158
 8240SOL     OW25618   3.535   3.586   4.514
 8240SOL    HW125619   3.587   3.656   4.562
 8240SOL    HW225620   3.438   3.594   4.537
 8241SOL     OW25621   1.805   3.808   6.130
 8241SOL    HW125622   1.776   3.718   6.163
 8241SOL    HW225623   1.728   3.872   6.136
 8242SOL     OW25624   0.810   3.335   3.598
 8242SOL    HW125625   0.907   3.353   3.619
 8242SOL    HW225626   0.803   3.255   3.539
 8243SOL     OW25627   0.169   5.464   4.347
 8243SOL    HW125628   0.239   5.533   4.362
 8243SOL    HW225629   0.089   5.507   4.305
 8244SOL     OW25630   0.791   0.703   4.490
 8244SOL    HW125631   0.758   0.632   4.553
 8244SOL    HW225632   0.826   0.660   4.407
 8245SOL     OW25633   5.376   1.802   3.592
 8245SOL    HW125634   5.397   1.723   3.649
 8245SOL    HW225635   5.341   1.876   3.650
 8246SOL     OW25636   2.254   5.355   6.775
 8246SOL    HW125637   2.179   5.291   6.790
 8246SOL    HW225638   2.235   5.440   6.825
 8247SOL     OW25639   2.858   5.210   2.782
 8247SOL    HW125640   2.834   5.224   2.878
 8247SOL    HW225641   2.794   5.260   2.724
 8248SOL     OW25642   0.260   5.113   3.070
 8248SOL    HW125643   0.206   5.113   3.154
 8248SOL    HW225644   0.355   5.092   3.091
 8249SOL     OW25645   3.288   1.761   6.573
 8249SOL    HW125646   3.203   1.800   6.609
 8249SOL    HW225647   3.275   1.738   6.476
 8250SOL     OW25648   1.185   1.221   0.281
 8250SOL    HW125649   1.114   1.267   0.334
 8250SOL    HW225650   1.274   1.263   0.303
 8251SOL     OW25651   0.406   2.380   4.744
 8251SOL    HW125652   0.342   2.435   4.691
 8251SOL    HW225653   0.357   2.332   4.817
 8252SOL     OW25654   1.548   1.815   6.196
 8252SOL    HW125655   1.560   1.913   6.211
 8252SOL    HW225656   1.512   1.773   6.279
 8253SOL     OW25657   4.913   6.023   0.499
 8253SOL    HW125658   4.853   5.944   0.496
 8253SOL    HW225659   4.974   6.022   0.421
 8254SOL     OW25660   5.187   5.106   6.526
 8254SOL    HW125661   5.188   5.069   6.433
 8254SOL    HW225662   5.115   5.174   6.534
 8255SOL     OW25663   1.072   6.821   6.622
 8255SOL    HW125664   1.145   6.755   6.639
 8255SOL    HW225665   1.107   6.913   6.639
 8256SOL     OW25666   1.251   5.281   3.908
 8256SOL    HW125667   1.211   5.216   3.974
 8256SOL    HW225668   1.253   5.372   3.948
 8257SOL     OW25669   5.065   3.316   3.171
 8257SOL    HW125670   5.069   3.370   3.087
 8257SOL    HW225671   5.154   3.275   3.189
 8258SOL     OW25672   6.751   3.757   1.953
 8258SOL    HW125673   6.716   3.726   2.041
 8258SOL    HW225674   6.680   3.746   1.883
 8259SOL     OW25675   5.359   1.618   4.507
 8259SOL    HW125676   5.433   1.661   4.455
 8259SOL    HW225677   5.397   1.546   4.565
 8260SOL     OW25678   4.010   1.353   1.159
 8260SOL    HW125679   4.033   1.274   1.216
 8260SOL    HW225680   3.919   1.340   1.120
 8261SOL     OW25681   5.989   0.580   2.787
 8261SOL    HW125682   6.078   0.539   2.808
 8261SOL    HW225683   5.924   0.508   2.762
 8262SOL     OW25684   5.772   3.692   1.936
 8262SOL    HW125685   5.695   3.730   1.986
 8262SOL    HW225686   5.820   3.625   1.993
 8263SOL     OW25687   6.933   2.343   5.703
 8263SOL    HW125688   6.871   2.418   5.680
 8263SOL    HW225689   7.000   2.332   5.629
 8264SOL     OW25690   2.858   0.338   3.093
 8264SOL    HW125691   2.787   0.392   3.139
 8264SOL    HW225692   2.895   0.271   3.157
 8265SOL     OW25693   5.279   0.112   0.131
 8265SOL    HW125694   5.271   0.167   0.215
 8265SOL    HW225695   5.240   0.021   0.147
 8266SOL     OW25696   2.423   0.859   3.773
 8266SOL    HW125697   2.354   0.923   3.807
 8266SOL    HW225698   2.468   0.898   3.693
 8267SOL     OW25699   1.815   4.744   2.789
 8267SOL    HW125700   1.844   4.660   2.741
 8267SOL    HW225701   1.733   4.780   2.746
 8268SOL     OW25702   3.319   5.118   6.714
 8268SOL    HW125703   3.409   5.152   6.743
 8268SOL    HW225704   3.332   5.046   6.645
 8269SOL     OW25705   5.857   2.592   3.473
 8269SOL    HW125706   5.765   2.561   3.448
 8269SOL    HW225707   5.895   2.647   3.399
 8270SOL     OW25708   3.700   0.043   6.334
 8270SOL    HW125709   3.655   6.988   6.374
 8270SOL    HW225710   3.634   0.095   6.280
 8271SOL     OW25711   3.910   6.249   6.201
 8271SOL    HW125712   3.886   6.263   6.297
 8271SOL    HW225713   4.008   6.265   6.188
 8272SOL     OW25714   0.787   0.250   1.575
 8272SOL    HW125715   0.724   0.313   1.530
 8272SOL    HW225716   0.836   0.299   1.648
 8273SOL     OW25717   3.637   0.499   6.907
 8273SOL    HW125718   3.590   0.569   6.853
 8273SOL    HW225719   3.573   0.426   6.930
 8274SOL     OW25720   5.483   6.596   5.886
 8274SOL    HW125721   5.469   6.547   5.800
 8274SOL    HW225722   5.580   6.593   5.911
 8275SOL     OW25723   5.563   0.336   3.340
 8275SOL    HW125724   5.534   0.397   3.414
 8275SOL    HW225725   5.608   0.389   3.269
 8276SOL     OW25726   0.444   2.416   6.306
 8276SOL    HW125727   0.476   2.333   6.262
 8276SOL    HW225728   0.522   2.477   6.323
 8277SOL     OW25729   1.313   6.657   6.488
 8277SOL    HW125730   1.289   6.609   6.573
 8277SOL    HW225731   1.240   6.643   6.421
 8278SOL     OW25732   3.358   1.412   6.878
 8278SOL    HW125733   3.437   1.471   6.899
 8278SOL    HW225734   3.375   1.363   6.793
 8279SOL     OW25735   4.798   4.674   5.341
 8279SOL    HW125736   4.736   4.657   5.264
 8279SOL    HW225737   4.891   4.651   5.314
 8280SOL     OW25738   5.239   3.301   0.148
 8280SOL    HW125739   5.293   3.217   0.135
 8280SOL    HW225740   5.145   3.277   0.173
 8281SOL     OW25741   2.547   5.088   0.272
 8281SOL    HW125742   2.476   5.046   0.215
 8281SOL    HW225743   2.570   5.026   0.348
 8282SOL     OW25744   3.062   2.448   0.780
 8282SOL    HW125745   3.122   2.398   0.842
 8282SOL    HW225746   3.005   2.383   0.729
 8283SOL     OW25747   0.186   5.549   3.185
 8283SOL    HW125748   0.144   5.589   3.266
 8283SOL    HW225749   0.196   5.620   3.114
 8284SOL     OW25750   2.750   1.954   2.063
 8284SOL    HW125751   2.675   1.940   2.128
 8284SOL    HW225752   2.821   1.886   2.078
 8285SOL     OW25753   2.897   4.241   6.089
 8285SOL    HW125754   2.976   4.282   6.135
 8285SOL    HW225755   2.830   4.213   6.158
 8286SOL     OW25756   5.475   1.879   5.405
 8286SOL    HW125757   5.447   1.794   5.360
 8286SOL    HW225758   5.545   1.925   5.351
 8287SOL     OW25759   2.225   0.580   3.669
 8287SOL    HW125760   2.178   0.559   3.583
 8287SOL    HW225761   2.201   0.513   3.738
 8288SOL     OW25762   2.222   1.213   3.010
 8288SOL    HW125763   2.245   1.159   2.929
 8288SOL    HW225764   2.135   1.179   3.048
 8289SOL     OW25765   6.757   1.178   5.597
 8289SOL    HW125766   6.671   1.151   5.640
 8289SOL    HW225767   6.772   1.276   5.611
 8290SOL     OW25768   4.713   2.947   1.637
 8290SOL    HW125769   4.712   3.004   1.719
 8290SOL    HW225770   4.677   2.999   1.560
 8291SOL     OW25771   4.045   5.139   6.565
 8291SOL    HW125772   4.028   5.124   6.468
 8291SOL    HW225773   4.079   5.232   6.578
 8292SOL     OW25774   0.607   3.950   4.563
 8292SOL    HW125775   0.616   3.854   4.538
 8292SOL    HW225776   0.516   3.983   4.539
 8293SOL     OW25777   3.025   4.918   4.062
 8293SOL    HW125778   3.036   5.004   4.112
 8293SOL    HW225779   2.933   4.913   4.025
 8294SOL     OW25780   4.648   3.334   5.672
 8294SOL    HW125781   4.653   3.434   5.673
 8294SOL    HW225782   4.695   3.299   5.591
 8295SOL     OW25783   5.067   4.675   1.908
 8295SOL    HW125784   5.138   4.744   1.917
 8295SOL    HW225785   4.991   4.697   1.969
 8296SOL     OW25786   3.869   6.374   1.812
 8296SOL    HW125787   3.807   6.450   1.793
 8296SOL    HW225788   3.849   6.336   1.903
 8297SOL     OW25789   5.705   4.099   3.340
 8297SOL    HW125790   5.802   4.088   3.316
 8297SOL    HW225791   5.687   4.054   3.427
 8298SOL     OW25792   6.624   6.976   5.884
 8298SOL    HW125793   6.706   6.920   5.871
 8298SOL    HW225794   6.543   6.920   5.866
 8299SOL     OW25795   0.380   3.722   0.975
 8299SOL    HW125796   0.332   3.785   0.913
 8299SOL    HW225797   0.415   3.645   0.922
 8300SOL     OW25798   4.994   5.055   2.940
 8300SOL    HW125799   4.974   4.958   2.924
 8300SOL    HW225800   4.941   5.087   3.018
 8301SOL     OW25801   4.882   6.639   0.038
 8301SOL    HW125802   4.926   6.697   6.995
 8301SOL    HW225803   4.871   6.691   0.123
 8302SOL     OW25804   3.449   6.877   5.471
 8302SOL    HW125805   3.479   6.892   5.377
 8302SOL    HW225806   3.499   6.938   5.532
 8303SOL     OW25807   0.208   6.207   2.754
 8303SOL    HW125808   0.223   6.214   2.853
 8303SOL    HW225809   0.127   6.151   2.737
 8304SOL     OW25810   5.505   4.095   3.183
 8304SOL    HW125811   5.482   4.186   3.148
 8304SOL    HW225812   5.569   4.103   3.259
 8305SOL     OW25813   4.761   6.375   4.802
 8305SOL    HW125814   4.856   6.359   4.827
 8305SOL    HW225815   4.755   6.453   4.740
 8306SOL     OW25816   6.465   1.059   2.038
 8306SOL    HW125817   6.385   1.002   2.022
 8306SOL    HW225818   6.545   1.018   1.994
 8307SOL     OW25819   1.566   3.571   2.982
 8307SOL    HW125820   1.485   3.628   2.998
 8307SOL    HW225821   1.542   3.495   2.921
 8308SOL     OW25822   1.127   5.493   0.677
 8308SOL    HW125823   1.165   5.445   0.598
 8308SOL    HW225824   1.175   5.581   0.688
 8309SOL     OW25825   6.004   4.870   4.875
 8309SOL    HW125826   5.988   4.828   4.964
 8309SOL    HW225827   6.076   4.940   4.885
 8310SOL     OW25828   1.238   6.435   0.816
 8310SOL    HW125829   1.146   6.401   0.839
 8310SOL    HW225830   1.286   6.368   0.760
 8311SOL     OW25831   5.770   6.745   3.623
 8311SOL    HW125832   5.795   6.652   3.652
 8311SOL    HW225833   5.852   6.803   3.622
 8312SOL     OW25834   5.458   1.814   0.631
 8312SOL    HW125835   5.496   1.862   0.710
 8312SOL    HW225836   5.400   1.739   0.663
 8313SOL     OW25837   5.496   2.577   5.333
 8313SOL    HW125838   5.544   2.579   5.245
 8313SOL    HW225839   5.528   2.654   5.389
 8314SOL     OW25840   5.140   6.321   4.354
 8314SOL    HW125841   5.159   6.225   4.334
 8314SOL    HW225842   5.074   6.355   4.287
 8315SOL     OW25843   3.754   4.053   5.010
 8315SOL    HW125844   3.847   4.015   5.014
 8315SOL    HW225845   3.731   4.076   4.916
 8316SOL     OW25846   2.107   2.183   6.638
 8316SOL    HW125847   2.085   2.280   6.644
 8316SOL    HW225848   2.183   2.162   6.699
 8317SOL     OW25849   1.807   1.439   3.893
 8317SOL    HW125850   1.715   1.477   3.901
 8317SOL    HW225851   1.844   1.423   3.985
 8318SOL     OW25852   4.623   0.175   0.033
 8318SOL    HW125853   4.631   0.137   0.125
 8318SOL    HW225854   4.589   0.269   0.039
 8319SOL     OW25855   1.237   6.556   6.742
 8319SOL    HW125856   1.259   6.610   6.824
 8319SOL    HW225857   1.262   6.460   6.757
 8320SOL     OW25858   3.070   3.203   4.819
 8320SOL    HW125859   2.993   3.146   4.850
 8320SOL    HW225860   3.122   3.153   4.750
 8321SOL     OW25861   0.396   6.527   1.304
 8321SOL    HW125862   0.409   6.549   1.400
 8321SOL    HW225863   0.453   6.448   1.280
 8322SOL     OW25864   0.741   0.119   0.144
 8322SOL    HW125865   0.705   0.167   0.224
 8322SOL    HW225866   0.677   0.126   0.068
 8323SOL     OW25867   6.011   4.144   0.558
 8323SOL    HW125868   6.106   4.156   0.528
 8323SOL    HW225869   5.964   4.232   0.557
 8324SOL     OW25870   4.704   5.488   6.474
 8324SOL    HW125871   4.721   5.586   6.463
 8324SOL    HW225872   4.775   5.448   6.533
 8325SOL     OW25873   1.163   5.431   6.453
 8325SOL    HW125874   1.083   5.379   6.484
 8325SOL    HW225875   1.186   5.500   6.521
 8326SOL     OW25876   1.369   3.533   0.477
 8326SOL    HW125877   1.288   3.530   0.418
 8326SOL    HW225878   1.451   3.526   0.420
 8327SOL     OW25879   0.627   6.740   4.552
 8327SOL    HW125880   0.720   6.777   4.558
 8327SOL    HW225881   0.563   6.814   4.532
 8328SOL     OW25882   1.052   0.383   0.201
 8328SOL    HW125883   1.076   0.474   0.236
 8328SOL    HW225884   1.048   0.318   0.277
 8329SOL     OW25885   1.935   2.851   4.592
 8329SOL    HW125886   1.923   2.753   4.576
 8329SOL    HW225887   2.024   2.867   4.635
 8330SOL     OW25888   4.069   1.194   6.455
 8330SOL    HW125889   4.054   1.098   6.433
 8330SOL    HW225890   4.045   1.211   6.550
 8331SOL     OW25891   1.826   2.441   6.088
 8331SOL    HW125892   1.836   2.489   6.001
 8331SOL    HW225893   1.856   2.346   6.077
 8332SOL     OW25894   6.124   5.111   1.308
 8332SOL    HW125895   6.148   5.167   1.228
 8332SOL    HW225896   6.172   5.146   1.388
 8333SOL     OW25897   2.192   4.939   0.158
 8333SOL    HW125898   2.257   4.884   0.106
 8333SOL    HW225899   2.131   4.988   0.095
 8334SOL     OW25900   3.714   2.388   6.614
 8334SOL    HW125901   3.813   2.402   6.613
 8334SOL    HW225902   3.675   2.418   6.527
 8335SOL     OW25903   5.362   3.688   6.436
 8335SOL    HW125904   5.398   3.637   6.358
 8335SOL    HW225905   5.430   3.755   6.466
 8336SOL     OW25906   0.889   4.238   4.078
 8336SOL    HW125907   0.987   4.228   4.094
 8336SOL    HW225908   0.866   4.202   3.988
 8337SOL     OW25909   0.657   1.020   4.569
 8337SOL    HW125910   0.678   0.997   4.474
 8337SOL    HW225911   0.696   1.110   4.591
 8338SOL     OW25912   4.070   5.903   2.111
 8338SOL    HW125913   4.067   5.811   2.072
 8338SOL    HW225914   4.121   5.963   2.050
 8339SOL     OW25915   5.861   6.864   0.652
 8339SOL    HW125916   5.902   6.846   0.563
 8339SOL    HW225917   5.810   6.784   0.682
 8340SOL     OW25918   6.427   1.988   6.727
 8340SOL    HW125919   6.390   1.979   6.634
 8340SOL    HW225920   6.366   1.943   6.791
 8341SOL     OW25921   3.735   0.567   0.507
 8341SOL    HW125922   3.661   0.503   0.487
 8341SOL    HW225923   3.711   0.658   0.471
 8342SOL     OW25924   4.486   0.727   0.061
 8342SOL    HW125925   4.469   0.772   0.149
 8342SOL    HW225926   4.582   0.738   0.036
 8343SOL     OW25927   5.509   4.256   4.037
 8343SOL    HW125928   5.415   4.226   4.054
 8343SOL    HW225929   5.570   4.208   4.100
 8344SOL     OW25930   1.277   5.374   5.306
 8344SOL    HW125931   1.285   5.277   5.325
 8344SOL    HW225932   1.292   5.391   5.209
 8345SOL     OW25933   4.399   1.171   2.813
 8345SOL    HW125934   4.334   1.146   2.885
 8345SOL    HW225935   4.479   1.216   2.854
 8346SOL     OW25936   6.163   3.581   4.959
 8346SOL    HW125937   6.240   3.547   4.904
 8346SOL    HW225938   6.082   3.526   4.941
 8347SOL     OW25939   2.841   0.653   0.355
 8347SOL    HW125940   2.876   0.742   0.325
 8347SOL    HW225941   2.749   0.664   0.393
 8348SOL     OW25942   3.279   6.315   1.937
 8348SOL    HW125943   3.227   6.365   1.867
 8348SOL    HW225944   3.369   6.292   1.901
 8349SOL     OW25945   0.228   6.475   1.916
 8349SOL    HW125946   0.273   6.543   1.974
 8349SOL    HW225947   0.296   6.415   1.875
 8350SOL     OW25948   2.397   0.607   0.706
 8350SOL    HW125949   2.487   0.624   0.667
 8350SOL    HW225950   2.338   0.563   0.638
 8351SOL     OW25951   6.784   3.257   3.168
 8351SOL    HW125952   6.816   3.192   3.236
 8351SOL    HW225953   6.743   3.336   3.214
 8352SOL     OW25954   2.443   6.171   1.898
 8352SOL    HW125955   2.458   6.219   1.984
 8352SOL    HW225956   2.356   6.121   1.902
 8353SOL     OW25957   1.359   4.981   2.307
 8353SOL    HW125958   1.276   5.026   2.275
 8353SOL    HW225959   1.395   5.030   2.387
 8354SOL     OW25960   3.261   0.392   3.101
 8354SOL    HW125961   3.222   0.484   3.092
 8354SOL    HW225962   3.279   0.354   3.011
 8355SOL     OW25963   2.336   6.154   6.776
 8355SOL    HW125964   2.285   6.176   6.693
 8355SOL    HW225965   2.352   6.237   6.828
 8356SOL     OW25966   2.165   5.363   0.691
 8356SOL    HW125967   2.235   5.389   0.624
 8356SOL    HW225968   2.096   5.436   0.696
 8357SOL     OW25969   4.459   6.140   5.223
 8357SOL    HW125970   4.440   6.121   5.319
 8357SOL    HW225971   4.514   6.223   5.215
 8358SOL     OW25972   1.013   1.394   4.746
 8358SOL    HW125973   1.068   1.316   4.778
 8358SOL    HW225974   1.033   1.411   4.650
 8359SOL     OW25975   3.574   2.213   5.513
 8359SOL    HW125976   3.650   2.211   5.448
 8359SOL    HW225977   3.488   2.217   5.462
 8360SOL     OW25978   4.322   6.977   1.484
 8360SOL    HW125979   4.364   7.009   1.399
 8360SOL    HW225980   4.393   6.955   1.550
 8361SOL     OW25981   4.105   0.513   6.858
 8361SOL    HW125982   4.163   0.507   6.778
 8361SOL    HW225983   4.134   0.446   6.926
 8362SOL     OW25984   6.871   4.260   1.436
 8362SOL    HW125985   6.825   4.172   1.436
 8362SOL    HW225986   6.954   4.255   1.492
 8363SOL     OW25987   2.673   3.413   6.882
 8363SOL    HW125988   2.707   3.504   6.905
 8363SOL    HW225989   2.734   3.343   6.919
 8364SOL     OW25990   0.349   3.716   4.752
 8364SOL    HW125991   0.439   3.674   4.756
 8364SOL    HW225992   0.344   3.793   4.816
 8365SOL     OW25993   2.037   2.554   2.458
 8365SOL    HW125994   2.127   2.527   2.422
 8365SOL    HW225995   2.041   2.649   2.487
 8366SOL     OW25996   5.095   5.261   1.882
 8366SOL    HW125997   5.126   5.329   1.817
 8366SOL    HW225998   5.110   5.169   1.845
 8367SOL     OW25999   3.585   5.402   4.176
 8367SOL    HW126000   3.551   5.490   4.210
 8367SOL    HW226001   3.577   5.400   4.076
 8368SOL     OW26002   6.615   6.126   0.407
 8368SOL    HW126003   6.522   6.096   0.385
 8368SOL    HW226004   6.678   6.092   0.338
 8369SOL     OW26005   2.088   6.767   1.300
 8369SOL    HW126006   2.157   6.701   1.267
 8369SOL    HW226007   2.134   6.852   1.325
 8370SOL     OW26008   2.198   3.373   0.208
 8370SOL    HW126009   2.150   3.363   0.296
 8370SOL    HW226010   2.152   3.442   0.153
 8371SOL     OW26011   1.747   4.225   6.517
 8371SOL    HW126012   1.653   4.219   6.482
 8371SOL    HW226013   1.811   4.232   6.440
 8372SOL     OW26014   2.488   5.555   2.635
 8372SOL    HW126015   2.422   5.578   2.706
 8372SOL    HW226016   2.494   5.630   2.569
 8373SOL     OW26017   0.221   1.544   4.264
 8373SOL    HW126018   0.282   1.561   4.342
 8373SOL    HW226019   0.133   1.511   4.297
 8374SOL     OW26020   1.341   0.468   4.350
 8374SOL    HW126021   1.323   0.397   4.282
 8374SOL    HW226022   1.326   0.558   4.309
 8375SOL     OW26023   3.497   0.757   4.729
 8375SOL    HW126024   3.417   0.723   4.680
 8375SOL    HW226025   3.475   0.845   4.772
 8376SOL     OW26026   2.209   0.669   2.957
 8376SOL    HW126027   2.129   0.610   2.968
 8376SOL    HW226028   2.243   0.696   3.048
 8377SOL     OW26029   4.291   5.378   6.899
 8377SOL    HW126030   4.315   5.289   6.863
 8377SOL    HW226031   4.368   5.417   6.949
 8378SOL     OW26032   5.402   6.024   4.132
 8378SOL    HW126033   5.467   6.098   4.117
 8378SOL    HW226034   5.319   6.060   4.175
 8379SOL     OW26035   5.704   1.042   1.785
 8379SOL    HW126036   5.780   1.098   1.819
 8379SOL    HW226037   5.669   1.081   1.700
 8380SOL     OW26038   6.483   5.761   0.664
 8380SOL    HW126039   6.425   5.842   0.674
 8380SOL    HW226040   6.533   5.766   0.577
 8381SOL     OW26041   0.322   1.990   2.284
 8381SOL    HW126042   0.421   2.003   2.297
 8381SOL    HW226043   0.281   2.076   2.253
 8382SOL     OW26044   2.069   0.575   1.307
 8382SOL    HW126045   2.051   0.517   1.227
 8382SOL    HW226046   2.132   0.648   1.283
 8383SOL     OW26047   2.895   6.549   6.376
 8383SOL    HW126048   2.900   6.476   6.309
 8383SOL    HW226049   2.986   6.564   6.416
 8384SOL     OW26050   0.709   2.768   1.895
 8384SOL    HW126051   0.628   2.779   1.837
 8384SOL    HW226052   0.772   2.844   1.878
 8385SOL     OW26053   3.631   3.601   1.303
 8385SOL    HW126054   3.713   3.622   1.250
 8385SOL    HW226055   3.654   3.539   1.378
 8386SOL     OW26056   2.181   6.021   1.927
 8386SOL    HW126057   2.223   5.969   1.853
 8386SOL    HW226058   2.085   6.040   1.904
 8387SOL     OW26059   1.574   1.150   2.711
 8387SOL    HW126060   1.536   1.171   2.801
 8387SOL    HW226061   1.569   1.231   2.653
 8388SOL     OW26062   3.980   6.256   1.411
 8388SOL    HW126063   4.074   6.226   1.396
 8388SOL    HW226064   3.956   6.325   1.343
 8389SOL     OW26065   0.411   2.488   3.760
 8389SOL    HW126066   0.489   2.516   3.817
 8389SOL    HW226067   0.445   2.457   3.671
 8390SOL     OW26068   3.412   1.157   6.168
 8390SOL    HW126069   3.463   1.239   6.142
 8390SOL    HW226070   3.431   1.136   6.264
 8391SOL     OW26071   5.075   6.119   1.212
 8391SOL    HW126072   5.110   6.213   1.212
 8391SOL    HW226073   5.143   6.058   1.252
 8392SOL     OW26074   5.479   6.048   5.367
 8392SOL    HW126075   5.474   6.145   5.391
 8392SOL    HW226076   5.509   5.995   5.447
 8393SOL     OW26077   6.686   5.799   2.964
 8393SOL    HW126078   6.720   5.892   2.974
 8393SOL    HW226079   6.589   5.801   2.940
 8394SOL     OW26080   0.616   1.881   2.913
 8394SOL    HW126081   0.594   1.919   2.824
 8394SOL    HW226082   0.627   1.782   2.905
 8395SOL     OW26083   0.050   6.105   5.442
 8395SOL    HW126084   0.150   6.110   5.448
 8395SOL    HW226085   0.024   6.022   5.393
 8396SOL     OW26086   4.867   3.263   1.846
 8396SOL    HW126087   4.797   3.199   1.878
 8396SOL    HW226088   4.894   3.240   1.753
 8397SOL     OW26089   2.081   5.781   3.488
 8397SOL    HW126090   2.091   5.879   3.506
 8397SOL    HW226091   2.091   5.764   3.390
 8398SOL     OW26092   4.437   1.878   0.796
 8398SOL    HW126093   4.382   1.890   0.879
 8398SOL    HW226094   4.377   1.857   0.719
 8399SOL     OW26095   5.508   5.892   0.565
 8399SOL    HW126096   5.601   5.907   0.533
 8399SOL    HW226097   5.475   5.975   0.611
 8400SOL     OW26098   6.653   0.948   2.711
 8400SOL    HW126099   6.578   0.882   2.704
 8400SOL    HW226100   6.657   1.003   2.628
 8401SOL     OW26101   3.064   4.568   6.581
 8401SOL    HW126102   3.129   4.564   6.656
 8401SOL    HW226103   3.109   4.538   6.496
 8402SOL     OW26104   4.533   1.602   0.094
 8402SOL    HW126105   4.479   1.637   0.171
 8402SOL    HW226106   4.473   1.550   0.032
 8403SOL     OW26107   2.379   1.395   4.476
 8403SOL    HW126108   2.409   1.400   4.571
 8403SOL    HW226109   2.319   1.315   4.464
 8404SOL     OW26110   4.476   5.271   5.724
 8404SOL    HW126111   4.395   5.214   5.709
 8404SOL    HW226112   4.548   5.216   5.765
 8405SOL     OW26113   0.738   2.642   5.332
 8405SOL    HW126114   0.776   2.708   5.267
 8405SOL    HW226115   0.743   2.550   5.292
 8406SOL     OW26116   5.321   3.249   1.212
 8406SOL    HW126117   5.263   3.174   1.243
 8406SOL    HW226118   5.382   3.215   1.140
 8407SOL     OW26119   4.817   4.083   3.050
 8407SOL    HW126120   4.772   4.150   2.991
 8407SOL    HW226121   4.856   4.010   2.993
 8408SOL     OW26122   4.955   2.474   5.032
 8408SOL    HW126123   4.979   2.567   5.004
 8408SOL    HW226124   5.039   2.421   5.046
 8409SOL     OW26125   0.935   1.922   3.710
 8409SOL    HW126126   0.897   1.838   3.749
 8409SOL    HW226127   1.029   1.933   3.739
 8410SOL     OW26128   4.071   6.909   1.385
 8410SOL    HW126129   4.165   6.922   1.414
 8410SOL    HW226130   4.064   6.928   1.287
 8411SOL     OW26131   1.386   3.733   4.569
 8411SOL    HW126132   1.478   3.769   4.551
 8411SOL    HW226133   1.365   3.742   4.666
 8412SOL     OW26134   5.660   2.376   3.656
 8412SOL    HW126135   5.625   2.402   3.566
 8412SOL    HW226136   5.744   2.323   3.645
 8413SOL     OW26137   3.605   4.553   0.606
 8413SOL    HW126138   3.695   4.524   0.572
 8413SOL    HW226139   3.616   4.637   0.660
 8414SOL     OW26140   3.852   6.599   2.993
 8414SOL    HW126141   3.905   6.567   3.071
 8414SOL    HW226142   3.770   6.543   2.983
 8415SOL     OW26143   6.552   4.301   2.959
 8415SOL    HW126144   6.499   4.233   3.009
 8415SOL    HW226145   6.492   4.349   2.895
 8416SOL     OW26146   5.256   3.801   2.487
 8416SOL    HW126147   5.329   3.807   2.555
 8416SOL    HW226148   5.181   3.863   2.513
 8417SOL     OW26149   2.649   6.086   6.019
 8417SOL    HW126150   2.669   6.046   5.930
 8417SOL    HW226151   2.556   6.061   6.047
 8418SOL     OW26152   6.361   5.168   3.197
 8418SOL    HW126153   6.361   5.081   3.148
 8418SOL    HW226154   6.450   5.182   3.241
 8419SOL     OW26155   4.472   0.552   3.332
 8419SOL    HW126156   4.510   0.621   3.270
 8419SOL    HW226157   4.411   0.595   3.398
 8420SOL     OW26158   4.001   0.929   6.463
 8420SOL    HW126159   3.928   0.870   6.500
 8420SOL    HW226160   4.087   0.879   6.464
 8421SOL     OW26161   2.227   6.815   1.914
 8421SOL    HW126162   2.210   6.845   2.008
 8421SOL    HW226163   2.226   6.715   1.911
 8422SOL     OW26164   4.487   0.133   0.604
 8422SOL    HW126165   4.486   0.033   0.609
 8422SOL    HW226166   4.449   0.171   0.689
 8423SOL     OW26167   3.479   3.800   1.417
 8423SOL    HW126168   3.524   3.721   1.375
 8423SOL    HW226169   3.381   3.798   1.396
 8424SOL     OW26170   3.518   0.830   2.479
 8424SOL    HW126171   3.518   0.891   2.400
 8424SOL    HW226172   3.560   0.877   2.557
 8425SOL     OW26173   6.224   4.535   0.045
 8425SOL    HW126174   6.198   4.440   0.063
 8425SOL    HW226175   6.319   4.548   0.074
 8426SOL     OW26176   4.073   3.798   3.138
 8426SOL    HW126177   4.169   3.826   3.143
 8426SOL    HW226178   4.027   3.822   3.224
 8427SOL     OW26179   2.237   4.015   6.755
 8427SOL    HW126180   2.332   4.038   6.735
 8427SOL    HW226181   2.180   4.034   6.676
 8428SOL     OW26182   6.590   4.247   2.174
 8428SOL    HW126183   6.614   4.344   2.178
 8428SOL    HW226184   6.521   4.227   2.243
 8429SOL     OW26185   1.964   6.386   3.247
 8429SOL    HW126186   2.050   6.425   3.215
 8429SOL    HW226187   1.937   6.430   3.333
 8430SOL     OW26188   4.506   4.482   2.905
 8430SOL    HW126189   4.481   4.493   2.809
 8430SOL    HW226190   4.543   4.568   2.940
 8431SOL     OW26191   3.069   4.763   1.329
 8431SOL    HW126192   3.009   4.840   1.307
 8431SOL    HW226193   3.145   4.796   1.384
 8432SOL     OW26194   4.201   0.108   6.747
 8432SOL    HW126195   4.158   0.128   6.659
 8432SOL    HW226196   4.185   0.013   6.772
 8433SOL     OW26197   1.330   2.198   6.046
 8433SOL    HW126198   1.378   2.213   6.133
 8433SOL    HW226199   1.302   2.102   6.040
 8434SOL     OW26200   5.535   0.229   5.500
 8434SOL    HW126201   5.471   0.269   5.566
 8434SOL    HW226202   5.534   0.284   5.416
 8435SOL     OW26203   4.435   1.450   1.307
 8435SOL    HW126204   4.339   1.475   1.314
 8435SOL    HW226205   4.470   1.477   1.217
 8436SOL     OW26206   4.179   4.364   1.692
 8436SOL    HW126207   4.087   4.323   1.695
 8436SOL    HW226208   4.240   4.311   1.750
 8437SOL     OW26209   0.377   1.269   1.479
 8437SOL    HW126210   0.366   1.354   1.531
 8437SOL    HW226211   0.380   1.191   1.541
 8438SOL     OW26212   1.548   5.866   1.976
 8438SOL    HW126213   1.530   5.961   1.951
 8438SOL    HW226214   1.612   5.864   2.053
 8439SOL     OW26215   6.945   5.208   2.527
 8439SOL    HW126216   6.937   5.130   2.589
 8439SOL    HW226217   6.970   5.176   2.436
 8440SOL     OW26218   0.750   0.832   2.434
 8440SOL    HW126219   0.809   0.838   2.354
 8440SOL    HW226220   0.678   0.901   2.428
 8441SOL     OW26221   4.117   5.403   6.556
 8441SOL    HW126222   4.213   5.375   6.552
 8441SOL    HW226223   4.110   5.501   6.538
 8442SOL     OW26224   2.549   4.695   7.020
 8442SOL    HW126225   2.588   4.786   7.003
 8442SOL    HW226226   2.475   4.703   0.061
 8443SOL     OW26227   1.871   0.297   3.176
 8443SOL    HW126228   1.827   0.384   3.151
 8443SOL    HW226229   1.819   0.254   3.250
 8444SOL     OW26230   3.784   6.187   3.515
 8444SOL    HW126231   3.864   6.165   3.572
 8444SOL    HW226232   3.705   6.136   3.548
 8445SOL     OW26233   3.989   4.823   2.996
 8445SOL    HW126234   3.905   4.811   2.944
 8445SOL    HW226235   4.067   4.827   2.934
 8446SOL     OW26236   5.475   4.579   2.274
 8446SOL    HW126237   5.568   4.613   2.258
 8446SOL    HW226238   5.477   4.510   2.345
 8447SOL     OW26239   4.517   2.396   2.018
 8447SOL    HW126240   4.610   2.433   2.010
 8447SOL    HW226241   4.476   2.392   1.927
 8448SOL     OW26242   0.920   3.553   6.489
 8448SOL    HW126243   0.993   3.544   6.557
 8448SOL    HW226244   0.885   3.647   6.490
 8449SOL     OW26245   1.801   3.075   4.513
 8449SOL    HW126246   1.849   2.993   4.545
 8449SOL    HW226247   1.719   3.048   4.463
 8450SOL     OW26248   2.124   5.214   2.592
 8450SOL    HW126249   2.200   5.149   2.585
 8450SOL    HW226250   2.055   5.178   2.654
 8451SOL     OW26251   3.471   2.425   1.338
 8451SOL    HW126252   3.471   2.362   1.260
 8451SOL    HW226253   3.565   2.454   1.357
 8452SOL     OW26254   6.625   6.102   0.690
 8452SOL    HW126255   6.696   6.168   0.717
 8452SOL    HW226256   6.620   6.098   0.590
 8453SOL     OW26257   6.501   3.978   6.327
 8453SOL    HW126258   6.487   4.067   6.371
 8453SOL    HW226259   6.509   3.907   6.397
 8454SOL     OW26260   1.785   0.210   4.370
 8454SOL    HW126261   1.862   0.216   4.434
 8454SOL    HW226262   1.740   0.121   4.380
 8455SOL     OW26263   4.972   1.507   1.050
 8455SOL    HW126264   5.046   1.498   0.983
 8455SOL    HW226265   4.927   1.418   1.062
 8456SOL     OW26266   5.664   5.650   3.212
 8456SOL    HW126267   5.697   5.742   3.191
 8456SOL    HW226268   5.646   5.601   3.127
 8457SOL     OW26269   6.878   5.801   5.928
 8457SOL    HW126270   6.859   5.735   6.000
 8457SOL    HW226271   6.937   5.874   5.963
 8458SOL     OW26272   0.989   1.695   0.430
 8458SOL    HW126273   0.896   1.662   0.445
 8458SOL    HW226274   0.992   1.749   0.346
 8459SOL     OW26275   3.445   5.763   2.348
 8459SOL    HW126276   3.468   5.857   2.321
 8459SOL    HW226277   3.397   5.765   2.436
 8460SOL     OW26278   4.680   1.468   0.835
 8460SOL    HW126279   4.656   1.564   0.848
 8460SOL    HW226280   4.678   1.420   0.922
 8461SOL     OW26281   6.268   3.931   1.607
 8461SOL    HW126282   6.207   3.876   1.665
 8461SOL    HW226283   6.292   4.016   1.655
 8462SOL     OW26284   3.331   4.727   6.884
 8462SOL    HW126285   3.412   4.786   6.887
 8462SOL    HW226286   3.249   4.783   6.879
 8463SOL     OW26287   6.741   1.723   0.344
 8463SOL    HW126288   6.715   1.787   0.415
 8463SOL    HW226289   6.769   1.773   0.262
 8464SOL     OW26290   0.508   3.444   0.105
 8464SOL    HW126291   0.530   3.357   0.060
 8464SOL    HW226292   0.414   3.469   0.085
 8465SOL     OW26293   4.187   3.168   1.507
 8465SOL    HW126294   4.226   3.259   1.491
 8465SOL    HW226295   4.260   3.104   1.530
 8466SOL     OW26296   6.037   1.011   5.950
 8466SOL    HW126297   6.026   0.997   5.852
 8466SOL    HW226298   5.986   0.940   5.999
 8467SOL     OW26299   3.487   1.031   1.186
 8467SOL    HW126300   3.403   1.084   1.190
 8467SOL    HW226301   3.500   0.983   1.273
 8468SOL     OW26302   6.187   3.162   6.943
 8468SOL    HW126303   6.138   3.247   6.961
 8468SOL    HW226304   6.184   3.104   7.025
 8469SOL     OW26305   3.861   2.974   5.701
 8469SOL    HW126306   3.910   3.061   5.699
 8469SOL    HW226307   3.793   2.972   5.628
 8470SOL     OW26308   1.515   5.025   1.523
 8470SOL    HW126309   1.550   5.093   1.587
 8470SOL    HW226310   1.524   5.060   1.429
 8471SOL     OW26311   3.736   2.209   5.305
 8471SOL    HW126312   3.817   2.262   5.279
 8471SOL    HW226313   3.674   2.203   5.228
 8472SOL     OW26314   5.854   1.761   5.841
 8472SOL    HW126315   5.910   1.692   5.886
 8472SOL    HW226316   5.800   1.810   5.909
 8473SOL     OW26317   4.734   4.491   6.191
 8473SOL    HW126318   4.690   4.574   6.157
 8473SOL    HW226319   4.812   4.468   6.132
 8474SOL     OW26320   3.710   3.731   2.830
 8474SOL    HW126321   3.766   3.796   2.882
 8474SOL    HW226322   3.613   3.753   2.843
 8475SOL     OW26323   6.628   2.845   1.729
 8475SOL    HW126324   6.630   2.845   1.829
 8475SOL    HW226325   6.566   2.916   1.696
 8476SOL     OW26326   6.215   0.061   1.811
 8476SOL    HW126327   6.164   0.020   1.887
 8476SOL    HW226328   6.201   0.006   1.729
 8477SOL     OW26329   5.833   6.662   1.524
 8477SOL    HW126330   5.745   6.708   1.539
 8477SOL    HW226331   5.859   6.671   1.428
 8478SOL     OW26332   6.471   0.090   5.082
 8478SOL    HW126333   6.371   0.088   5.082
 8478SOL    HW226334   6.506   0.034   5.007
 8479SOL     OW26335   0.873   2.522   1.517
 8479SOL    HW126336   0.776   2.520   1.544
 8479SOL    HW226337   0.919   2.595   1.567
 8480SOL     OW26338   4.984   4.468   0.328
 8480SOL    HW126339   4.982   4.503   0.422
 8480SOL    HW226340   4.972   4.369   0.329
 8481SOL     OW26341   3.870   2.108   3.665
 8481SOL    HW126342   3.810   2.185   3.685
 8481SOL    HW226343   3.828   2.052   3.594
 8482SOL     OW26344   4.653   1.299   0.048
 8482SOL    HW126345   4.568   1.345   0.024
 8482SOL    HW226346   4.665   1.217   7.017
 8483SOL     OW26347   2.887   5.629   3.301
 8483SOL    HW126348   2.981   5.596   3.290
 8483SOL    HW226349   2.858   5.616   3.395
 8484SOL     OW26350   5.754   5.974   3.936
 8484SOL    HW126351   5.793   6.065   3.924
 8484SOL    HW226352   5.730   5.935   3.847
 8485SOL     OW26353   2.844   2.239   0.360
 8485SOL    HW126354   2.928   2.287   0.337
 8485SOL    HW226355   2.780   2.245   0.284
 8486SOL     OW26356   1.010   0.937   2.543
 8486SOL    HW126357   1.063   0.854   2.526
 8486SOL    HW226358   0.912   0.916   2.536
 8487SOL     OW26359   6.258   1.691   5.904
 8487SOL    HW126360   6.233   1.694   6.001
 8487SOL    HW226361   6.357   1.686   5.894
 8488SOL     OW26362   5.114   4.661   1.562
 8488SOL    HW126363   5.071   4.574   1.541
 8488SOL    HW226364   5.162   4.654   1.650
 8489SOL     OW26365   5.066   0.994   1.300
 8489SOL    HW126366   5.106   1.083   1.321
 8489SOL    HW226367   5.032   0.994   1.206
 8490SOL     OW26368   2.297   0.498   6.875
 8490SOL    HW126369   2.325   0.592   6.896
 8490SOL    HW226370   2.311   0.480   6.778
 8491SOL     OW26371   3.335   5.749   2.590
 8491SOL    HW126372   3.341   5.793   2.679
 8491SOL    HW226373   3.304   5.654   2.602
 8492SOL     OW26374   5.806   5.739   4.361
 8492SOL    HW126375   5.743   5.727   4.438
 8492SOL    HW226376   5.778   5.818   4.306
 8493SOL     OW26377   3.904   0.297   0.082
 8493SOL    HW126378   3.921   0.392   0.108
 8493SOL    HW226379   3.807   0.277   0.090
 8494SOL     OW26380   5.894   4.924   2.472
 8494SOL    HW126381   5.888   4.951   2.376
 8494SOL    HW226382   5.803   4.928   2.514
 8495SOL     OW26383   6.664   5.834   0.004
 8495SOL    HW126384   6.680   5.749   0.053
 8495SOL    HW226385   6.727   5.840   6.952
 8496SOL     OW26386   5.092   2.102   2.982
 8496SOL    HW126387   5.096   2.201   2.994
 8496SOL    HW226388   5.067   2.081   2.887
 8497SOL     OW26389   6.225   1.057   3.628
 8497SOL    HW126390   6.322   1.081   3.621
 8497SOL    HW226391   6.195   1.066   3.723
 8498SOL     OW26392   4.977   0.433   4.333
 8498SOL    HW126393   5.066   0.400   4.365
 8498SOL    HW226394   4.939   0.368   4.267
 8499SOL     OW26395   6.259   6.626   6.328
 8499SOL    HW126396   6.196   6.555   6.359
 8499SOL    HW226397   6.343   6.583   6.294
 8500SOL     OW26398   1.726   0.793   5.041
 8500SOL    HW126399   1.746   0.810   5.137
 8500SOL    HW226400   1.665   0.865   5.006
 8501SOL     OW26401   0.873   1.791   6.136
 8501SOL    HW126402   0.930   1.796   6.218
 8501SOL    HW226403   0.873   1.879   6.089
 8502SOL     OW26404   0.419   2.882   6.855
 8502SOL    HW126405   0.511   2.897   6.892
 8502SOL    HW226406   0.353   2.879   6.930
 8503SOL     OW26407   5.856   6.785   4.208
 8503SOL    HW126408   5.824   6.697   4.243
 8503SOL    HW226409   5.949   6.803   4.241
 8504SOL     OW26410   1.656   5.061   3.092
 8504SOL    HW126411   1.663   4.962   3.080
 8504SOL    HW226412   1.702   5.087   3.177
 8505SOL     OW26413   5.335   2.924   2.872
 8505SOL    HW126414   5.247   2.964   2.847
 8505SOL    HW226415   5.368   2.867   2.797
 8506SOL     OW26416   2.313   6.878   0.011
 8506SOL    HW126417   2.394   6.827   0.039
 8506SOL    HW226418   2.272   6.922   0.090
 8507SOL     OW26419   4.372   5.826   5.606
 8507SOL    HW126420   4.388   5.742   5.554
 8507SOL    HW226421   4.345   5.899   5.544
 8508SOL     OW26422   3.626   2.045   6.952
 8508SOL    HW126423   3.573   2.054   0.011
 8508SOL    HW226424   3.665   1.953   6.946
 8509SOL     OW26425   5.085   0.991   3.514
 8509SOL    HW126426   5.107   0.895   3.529
 8509SOL    HW226427   5.096   1.042   3.600
 8510SOL     OW26428   6.246   1.813   4.618
 8510SOL    HW126429   6.316   1.879   4.592
 8510SOL    HW226430   6.267   1.724   4.576
 8511SOL     OW26431   6.250   2.789   2.005
 8511SOL    HW126432   6.267   2.714   2.069
 8511SOL    HW226433   6.261   2.755   1.911
 8512SOL     OW26434   1.514   6.674   4.680
 8512SOL    HW126435   1.501   6.689   4.582
 8512SOL    HW226436   1.567   6.750   4.718
 8513SOL     OW26437   5.671   6.034   6.366
 8513SOL    HW126438   5.631   5.966   6.427
 8513SOL    HW226439   5.623   6.121   6.377
 8514SOL     OW26440   2.322   5.840   4.299
 8514SOL    HW126441   2.313   5.907   4.372
 8514SOL    HW226442   2.338   5.749   4.339
 8515SOL     OW26443   4.977   2.076   1.543
 8515SOL    HW126444   4.916   1.999   1.557
 8515SOL    HW226445   5.069   2.042   1.523
 8516SOL     OW26446   6.926   2.259   2.105
 8516SOL    HW126447   6.928   2.351   2.143
 8516SOL    HW226448   6.937   2.263   2.006
 8517SOL     OW26449   2.420   2.580   6.495
 8517SOL    HW126450   2.361   2.598   6.574
 8517SOL    HW226451   2.376   2.615   6.413
 8518SOL     OW26452   3.635   5.663   0.824
 8518SOL    HW126453   3.607   5.586   0.881
 8518SOL    HW226454   3.568   5.737   0.833
 8519SOL     OW26455   0.860   5.750   2.885
 8519SOL    HW126456   0.802   5.817   2.838
 8519SOL    HW226457   0.937   5.726   2.826
 8520SOL     OW26458   3.803   0.871   6.947
 8520SOL    HW126459   3.786   0.799   7.014
 8520SOL    HW226460   3.873   0.841   6.882
 8521SOL     OW26461   1.170   6.394   6.136
 8521SOL    HW126462   1.125   6.396   6.046
 8521SOL    HW226463   1.268   6.383   6.123
 8522SOL     OW26464   1.231   6.103   5.231
 8522SOL    HW126465   1.205   6.058   5.145
 8522SOL    HW226466   1.292   6.043   5.282
 8523SOL     OW26467   1.227   0.076   6.932
 8523SOL    HW126468   1.201   0.022   7.012
 8523SOL    HW226469   1.321   0.055   6.907
 8524SOL     OW26470   1.201   3.162   6.324
 8524SOL    HW126471   1.271   3.138   6.257
 8524SOL    HW226472   1.203   3.260   6.341
 8525SOL     OW26473   6.134   3.218   3.404
 8525SOL    HW126474   6.127   3.302   3.458
 8525SOL    HW226475   6.230   3.193   3.393
 8526SOL     OW26476   2.253   2.975   2.479
 8526SOL    HW126477   2.232   2.988   2.382
 8526SOL    HW226478   2.228   3.058   2.530
 8527SOL     OW26479   4.276   0.468   4.470
 8527SOL    HW126480   4.187   0.488   4.429
 8527SOL    HW226481   4.343   0.534   4.437
 8528SOL     OW26482   4.746   2.672   6.504
 8528SOL    HW126483   4.831   2.725   6.508
 8528SOL    HW226484   4.745   2.618   6.420
 8529SOL     OW26485   0.585   4.310   0.186
 8529SOL    HW126486   0.652   4.310   0.260
 8529SOL    HW226487   0.550   4.403   0.173
 8530SOL     OW26488   1.978   3.531   5.491
 8530SOL    HW126489   2.016   3.623   5.486
 8530SOL    HW226490   1.924   3.513   5.408
 8531SOL     OW26491   4.908   4.424   2.195
 8531SOL    HW126492   4.900   4.341   2.251
 8531SOL    HW226493   4.819   4.446   2.156
 8532SOL     OW26494   2.699   3.986   6.221
 8532SOL    HW126495   2.689   4.072   6.271
 8532SOL    HW226496   2.755   3.923   6.274
 8533SOL     OW26497   3.235   0.789   4.954
 8533SOL    HW126498   3.156   0.802   4.895
 8533SOL    HW226499   3.304   0.858   4.932
 8534SOL     OW26500   1.618   2.746   3.027
 8534SOL    HW126501   1.683   2.732   2.952
 8534SOL    HW226502   1.556   2.820   3.004
 8535SOL     OW26503   0.318   2.295   4.994
 8535SOL    HW126504   0.309   2.201   5.029
 8535SOL    HW226505   0.399   2.338   5.034
 8536SOL     OW26506   0.358   1.545   6.041
 8536SOL    HW126507   0.439   1.489   6.027
 8536SOL    HW226508   0.365   1.628   5.985
 8537SOL     OW26509   5.533   0.097   2.194
 8537SOL    HW126510   5.470   0.020   2.185
 8537SOL    HW226511   5.576   0.116   2.105
 8538SOL     OW26512   5.793   1.160   4.503
 8538SOL    HW126513   5.722   1.222   4.469
 8538SOL    HW226514   5.771   1.066   4.476
 8539SOL     OW26515   0.058   3.226   1.898
 8539SOL    HW126516   0.068   3.143   1.952
 8539SOL    HW226517   7.021   3.210   1.822
 8540SOL     OW26518   4.357   7.013   7.001
 8540SOL    HW126519   4.402   0.056   6.943
 8540SOL    HW226520   4.327   0.030   0.061
 8541SOL     OW26521   3.235   0.560   5.332
 8541SOL    HW126522   3.194   0.649   5.353
 8541SOL    HW226523   3.188   0.488   5.384
 8542SOL     OW26524   1.998   4.528   6.902
 8542SOL    HW126525   2.055   4.519   6.821
 8542SOL    HW226526   1.992   4.439   6.948
 8543SOL     OW26527   2.437   1.996   6.346
 8543SOL    HW126528   2.473   1.980   6.438
 8543SOL    HW226529   2.365   2.065   6.350
 8544SOL     OW26530   5.286   3.986   5.386
 8544SOL    HW126531   5.317   4.008   5.478
 8544SOL    HW226532   5.199   3.936   5.392
 8545SOL     OW26533   3.165   0.772   6.484
 8545SOL    HW126534   3.175   0.715   6.402
 8545SOL    HW226535   3.212   0.859   6.469
 8546SOL     OW26536   5.579   0.192   1.334
 8546SOL    HW126537   5.645   0.194   1.410
 8546SOL    HW226538   5.567   0.284   1.298
 8547SOL     OW26539   6.024   6.425   5.332
 8547SOL    HW126540   5.968   6.369   5.394
 8547SOL    HW226541   6.018   6.521   5.359
 8548SOL     OW26542   0.403   3.185   5.748
 8548SOL    HW126543   0.318   3.225   5.715
 8548SOL    HW226544   0.480   3.227   5.699
 8549SOL     OW26545   1.958   0.558   2.926
 8549SOL    HW126546   1.873   0.542   2.976
 8549SOL    HW226547   1.944   0.540   2.829
 8550SOL     OW26548   6.703   4.213   6.381
 8550SOL    HW126549   6.613   4.253   6.362
 8550SOL    HW226550   6.704   4.177   6.475
 8551SOL     OW26551   1.937   1.274   6.511
 8551SOL    HW126552   1.969   1.342   6.446
 8551SOL    HW226553   1.899   1.196   6.462
 8552SOL     OW26554   2.524   1.921   2.894
 8552SOL    HW126555   2.603   1.888   2.841
 8552SOL    HW226556   2.537   1.897   2.990
 8553SOL     OW26557   5.122   3.367   6.891
 8553SOL    HW126558   5.081   3.298   6.831
 8553SOL    HW226559   5.119   3.334   6.986
 8554SOL     OW26560   1.377   0.691   0.621
 8554SOL    HW126561   1.361   0.592   0.613
 8554SOL    HW226562   1.337   0.724   0.706
 8555SOL     OW26563   4.821   1.427   4.140
 8555SOL    HW126564   4.893   1.488   4.173
 8555SOL    HW226565   4.795   1.455   4.047
 8556SOL     OW26566   1.909   6.249   0.580
 8556SOL    HW126567   1.817   6.288   0.587
 8556SOL    HW226568   1.904   6.163   0.529
 8557SOL     OW26569   0.266   0.625   0.588
 8557SOL    HW126570   0.324   0.665   0.517
 8557SOL    HW226571   0.259   0.526   0.574
 8558SOL     OW26572   2.760   5.627   4.163
 8558SOL    HW126573   2.709   5.709   4.137
 8558SOL    HW226574   2.805   5.642   4.251
 8559SOL     OW26575   1.284   5.574   2.728
 8559SOL    HW126576   1.347   5.520   2.784
 8559SOL    HW226577   1.192   5.569   2.766
 8560SOL     OW26578   3.035   4.230   1.749
 8560SOL    HW126579   3.051   4.142   1.794
 8560SOL    HW226580   3.005   4.297   1.817
 8561SOL     OW26581   4.381   6.728   2.233
 8561SOL    HW126582   4.430   6.815   2.239
 8561SOL    HW226583   4.297   6.734   2.286
 8562SOL     OW26584   4.827   1.760   6.733
 8562SOL    HW126585   4.763   1.684   6.720
 8562SOL    HW226586   4.907   1.729   6.784
 8563SOL     OW26587   2.465   4.839   2.198
 8563SOL    HW126588   2.561   4.818   2.216
 8563SOL    HW226589   2.449   4.835   2.099
 8564SOL     OW26590   4.705   0.190   6.749
 8564SOL    HW126591   4.736   0.278   6.784
 8564SOL    HW226592   4.608   0.178   6.769
 8565SOL     OW26593   2.177   5.183   1.096
 8565SOL    HW126594   2.136   5.224   1.178
 8565SOL    HW226595   2.111   5.185   1.021
 8566SOL     OW26596   3.267   0.822   2.746
 8566SOL    HW126597   3.293   0.919   2.739
 8566SOL    HW226598   3.315   0.770   2.676
 8567SOL     OW26599   2.367   2.601   1.629
 8567SOL    HW126600   2.459   2.634   1.611
 8567SOL    HW226601   2.364   2.502   1.615
 8568SOL     OW26602   6.641   0.559   6.573
 8568SOL    HW126603   6.700   0.626   6.617
 8568SOL    HW226604   6.557   0.604   6.542
 8569SOL     OW26605   4.539   2.338   6.016
 8569SOL    HW126606   4.634   2.322   5.989
 8569SOL    HW226607   4.498   2.406   5.955
 8570SOL     OW26608   1.470   2.544   3.585
 8570SOL    HW126609   1.492   2.625   3.530
 8570SOL    HW226610   1.554   2.507   3.625
 8571SOL     OW26611   1.708   0.640   2.749
 8571SOL    HW126612   1.716   0.545   2.718
 8571SOL    HW226613   1.775   0.697   2.702
 8572SOL     OW26614   2.986   4.229   5.732
 8572SOL    HW126615   2.947   4.156   5.678
 8572SOL    HW226616   2.941   4.316   5.709
 8573SOL     OW26617   3.802   5.991   0.811
 8573SOL    HW126618   3.846   5.906   0.840
 8573SOL    HW226619   3.762   5.979   0.720
 8574SOL     OW26620   5.391   0.691   4.941
 8574SOL    HW126621   5.408   0.594   4.958
 8574SOL    HW226622   5.330   0.701   4.863
 8575SOL     OW26623   2.964   6.608   3.317
 8575SOL    HW126624   3.011   6.530   3.276
 8575SOL    HW226625   2.925   6.665   3.245
 8576SOL     OW26626   0.947   5.028   3.380
 8576SOL    HW126627   0.999   5.008   3.462
 8576SOL    HW226628   1.009   5.039   3.302
 8577SOL     OW26629   1.590   1.589   0.471
 8577SOL    HW126630   1.586   1.640   0.385
 8577SOL    HW226631   1.528   1.631   0.538
 8578SOL     OW26632   0.188   6.942   5.790
 8578SOL    HW126633   0.118   6.982   5.849
 8578SOL    HW226634   0.161   6.951   5.695
 8579SOL     OW26635   3.262   6.421   2.935
 8579SOL    HW126636   3.325   6.347   2.959
 8579SOL    HW226637   3.228   6.408   2.842
 8580SOL     OW26638   2.502   0.733   1.556
 8580SOL    HW126639   2.468   0.641   1.578
 8580SOL    HW226640   2.523   0.782   1.641
 8581SOL     OW26641   3.067   4.476   1.509
 8581SOL    HW126642   3.148   4.476   1.451
 8581SOL    HW226643   3.090   4.511   1.600
 8582SOL     OW26644   3.976   4.321   5.778
 8582SOL    HW126645   3.921   4.359   5.703
 8582SOL    HW226646   3.923   4.325   5.863
 8583SOL     OW26647   4.426   0.627   2.734
 8583SOL    HW126648   4.448   0.555   2.800
 8583SOL    HW226649   4.444   0.716   2.775
 8584SOL     OW26650   6.622   1.429   4.345
 8584SOL    HW126651   6.629   1.522   4.382
 8584SOL    HW226652   6.695   1.415   4.278
 8585SOL     OW26653   5.393   2.203   2.502
 8585SOL    HW126654   5.313   2.262   2.515
 8585SOL    HW226655   5.399   2.175   2.406
 8586SOL     OW26656   5.991   5.607   1.300
 8586SOL    HW126657   6.084   5.593   1.265
 8586SOL    HW226658   5.994   5.669   1.379
 8587SOL     OW26659   1.369   1.526   6.749
 8587SOL    HW126660   1.464   1.548   6.771
 8587SOL    HW226661   1.367   1.461   6.674
 8588SOL     OW26662   2.583   1.385   6.921
 8588SOL    HW126663   2.600   1.472   6.875
 8588SOL    HW226664   2.562   1.315   6.853
 8589SOL     OW26665   6.550   2.895   6.372
 8589SOL    HW126666   6.582   2.902   6.277
 8589SOL    HW226667   6.506   2.981   6.398
 8590SOL     OW26668   1.303   1.387   3.407
 8590SOL    HW126669   1.303   1.479   3.449
 8590SOL    HW226670   1.220   1.376   3.352
 8591SOL     OW26671   6.540   4.256   6.820
 8591SOL    HW126672   6.474   4.276   6.748
 8591SOL    HW226673   6.496   4.199   6.890
 8592SOL     OW26674   1.387   1.462   5.967
 8592SOL    HW126675   1.450   1.385   5.974
 8592SOL    HW226676   1.413   1.532   6.034
 8593SOL     OW26677   3.748   1.472   6.708
 8593SOL    HW126678   3.657   1.431   6.701
 8593SOL    HW226679   3.815   1.401   6.732
 8594SOL     OW26680   6.280   2.869   5.683
 8594SOL    HW126681   6.300   2.784   5.635
 8594SOL    HW226682   6.365   2.909   5.717
 8595SOL     OW26683   6.121   6.085   1.960
 8595SOL    HW126684   6.204   6.070   1.907
 8595SOL    HW226685   6.129   6.041   2.050
 8596SOL     OW26686   1.027   1.185   3.762
 8596SOL    HW126687   0.941   1.217   3.801
 8596SOL    HW226688   1.008   1.120   3.688
 8597SOL     OW26689   5.912   3.060   0.112
 8597SOL    HW126690   5.892   3.149   0.071
 8597SOL    HW226691   5.939   2.995   0.040
 8598SOL     OW26692   6.136   6.936   4.144
 8598SOL    HW126693   6.141   6.918   4.243
 8598SOL    HW226694   6.174   6.859   4.094
 8599SOL     OW26695   0.392   3.292   3.736
 8599SOL    HW126696   0.360   3.211   3.785
 8599SOL    HW226697   0.466   3.266   3.675
 8600SOL     OW26698   4.003   1.982   1.525
 8600SOL    HW126699   3.943   2.055   1.558
 8600SOL    HW226700   4.078   1.969   1.590
 8601SOL     OW26701   1.037   6.763   3.105
 8601SOL    HW126702   0.962   6.829   3.110
 8601SOL    HW226703   1.012   6.680   3.155
 8602SOL     OW26704   2.168   6.695   5.084
 8602SOL    HW126705   2.157   6.651   5.173
 8602SOL    HW226706   2.186   6.793   5.098
 8603SOL     OW26707   6.925   0.574   0.812
 8603SOL    HW126708   7.015   0.608   0.839
 8603SOL    HW226709   6.933   0.483   0.774
 8604SOL     OW26710   0.535   4.160   6.456
 8604SOL    HW126711   0.552   4.231   6.387
 8604SOL    HW226712   0.438   4.137   6.458
 8605SOL     OW26713   6.819   5.389   4.515
 8605SOL    HW126714   6.881   5.320   4.479
 8605SOL    HW226715   6.868   5.449   4.578
 8606SOL     OW26716   1.676   2.586   0.106
 8606SOL    HW126717   1.656   2.497   0.147
 8606SOL    HW226718   1.774   2.592   0.086
 8607SOL     OW26719   2.437   4.248   1.529
 8607SOL    HW126720   2.358   4.194   1.560
 8607SOL    HW226721   2.449   4.327   1.589
 8608SOL     OW26722   2.160   5.344   3.034
 8608SOL    HW126723   2.119   5.255   3.053
 8608SOL    HW226724   2.180   5.390   3.121
 8609SOL     OW26725   4.640   1.179   3.989
 8609SOL    HW126726   4.636   1.140   3.897
 8609SOL    HW226727   4.729   1.160   4.030
 8610SOL     OW26728   0.667   6.392   2.878
 8610SOL    HW126729   0.571   6.412   2.899
 8610SOL    HW226730   0.678   6.379   2.780
 8611SOL     OW26731   2.709   1.441   4.521
 8611SOL    HW126732   2.630   1.479   4.475
 8611SOL    HW226733   2.679   1.377   4.592
 8612SOL     OW26734   3.873   3.727   3.693
 8612SOL    HW126735   3.901   3.823   3.691
 8612SOL    HW226736   3.945   3.670   3.654
 8613SOL     OW26737   3.443   2.713   1.488
 8613SOL    HW126738   3.394   2.657   1.420
 8613SOL    HW226739   3.407   2.693   1.579
 8614SOL     OW26740   1.460   2.392   3.134
 8614SOL    HW126741   1.419   2.426   3.049
 8614SOL    HW226742   1.551   2.431   3.144
 8615SOL     OW26743   4.412   1.307   3.895
 8615SOL    HW126744   4.422   1.400   3.931
 8615SOL    HW226745   4.493   1.254   3.920
 8616SOL     OW26746   4.702   4.270   2.908
 8616SOL    HW126747   4.629   4.202   2.913
 8616SOL    HW226748   4.671   4.356   2.947
 8617SOL     OW26749   3.848   6.872   3.540
 8617SOL    HW126750   3.847   6.774   3.562
 8617SOL    HW226751   3.854   6.883   3.441
 8618SOL     OW26752   5.572   4.502   0.766
 8618SOL    HW126753   5.577   4.541   0.858
 8618SOL    HW226754   5.480   4.464   0.751
 8619SOL     OW26755   5.177   4.549   0.797
 8619SOL    HW126756   5.231   4.633   0.810
 8619SOL    HW226757   5.143   4.518   0.886
 8620SOL     OW26758   1.964   7.009   4.553
 8620SOL    HW126759   1.886   0.015   4.606
 8620SOL    HW226760   2.038   0.051   4.557
 8621SOL     OW26761   5.122   2.740   1.750
 8621SOL    HW126762   5.095   2.791   1.832
 8621SOL    HW226763   5.170   2.656   1.777
 8622SOL     OW26764   6.527   4.720   2.768
 8622SOL    HW126765   6.510   4.701   2.864
 8622SOL    HW226766   6.620   4.693   2.743
 8623SOL     OW26767   0.358   3.440   4.481
 8623SOL    HW126768   0.310   3.363   4.523
 8623SOL    HW226769   0.344   3.438   4.382
 8624SOL     OW26770   2.894   4.030   5.575
 8624SOL    HW126771   2.925   3.939   5.602
 8624SOL    HW226772   2.856   4.026   5.483
 8625SOL     OW26773   3.885   2.354   5.687
 8625SOL    HW126774   3.812   2.364   5.619
 8625SOL    HW226775   3.923   2.261   5.682
 8626SOL     OW26776   4.196   4.169   0.732
 8626SOL    HW126777   4.196   4.204   0.638
 8626SOL    HW226778   4.113   4.115   0.747
 8627SOL     OW26779   1.918   0.444   2.257
 8627SOL    HW126780   1.872   0.512   2.314
 8627SOL    HW226781   2.015   0.441   2.281
 8628SOL     OW26782   0.955   6.333   0.776
 8628SOL    HW126783   0.901   6.415   0.794
 8628SOL    HW226784   0.919   6.257   0.830
 8629SOL     OW26785   6.748   6.904   4.570
 8629SOL    HW126786   6.808   6.904   4.650
 8629SOL    HW226787   6.802   6.926   4.488
 8630SOL     OW26788   5.097   3.003   2.410
 8630SOL    HW126789   5.058   2.976   2.323
 8630SOL    HW226790   5.125   2.921   2.461
 8631SOL     OW26791   3.076   6.789   0.002
 8631SOL    HW126792   3.010   6.757   0.070
 8631SOL    HW226793   3.163   6.740   0.016
 8632SOL     OW26794   5.144   4.975   5.891
 8632SOL    HW126795   5.132   5.058   5.836
 8632SOL    HW226796   5.223   4.986   5.950
 8633SOL     OW26797   5.601   3.818   6.503
 8633SOL    HW126798   5.561   3.828   6.593
 8633SOL    HW226799   5.701   3.812   6.511
 8634SOL     OW26800   4.758   3.854   0.194
 8634SOL    HW126801   4.681   3.802   0.158
 8634SOL    HW226802   4.836   3.793   0.208
 8635SOL     OW26803   5.675   2.283   6.361
 8635SOL    HW126804   5.604   2.292   6.432
 8635SOL    HW226805   5.705   2.374   6.332
 8636SOL     OW26806   5.248   6.321   1.214
 8636SOL    HW126807   5.248   6.316   1.115
 8636SOL    HW226808   5.341   6.337   1.246
 8637SOL     OW26809   1.515   1.815   7.022
 8637SOL    HW126810   1.584   1.759   6.976
 8637SOL    HW226811   1.523   1.910   6.992
 8638SOL     OW26812   4.909   2.435   4.737
 8638SOL    HW126813   4.871   2.435   4.829
 8638SOL    HW226814   4.947   2.345   4.716
 8639SOL     OW26815   3.378   3.906   6.601
 8639SOL    HW126816   3.433   3.853   6.537
 8639SOL    HW226817   3.425   3.909   6.690
 8640SOL     OW26818   2.410   3.600   1.299
 8640SOL    HW126819   2.390   3.683   1.352
 8640SOL    HW226820   2.503   3.569   1.319
 8641SOL     OW26821   4.302   6.035   2.357
 8641SOL    HW126822   4.312   5.947   2.404
 8641SOL    HW226823   4.364   6.037   2.278
 8642SOL     OW26824   0.695   5.806   3.750
 8642SOL    HW126825   0.772   5.824   3.811
 8642SOL    HW226826   0.703   5.713   3.713
 8643SOL     OW26827   4.224   6.438   0.962
 8643SOL    HW126828   4.182   6.428   0.871
 8643SOL    HW226829   4.287   6.516   0.960
 8644SOL     OW26830   6.174   1.690   0.106
 8644SOL    HW126831   6.169   1.763   0.174
 8644SOL    HW226832   6.263   1.645   0.113
 8645SOL     OW26833   6.013   3.556   2.442
 8645SOL    HW126834   6.052   3.646   2.460
 8645SOL    HW226835   6.085   3.495   2.408
 8646SOL     OW26836   0.323   2.040   5.175
 8646SOL    HW126837   0.323   2.034   5.275
 8646SOL    HW226838   0.416   2.054   5.143
 8647SOL     OW26839   2.487   5.172   2.060
 8647SOL    HW126840   2.547   5.164   1.981
 8647SOL    HW226841   2.474   5.083   2.102
 8648SOL     OW26842   4.919   5.555   0.417
 8648SOL    HW126843   4.842   5.495   0.437
 8648SOL    HW226844   4.887   5.638   0.371
 8649SOL     OW26845   3.994   0.233   1.065
 8649SOL    HW126846   3.909   0.286   1.062
 8649SOL    HW226847   4.069   0.289   1.032
 8650SOL     OW26848   1.697   6.803   4.819
 8650SOL    HW126849   1.656   6.893   4.828
 8650SOL    HW226850   1.739   6.776   4.906
 8651SOL     OW26851   3.700   2.032   0.736
 8651SOL    HW126852   3.799   2.037   0.734
 8651SOL    HW226853   3.665   2.086   0.813
 8652SOL     OW26854   1.074   3.325   3.472
 8652SOL    HW126855   1.054   3.346   3.377
 8652SOL    HW226856   1.146   3.386   3.506
 8653SOL     OW26857   0.116   1.444   5.962
 8653SOL    HW126858   0.211   1.458   5.991
 8653SOL    HW226859   0.077   1.532   5.934
 8654SOL     OW26860   0.698   4.412   2.062
 8654SOL    HW126861   0.734   4.457   1.980
 8654SOL    HW226862   0.747   4.447   2.142
 8655SOL     OW26863   0.741   0.320   5.201
 8655SOL    HW126864   0.814   0.308   5.269
 8655SOL    HW226865   0.770   0.389   5.134
 8656SOL     OW26866   4.637   6.991   0.931
 8656SOL    HW126867   4.548   6.962   0.897
 8656SOL    HW226868   4.703   6.916   0.921
 8657SOL     OW26869   4.780   1.812   2.925
 8657SOL    HW126870   4.691   1.824   2.880
 8657SOL    HW226871   4.839   1.758   2.866
 8658SOL     OW26872   6.955   4.787   0.757
 8658SOL    HW126873   6.932   4.866   0.813
 8658SOL    HW226874   6.987   4.713   0.817
 8659SOL     OW26875   4.533   1.094   2.103
 8659SOL    HW126876   4.517   1.186   2.066
 8659SOL    HW226877   4.572   1.036   2.032
 8660SOL     OW26878   6.221   3.796   1.345
 8660SOL    HW126879   6.228   3.867   1.415
 8660SOL    HW226880   6.140   3.739   1.362
 8661SOL     OW26881   6.655   3.515   2.932
 8661SOL    HW126882   6.679   3.610   2.912
 8661SOL    HW226883   6.731   3.470   2.979
 8662SOL     OW26884   2.603   4.877   3.342
 8662SOL    HW126885   2.616   4.780   3.324
 8662SOL    HW226886   2.668   4.907   3.412
 8663SOL     OW26887   3.629   5.565   2.997
 8663SOL    HW126888   3.587   5.649   3.031
 8663SOL    HW226889   3.720   5.585   2.961
 8664SOL     OW26890   3.007   5.760   3.976
 8664SOL    HW126891   3.098   5.720   3.973
 8664SOL    HW226892   2.942   5.699   3.930
 8665SOL     OW26893   5.212   3.152   6.609
 8665SOL    HW126894   5.286   3.118   6.668
 8665SOL    HW226895   5.252   3.189   6.525
 8666SOL     OW26896   4.657   6.512   2.389
 8666SOL    HW126897   4.624   6.522   2.295
 8666SOL    HW226898   4.733   6.574   2.404
 8667SOL     OW26899   5.087   2.134   3.807
 8667SOL    HW126900   5.110   2.231   3.801
 8667SOL    HW226901   5.034   2.108   3.726
 8668SOL     OW26902   4.832   2.803   5.361
 8668SOL    HW126903   4.865   2.711   5.341
 8668SOL    HW226904   4.737   2.811   5.331
 8669SOL     OW26905   6.029   6.300   5.820
 8669SOL    HW126906   6.096   6.336   5.885
 8669SOL    HW226907   6.042   6.202   5.810
 8670SOL     OW26908   5.984   4.366   5.926
 8670SOL    HW126909   5.897   4.366   5.877
 8670SOL    HW226910   6.059   4.370   5.860
 8671SOL     OW26911   6.986   1.876   2.694
 8671SOL    HW126912   6.930   1.959   2.697
 8671SOL    HW226913   0.018   1.878   2.612
 8672SOL     OW26914   0.643   1.001   3.374
 8672SOL    HW126915   0.723   0.958   3.333
 8672SOL    HW226916   0.661   1.021   3.471
 8673SOL     OW26917   0.672   1.274   1.177
 8673SOL    HW126918   0.604   1.347   1.173
 8673SOL    HW226919   0.624   1.186   1.188
 8674SOL     OW26920   6.486   4.748   3.737
 8674SOL    HW126921   6.393   4.782   3.727
 8674SOL    HW226922   6.525   4.732   3.646
 8675SOL     OW26923   3.278   1.934   5.769
 8675SOL    HW126924   3.302   1.920   5.865
 8675SOL    HW226925   3.179   1.920   5.757
 8676SOL     OW26926   5.539   1.214   0.663
 8676SOL    HW126927   5.539   1.116   0.682
 8676SOL    HW226928   5.630   1.241   0.629
 8677SOL     OW26929   1.625   6.519   5.999
 8677SOL    HW126930   1.633   6.571   6.084
 8677SOL    HW226931   1.529   6.508   5.975
 8678SOL     OW26932   1.650   1.255   0.988
 8678SOL    HW126933   1.669   1.175   1.045
 8678SOL    HW226934   1.734   1.282   0.941
 8679SOL     OW26935   2.131   1.245   4.550
 8679SOL    HW126936   2.172   1.163   4.511
 8679SOL    HW226937   2.032   1.240   4.541
 8680SOL     OW26938   6.497   1.801   6.438
 8680SOL    HW126939   6.448   1.715   6.424
 8680SOL    HW226940   6.435   1.878   6.419
 8681SOL     OW26941   5.685   5.808   2.181
 8681SOL    HW126942   5.630   5.821   2.098
 8681SOL    HW226943   5.762   5.747   2.160
 8682SOL     OW26944   1.037   0.857   1.196
 8682SOL    HW126945   0.965   0.927   1.199
 8682SOL    HW226946   1.036   0.812   1.107
 8683SOL     OW26947   1.969   4.318   4.469
 8683SOL    HW126948   2.037   4.249   4.443
 8683SOL    HW226949   2.009   4.409   4.461
 8684SOL     OW26950   1.036   3.911   5.178
 8684SOL    HW126951   1.030   3.930   5.276
 8684SOL    HW226952   1.020   3.996   5.126
 8685SOL     OW26953   4.978   2.553   5.311
 8685SOL    HW126954   4.996   2.483   5.381
 8685SOL    HW226955   4.914   2.516   5.243
 8686SOL     OW26956   0.110   5.379   2.807
 8686SOL    HW126957   0.077   5.468   2.837
 8686SOL    HW226958   0.047   5.308   2.839
 8687SOL     OW26959   5.794   3.035   4.699
 8687SOL    HW126960   5.737   3.031   4.780
 8687SOL    HW226961   5.777   3.122   4.651
 8688SOL     OW26962   0.893   4.287   6.309
 8688SOL    HW126963   0.838   4.351   6.363
 8688SOL    HW226964   0.847   4.198   6.305
 8689SOL     OW26965   4.625   3.889   6.856
 8689SOL    HW126966   4.554   3.916   6.791
 8689SOL    HW226967   4.698   3.958   6.856
 8690SOL     OW26968   1.682   2.446   3.741
 8690SOL    HW126969   1.671   2.354   3.703
 8690SOL    HW226970   1.774   2.456   3.778
 8691SOL     OW26971   2.993   2.532   5.357
 8691SOL    HW126972   3.086   2.515   5.322
 8691SOL    HW226973   2.992   2.518   5.456
 8692SOL     OW26974   3.992   1.856   5.614
 8692SOL    HW126975   4.092   1.863   5.615
 8692SOL    HW226976   3.959   1.873   5.521
 8693SOL     OW26977   6.767   0.023   6.153
 8693SOL    HW126978   6.693   0.003   6.087
 8693SOL    HW226979   6.727   0.048   6.241
 8694SOL     OW26980   5.916   3.208   4.215
 8694SOL    HW126981   5.821   3.227   4.242
 8694SOL    HW226982   5.927   3.228   4.118
 8695SOL     OW26983   3.796   4.299   6.002
 8695SOL    HW126984   3.853   4.221   6.028
 8695SOL    HW226985   3.830   4.381   6.048
 8696SOL     OW26986   3.580   5.898   6.505
 8696SOL    HW126987   3.601   5.800   6.508
 8696SOL    HW226988   3.481   5.910   6.504
 8697SOL     OW26989   1.496   3.523   5.806
 8697SOL    HW126990   1.531   3.472   5.885
 8697SOL    HW226991   1.529   3.480   5.722
 8698SOL     OW26992   5.886   5.885   5.493
 8698SOL    HW126993   5.978   5.859   5.465
 8698SOL    HW226994   5.832   5.802   5.510
 8699SOL     OW26995   1.827   3.328   0.026
 8699SOL    HW126996   1.885   3.305   6.974
 8699SOL    HW226997   1.869   3.297   0.111
 8700SOL     OW26998   0.855   0.057   4.946
 8700SOL    HW126999   0.760   0.034   4.967
 8700SOL    HW227000   0.915   0.020   5.017
 8701SOL     OW27001   0.890   2.823   0.026
 8701SOL    HW127002   0.939   2.748   7.007
 8701SOL    HW227003   0.906   2.819   0.125
 8702SOL     OW27004   5.713   4.415   1.533
 8702SOL    HW127005   5.638   4.431   1.596
 8702SOL    HW227006   5.797   4.396   1.584
 8703SOL     OW27007   2.729   4.925   1.467
 8703SOL    HW127008   2.796   4.931   1.393
 8703SOL    HW227009   2.732   4.833   1.507
 8704SOL     OW27010   0.424   1.594   4.107
 8704SOL    HW127011   0.510   1.544   4.118
 8704SOL    HW227012   0.352   1.547   4.158
 8705SOL     OW27013   4.049   2.857   0.327
 8705SOL    HW127014   4.128   2.805   0.295
 8705SOL    HW227015   3.986   2.872   0.252
 8706SOL     OW27016   4.653   3.539   6.540
 8706SOL    HW127017   4.560   3.530   6.505
 8706SOL    HW227018   4.680   3.635   6.540
 8707SOL     OW27019   2.132   1.991   4.656
 8707SOL    HW127020   2.167   2.043   4.735
 8707SOL    HW227021   2.158   1.895   4.665
 8708SOL     OW27022   6.062   2.239   1.811
 8708SOL    HW127023   6.039   2.196   1.899
 8708SOL    HW227024   6.012   2.193   1.737
 8709SOL     OW27025   6.872   0.324   5.491
 8709SOL    HW127026   6.969   0.309   5.477
 8709SOL    HW227027   6.837   0.259   5.559
 8710SOL     OW27028   2.281   1.203   3.500
 8710SOL    HW127029   2.324   1.288   3.472
 8710SOL    HW227030   2.320   1.127   3.448
 8711SOL     OW27031   1.970   0.371   1.810
 8711SOL    HW127032   1.968   0.405   1.716
 8711SOL    HW227033   1.956   0.448   1.873
 8712SOL     OW27034   1.858   2.906   5.844
 8712SOL    HW127035   1.927   2.940   5.780
 8712SOL    HW227036   1.807   2.983   5.883
 8713SOL     OW27037   0.318   4.908   2.136
 8713SOL    HW127038   0.328   4.982   2.069
 8713SOL    HW227039   0.263   4.941   2.213
 8714SOL     OW27040   0.048   6.147   6.978
 8714SOL    HW127041   6.980   6.181   6.967
 8714SOL    HW227042   0.108   6.193   6.913
 8715SOL     OW27043   2.135   3.298   1.215
 8715SOL    HW127044   2.139   3.396   1.194
 8715SOL    HW227045   2.123   3.247   1.130
 8716SOL     OW27046   6.604   6.690   1.867
 8716SOL    HW127047   6.531   6.733   1.814
 8716SOL    HW227048   6.587   6.592   1.873
 8717SOL     OW27049   2.581   4.409   1.030
 8717SOL    HW127050   2.629   4.325   1.003
 8717SOL    HW227051   2.582   4.473   0.953
 8718SOL     OW27052   2.554   4.571   6.782
 8718SOL    HW127053   2.646   4.586   6.745
 8718SOL    HW227054   2.544   4.622   6.867
 8719SOL     OW27055   3.920   0.400   5.502
 8719SOL    HW127056   4.014   0.364   5.497
 8719SOL    HW227057   3.918   0.482   5.559
 8720SOL     OW27058   6.527   4.661   5.208
 8720SOL    HW127059   6.435   4.674   5.171
 8720SOL    HW227060   6.567   4.579   5.167
 8721SOL     OW27061   0.502   6.783   6.266
 8721SOL    HW127062   0.463   6.729   6.341
 8721SOL    HW227063   0.429   6.835   6.221
 8722SOL     OW27064   4.074   1.164   1.333
 8722SOL    HW127065   4.174   1.170   1.340
 8722SOL    HW227066   4.033   1.195   1.419
 8723SOL     OW27067   4.488   6.977   2.341
 8723SOL    HW127068   4.454   6.922   2.417
 8723SOL    HW227069   4.586   6.992   2.352
 8724SOL     OW27070   4.012   1.047   4.927
 8724SOL    HW127071   4.108   1.065   4.905
 8724SOL    HW227072   3.990   0.952   4.903
 8725SOL     OW27073   0.129   6.357   3.428
 8725SOL    HW127074   0.136   6.318   3.519
 8725SOL    HW227075   0.202   6.320   3.370
 8726SOL     OW27076   0.579   0.990   1.027
 8726SOL    HW127077   0.678   0.984   1.016
 8726SOL    HW227078   0.546   1.071   0.978
 8727SOL     OW27079   4.577   4.936   6.259
 8727SOL    HW127080   4.624   4.936   6.347
 8727SOL    HW227081   4.620   5.002   6.198
 8728SOL     OW27082   6.740   0.422   3.508
 8728SOL    HW127083   6.817   0.456   3.563
 8728SOL    HW227084   6.754   0.447   3.412
 8729SOL     OW27085   3.705   6.294   6.667
 8729SOL    HW127086   3.614   6.260   6.691
 8729SOL    HW227087   3.759   6.307   6.751
 8730SOL     OW27088   4.548   5.022   2.086
 8730SOL    HW127089   4.520   5.003   1.992
 8730SOL    HW227090   4.626   5.084   2.085
 8731SOL     OW27091   1.058   1.351   3.278
 8731SOL    HW127092   1.003   1.385   3.353
 8731SOL    HW227093   1.013   1.272   3.235
 8732SOL     OW27094   5.343   6.499   0.574
 8732SOL    HW127095   5.291   6.430   0.523
 8732SOL    HW227096   5.413   6.539   0.515
 8733SOL     OW27097   6.757   5.171   1.688
 8733SOL    HW127098   6.719   5.084   1.658
 8733SOL    HW227099   6.797   5.161   1.779
 8734SOL     OW27100   0.066   3.724   2.419
 8734SOL    HW127101   0.084   3.710   2.322
 8734SOL    HW227102   0.152   3.716   2.470
 8735SOL     OW27103   1.536   3.787   5.706
 8735SOL    HW127104   1.533   3.709   5.768
 8735SOL    HW227105   1.597   3.767   5.630
 8736SOL     OW27106   1.207   5.777   2.995
 8736SOL    HW127107   1.241   5.871   2.991
 8736SOL    HW227108   1.173   5.758   3.087
 8737SOL     OW27109   1.910   6.013   6.766
 8737SOL    HW127110   1.861   6.079   6.710
 8737SOL    HW227111   1.939   6.057   6.851
 8738SOL     OW27112   1.112   3.032   3.696
 8738SOL    HW127113   1.082   2.937   3.702
 8738SOL    HW227114   1.133   3.054   3.601
 8739SOL     OW27115   5.512   4.260   5.260
 8739SOL    HW127116   5.594   4.314   5.279
 8739SOL    HW227117   5.436   4.294   5.317
 8740SOL     OW27118   3.144   1.119   4.831
 8740SOL    HW127119   3.092   1.034   4.832
 8740SOL    HW227120   3.084   1.195   4.858
 8741SOL     OW27121   0.993   0.080   2.763
 8741SOL    HW127122   1.083   0.123   2.758
 8741SOL    HW227123   0.939   0.122   2.836
 8742SOL     OW27124   2.966   1.910   2.889
 8742SOL    HW127125   2.936   1.895   2.795
 8742SOL    HW227126   3.004   2.002   2.898
 8743SOL     OW27127   0.780   1.796   1.467
 8743SOL    HW127128   0.690   1.762   1.495
 8743SOL    HW227129   0.827   1.725   1.414
 8744SOL     OW27130   3.214   4.494   6.787
 8744SOL    HW127131   3.281   4.420   6.774
 8744SOL    HW227132   3.258   4.571   6.834
 8745SOL     OW27133   6.011   1.548   5.990
 8745SOL    HW127134   6.105   1.578   5.973
 8745SOL    HW227135   6.009   1.449   6.002
 8746SOL     OW27136   4.430   4.759   4.444
 8746SOL    HW127137   4.438   4.856   4.425
 8746SOL    HW227138   4.361   4.744   4.515
 8747SOL     OW27139   0.426   1.052   1.622
 8747SOL    HW127140   0.523   1.028   1.627
 8747SOL    HW227141   0.383   1.034   1.710
 8748SOL     OW27142   0.580   2.113   3.845
 8748SOL    HW127143   0.572   2.015   3.826
 8748SOL    HW227144   0.677   2.138   3.846
 8749SOL     OW27145   2.904   1.245   4.966
 8749SOL    HW127146   2.932   1.276   5.057
 8749SOL    HW227147   2.846   1.165   4.974
 8750SOL     OW27148   3.960   3.012   6.360
 8750SOL    HW127149   3.995   3.083   6.300
 8750SOL    HW227150   3.890   2.959   6.312
 8751SOL     OW27151   1.128   5.703   1.868
 8751SOL    HW127152   1.190   5.704   1.946
 8751SOL    HW227153   1.077   5.789   1.865
 8752SOL     OW27154   5.442   3.777   6.729
 8752SOL    HW127155   5.404   3.685   6.739
 8752SOL    HW227156   5.397   3.839   6.793
 8753SOL     OW27157   2.747   2.626   0.003
 8753SOL    HW127158   2.733   2.724   7.019
 8753SOL    HW227159   2.676   2.576   6.980
 8754SOL     OW27160   2.599   5.397   0.581
 8754SOL    HW127161   2.613   5.491   0.612
 8754SOL    HW227162   2.633   5.333   0.650
 8755SOL     OW27163   6.769   2.544   2.640
 8755SOL    HW127164   6.865   2.539   2.668
 8755SOL    HW227165   6.759   2.506   2.548
 8756SOL     OW27166   1.759   1.730   2.687
 8756SOL    HW127167   1.741   1.701   2.593
 8756SOL    HW227168   1.742   1.829   2.695
 8757SOL     OW27169   5.305   6.721   5.322
 8757SOL    HW127170   5.392   6.676   5.338
 8757SOL    HW227171   5.320   6.809   5.277
 8758SOL     OW27172   3.011   6.467   4.671
 8758SOL    HW127173   3.015   6.506   4.763
 8758SOL    HW227174   2.959   6.382   4.673
 8759SOL     OW27175   5.582   0.924   0.704
 8759SOL    HW127176   5.642   0.891   0.631
 8759SOL    HW227177   5.628   0.914   0.792
 8760SOL     OW27178   2.573   2.546   4.210
 8760SOL    HW127179   2.550   2.604   4.288
 8760SOL    HW227180   2.577   2.450   4.239
 8761SOL     OW27181   4.585   0.585   2.025
 8761SOL    HW127182   4.578   0.520   2.100
 8761SOL    HW227183   4.637   0.665   2.054
 8762SOL     OW27184   1.254   4.811   2.916
 8762SOL    HW127185   1.181   4.755   2.954
 8762SOL    HW227186   1.313   4.843   2.990
 8763SOL     OW27187   0.731   1.194   6.512
 8763SOL    HW127188   0.647   1.141   6.497
 8763SOL    HW227189   0.746   1.254   6.434
 8764SOL     OW27190   3.037   4.757   5.767
 8764SOL    HW127191   3.120   4.704   5.780
 8764SOL    HW227192   3.014   4.805   5.852
 8765SOL     OW27193   5.116   0.724   5.029
 8765SOL    HW127194   5.098   0.704   4.933
 8765SOL    HW227195   5.193   0.669   5.061
 8766SOL     OW27196   4.911   5.265   5.318
 8766SOL    HW127197   4.833   5.321   5.290
 8766SOL    HW227198   4.984   5.272   5.250
 8767SOL     OW27199   3.066   0.985   4.086
 8767SOL    HW127200   2.979   0.936   4.078
 8767SOL    HW227201   3.060   1.071   4.035
 8768SOL     OW27202   6.414   2.207   6.906
 8768SOL    HW127203   6.424   2.132   6.840
 8768SOL    HW227204   6.401   2.293   6.857
 8769SOL     OW27205   6.400   0.705   0.634
 8769SOL    HW127206   6.478   0.763   0.610
 8769SOL    HW227207   6.320   0.735   0.583
 8770SOL     OW27208   4.683   4.004   1.106
 8770SOL    HW127209   4.678   3.920   1.160
 8770SOL    HW227210   4.611   4.004   1.037
 8771SOL     OW27211   0.474   3.748   0.460
 8771SOL    HW127212   0.379   3.767   0.487
 8771SOL    HW227213   0.481   3.750   0.360
 8772SOL     OW27214   5.781   6.592   4.000
 8772SOL    HW127215   5.691   6.631   3.980
 8772SOL    HW227216   5.834   6.656   4.054
 8773SOL     OW27217   0.111   1.486   3.664
 8773SOL    HW127218   0.111   1.576   3.707
 8773SOL    HW227219   0.159   1.491   3.577
 8774SOL     OW27220   1.469   1.247   0.775
 8774SOL    HW127221   1.472   1.148   0.759
 8774SOL    HW227222   1.518   1.268   0.859
 8775SOL     OW27223   5.277   1.974   4.268
 8775SOL    HW127224   5.232   1.920   4.198
 8775SOL    HW227225   5.270   2.071   4.245
 8776SOL     OW27226   4.111   3.059   0.549
 8776SOL    HW127227   4.077   2.979   0.598
 8776SOL    HW227228   4.038   3.099   0.494
 8777SOL     OW27229   0.724   2.425   3.547
 8777SOL    HW127230   0.820   2.407   3.526
 8777SOL    HW227231   0.687   2.490   3.481
 8778SOL     OW27232   4.005   5.063   6.832
 8778SOL    HW127233   4.017   5.092   6.737
 8778SOL    HW227234   3.993   5.143   6.891
 8779SOL     OW27235   3.767   4.867   3.500
 8779SOL    HW127236   3.807   4.840   3.412
 8779SOL    HW227237   3.840   4.880   3.567
 8780SOL     OW27238   5.701   5.169   3.871
 8780SOL    HW127239   5.795   5.201   3.884
 8780SOL    HW227240   5.688   5.137   3.778
 8781SOL     OW27241   3.401   6.980   1.906
 8781SOL    HW127242   3.475   6.945   1.849
 8781SOL    HW227243   3.328   7.014   1.848
 8782SOL     OW27244   5.322   1.314   1.940
 8782SOL    HW127245   5.345   1.300   1.844
 8782SOL    HW227246   5.382   1.258   1.998
 8783SOL     OW27247   4.934   3.299   5.014
 8783SOL    HW127248   4.926   3.342   5.103
 8783SOL    HW227249   4.975   3.363   4.949
 8784SOL     OW27250   5.445   0.028   0.607
 8784SOL    HW127251   5.366   6.993   0.615
 8784SOL    HW227252   5.486   0.018   0.517
 8785SOL     OW27253   0.680   5.185   6.395
 8785SOL    HW127254   0.707   5.099   6.437
 8785SOL    HW227255   0.584   5.203   6.415
 8786SOL     OW27256   4.433   1.932   2.003
 8786SOL    HW127257   4.345   1.976   1.986
 8786SOL    HW227258   4.501   1.969   1.939
 8787SOL     OW27259   3.472   6.697   1.219
 8787SOL    HW127260   3.441   6.752   1.297
 8787SOL    HW227261   3.532   6.752   1.161
 8788SOL     OW27262   0.580   0.463   4.252
 8788SOL    HW127263   0.607   0.415   4.336
 8788SOL    HW227264   0.491   0.507   4.266
 8789SOL     OW27265   6.950   3.076   5.158
 8789SOL    HW127266   6.965   3.012   5.234
 8789SOL    HW227267   6.870   3.047   5.106
 8790SOL     OW27268   5.626   3.034   6.396
 8790SOL    HW127269   5.663   3.035   6.489
 8790SOL    HW227270   5.594   2.942   6.375
 8791SOL     OW27271   3.761   5.172   5.921
 8791SOL    HW127272   3.748   5.233   5.843
 8791SOL    HW227273   3.792   5.224   6.000
 8792SOL     OW27274   5.404   4.922   1.087
 8792SOL    HW127275   5.366   4.998   1.141
 8792SOL    HW227276   5.419   4.843   1.145
 8793SOL     OW27277   6.950   5.209   4.344
 8793SOL    HW127278   0.021   5.205   4.317
 8793SOL    HW227279   6.893   5.174   4.269
 8794SOL     OW27280   0.452   0.584   2.063
 8794SOL    HW127281   0.387   0.649   2.105
 8794SOL    HW227282   0.523   0.561   2.130
 8795SOL     OW27283   1.536   5.430   6.384
 8795SOL    HW127284   1.476   5.458   6.459
 8795SOL    HW227285   1.627   5.408   6.421
 8796SOL     OW27286   6.754   4.031   3.156
 8796SOL    HW127287   6.743   3.934   3.136
 8796SOL    HW227288   6.775   4.081   3.072
 8797SOL     OW27289   4.811   6.784   4.134
 8797SOL    HW127290   4.883   6.732   4.181
 8797SOL    HW227291   4.852   6.858   4.081
 8798SOL     OW27292   3.690   6.012   5.794
 8798SOL    HW127293   3.704   6.020   5.696
 8798SOL    HW227294   3.748   6.078   5.842
 8799SOL     OW27295   1.564   5.285   2.090
 8799SOL    HW127296   1.658   5.258   2.108
 8799SOL    HW227297   1.510   5.204   2.066
 8800SOL     OW27298   6.788   5.536   6.061
 8800SOL    HW127299   6.754   5.592   6.137
 8800SOL    HW227300   6.718   5.470   6.034
 8801SOL     OW27301   6.017   2.844   5.200
 8801SOL    HW127302   6.083   2.858   5.274
 8801SOL    HW227303   6.055   2.880   5.115
 8802SOL     OW27304   1.120   6.540   6.348
 8802SOL    HW127305   1.143   6.495   6.262
 8802SOL    HW227306   1.075   6.475   6.409
 8803SOL     OW27307   6.290   0.074   6.431
 8803SOL    HW127308   6.278   0.148   6.365
 8803SOL    HW227309   6.238   7.019   6.402
 8804SOL     OW27310   1.553   6.289   2.728
 8804SOL    HW127311   1.632   6.306   2.668
 8804SOL    HW227312   1.546   6.363   2.795
 8805SOL     OW27313   4.894   5.032   3.209
 8805SOL    HW127314   4.803   4.998   3.186
 8805SOL    HW227315   4.887   5.096   3.285
 8806SOL     OW27316   2.021   0.643   0.801
 8806SOL    HW127317   2.115   0.664   0.828
 8806SOL    HW227318   2.021   0.605   0.709
 8807SOL     OW27319   4.884   2.427   1.745
 8807SOL    HW127320   4.852   2.522   1.742
 8807SOL    HW227321   4.956   2.414   1.677
 8808SOL     OW27322   2.268   2.493   0.701
 8808SOL    HW127323   2.217   2.565   0.749
 8808SOL    HW227324   2.237   2.487   0.607
 8809SOL     OW27325   0.540   3.907   2.841
 8809SOL    HW127326   0.506   3.971   2.772
 8809SOL    HW227327   0.531   3.814   2.807
 8810SOL     OW27328   0.740   0.764   6.152
 8810SOL    HW127329   0.677   0.808   6.087
 8810SOL    HW227330   0.762   0.672   6.120
 8811SOL     OW27331   3.620   5.389   2.635
 8811SOL    HW127332   3.539   5.424   2.588
 8811SOL    HW227333   3.689   5.461   2.640
 8812SOL     OW27334   5.188   1.534   6.332
 8812SOL    HW127335   5.199   1.560   6.428
 8812SOL    HW227336   5.273   1.494   6.299
 8813SOL     OW27337   2.509   4.602   3.679
 8813SOL    HW127338   2.484   4.681   3.623
 8813SOL    HW227339   2.458   4.522   3.649
 8814SOL     OW27340   5.245   6.519   6.295
 8814SOL    HW127341   5.299   6.581   6.352
 8814SOL    HW227342   5.298   6.490   6.216
 8815SOL     OW27343   5.938   1.693   6.977
 8815SOL    HW127344   5.888   1.613   7.009
 8815SOL    HW227345   6.018   1.709   0.009
 8816SOL     OW27346   0.735   6.397   4.759
 8816SOL    HW127347   0.799   6.401   4.682
 8816SOL    HW227348   0.697   6.488   4.776
 8817SOL     OW27349   1.496   3.007   3.570
 8817SOL    HW127350   1.413   3.000   3.626
 8817SOL    HW227351   1.502   2.927   3.510
 8818SOL     OW27352   1.540   7.001   4.529
 8818SOL    HW127353   1.465   6.981   4.466
 8818SOL    HW227354   1.627   6.992   4.480
 8819SOL     OW27355   5.543   3.996   6.281
 8819SOL    HW127356   5.554   3.942   6.197
 8819SOL    HW227357   5.569   3.940   6.360
 8820SOL     OW27358   3.135   0.405   4.595
 8820SOL    HW127359   3.093   0.434   4.509
 8820SOL    HW227360   3.103   0.464   4.669
 8821SOL     OW27361   0.288   4.348   6.817
 8821SOL    HW127362   0.270   4.446   6.829
 8821SOL    HW227363   0.293   4.303   6.906
 8822SOL     OW27364   6.478   6.843   4.113
 8822SOL    HW127365   6.395   6.792   4.090
 8822SOL    HW227366   6.467   6.938   4.085
 8823SOL     OW27367   4.284   0.995   2.606
 8823SOL    HW127368   4.349   1.048   2.660
 8823SOL    HW227369   4.311   0.997   2.509
 8824SOL     OW27370   2.311   1.134   2.231
 8824SOL    HW127371   2.324   1.079   2.313
 8824SOL    HW227372   2.285   1.227   2.256
 8825SOL     OW27373   7.019   5.989   0.184
 8825SOL    HW127374   0.026   5.997   0.278
 8825SOL    HW227375   0.038   6.059   0.128
 8826SOL     OW27376   1.118   3.550   0.622
 8826SOL    HW127377   1.213   3.574   0.606
 8826SOL    HW227378   1.111   3.457   0.658
 8827SOL     OW27379   3.942   6.366   2.229
 8827SOL    HW127380   3.877   6.294   2.204
 8827SOL    HW227381   4.035   6.329   2.225
 8828SOL     OW27382   3.476   3.374   6.308
 8828SOL    HW127383   3.480   3.318   6.390
 8828SOL    HW227384   3.405   3.444   6.319
 8829SOL     OW27385   0.029   1.398   2.306
 8829SOL    HW127386   0.098   1.462   2.341
 8829SOL    HW227387   6.976   1.396   2.367
 8830SOL     OW27388   2.972   1.192   3.896
 8830SOL    HW127389   3.010   1.138   3.821
 8830SOL    HW227390   2.891   1.241   3.865
 8831SOL     OW27391   0.365   2.375   2.354
 8831SOL    HW127392   0.339   2.464   2.317
 8831SOL    HW227393   0.292   2.309   2.336
 8832SOL     OW27394   5.719   1.058   4.113
 8832SOL    HW127395   5.721   1.020   4.206
 8832SOL    HW227396   5.796   1.021   4.061
 8833SOL     OW27397   3.444   2.783   1.124
 8833SOL    HW127398   3.432   2.738   1.036
 8833SOL    HW227399   3.372   2.754   1.187
 8834SOL     OW27400   5.250   3.316   5.522
 8834SOL    HW127401   5.245   3.216   5.529
 8834SOL    HW227402   5.188   3.358   5.589
 8835SOL     OW27403   6.568   0.858   5.883
 8835SOL    HW127404   6.640   0.837   5.818
 8835SOL    HW227405   6.608   0.898   5.966
 8836SOL     OW27406   4.285   1.613   0.979
 8836SOL    HW127407   4.304   1.691   0.920
 8836SOL    HW227408   4.250   1.646   1.067
 8837SOL     OW27409   5.472   6.983   1.440
 8837SOL    HW127410   5.516   0.025   1.381
 8837SOL    HW227411   5.492   6.891   1.406
 8838SOL     OW27412   0.216   3.792   2.889
 8838SOL    HW127413   0.313   3.769   2.881
 8838SOL    HW227414   0.185   3.770   2.982
 8839SOL     OW27415   4.711   5.821   3.182
 8839SOL    HW127416   4.625   5.841   3.230
 8839SOL    HW227417   4.745   5.732   3.210
 8840SOL     OW27418   6.987   1.073   1.124
 8840SOL    HW127419   6.919   1.007   1.093
 8840SOL    HW227420   0.036   1.078   1.057
 8841SOL     OW27421   2.894   1.294   1.321
 8841SOL    HW127422   2.887   1.233   1.400
 8841SOL    HW227423   2.989   1.296   1.289
 8842SOL     OW27424   3.748   3.478   4.303
 8842SOL    HW127425   3.657   3.504   4.336
 8842SOL    HW227426   3.738   3.425   4.218
 8843SOL     OW27427   2.943   4.613   6.902
 8843SOL    HW127428   3.024   4.606   6.843
 8843SOL    HW227429   2.875   4.671   6.858
 8844SOL     OW27430   4.362   1.631   5.144
 8844SOL    HW127431   4.429   1.584   5.086
 8844SOL    HW227432   4.377   1.606   5.240
 8845SOL     OW27433   0.439   4.677   2.111
 8845SOL    HW127434   0.524   4.712   2.151
 8845SOL    HW227435   0.373   4.751   2.104
 8846SOL     OW27436   5.485   4.681   4.032
 8846SOL    HW127437   5.480   4.781   4.040
 8846SOL    HW227438   5.549   4.646   4.101
 8847SOL     OW27439   2.163   2.031   3.110
 8847SOL    HW127440   2.228   2.023   3.034
 8847SOL    HW227441   2.167   2.123   3.148
 8848SOL     OW27442   3.934   1.808   0.920
 8848SOL    HW127443   3.893   1.721   0.892
 8848SOL    HW227444   3.883   1.846   0.996
 8849SOL     OW27445   2.516   5.231   4.789
 8849SOL    HW127446   2.483   5.311   4.738
 8849SOL    HW227447   2.443   5.163   4.793
 8850SOL     OW27448   3.349   1.491   1.569
 8850SOL    HW127449   3.297   1.540   1.639
 8850SOL    HW227450   3.286   1.440   1.510
 8851SOL     OW27451   0.091   4.954   2.917
 8851SOL    HW127452   0.111   4.856   2.913
 8851SOL    HW227453   0.158   4.999   2.977
 8852SOL     OW27454   5.215   3.005   5.785
 8852SOL    HW127455   5.277   2.944   5.735
 8852SOL    HW227456   5.263   3.090   5.805
 8853SOL     OW27457   4.590   1.170   5.612
 8853SOL    HW127458   4.666   1.119   5.652
 8853SOL    HW227459   4.584   1.260   5.654
 8854SOL     OW27460   1.544   1.937   6.526
 8854SOL    HW127461   1.580   2.030   6.527
 8854SOL    HW227462   1.614   1.874   6.560
 8855SOL     OW27463   6.296   4.953   6.463
 8855SOL    HW127464   6.331   4.897   6.538
 8855SOL    HW227465   6.221   4.905   6.418
 8856SOL     OW27466   5.945   1.005   4.724
 8856SOL    HW127467   5.961   1.104   4.729
 8856SOL    HW227468   5.882   0.978   4.796
 8857SOL     OW27469   6.755   2.224   3.844
 8857SOL    HW127470   6.766   2.164   3.765
 8857SOL    HW227471   6.658   2.236   3.864
 8858SOL     OW27472   0.429   3.208   7.002
 8858SOL    HW127473   0.335   3.235   6.984
 8858SOL    HW227474   0.478   3.196   6.916
 8859SOL     OW27475   2.082   5.742   5.881
 8859SOL    HW127476   1.991   5.745   5.840
 8859SOL    HW227477   2.151   5.758   5.810
 8860SOL     OW27478   1.439   1.940   2.718
 8860SOL    HW127479   1.516   1.931   2.781
 8860SOL    HW227480   1.439   2.031   2.677
 8861SOL     OW27481   3.836   3.387   0.018
 8861SOL    HW127482   3.839   3.314   6.976
 8861SOL    HW227483   3.923   3.389   0.068
 8862SOL     OW27484   5.750   1.870   4.596
 8862SOL    HW127485   5.673   1.845   4.538
 8862SOL    HW227486   5.836   1.846   4.551
 8863SOL     OW27487   2.061   5.609   5.459
 8863SOL    HW127488   2.096   5.671   5.389
 8863SOL    HW227489   2.130   5.599   5.531
 8864SOL     OW27490   1.236   2.612   6.796
 8864SOL    HW127491   1.319   2.560   6.816
 8864SOL    HW227492   1.248   2.662   6.710
 8865SOL     OW27493   3.094   2.308   6.151
 8865SOL    HW127494   3.119   2.367   6.074
 8865SOL    HW227495   3.171   2.301   6.214
 8866SOL     OW27496   3.421   6.311   4.744
 8866SOL    HW127497   3.375   6.338   4.829
 8866SOL    HW227498   3.432   6.391   4.685
 8867SOL     OW27499   6.954   3.211   3.555
 8867SOL    HW127500   6.989   3.133   3.606
 8867SOL    HW227501   6.868   3.241   3.595
 8868SOL     OW27502   3.980   4.089   6.731
 8868SOL    HW127503   3.911   4.061   6.798
 8868SOL    HW227504   4.038   4.011   6.708
 8869SOL     OW27505   5.272   2.788   3.620
 8869SOL    HW127506   5.362   2.748   3.603
 8869SOL    HW227507   5.268   2.878   3.578
 8870SOL     OW27508   3.781   1.084   0.457
 8870SOL    HW127509   3.717   1.051   0.388
 8870SOL    HW227510   3.803   1.011   0.521
 8871SOL     OW27511   2.653   2.123   3.816
 8871SOL    HW127512   2.694   2.214   3.821
 8871SOL    HW227513   2.579   2.123   3.747
 8872SOL     OW27514   1.476   3.954   4.283
 8872SOL    HW127515   1.469   4.020   4.207
 8872SOL    HW227516   1.396   3.893   4.281
 8873SOL     OW27517   0.307   5.286   4.569
 8873SOL    HW127518   0.365   5.345   4.625
 8873SOL    HW227519   0.265   5.341   4.497
 8874SOL     OW27520   3.147   0.666   0.453
 8874SOL    HW127521   3.102   0.636   0.538
 8874SOL    HW227522   3.085   0.725   0.401
 8875SOL     OW27523   2.190   2.552   4.349
 8875SOL    HW127524   2.211   2.459   4.380
 8875SOL    HW227525   2.263   2.613   4.376
 8876SOL     OW27526   0.837   0.503   4.988
 8876SOL    HW127527   0.762   0.534   4.930
 8876SOL    HW227528   0.865   0.577   5.049
 8877SOL     OW27529   2.691   0.025   4.972
 8877SOL    HW127530   2.706   7.024   5.067
 8877SOL    HW227531   2.593   0.042   4.958
 8878SOL     OW27532   6.689   4.121   6.644
 8878SOL    HW127533   6.748   4.049   6.679
 8878SOL    HW227534   6.638   4.162   6.720
 8879SOL     OW27535   5.126   6.384   5.801
 8879SOL    HW127536   5.218   6.377   5.838
 8879SOL    HW227537   5.130   6.387   5.701
 8880SOL     OW27538   6.715   5.211   5.240
 8880SOL    HW127539   6.617   5.203   5.259
 8880SOL    HW227540   6.729   5.248   5.148
 8881SOL     OW27541   6.486   1.146   0.951
 8881SOL    HW127542   6.542   1.125   1.031
 8881SOL    HW227543   6.486   1.244   0.934
 8882SOL     OW27544   5.598   1.715   6.605
 8882SOL    HW127545   5.590   1.659   6.523
 8882SOL    HW227546   5.508   1.749   6.630
 8883SOL     OW27547   6.715   1.116   5.329
 8883SOL    HW127548   6.626   1.072   5.317
 8883SOL    HW227549   6.729   1.137   5.426
 8884SOL     OW27550   6.652   0.540   6.118
 8884SOL    HW127551   6.713   0.617   6.138
 8884SOL    HW227552   6.573   0.573   6.066
 8885SOL     OW27553   5.407   3.506   1.883
 8885SOL    HW127554   5.436   3.539   1.793
 8885SOL    HW227555   5.432   3.573   1.953
 8886SOL     OW27556   2.897   0.022   6.258
 8886SOL    HW127557   2.949   6.975   6.303
 8886SOL    HW227558   2.935   0.038   6.167
 8887SOL     OW27559   2.499   1.383   0.639
 8887SOL    HW127560   2.576   1.377   0.703
 8887SOL    HW227561   2.534   1.389   0.545
 8888SOL     OW27562   3.340   1.703   2.399
 8888SOL    HW127563   3.403   1.699   2.477
 8888SOL    HW227564   3.280   1.782   2.410
 8889SOL     OW27565   3.751   6.407   4.835
 8889SOL    HW127566   3.733   6.469   4.759
 8889SOL    HW227567   3.751   6.312   4.801
 8890SOL     OW27568   1.308   5.231   4.464
 8890SOL    HW127569   1.307   5.267   4.557
 8890SOL    HW227570   1.219   5.247   4.421
 8891SOL     OW27571   4.452   3.095   6.291
 8891SOL    HW127572   4.512   3.017   6.269
 8891SOL    HW227573   4.380   3.101   6.222
 8892SOL     OW27574   1.784   6.910   2.693
 8892SOL    HW127575   1.864   6.970   2.700
 8892SOL    HW227576   1.810   6.825   2.648
 8893SOL     OW27577   0.427   1.662   1.348
 8893SOL    HW127578   0.457   1.702   1.434
 8893SOL    HW227579   0.411   1.735   1.281
 8894SOL     OW27580   4.296   2.749   6.507
 8894SOL    HW127581   4.330   2.720   6.417
 8894SOL    HW227582   4.322   2.845   6.522
 8895SOL     OW27583   0.798   6.997   1.979
 8895SOL    HW127584   0.832   7.020   2.071
 8895SOL    HW227585   0.871   6.954   1.926
 8896SOL     OW27586   1.789   3.903   4.990
 8896SOL    HW127587   1.750   3.995   4.989
 8896SOL    HW227588   1.887   3.909   5.006
 8897SOL     OW27589   1.314   2.575   1.732
 8897SOL    HW127590   1.265   2.579   1.645
 8897SOL    HW227591   1.397   2.520   1.720
 8898SOL     OW27592   5.280   3.604   4.334
 8898SOL    HW127593   5.338   3.531   4.297
 8898SOL    HW227594   5.226   3.644   4.261
 8899SOL     OW27595   1.587   4.551   0.152
 8899SOL    HW127596   1.630   4.462   0.167
 8899SOL    HW227597   1.657   4.622   0.146
 8900SOL     OW27598   5.515   2.073   3.963
 8900SOL    HW127599   5.579   2.030   3.900
 8900SOL    HW227600   5.537   2.170   3.973
 8901SOL     OW27601   1.940   0.459   2.684
 8901SOL    HW127602   2.028   0.413   2.677
 8901SOL    HW227603   1.892   0.454   2.596
 8902SOL     OW27604   1.547   5.172   6.569
 8902SOL    HW127605   1.451   5.198   6.574
 8902SOL    HW227606   1.601   5.228   6.632
 8903SOL     OW27607   2.109   1.629   3.570
 8903SOL    HW127608   2.089   1.632   3.668
 8903SOL    HW227609   2.028   1.598   3.520
 8904SOL     OW27610   1.151   6.212   3.459
 8904SOL    HW127611   1.202   6.276   3.402
 8904SOL    HW227612   1.053   6.235   3.455
 8905SOL     OW27613   2.636   3.864   5.325
 8905SOL    HW127614   2.559   3.912   5.282
 8905SOL    HW227615   2.628   3.868   5.424
 8906SOL     OW27616   6.239   6.221   5.376
 8906SOL    HW127617   6.223   6.189   5.469
 8906SOL    HW227618   6.183   6.303   5.359
 8907SOL     OW27619   3.233   2.869   5.720
 8907SOL    HW127620   3.298   2.828   5.656
 8907SOL    HW227621   3.234   2.969   5.709
 8908SOL     OW27622   0.928   2.747   1.652
 8908SOL    HW127623   1.010   2.789   1.612
 8908SOL    HW227624   0.853   2.813   1.652
 8909SOL     OW27625   2.200   0.755   6.609
 8909SOL    HW127626   2.245   0.666   6.603
 8909SOL    HW227627   2.101   0.743   6.599
 8910SOL     OW27628   3.049   3.730   6.741
 8910SOL    HW127629   2.975   3.796   6.756
 8910SOL    HW227630   3.128   3.777   6.702
 8911SOL     OW27631   4.025   2.210   4.099
 8911SOL    HW127632   4.114   2.245   4.070
 8911SOL    HW227633   3.988   2.150   4.027
 8912SOL     OW27634   4.582   2.761   5.863
 8912SOL    HW127635   4.610   2.745   5.957
 8912SOL    HW227636   4.622   2.847   5.831
 8913SOL     OW27637   5.393   4.218   1.306
 8913SOL    HW127638   5.401   4.310   1.345
 8913SOL    HW227639   5.298   4.200   1.283
 8914SOL     OW27640   3.346   1.874   4.900
 8914SOL    HW127641   3.418   1.862   4.833
 8914SOL    HW227642   3.357   1.962   4.946
 8915SOL     OW27643   1.548   4.358   2.205
 8915SOL    HW127644   1.586   4.342   2.296
 8915SOL    HW227645   1.545   4.457   2.187
 8916SOL     OW27646   6.955   3.259   2.716
 8916SOL    HW127647   7.025   3.299   2.776
 8916SOL    HW227648   6.866   3.296   2.741
 8917SOL     OW27649   6.088   5.919   6.761
 8917SOL    HW127650   6.119   5.957   6.673
 8917SOL    HW227651   6.162   5.926   6.828
 8918SOL     OW27652   5.560   5.312   6.547
 8918SOL    HW127653   5.610   5.231   6.517
 8918SOL    HW227654   5.512   5.353   6.469
 8919SOL     OW27655   3.058   5.129   0.905
 8919SOL    HW127656   3.148   5.106   0.943
 8919SOL    HW227657   3.006   5.180   0.973
 8920SOL     OW27658   6.137   5.777   5.460
 8920SOL    HW127659   6.190   5.817   5.535
 8920SOL    HW227660   6.192   5.776   5.377
 8921SOL     OW27661   1.934   0.268   3.883
 8921SOL    HW127662   1.942   0.194   3.950
 8921SOL    HW227663   1.838   0.296   3.875
 8922SOL     OW27664   0.360   4.237   0.043
 8922SOL    HW127665   0.334   4.146   0.010
 8922SOL    HW227666   0.423   4.227   0.120
 8923SOL     OW27667   2.087   4.295   6.119
 8923SOL    HW127668   2.029   4.285   6.038
 8923SOL    HW227669   2.178   4.258   6.100
 8924SOL     OW27670   2.610   5.307   5.518
 8924SOL    HW127671   2.632   5.210   5.517
 8924SOL    HW227672   2.611   5.341   5.612
 8925SOL     OW27673   0.037   0.118   2.078
 8925SOL    HW127674   0.133   0.120   2.106
 8925SOL    HW227675   7.008   0.173   2.142
 8926SOL     OW27676   5.325   2.535   0.669
 8926SOL    HW127677   5.375   2.517   0.753
 8926SOL    HW227678   5.339   2.630   0.641
 8927SOL     OW27679   2.392   2.253   4.641
 8927SOL    HW127680   2.456   2.187   4.601
 8927SOL    HW227681   2.352   2.214   4.724
 8928SOL     OW27682   0.953   6.518   5.304
 8928SOL    HW127683   1.019   6.513   5.379
 8928SOL    HW227684   0.956   6.609   5.263
 8929SOL     OW27685   5.926   3.751   3.393
 8929SOL    HW127686   5.959   3.672   3.341
 8929SOL    HW227687   5.833   3.734   3.424
 8930SOL     OW27688   1.063   5.435   4.925
 8930SOL    HW127689   1.117   5.360   4.962
 8930SOL    HW227690   1.123   5.500   4.879
 8931SOL     OW27691   4.444   1.161   0.364
 8931SOL    HW127692   4.380   1.228   0.325
 8931SOL    HW227693   4.459   1.181   0.461
 8932SOL     OW27694   6.972   0.154   6.518
 8932SOL    HW127695   6.907   0.229   6.531
 8932SOL    HW227696   6.922   0.072   6.488
 8933SOL     OW27697   1.558   0.594   4.880
 8933SOL    HW127698   1.587   0.663   4.947
 8933SOL    HW227699   1.493   0.532   4.923
 8934SOL     OW27700   3.157   6.118   2.920
 8934SOL    HW127701   3.241   6.105   2.867
 8934SOL    HW227702   3.107   6.032   2.924
 8935SOL     OW27703   4.955   2.362   3.616
 8935SOL    HW127704   4.902   2.317   3.544
 8935SOL    HW227705   5.013   2.433   3.577
 8936SOL     OW27706   1.233   5.348   2.262
 8936SOL    HW127707   1.332   5.339   2.246
 8936SOL    HW227708   1.217   5.417   2.333
 8937SOL     OW27709   5.052   0.032   4.237
 8937SOL    HW127710   5.066   0.074   4.326
 8937SOL    HW227711   4.968   0.068   4.195
 8938SOL     OW27712   6.222   1.323   1.041
 8938SOL    HW127713   6.227   1.234   0.995
 8938SOL    HW227714   6.313   1.347   1.076
 8939SOL     OW27715   0.318   3.118   3.926
 8939SOL    HW127716   0.236   3.108   3.983
 8939SOL    HW227717   0.389   3.055   3.958
 8940SOL     OW27718   6.558   2.852   0.994
 8940SOL    HW127719   6.558   2.868   1.093
 8940SOL    HW227720   6.632   2.788   0.970
 8941SOL     OW27721   4.387   2.656   1.668
 8941SOL    HW127722   4.307   2.716   1.682
 8941SOL    HW227723   4.469   2.712   1.656
 8942SOL     OW27724   5.892   4.752   4.424
 8942SOL    HW127725   5.987   4.745   4.454
 8942SOL    HW227726   5.841   4.673   4.458
 8943SOL     OW27727   4.981   4.194   0.408
 8943SOL    HW127728   5.022   4.121   0.463
 8943SOL    HW227729   4.958   4.158   0.318
 8944SOL     OW27730   5.590   6.017   4.874
 8944SOL    HW127731   5.535   5.934   4.876
 8944SOL    HW227732   5.677   5.999   4.828
 8945SOL     OW27733   5.663   4.190   5.607
 8945SOL    HW127734   5.667   4.126   5.683
 8945SOL    HW227735   5.571   4.228   5.600
 8946SOL     OW27736   5.731   1.267   4.909
 8946SOL    HW127737   5.780   1.308   4.832
 8946SOL    HW227738   5.712   1.171   4.888
 8947SOL     OW27739   1.692   5.650   7.019
 8947SOL    HW127740   1.636   5.706   0.053
 8947SOL    HW227741   1.699   5.693   6.929
 8948SOL     OW27742   6.746   0.567   2.603
 8948SOL    HW127743   6.761   0.479   2.558
 8948SOL    HW227744   6.691   0.553   2.686
 8949SOL     OW27745   3.485   6.297   0.738
 8949SOL    HW127746   3.496   6.381   0.791
 8949SOL    HW227747   3.565   6.284   0.680
 8950SOL     OW27748   4.567   4.132   0.561
 8950SOL    HW127749   4.526   4.049   0.523
 8950SOL    HW227750   4.554   4.133   0.660
 8951SOL     OW27751   2.065   1.576   4.448
 8951SOL    HW127752   2.023   1.540   4.365
 8951SOL    HW227753   2.163   1.561   4.446
 8952SOL     OW27754   1.952   3.679   3.548
 8952SOL    HW127755   2.021   3.649   3.614
 8952SOL    HW227756   1.983   3.762   3.503
 8953SOL     OW27757   1.128   4.888   2.045
 8953SOL    HW127758   1.173   4.908   1.958
 8953SOL    HW227759   1.115   4.974   2.096
 8954SOL     OW27760   1.854   4.935   5.748
 8954SOL    HW127761   1.889   5.026   5.771
 8954SOL    HW227762   1.911   4.895   5.675
 8955SOL     OW27763   5.696   2.739   4.154
 8955SOL    HW127764   5.628   2.667   4.167
 8955SOL    HW227765   5.726   2.774   4.243
 8956SOL     OW27766   0.766   5.561   6.338
 8956SOL    HW127767   0.666   5.565   6.344
 8956SOL    HW227768   0.793   5.545   6.243
 8957SOL     OW27769   0.870   6.268   3.459
 8957SOL    HW127770   0.822   6.204   3.399
 8957SOL    HW227771   0.823   6.274   3.547
 8958SOL     OW27772   1.642   3.793   5.446
 8958SOL    HW127773   1.709   3.840   5.389
 8958SOL    HW227774   1.626   3.701   5.411
 8959SOL     OW27775   0.041   2.810   2.835
 8959SOL    HW127776   0.117   2.874   2.826
 8959SOL    HW227777   0.048   2.762   2.922
 8960SOL     OW27778   5.072   4.413   3.513
 8960SOL    HW127779   4.985   4.448   3.549
 8960SOL    HW227780   5.124   4.373   3.587
 8961SOL     OW27781   2.409   0.393   5.455
 8961SOL    HW127782   2.365   0.456   5.391
 8961SOL    HW227783   2.343   0.322   5.481
 8962SOL     OW27784   0.471   5.721   1.866
 8962SOL    HW127785   0.394   5.780   1.890
 8962SOL    HW227786   0.466   5.699   1.768
 8963SOL     OW27787   4.675   6.503   4.514
 8963SOL    HW127788   4.732   6.566   4.567
 8963SOL    HW227789   4.717   6.489   4.424
 8964SOL     OW27790   0.553   3.160   4.309
 8964SOL    HW127791   0.530   3.222   4.234
 8964SOL    HW227792   0.586   3.213   4.387
 8965SOL     OW27793   3.940   5.553   0.017
 8965SOL    HW127794   4.010   5.535   0.086
 8965SOL    HW227795   3.958   5.497   6.962
 8966SOL     OW27796   5.167   5.003   5.480
 8966SOL    HW127797   5.199   4.916   5.517
 8966SOL    HW227798   5.105   5.047   5.546
 8967SOL     OW27799   2.726   0.294   3.790
 8967SOL    HW127800   2.750   0.266   3.883
 8967SOL    HW227801   2.701   0.214   3.736
 8968SOL     OW27802   4.127   4.984   2.204
 8968SOL    HW127803   4.218   4.946   2.222
 8968SOL    HW227804   4.090   4.943   2.121
 8969SOL     OW27805   0.387   1.029   2.739
 8969SOL    HW127806   0.413   1.055   2.832
 8969SOL    HW227807   0.432   1.089   2.674
 8970SOL     OW27808   1.828   0.684   4.782
 8970SOL    HW127809   1.820   0.782   4.762
 8970SOL    HW227810   1.737   0.644   4.790
 8971SOL     OW27811   4.217   5.375   0.436
 8971SOL    HW127812   4.264   5.457   0.468
 8971SOL    HW227813   4.212   5.309   0.511
 8972SOL     OW27814   6.234   4.256   0.381
 8972SOL    HW127815   6.309   4.195   0.354
 8972SOL    HW227816   6.169   4.264   0.306
 8973SOL     OW27817   1.141   3.065   3.422
 8973SOL    HW127818   1.117   3.162   3.418
 8973SOL    HW227819   1.222   3.049   3.364
 8974SOL     OW27820   2.299   4.209   4.754
 8974SOL    HW127821   2.353   4.168   4.828
 8974SOL    HW227822   2.255   4.136   4.701
 8975SOL     OW27823   6.972   6.266   6.099
 8975SOL    HW127824   0.040   6.243   6.070
 8975SOL    HW227825   6.907   6.207   6.051
 8976SOL     OW27826   6.803   6.602   1.638
 8976SOL    HW127827   6.743   6.657   1.696
 8976SOL    HW227828   6.829   6.518   1.687
 8977SOL     OW27829   6.596   5.341   6.017
 8977SOL    HW127830   6.505   5.374   5.995
 8977SOL    HW227831   6.594   5.241   6.025
 8978SOL     OW27832   5.571   5.780   6.488
 8978SOL    HW127833   5.491   5.824   6.449
 8978SOL    HW227834   5.545   5.728   6.569
 8979SOL     OW27835   1.096   5.118   5.625
 8979SOL    HW127836   1.096   5.066   5.710
 8979SOL    HW227837   1.078   5.214   5.644
 8980SOL     OW27838   3.550   0.622   5.421
 8980SOL    HW127839   3.453   0.619   5.446
 8980SOL    HW227840   3.587   0.712   5.443
 8981SOL     OW27841   4.106   3.121   0.168
 8981SOL    HW127842   4.066   3.048   0.224
 8981SOL    HW227843   4.205   3.110   0.165
 8982SOL     OW27844   0.594   1.615   1.574
 8982SOL    HW127845   0.508   1.565   1.587
 8982SOL    HW227846   0.666   1.551   1.548
 8983SOL     OW27847   1.027   6.822   1.942
 8983SOL    HW127848   1.106   6.875   1.912
 8983SOL    HW227849   1.050   6.772   2.025
 8984SOL     OW27850   6.102   0.704   3.785
 8984SOL    HW127851   6.044   0.671   3.859
 8984SOL    HW227852   6.069   0.669   3.698
 8985SOL     OW27853   4.652   2.630   0.876
 8985SOL    HW127854   4.598   2.696   0.824
 8985SOL    HW227855   4.622   2.629   0.971
 8986SOL     OW27856   0.205   5.472   0.120
 8986SOL    HW127857   0.195   5.569   0.145
 8986SOL    HW227858   0.215   5.465   0.021
 8987SOL     OW27859   2.099   0.744   1.715
 8987SOL    HW127860   2.165   0.670   1.703
 8987SOL    HW227861   2.027   0.715   1.778
 8988SOL     OW27862   1.673   5.538   1.621
 8988SOL    HW127863   1.739   5.578   1.684
 8988SOL    HW227864   1.699   5.443   1.602
 8989SOL     OW27865   5.486   1.135   2.066
 8989SOL    HW127866   5.447   1.113   2.156
 8989SOL    HW227867   5.586   1.131   2.072
 8990SOL     OW27868   3.622   0.477   1.542
 8990SOL    HW127869   3.710   0.512   1.510
 8990SOL    HW227870   3.610   0.383   1.510
 8991SOL     OW27871   2.179   2.475   0.436
 8991SOL    HW127872   2.160   2.379   0.413
 8991SOL    HW227873   2.099   2.531   0.417
 8992SOL     OW27874   0.453   4.144   0.386
 8992SOL    HW127875   0.475   4.214   0.317
 8992SOL    HW227876   0.382   4.084   0.350
 8993SOL     OW27877   6.127   3.776   4.355
 8993SOL    HW127878   6.121   3.678   4.337
 8993SOL    HW227879   6.104   3.794   4.450
 8994SOL     OW27880   0.978   5.394   3.304
 8994SOL    HW127881   1.048   5.348   3.249
 8994SOL    HW227882   0.901   5.419   3.245
 8995SOL     OW27883   2.080   3.955   4.989
 8995SOL    HW127884   2.153   4.022   4.999
 8995SOL    HW227885   2.100   3.895   4.912
 8996SOL     OW27886   1.177   3.948   2.018
 8996SOL    HW127887   1.250   3.937   2.086
 8996SOL    HW227888   1.192   4.033   1.968
 8997SOL     OW27889   4.663   1.753   5.321
 8997SOL    HW127890   4.639   1.659   5.296
 8997SOL    HW227891   4.599   1.786   5.391
 8998SOL     OW27892   1.326   2.988   6.495
 8998SOL    HW127893   1.275   3.036   6.423
 8998SOL    HW227894   1.404   2.941   6.454
 8999SOL     OW27895   6.453   1.130   4.037
 8999SOL    HW127896   6.418   1.073   3.963
 8999SOL    HW227897   6.507   1.074   4.100
 9000SOL     OW27898   3.329   4.136   0.808
 9000SOL    HW127899   3.282   4.066   0.754
 9000SOL    HW227900   3.331   4.222   0.758
 9001SOL     OW27901   1.687   4.614   3.565
 9001SOL    HW127902   1.590   4.589   3.573
 9001SOL    HW227903   1.700   4.708   3.599
 9002SOL     OW27904   5.090   4.642   5.318
 9002SOL    HW127905   5.116   4.618   5.225
 9002SOL    HW227906   5.157   4.604   5.383
 9003SOL     OW27907   5.784   2.523   6.292
 9003SOL    HW127908   5.712   2.578   6.250
 9003SOL    HW227909   5.871   2.542   6.245
 9004SOL     OW27910   4.561   6.549   1.041
 9004SOL    HW127911   4.615   6.519   0.963
 9004SOL    HW227912   4.545   6.472   1.103
 9005SOL     OW27913   5.082   1.704   2.777
 9005SOL    HW127914   5.059   1.632   2.843
 9005SOL    HW227915   5.145   1.668   2.709
 9006SOL     OW27916   1.115   5.842   1.296
 9006SOL    HW127917   1.073   5.932   1.287
 9006SOL    HW227918   1.146   5.829   1.390
 9007SOL     OW27919   2.363   6.586   4.446
 9007SOL    HW127920   2.281   6.603   4.500
 9007SOL    HW227921   2.435   6.547   4.504
 9008SOL     OW27922   6.325   4.538   2.405
 9008SOL    HW127923   6.368   4.452   2.432
 9008SOL    HW227924   6.300   4.535   2.308
 9009SOL     OW27925   3.567   6.608   0.745
 9009SOL    HW127926   3.642   6.545   0.765
 9009SOL    HW227927   3.585   6.696   0.789
 9010SOL     OW27928   1.221   6.349   4.857
 9010SOL    HW127929   1.184   6.407   4.930
 9010SOL    HW227930   1.219   6.399   4.770
 9011SOL     OW27931   4.438   1.829   1.445
 9011SOL    HW127932   4.365   1.816   1.378
 9011SOL    HW227933   4.492   1.909   1.420
 9012SOL     OW27934   6.927   5.856   1.489
 9012SOL    HW127935   6.846   5.914   1.479
 9012SOL    HW227936   6.994   5.879   1.419
 9013SOL     OW27937   5.766   5.478   3.514
 9013SOL    HW127938   5.761   5.497   3.612
 9013SOL    HW227939   5.702   5.537   3.465
 9014SOL     OW27940   2.918   1.124   1.599
 9014SOL    HW127941   2.965   1.198   1.646
 9014SOL    HW227942   2.946   1.036   1.638
 9015SOL     OW27943   0.565   0.937   5.602
 9015SOL    HW127944   0.580   1.023   5.652
 9015SOL    HW227945   0.586   0.860   5.662
 9016SOL     OW27946   6.504   6.092   6.525
 9016SOL    HW127947   6.547   6.181   6.511
 9016SOL    HW227948   6.567   6.031   6.574
 9017SOL     OW27949   6.823   2.984   3.235
 9017SOL    HW127950   6.871   2.926   3.300
 9017SOL    HW227951   6.831   2.945   3.143
 9018SOL     OW27952   3.585   2.505   5.316
 9018SOL    HW127953   3.509   2.567   5.298
 9018SOL    HW227954   3.550   2.414   5.338
 9019SOL     OW27955   2.141   0.036   1.284
 9019SOL    HW127956   2.052   0.023   1.329
 9019SOL    HW227957   2.128   0.034   1.185
 9020SOL     OW27958   0.765   4.963   3.159
 9020SOL    HW127959   0.786   5.017   3.241
 9020SOL    HW227960   0.827   4.885   3.155
 9021SOL     OW27961   6.595   5.703   5.173
 9021SOL    HW127962   6.609   5.654   5.087
 9021SOL    HW227963   6.606   5.801   5.159
 9022SOL     OW27964   3.301   0.475   0.261
 9022SOL    HW127965   3.204   0.465   0.284
 9022SOL    HW227966   3.309   0.511   0.168
 9023SOL     OW27967   3.365   3.252   3.224
 9023SOL    HW127968   3.389   3.178   3.162
 9023SOL    HW227969   3.282   3.298   3.192
 9024SOL     OW27970   2.006   6.800   0.326
 9024SOL    HW127971   1.954   6.795   0.411
 9024SOL    HW227972   2.040   6.893   0.313
 9025SOL     OW27973   5.957   4.820   0.686
 9025SOL    HW127974   6.046   4.818   0.641
 9025SOL    HW227975   5.969   4.806   0.785
 9026SOL     OW27976   3.306   2.905   4.972
 9026SOL    HW127977   3.241   2.914   5.048
 9026SOL    HW227978   3.312   2.809   4.944
 9027SOL     OW27979   1.927   3.023   3.670
 9027SOL    HW127980   1.893   3.096   3.611
 9027SOL    HW227981   2.014   3.050   3.710
 9028SOL     OW27982   2.921   4.971   4.636
 9028SOL    HW127983   2.863   4.910   4.582
 9028SOL    HW227984   2.915   4.946   4.733
 9029SOL     OW27985   5.036   5.973   2.851
 9029SOL    HW127986   5.083   5.886   2.867
 9029SOL    HW227987   4.944   5.969   2.889
 9030SOL     OW27988   2.742   1.376   1.619
 9030SOL    HW127989   2.829   1.330   1.635
 9030SOL    HW227990   2.678   1.350   1.692
 9031SOL     OW27991   2.505   6.645   6.219
 9031SOL    HW127992   2.547   6.686   6.300
 9031SOL    HW227993   2.476   6.552   6.241
 9032SOL     OW27994   1.840   1.492   1.854
 9032SOL    HW127995   1.900   1.546   1.795
 9032SOL    HW227996   1.892   1.455   1.930
 9033SOL     OW27997   1.566   4.001   2.747
 9033SOL    HW127998   1.501   3.947   2.694
 9033SOL    HW227999   1.570   3.965   2.841
 9034SOL     OW28000   3.006   6.707   6.100
 9034SOL    HW128001   2.926   6.749   6.057
 9034SOL    HW228002   3.020   6.615   6.063
 9035SOL     OW28003   6.865   1.413   4.475
 9035SOL    HW128004   6.889   1.316   4.475
 9035SOL    HW228005   6.793   1.430   4.408
 9036SOL     OW28006   1.655   1.830   5.191
 9036SOL    HW128007   1.752   1.854   5.187
 9036SOL    HW228008   1.644   1.732   5.175
 9037SOL     OW28009   2.024   3.915   6.548
 9037SOL    HW128010   1.950   3.944   6.609
 9037SOL    HW228011   2.064   3.830   6.583
 9038SOL     OW28012   5.103   6.420   5.535
 9038SOL    HW128013   5.161   6.361   5.478
 9038SOL    HW228014   5.099   6.511   5.495
 9039SOL     OW28015   2.193   5.569   6.054
 9039SOL    HW128016   2.284   5.603   6.076
 9039SOL    HW228017   2.154   5.623   5.980
 9040SOL     OW28018   2.079   1.422   2.682
 9040SOL    HW128019   2.007   1.353   2.691
 9040SOL    HW228020   2.137   1.400   2.603
 9041SOL     OW28021   2.146   3.152   0.083
 9041SOL    HW128022   2.206   3.232   0.088
 9041SOL    HW228023   2.079   3.156   0.158
 9042SOL     OW28024   3.051   4.880   3.700
 9042SOL    HW128025   3.083   4.885   3.794
 9042SOL    HW228026   3.128   4.888   3.637
 9043SOL     OW28027   0.317   2.431   5.716
 9043SOL    HW128028   0.411   2.466   5.712
 9043SOL    HW228029   0.255   2.496   5.671
 9044SOL     OW28030   6.203   5.843   0.478
 9044SOL    HW128031   6.229   5.900   0.556
 9044SOL    HW228032   6.118   5.795   0.499
 9045SOL     OW28033   2.978   6.502   4.172
 9045SOL    HW128034   2.879   6.511   4.176
 9045SOL    HW228035   3.013   6.470   4.260
 9046SOL     OW28036   3.473   3.929   4.779
 9046SOL    HW128037   3.390   3.873   4.785
 9046SOL    HW228038   3.456   4.017   4.823
 9047SOL     OW28039   1.074   5.053   4.674
 9047SOL    HW128040   1.104   4.988   4.604
 9047SOL    HW228041   1.143   5.060   4.746
 9048SOL     OW28042   0.606   3.279   4.565
 9048SOL    HW128043   0.510   3.304   4.571
 9048SOL    HW228044   0.655   3.315   4.645
 9049SOL     OW28045   5.383   5.469   6.405
 9049SOL    HW128046   5.381   5.562   6.368
 9049SOL    HW228047   5.379   5.403   6.329
 9050SOL     OW28048   0.215   4.901   6.223
 9050SOL    HW128049   0.232   4.974   6.289
 9050SOL    HW228050   0.300   4.853   6.204
 9051SOL     OW28051   5.185   6.275   6.433
 9051SOL    HW128052   5.254   6.244   6.498
 9051SOL    HW228053   5.210   6.365   6.399
 9052SOL     OW28054   1.911   4.947   4.795
 9052SOL    HW128055   1.950   4.912   4.710
 9052SOL    HW228056   1.838   4.886   4.826
 9053SOL     OW28057   3.129   2.215   3.804
 9053SOL    HW128058   3.104   2.312   3.812
 9053SOL    HW228059   3.205   2.195   3.866
 9054SOL     OW28060   2.968   0.708   1.474
 9054SOL    HW128061   2.877   0.734   1.443
 9054SOL    HW228062   3.008   0.643   1.409
 9055SOL     OW28063   1.289   2.369   3.727
 9055SOL    HW128064   1.300   2.403   3.821
 9055SOL    HW228065   1.311   2.441   3.662
 9056SOL     OW28066   5.160   0.697   3.142
 9056SOL    HW128067   5.174   0.646   3.227
 9056SOL    HW228068   5.105   0.778   3.161
 9057SOL     OW28069   5.340   5.403   5.726
 9057SOL    HW128070   5.407   5.372   5.794
 9057SOL    HW228071   5.386   5.417   5.639
 9058SOL     OW28072   1.539   3.092   4.274
 9058SOL    HW128073   1.474   3.168   4.270
 9058SOL    HW228074   1.495   3.013   4.318
 9059SOL     OW28075   0.568   1.364   2.400
 9059SOL    HW128076   0.648   1.424   2.391
 9059SOL    HW228077   0.487   1.412   2.368
 9060SOL     OW28078   0.835   4.331   1.514
 9060SOL    HW128079   0.804   4.421   1.482
 9060SOL    HW228080   0.775   4.260   1.476
 9061SOL     OW28081   5.674   4.757   1.917
 9061SOL    HW128082   5.705   4.662   1.922
 9061SOL    HW228083   5.668   4.795   2.010
 9062SOL     OW28084   0.434   5.714   3.531
 9062SOL    HW128085   0.459   5.617   3.531
 9062SOL    HW228086   0.481   5.761   3.606
 9063SOL     OW28087   3.980   1.194   1.590
 9063SOL    HW128088   3.889   1.224   1.616
 9063SOL    HW228089   3.991   1.097   1.612
 9064SOL     OW28090   0.563   4.941   3.524
 9064SOL    HW128091   0.621   4.860   3.513
 9064SOL    HW228092   0.507   4.954   3.442
 9065SOL     OW28093   2.364   5.214   5.717
 9065SOL    HW128094   2.322   5.145   5.777
 9065SOL    HW228095   2.454   5.238   5.752
 9066SOL     OW28096   4.989   4.900   5.303
 9066SOL    HW128097   5.054   4.955   5.356
 9066SOL    HW228098   5.000   4.804   5.327
 9067SOL     OW28099   6.948   6.986   4.096
 9067SOL    HW128100   6.973   6.902   4.047
 9067SOL    HW228101   7.018   0.030   4.081
 9068SOL     OW28102   4.771   6.679   4.692
 9068SOL    HW128103   4.783   6.761   4.636
 9068SOL    HW228104   4.789   6.702   4.788
 9069SOL     OW28105   5.224   1.927   1.566
 9069SOL    HW128106   5.188   1.888   1.651
 9069SOL    HW228107   5.205   1.865   1.490
 9070SOL     OW28108   1.587   1.723   5.865
 9070SOL    HW128109   1.630   1.812   5.877
 9070SOL    HW228110   1.611   1.664   5.942
 9071SOL     OW28111   5.081   1.907   5.398
 9071SOL    HW128112   5.056   1.940   5.489
 9071SOL    HW228113   5.173   1.867   5.400
 9072SOL     OW28114   4.825   1.154   2.841
 9072SOL    HW128115   4.914   1.110   2.835
 9072SOL    HW228116   4.771   1.131   2.760
 9073SOL     OW28117   4.421   1.285   6.214
 9073SOL    HW128118   4.513   1.255   6.192
 9073SOL    HW228119   4.424   1.377   6.252
 9074SOL     OW28120   1.960   6.882   1.818
 9074SOL    HW128121   2.041   6.826   1.833
 9074SOL    HW228122   1.883   6.823   1.793
 9075SOL     OW28123   6.492   0.042   1.438
 9075SOL    HW128124   6.525   0.116   1.495
 9075SOL    HW228125   6.569   7.025   1.389
 9076SOL     OW28126   6.681   0.624   1.975
 9076SOL    HW128127   6.584   0.602   1.977
 9076SOL    HW228128   6.695   0.707   1.921
 9077SOL     OW28129   6.694   1.353   6.304
 9077SOL    HW128130   6.757   1.310   6.369
 9077SOL    HW228131   6.622   1.287   6.280
 9078SOL     OW28132   5.430   5.890   0.053
 9078SOL    HW128133   5.484   5.837   0.118
 9078SOL    HW228134   5.391   5.829   7.009
 9079SOL     OW28135   0.980   0.629   6.503
 9079SOL    HW128136   1.042   0.708   6.499
 9079SOL    HW228137   0.949   0.615   6.597
 9080SOL     OW28138   6.132   3.407   1.281
 9080SOL    HW128139   6.133   3.457   1.195
 9080SOL    HW228140   6.046   3.356   1.288
 9081SOL     OW28141   3.698   2.067   0.449
 9081SOL    HW128142   3.792   2.097   0.431
 9081SOL    HW228143   3.698   2.001   0.524
 9082SOL     OW28144   2.949   5.672   5.759
 9082SOL    HW128145   2.974   5.758   5.713
 9082SOL    HW228146   2.993   5.669   5.849
 9083SOL     OW28147   4.320   4.966   7.002
 9083SOL    HW128148   4.333   5.051   6.951
 9083SOL    HW228149   4.250   4.911   6.957
 9084SOL     OW28150   0.752   2.956   5.727
 9084SOL    HW128151   0.733   3.015   5.648
 9084SOL    HW228152   0.666   2.919   5.762
 9085SOL     OW28153   2.503   5.373   6.667
 9085SOL    HW128154   2.549   5.284   6.670
 9085SOL    HW228155   2.415   5.367   6.714
 9086SOL     OW28156   6.686   4.335   0.271
 9086SOL    HW128157   6.697   4.273   0.193
 9086SOL    HW228158   6.640   4.287   0.346
 9087SOL     OW28159   5.934   1.334   1.724
 9087SOL    HW128160   5.935   1.271   1.802
 9087SOL    HW228161   5.889   1.290   1.646
 9088SOL     OW28162   6.721   0.035   0.562
 9088SOL    HW128163   6.703   6.967   0.531
 9088SOL    HW228164   6.786   0.079   0.500
 9089SOL     OW28165   4.835   6.004   4.042
 9089SOL    HW128166   4.777   5.972   3.968
 9089SOL    HW228167   4.918   6.046   4.004
 9090SOL     OW28168   5.926   6.354   4.821
 9090SOL    HW128169   5.887   6.434   4.775
 9090SOL    HW228170   5.980   6.383   4.900
 9091SOL     OW28171   2.259   1.953   1.287
 9091SOL    HW128172   2.285   1.892   1.362
 9091SOL    HW228173   2.278   1.908   1.199
 9092SOL     OW28174   1.125   6.556   5.527
 9092SOL    HW128175   1.074   6.629   5.571
 9092SOL    HW228176   1.084   6.468   5.550
 9093SOL     OW28177   1.557   5.257   0.388
 9093SOL    HW128178   1.607   5.224   0.308
 9093SOL    HW228179   1.458   5.252   0.370
 9094SOL     OW28180   0.263   5.925   1.939
 9094SOL    HW128181   0.322   5.989   1.988
 9094SOL    HW228182   0.255   5.953   1.843
 9095SOL     OW28183   4.106   3.493   6.483
 9095SOL    HW128184   4.011   3.522   6.474
 9095SOL    HW228185   4.111   3.411   6.541
 9096SOL     OW28186   5.791   2.660   2.845
 9096SOL    HW128187   5.710   2.626   2.799
 9096SOL    HW228188   5.805   2.757   2.821
 9097SOL     OW28189   1.564   3.635   6.744
 9097SOL    HW128190   1.586   3.718   6.795
 9097SOL    HW228191   1.548   3.560   6.808
 9098SOL     OW28192   3.869   3.737   1.849
 9098SOL    HW128193   3.792   3.675   1.859
 9098SOL    HW228194   3.896   3.742   1.753
 9099SOL     OW28195   2.486   3.099   1.046
 9099SOL    HW128196   2.459   3.143   1.131
 9099SOL    HW228197   2.585   3.081   1.047
 9100SOL     OW28198   0.694   3.234   0.998
 9100SOL    HW128199   0.641   3.161   0.954
 9100SOL    HW228200   0.754   3.277   0.931
 9101SOL     OW28201   1.668   2.743   2.574
 9101SOL    HW128202   1.678   2.837   2.606
 9101SOL    HW228203   1.711   2.733   2.485
 9102SOL     OW28204   4.176   5.468   2.137
 9102SOL    HW128205   4.179   5.369   2.135
 9102SOL    HW228206   4.102   5.498   2.197
 9103SOL     OW28207   6.961   4.024   0.583
 9103SOL    HW128208   6.917   4.113   0.570
 9103SOL    HW228209   6.941   3.966   0.504
 9104SOL     OW28210   4.766   6.551   1.311
 9104SOL    HW128211   4.678   6.593   1.331
 9104SOL    HW228212   4.752   6.470   1.254
 9105SOL     OW28213   1.536   1.236   6.317
 9105SOL    HW128214   1.495   1.173   6.384
 9105SOL    HW228215   1.528   1.196   6.226
 9106SOL     OW28216   5.838   5.222   0.177
 9106SOL    HW128217   5.769   5.257   0.114
 9106SOL    HW228218   5.848   5.123   0.163
 9107SOL     OW28219   3.105   0.169   0.968
 9107SOL    HW128220   3.124   0.219   0.883
 9107SOL    HW228221   3.185   0.175   1.028
 9108SOL     OW28222   4.755   4.607   5.662
 9108SOL    HW128223   4.777   4.658   5.579
 9108SOL    HW228224   4.745   4.670   5.739
 9109SOL     OW28225   2.813   2.381   3.545
 9109SOL    HW128226   2.790   2.433   3.463
 9109SOL    HW228227   2.877   2.308   3.521
 9110SOL     OW28228   2.047   4.606   3.595
 9110SOL    HW128229   1.951   4.580   3.588
 9110SOL    HW228230   2.062   4.658   3.679
 9111SOL     OW28231   4.130   4.441   1.399
 9111SOL    HW128232   4.189   4.374   1.354
 9111SOL    HW228233   4.137   4.429   1.498
 9112SOL     OW28234   1.026   4.485   2.696
 9112SOL    HW128235   1.123   4.509   2.695
 9112SOL    HW228236   1.009   4.413   2.628
 9113SOL     OW28237   5.229   0.278   0.353
 9113SOL    HW128238   5.292   0.353   0.331
 9113SOL    HW228239   5.135   0.308   0.340
 9114SOL     OW28240   2.164   4.410   2.133
 9114SOL    HW128241   2.145   4.318   2.099
 9114SOL    HW228242   2.259   4.416   2.163
 9115SOL     OW28243   1.699   5.099   4.071
 9115SOL    HW128244   1.601   5.086   4.087
 9115SOL    HW228245   1.713   5.154   3.989
 9116SOL     OW28246   6.773   1.570   6.874
 9116SOL    HW128247   6.867   1.596   6.850
 9116SOL    HW228248   6.716   1.574   6.793
 9117SOL     OW28249   6.242   2.854   6.247
 9117SOL    HW128250   6.332   2.837   6.208
 9117SOL    HW228251   6.228   2.952   6.258
 9118SOL     OW28252   6.390   0.113   1.193
 9118SOL    HW128253   6.409   0.076   1.284
 9118SOL    HW228254   6.333   0.049   1.142
 9119SOL     OW28255   5.945   0.597   1.891
 9119SOL    HW128256   5.942   0.686   1.846
 9119SOL    HW228257   6.033   0.553   1.871
 9120SOL     OW28258   5.585   1.736   5.634
 9120SOL    HW128259   5.621   1.797   5.705
 9120SOL    HW228260   5.541   1.791   5.563
 9121SOL     OW28261   0.511   2.666   5.517
 9121SOL    HW128262   0.518   2.761   5.547
 9121SOL    HW228263   0.581   2.647   5.449
 9122SOL     OW28264   1.305   3.238   2.670
 9122SOL    HW128265   1.343   3.325   2.702
 9122SOL    HW228266   1.243   3.201   2.739
 9123SOL     OW28267   2.918   6.099   5.490
 9123SOL    HW128268   2.962   6.138   5.409
 9123SOL    HW228269   2.822   6.080   5.469
 9124SOL     OW28270   6.498   6.114   5.428
 9124SOL    HW128271   6.545   6.056   5.360
 9124SOL    HW228272   6.403   6.125   5.401
 9125SOL     OW28273   4.529   4.436   3.633
 9125SOL    HW128274   4.554   4.411   3.539
 9125SOL    HW228275   4.542   4.357   3.693
 9126SOL     OW28276   6.130   1.110   1.657
 9126SOL    HW128277   6.084   1.181   1.604
 9126SOL    HW228278   6.121   1.022   1.610
 9127SOL     OW28279   5.605   0.162   6.209
 9127SOL    HW128280   5.556   0.172   6.295
 9127SOL    HW228281   5.683   0.101   6.221
 9128SOL     OW28282   3.664   1.124   5.265
 9128SOL    HW128283   3.647   1.141   5.362
 9128SOL    HW228284   3.684   1.211   5.219
 9129SOL     OW28285   1.841   2.745   6.709
 9129SOL    HW128286   1.751   2.708   6.730
 9129SOL    HW228287   1.875   2.798   6.786
 9130SOL     OW28288   6.802   4.598   0.086
 9130SOL    HW128289   6.739   4.532   0.127
 9130SOL    HW228290   6.750   4.667   0.035
 9131SOL     OW28291   0.473   4.366   4.828
 9131SOL    HW128292   0.528   4.319   4.897
 9131SOL    HW228293   0.448   4.457   4.862
 9132SOL     OW28294   6.475   3.875   3.873
 9132SOL    HW128295   6.377   3.854   3.881
 9132SOL    HW228296   6.495   3.958   3.924
 9133SOL     OW28297   2.388   4.563   0.638
 9133SOL    HW128298   2.298   4.560   0.683
 9133SOL    HW228299   2.443   4.486   0.670
 9134SOL     OW28300   3.519   6.138   0.072
 9134SOL    HW128301   3.606   6.181   0.094
 9134SOL    HW228302   3.460   6.138   0.153
 9135SOL     OW28303   0.154   7.012   2.351
 9135SOL    HW128304   0.184   0.056   2.416
 9135SOL    HW228305   0.078   0.021   2.297
 9136SOL     OW28306   5.365   5.335   5.442
 9136SOL    HW128307   5.410   5.258   5.487
 9136SOL    HW228308   5.377   5.328   5.343
 9137SOL     OW28309   5.123   1.269   1.275
 9137SOL    HW128310   5.200   1.332   1.277
 9137SOL    HW228311   5.037   1.320   1.276
 9138SOL     OW28312   6.029   5.302   6.235
 9138SOL    HW128313   6.115   5.255   6.254
 9138SOL    HW228314   5.974   5.306   6.319
 9139SOL     OW28315   3.024   1.510   5.890
 9139SOL    HW128316   3.117   1.545   5.892
 9139SOL    HW228317   2.972   1.559   5.819
 9140SOL     OW28318   6.557   2.605   3.107
 9140SOL    HW128319   6.583   2.602   3.011
 9140SOL    HW228320   6.462   2.573   3.117
 9141SOL     OW28321   5.222   0.035   6.391
 9141SOL    HW128322   5.163   0.071   6.463
 9141SOL    HW228323   5.172   6.991   6.338
 9142SOL     OW28324   0.426   3.272   5.377
 9142SOL    HW128325   0.401   3.278   5.281
 9142SOL    HW228326   0.469   3.184   5.395
 9143SOL     OW28327   4.392   3.480   0.260
 9143SOL    HW128328   4.441   3.411   0.208
 9143SOL    HW228329   4.423   3.479   0.355
 9144SOL     OW28330   1.992   6.037   6.412
 9144SOL    HW128331   1.962   6.018   6.318
 9144SOL    HW228332   2.040   5.957   6.448
 9145SOL     OW28333   0.290   5.059   0.651
 9145SOL    HW128334   0.264   4.966   0.676
 9145SOL    HW228335   0.221   5.124   0.684
 9146SOL     OW28336   5.007   2.499   1.432
 9146SOL    HW128337   5.043   2.517   1.341
 9146SOL    HW228338   4.941   2.570   1.457
 9147SOL     OW28339   5.173   6.707   4.346
 9147SOL    HW128340   5.241   6.633   4.350
 9147SOL    HW228341   5.151   6.737   4.439
 9148SOL     OW28342   6.324   6.415   2.088
 9148SOL    HW128343   6.384   6.344   2.049
 9148SOL    HW228344   6.230   6.381   2.090
 9149SOL     OW28345   4.811   2.680   3.909
 9149SOL    HW128346   4.878   2.728   3.852
 9149SOL    HW228347   4.847   2.590   3.934
 9150SOL     OW28348   4.386   6.283   3.197
 9150SOL    HW128349   4.425   6.373   3.219
 9150SOL    HW228350   4.287   6.287   3.209
 9151SOL     OW28351   1.376   3.933   2.554
 9151SOL    HW128352   1.402   4.026   2.527
 9151SOL    HW228353   1.276   3.924   2.550
 9152SOL     OW28354   2.569   5.831   4.116
 9152SOL    HW128355   2.498   5.810   4.183
 9152SOL    HW228356   2.541   5.911   4.063
 9153SOL     OW28357   1.718   2.782   0.314
 9153SOL    HW128358   1.673   2.744   0.394
 9153SOL    HW228359   1.678   2.743   0.231
 9154SOL     OW28360   2.765   6.180   6.631
 9154SOL    HW128361   2.719   6.203   6.545
 9154SOL    HW228362   2.720   6.227   6.707
 9155SOL     OW28363   2.290   3.807   0.102
 9155SOL    HW128364   2.325   3.897   0.076
 9155SOL    HW228365   2.310   3.742   0.029
 9156SOL     OW28366   2.913   2.781   1.311
 9156SOL    HW128367   2.825   2.791   1.358
 9156SOL    HW228368   2.902   2.715   1.236
 9157SOL     OW28369   5.690   4.754   5.795
 9157SOL    HW128370   5.771   4.718   5.842
 9157SOL    HW228371   5.693   4.725   5.699
 9158SOL     OW28372   6.800   3.308   4.438
 9158SOL    HW128373   6.741   3.385   4.461
 9158SOL    HW228374   6.877   3.305   4.502
 9159SOL     OW28375   0.276   6.267   3.009
 9159SOL    HW128376   0.263   6.337   3.080
 9159SOL    HW228377   0.298   6.180   3.053
 9160SOL     OW28378   6.850   6.896   4.815
 9160SOL    HW128379   6.949   6.909   4.817
 9160SOL    HW228380   6.820   6.859   4.903
 9161SOL     OW28381   4.829   4.016   4.773
 9161SOL    HW128382   4.732   3.994   4.783
 9161SOL    HW228383   4.871   4.023   4.864
 9162SOL     OW28384   5.244   2.164   3.517
 9162SOL    HW128385   5.287   2.119   3.438
 9162SOL    HW228386   5.150   2.129   3.528
 9163SOL     OW28387   2.200   3.087   3.716
 9163SOL    HW128388   2.234   3.169   3.763
 9163SOL    HW228389   2.255   3.008   3.743
 9164SOL     OW28390   2.665   0.994   6.705
 9164SOL    HW128391   2.610   1.076   6.714
 9164SOL    HW228392   2.635   0.942   6.625
 9165SOL     OW28393   6.235   0.956   6.146
 9165SOL    HW128394   6.283   0.868   6.148
 9165SOL    HW228395   6.223   0.986   6.052
 9166SOL     OW28396   4.563   6.328   1.202
 9166SOL    HW128397   4.626   6.267   1.250
 9166SOL    HW228398   4.486   6.276   1.166
 9167SOL     OW28399   1.989   2.819   6.053
 9167SOL    HW128400   2.078   2.817   6.007
 9167SOL    HW228401   1.922   2.867   5.996
 9168SOL     OW28402   1.776   6.306   5.882
 9168SOL    HW128403   1.736   6.391   5.915
 9168SOL    HW228404   1.792   6.312   5.783
 9169SOL     OW28405   0.064   0.884   4.685
 9169SOL    HW128406   0.012   0.887   4.770
 9169SOL    HW228407   0.135   0.954   4.686
 9170SOL     OW28408   0.232   4.859   6.731
 9170SOL    HW128409   0.198   4.765   6.733
 9170SOL    HW228410   0.304   4.869   6.800
 9171SOL     OW28411   3.056   5.562   0.217
 9171SOL    HW128412   3.086   5.513   0.135
 9171SOL    HW228413   3.092   5.517   0.298
 9172SOL     OW28414   3.462   0.490   4.851
 9172SOL    HW128415   3.464   0.585   4.819
 9172SOL    HW228416   3.461   0.488   4.951
 9173SOL     OW28417   5.560   4.849   4.649
 9173SOL    HW128418   5.607   4.934   4.625
 9173SOL    HW228419   5.625   4.784   4.686
 9174SOL     OW28420   6.032   3.658   0.544
 9174SOL    HW128421   6.112   3.700   0.588
 9174SOL    HW228422   5.956   3.722   0.547
 9175SOL     OW28423   2.302   6.585   4.884
 9175SOL    HW128424   2.253   6.605   4.968
 9175SOL    HW228425   2.310   6.669   4.830
 9176SOL     OW28426   2.281   1.272   5.804
 9176SOL    HW128427   2.236   1.343   5.858
 9176SOL    HW228428   2.362   1.310   5.760
 9177SOL     OW28429   1.437   5.135   4.118
 9177SOL    HW128430   1.422   5.146   4.020
 9177SOL    HW228431   1.421   5.223   4.164
 9178SOL     OW28432   2.055   5.185   0.863
 9178SOL    HW128433   2.062   5.090   0.832
 9178SOL    HW228434   2.112   5.243   0.804
 9179SOL     OW28435   2.613   5.192   4.138
 9179SOL    HW128436   2.644   5.282   4.168
 9179SOL    HW228437   2.676   5.123   4.174
 9180SOL     OW28438   6.331   2.267   3.542
 9180SOL    HW128439   6.397   2.323   3.591
 9180SOL    HW228440   6.332   2.292   3.445
 9181SOL     OW28441   4.451   2.428   2.984
 9181SOL    HW128442   4.365   2.377   2.990
 9181SOL    HW228443   4.467   2.478   3.069
 9182SOL     OW28444   3.080   0.001   2.557
 9182SOL    HW128445   3.079   0.099   2.537
 9182SOL    HW228446   3.085   7.013   2.656
 9183SOL     OW28447   5.231   5.942   0.455
 9183SOL    HW128448   5.209   5.855   0.498
 9183SOL    HW228449   5.310   5.983   0.499
 9184SOL     OW28450   5.353   1.169   0.164
 9184SOL    HW128451   5.326   1.209   0.252
 9184SOL    HW228452   5.274   1.121   0.124
 9185SOL     OW28453   4.304   6.956   5.007
 9185SOL    HW128454   4.318   7.008   5.091
 9185SOL    HW228455   4.378   6.890   4.996
 9186SOL     OW28456   5.760   1.374   3.877
 9186SOL    HW128457   5.763   1.346   3.973
 9186SOL    HW228458   5.847   1.349   3.833
 9187SOL     OW28459   2.508   0.429   1.491
 9187SOL    HW128460   2.574   0.422   1.566
 9187SOL    HW228461   2.547   0.388   1.409
 9188SOL     OW28462   1.930   6.741   2.260
 9188SOL    HW128463   1.846   6.686   2.257
 9188SOL    HW228464   1.909   6.835   2.232
 9189SOL     OW28465   5.696   5.583   2.507
 9189SOL    HW128466   5.613   5.614   2.461
 9189SOL    HW228467   5.746   5.661   2.543
 9190SOL     OW28468   1.305   4.922   0.466
 9190SOL    HW128469   1.297   5.003   0.523
 9190SOL    HW228470   1.287   4.947   0.370
 9191SOL     OW28471   6.175   0.919   5.594
 9191SOL    HW128472   6.084   0.948   5.624
 9191SOL    HW228473   6.242   0.946   5.663
 9192SOL     OW28474   0.652   4.046   5.284
 9192SOL    HW128475   0.655   4.118   5.215
 9192SOL    HW228476   0.598   4.078   5.362
 9193SOL     OW28477   4.521   4.254   0.337
 9193SOL    HW128478   4.549   4.224   0.428
 9193SOL    HW228479   4.598   4.245   0.274
 9194SOL     OW28480   3.054   0.839   3.327
 9194SOL    HW128481   3.024   0.896   3.250
 9194SOL    HW228482   3.147   0.809   3.312
 9195SOL     OW28483   1.736   2.188   4.307
 9195SOL    HW128484   1.798   2.217   4.380
 9195SOL    HW228485   1.778   2.111   4.258
 9196SOL     OW28486   3.992   0.747   4.876
 9196SOL    HW128487   4.050   0.667   4.889
 9196SOL    HW228488   3.919   0.725   4.811
 9197SOL     OW28489   1.513   4.265   1.685
 9197SOL    HW128490   1.548   4.180   1.646
 9197SOL    HW228491   1.437   4.298   1.629
 9198SOL     OW28492   6.219   5.419   5.517
 9198SOL    HW128493   6.128   5.404   5.554
 9198SOL    HW228494   6.212   5.464   5.428
 9199SOL     OW28495   0.912   3.835   6.461
 9199SOL    HW128496   0.901   3.892   6.542
 9199SOL    HW228497   0.881   3.886   6.381
 9200SOL     OW28498   2.418   0.312   1.012
 9200SOL    HW128499   2.474   0.315   0.929
 9200SOL    HW228500   2.476   0.285   1.089
 9201SOL     OW28501   0.570   3.226   0.596
 9201SOL    HW128502   0.516   3.309   0.584
 9201SOL    HW228503   0.616   3.203   0.510
 9202SOL     OW28504   2.370   6.995   3.643
 9202SOL    HW128505   2.328   7.007   3.733
 9202SOL    HW228506   2.301   6.967   3.577
 9203SOL     OW28507   0.204   5.465   6.455
 9203SOL    HW128508   0.171   5.495   6.366
 9203SOL    HW228509   0.230   5.545   6.510
 9204SOL     OW28510   4.596   2.865   6.752
 9204SOL    HW128511   4.674   2.858   6.813
 9204SOL    HW228512   4.624   2.907   6.666
 9205SOL     OW28513   6.112   4.095   2.751
 9205SOL    HW128514   6.106   4.007   2.797
 9205SOL    HW228515   6.051   4.095   2.671
 9206SOL     OW28516   3.724   5.254   1.309
 9206SOL    HW128517   3.669   5.179   1.348
 9206SOL    HW228518   3.690   5.341   1.344
 9207SOL     OW28519   4.305   4.686   0.109
 9207SOL    HW128520   4.281   4.666   0.014
 9207SOL    HW228521   4.243   4.756   0.145
 9208SOL     OW28522   5.996   4.404   4.386
 9208SOL    HW128523   6.082   4.447   4.359
 9208SOL    HW228524   6.015   4.325   4.444
 9209SOL     OW28525   3.063   0.662   0.125
 9209SOL    HW128526   3.002   0.682   0.048
 9209SOL    HW228527   3.009   0.654   0.209
 9210SOL     OW28528   6.671   1.277   2.681
 9210SOL    HW128529   6.590   1.255   2.625
 9210SOL    HW228530   6.716   1.192   2.708
 9211SOL     OW28531   6.795   2.824   4.084
 9211SOL    HW128532   6.871   2.877   4.045
 9211SOL    HW228533   6.724   2.887   4.116
 9212SOL     OW28534   4.039   5.180   4.293
 9212SOL    HW128535   4.056   5.267   4.246
 9212SOL    HW228536   3.956   5.138   4.256
 9213SOL     OW28537   5.787   2.732   5.099
 9213SOL    HW128538   5.801   2.682   5.014
 9213SOL    HW228539   5.873   2.777   5.126
 9214SOL     OW28540   0.035   5.605   5.795
 9214SOL    HW128541   6.988   5.669   5.823
 9214SOL    HW228542   0.030   5.590   5.696
 9215SOL     OW28543   1.130   2.486   0.427
 9215SOL    HW128544   1.152   2.446   0.516
 9215SOL    HW228545   1.067   2.425   0.378
 9216SOL     OW28546   2.897   0.127   3.267
 9216SOL    HW128547   2.858   0.102   3.355
 9216SOL    HW228548   2.980   0.179   3.280
 9217SOL     OW28549   0.222   0.687   5.529
 9217SOL    HW128550   0.233   0.785   5.543
 9217SOL    HW228551   0.256   0.637   5.609
 9218SOL     OW28552   3.811   6.081   0.451
 9218SOL    HW128553   3.756   6.003   0.480
 9218SOL    HW228554   3.903   6.050   0.427
 9219SOL     OW28555   0.587   2.771   0.205
 9219SOL    HW128556   0.512   2.711   0.176
 9219SOL    HW228557   0.582   2.857   0.154
 9220SOL     OW28558   2.827   6.357   1.602
 9220SOL    HW128559   2.760   6.302   1.653
 9220SOL    HW228560   2.852   6.309   1.518
 9221SOL     OW28561   3.338   0.505   4.050
 9221SOL    HW128562   3.254   0.452   4.035
 9221SOL    HW228563   3.355   0.513   4.148
 9222SOL     OW28564   2.632   0.215   6.743
 9222SOL    HW128565   2.659   0.190   6.836
 9222SOL    HW228566   2.690   0.166   6.677
 9223SOL     OW28567   1.817   1.853   4.731
 9223SOL    HW128568   1.875   1.930   4.704
 9223SOL    HW228569   1.736   1.888   4.780
 9224SOL     OW28570   3.024   5.364   4.770
 9224SOL    HW128571   3.091   5.320   4.830
 9224SOL    HW228572   3.057   5.361   4.675
 9225SOL     OW28573   3.450   6.980   6.252
 9225SOL    HW128574   3.421   7.008   6.161
 9225SOL    HW228575   3.475   6.883   6.251
 9226SOL     OW28576   5.680   6.389   1.651
 9226SOL    HW128577   5.738   6.411   1.729
 9226SOL    HW228578   5.625   6.468   1.627
 9227SOL     OW28579   0.695   5.326   2.957
 9227SOL    HW128580   0.684   5.409   3.012
 9227SOL    HW228581   0.791   5.296   2.961
 9228SOL     OW28582   1.046   0.671   5.904
 9228SOL    HW128583   1.032   0.586   5.954
 9228SOL    HW228584   1.128   0.717   5.940
 9229SOL     OW28585   1.690   5.653   4.830
 9229SOL    HW128586   1.774   5.706   4.814
 9229SOL    HW228587   1.616   5.693   4.775
 9230SOL     OW28588   5.669   0.247   2.401
 9230SOL    HW128589   5.758   0.274   2.363
 9230SOL    HW228590   5.617   0.198   2.331
 9231SOL     OW28591   2.089   3.546   4.264
 9231SOL    HW128592   2.144   3.629   4.262
 9231SOL    HW228593   1.999   3.565   4.227
 9232SOL     OW28594   3.404   5.224   1.070
 9232SOL    HW128595   3.427   5.206   1.166
 9232SOL    HW228596   3.348   5.149   1.035
 9233SOL     OW28597   5.769   5.104   1.535
 9233SOL    HW128598   5.852   5.095   1.480
 9233SOL    HW228599   5.770   5.036   1.609
 9234SOL     OW28600   3.281   5.696   3.921
 9234SOL    HW128601   3.280   5.796   3.925
 9234SOL    HW228602   3.366   5.662   3.961
 9235SOL     OW28603   1.655   1.871   3.428
 9235SOL    HW128604   1.750   1.855   3.401
 9235SOL    HW228605   1.598   1.873   3.346
 9236SOL     OW28606   3.549   4.212   5.483
 9236SOL    HW128607   3.550   4.220   5.583
 9236SOL    HW228608   3.615   4.275   5.444
 9237SOL     OW28609   2.103   4.578   4.569
 9237SOL    HW128610   2.067   4.536   4.652
 9237SOL    HW228611   2.180   4.638   4.592
 9238SOL     OW28612   4.105   2.232   6.240
 9238SOL    HW128613   4.167   2.240   6.161
 9238SOL    HW228614   4.135   2.295   6.312
 9239SOL     OW28615   0.446   3.945   1.335
 9239SOL    HW128616   0.350   3.918   1.338
 9239SOL    HW228617   0.457   4.033   1.381
 9240SOL     OW28618   5.799   1.212   0.557
 9240SOL    HW128619   5.826   1.302   0.522
 9240SOL    HW228620   5.781   1.151   0.480
 9241SOL     OW28621   6.608   5.672   6.308
 9241SOL    HW128622   6.697   5.718   6.298
 9241SOL    HW228623   6.596   5.645   6.404
 9242SOL     OW28624   6.710   5.236   0.460
 9242SOL    HW128625   6.694   5.332   0.439
 9242SOL    HW228626   6.664   5.179   0.392
 9243SOL     OW28627   6.044   5.584   2.922
 9243SOL    HW128628   6.007   5.605   3.012
 9243SOL    HW228629   6.139   5.613   2.917
 9244SOL     OW28630   4.580   5.414   6.097
 9244SOL    HW128631   4.523   5.443   6.020
 9244SOL    HW228632   4.538   5.444   6.183
 9245SOL     OW28633   1.302   5.602   2.426
 9245SOL    HW128634   1.299   5.605   2.526
 9245SOL    HW228635   1.394   5.578   2.396
 9246SOL     OW28636   5.784   4.733   3.631
 9246SOL    HW128637   5.699   4.765   3.588
 9246SOL    HW228638   5.835   4.812   3.666
 9247SOL     OW28639   0.410   6.717   3.256
 9247SOL    HW128640   0.389   6.758   3.167
 9247SOL    HW228641   0.455   6.629   3.242
 9248SOL     OW28642   2.240   2.553   6.038
 9248SOL    HW128643   2.234   2.491   5.960
 9248SOL    HW228644   2.160   2.541   6.096
 9249SOL     OW28645   5.793   2.286   5.615
 9249SOL    HW128646   5.860   2.336   5.670
 9249SOL    HW228647   5.738   2.351   5.562
 9250SOL     OW28648   5.279   4.180   4.645
 9250SOL    HW128649   5.368   4.203   4.684
 9250SOL    HW228650   5.259   4.084   4.660
 9251SOL     OW28651   3.716   1.970   3.483
 9251SOL    HW128652   3.644   1.912   3.446
 9251SOL    HW228653   3.752   2.029   3.411
 9252SOL     OW28654   6.691   0.522   4.173
 9252SOL    HW128655   6.750   0.601   4.191
 9252SOL    HW228656   6.624   0.547   4.102
 9253SOL     OW28657   4.227   6.149   6.034
 9253SOL    HW128658   4.183   6.081   5.975
 9253SOL    HW228659   4.251   6.230   5.980
 9254SOL     OW28660   5.730   3.784   1.426
 9254SOL    HW128661   5.729   3.817   1.521
 9254SOL    HW228662   5.723   3.684   1.426
 9255SOL     OW28663   5.173   2.880   0.071
 9255SOL    HW128664   5.203   2.876   0.166
 9255SOL    HW228665   5.088   2.933   0.066
 9256SOL     OW28666   3.902   4.889   3.250
 9256SOL    HW128667   3.824   4.951   3.240
 9256SOL    HW228668   3.932   4.858   3.159
 9257SOL     OW28669   0.764   4.184   2.605
 9257SOL    HW128670   0.772   4.147   2.698
 9257SOL    HW228671   0.853   4.217   2.574
 9258SOL     OW28672   3.766   3.043   3.827
 9258SOL    HW128673   3.689   3.095   3.790
 9258SOL    HW228674   3.831   3.024   3.753
 9259SOL     OW28675   1.266   2.208   1.084
 9259SOL    HW128676   1.349   2.198   1.138
 9259SOL    HW228677   1.239   2.304   1.081
 9260SOL     OW28678   5.073   2.380   5.563
 9260SOL    HW128679   5.116   2.332   5.639
 9260SOL    HW228680   5.144   2.419   5.504
 9261SOL     OW28681   4.501   0.414   6.515
 9261SOL    HW128682   4.529   0.500   6.471
 9261SOL    HW228683   4.562   0.340   6.486
 9262SOL     OW28684   6.043   2.053   5.734
 9262SOL    HW128685   5.974   2.068   5.805
 9262SOL    HW228686   6.003   1.999   5.660
 9263SOL     OW28687   5.977   3.645   1.550
 9263SOL    HW128688   5.882   3.618   1.535
 9263SOL    HW228689   6.030   3.565   1.578
 9264SOL     OW28690   6.277   3.679   0.319
 9264SOL    HW128691   6.359   3.670   0.263
 9264SOL    HW228692   6.303   3.695   0.414
 9265SOL     OW28693   3.251   1.320   0.322
 9265SOL    HW128694   3.338   1.329   0.274
 9265SOL    HW228695   3.241   1.394   0.388
 9266SOL     OW28696   2.847   6.341   3.219
 9266SOL    HW128697   2.944   6.340   3.245
 9266SOL    HW228698   2.836   6.296   3.131
 9267SOL     OW28699   0.209   4.252   5.219
 9267SOL    HW128700   0.211   4.200   5.134
 9267SOL    HW228701   0.162   4.199   5.290
 9268SOL     OW28702   0.747   6.674   2.704
 9268SOL    HW128703   0.807   6.595   2.717
 9268SOL    HW228704   0.795   6.744   2.651
 9269SOL     OW28705   2.897   1.978   0.188
 9269SOL    HW128706   2.808   1.976   0.235
 9269SOL    HW228707   2.886   2.020   0.098
 9270SOL     OW28708   5.614   6.848   5.536
 9270SOL    HW128709   5.652   6.878   5.624
 9270SOL    HW228710   5.528   6.896   5.519
 9271SOL     OW28711   1.789   6.128   0.995
 9271SOL    HW128712   1.869   6.070   1.008
 9271SOL    HW228713   1.740   6.101   0.912
 9272SOL     OW28714   3.105   4.335   6.260
 9272SOL    HW128715   3.181   4.395   6.283
 9272SOL    HW228716   3.116   4.248   6.308
 9273SOL     OW28717   5.199   5.887   3.593
 9273SOL    HW128718   5.117   5.843   3.556
 9273SOL    HW228719   5.260   5.817   3.630
 9274SOL     OW28720   5.775   1.900   6.326
 9274SOL    HW128721   5.804   1.804   6.323
 9274SOL    HW228722   5.679   1.906   6.300
 9275SOL     OW28723   0.524   0.937   0.173
 9275SOL    HW128724   0.460   0.870   0.135
 9275SOL    HW228725   0.576   0.979   0.098
 9276SOL     OW28726   2.471   4.953   4.356
 9276SOL    HW128727   2.401   4.981   4.421
 9276SOL    HW228728   2.554   5.006   4.371
 9277SOL     OW28729   3.918   3.550   0.475
 9277SOL    HW128730   3.885   3.619   0.539
 9277SOL    HW228731   4.001   3.507   0.512
 9278SOL     OW28732   1.668   1.176   3.989
 9278SOL    HW128733   1.707   1.239   4.056
 9278SOL    HW228734   1.718   1.184   3.903
 9279SOL     OW28735   4.468   0.471   1.814
 9279SOL    HW128736   4.528   0.550   1.825
 9279SOL    HW228737   4.418   0.455   1.899
 9280SOL     OW28738   1.559   0.329   4.030
 9280SOL    HW128739   1.586   0.237   4.003
 9280SOL    HW228740   1.464   0.328   4.060
 9281SOL     OW28741   3.315   3.644   0.728
 9281SOL    HW128742   3.255   3.575   0.688
 9281SOL    HW228743   3.264   3.699   0.794
 9282SOL     OW28744   5.115   2.547   4.415
 9282SOL    HW128745   5.132   2.495   4.498
 9282SOL    HW228746   5.058   2.493   4.352
 9283SOL     OW28747   6.510   1.450   2.404
 9283SOL    HW128748   6.444   1.518   2.372
 9283SOL    HW228749   6.479   1.358   2.379
 9284SOL     OW28750   3.879   4.559   6.858
 9284SOL    HW128751   3.894   4.539   6.955
 9284SOL    HW228752   3.934   4.496   6.803
 9285SOL     OW28753   5.187   2.837   0.383
 9285SOL    HW128754   5.168   2.738   0.386
 9285SOL    HW228755   5.153   2.879   0.467
 9286SOL     OW28756   6.228   0.315   5.366
 9286SOL    HW128757   6.239   0.256   5.446
 9286SOL    HW228758   6.139   0.299   5.324
 9287SOL     OW28759   3.529   5.925   1.265
 9287SOL    HW128760   3.559   6.021   1.258
 9287SOL    HW228761   3.606   5.865   1.247
 9288SOL     OW28762   3.686   1.021   5.727
 9288SOL    HW128763   3.710   0.929   5.761
 9288SOL    HW228764   3.643   1.013   5.638
 9289SOL     OW28765   4.110   1.884   2.274
 9289SOL    HW128766   4.067   1.814   2.330
 9289SOL    HW228767   4.063   1.971   2.288
 9290SOL     OW28768   4.197   1.407   4.780
 9290SOL    HW128769   4.175   1.360   4.695
 9290SOL    HW228770   4.137   1.374   4.853
 9291SOL     OW28771   2.095   0.699   5.610
 9291SOL    HW128772   2.186   0.736   5.629
 9291SOL    HW228773   2.040   0.769   5.563
 9292SOL     OW28774   6.492   3.195   6.089
 9292SOL    HW128775   6.430   3.272   6.076
 9292SOL    HW228776   6.578   3.227   6.129
 9293SOL     OW28777   6.281   3.952   0.595
 9293SOL    HW128778   6.330   3.865   0.582
 9293SOL    HW228779   6.232   3.975   0.512
 9294SOL     OW28780   3.722   6.576   6.325
 9294SOL    HW128781   3.664   6.498   6.304
 9294SOL    HW228782   3.710   6.603   6.420
 9295SOL     OW28783   5.218   1.614   3.384
 9295SOL    HW128784   5.303   1.667   3.388
 9295SOL    HW228785   5.145   1.670   3.345
 9296SOL     OW28786   6.928   6.651   6.232
 9296SOL    HW128787   7.011   6.612   6.191
 9296SOL    HW228788   6.895   6.589   6.303
 9297SOL     OW28789   0.184   0.493   1.476
 9297SOL    HW128790   0.228   0.479   1.565
 9297SOL    HW228791   0.142   0.406   1.447
 9298SOL     OW28792   1.997   6.180   6.027
 9298SOL    HW128793   2.086   6.185   5.981
 9298SOL    HW228794   1.933   6.243   5.983
 9299SOL     OW28795   1.125   3.471   4.217
 9299SOL    HW128796   1.076   3.558   4.211
 9299SOL    HW228797   1.215   3.480   4.174
 9300SOL     OW28798   6.697   5.027   4.640
 9300SOL    HW128799   6.672   5.093   4.570
 9300SOL    HW228800   6.615   5.002   4.693
 9301SOL     OW28801   5.026   4.495   3.062
 9301SOL    HW128802   5.044   4.593   3.074
 9301SOL    HW228803   5.063   4.445   3.140
 9302SOL     OW28804   2.260   2.834   3.839
 9302SOL    HW128805   2.165   2.805   3.846
 9302SOL    HW228806   2.308   2.811   3.924
 9303SOL     OW28807   3.419   6.035   0.582
 9303SOL    HW128808   3.451   6.108   0.642
 9303SOL    HW228809   3.326   6.009   0.608
 9304SOL     OW28810   4.310   3.890   0.405
 9304SOL    HW128811   4.283   3.813   0.347
 9304SOL    HW228812   4.410   3.897   0.406
 9305SOL     OW28813   5.059   1.552   1.432
 9305SOL    HW128814   5.001   1.608   1.371
 9305SOL    HW228815   5.152   1.552   1.397
 9306SOL     OW28816   0.262   5.049   4.966
 9306SOL    HW128817   0.236   5.087   4.878
 9306SOL    HW228818   0.362   5.049   4.974
 9307SOL     OW28819   1.186   2.780   0.700
 9307SOL    HW128820   1.165   2.813   0.792
 9307SOL    HW228821   1.193   2.680   0.701
 9308SOL     OW28822   0.785   4.566   1.388
 9308SOL    HW128823   0.873   4.560   1.341
 9308SOL    HW228824   0.717   4.604   1.326
 9309SOL     OW28825   3.704   5.382   5.206
 9309SOL    HW128826   3.683   5.322   5.129
 9309SOL    HW228827   3.739   5.469   5.171
 9310SOL     OW28828   4.151   5.982   6.243
 9310SOL    HW128829   4.132   5.896   6.196
 9310SOL    HW228830   4.215   6.037   6.189
 9311SOL     OW28831   6.171   4.530   0.864
 9311SOL    HW128832   6.140   4.625   0.853
 9311SOL    HW228833   6.092   4.472   0.885
 9312SOL     OW28834   2.182   4.438   0.761
 9312SOL    HW128835   2.089   4.457   0.794
 9312SOL    HW228836   2.210   4.347   0.792
 9313SOL     OW28837   6.924   0.993   1.402
 9313SOL    HW128838   6.881   0.904   1.386
 9313SOL    HW228839   6.922   1.046   1.317
 9314SOL     OW28840   4.574   4.905   6.787
 9314SOL    HW128841   4.609   4.873   6.876
 9314SOL    HW228842   4.480   4.938   6.799
 9315SOL     OW28843   6.514   0.550   5.216
 9315SOL    HW128844   6.604   0.506   5.221
 9315SOL    HW228845   6.460   0.507   5.144
 9316SOL     OW28846   4.726   5.775   4.920
 9316SOL    HW128847   4.681   5.864   4.917
 9316SOL    HW228848   4.660   5.705   4.945
 9317SOL     OW28849   6.170   6.301   2.789
 9317SOL    HW128850   6.141   6.278   2.696
 9317SOL    HW228851   6.161   6.220   2.848
 9318SOL     OW28852   6.832   1.282   4.801
 9318SOL    HW128853   6.790   1.191   4.800
 9318SOL    HW228854   6.911   1.283   4.739
 9319SOL     OW28855   0.587   3.055   6.093
 9319SOL    HW128856   0.675   3.097   6.073
 9319SOL    HW228857   0.599   2.956   6.104
 9320SOL     OW28858   3.992   2.107   5.726
 9320SOL    HW128859   3.975   2.016   5.687
 9320SOL    HW228860   4.081   2.140   5.697
 9321SOL     OW28861   6.177   0.154   2.281
 9321SOL    HW128862   6.109   0.084   2.262
 9321SOL    HW228863   6.264   0.111   2.306
 9322SOL     OW28864   6.856   6.091   5.929
 9322SOL    HW128865   6.896   6.133   5.848
 9322SOL    HW228866   6.809   6.007   5.903
 9323SOL     OW28867   1.449   0.278   5.467
 9323SOL    HW128868   1.544   0.298   5.493
 9323SOL    HW228869   1.391   0.281   5.548
 9324SOL     OW28870   1.666   5.155   0.137
 9324SOL    HW128871   1.660   5.066   0.183
 9324SOL    HW228872   1.633   5.146   0.043
 9325SOL     OW28873   5.089   2.023   1.199
 9325SOL    HW128874   5.003   2.058   1.236
 9325SOL    HW228875   5.134   2.094   1.146
 9326SOL     OW28876   2.620   6.739   0.954
 9326SOL    HW128877   2.698   6.792   0.986
 9326SOL    HW228878   2.630   6.644   0.982
 9327SOL     OW28879   5.020   6.818   2.920
 9327SOL    HW128880   5.002   6.832   3.018
 9327SOL    HW228881   5.118   6.814   2.904
 9328SOL     OW28882   4.125   1.423   6.284
 9328SOL    HW128883   4.164   1.496   6.340
 9328SOL    HW228884   4.107   1.343   6.341
 9329SOL     OW28885   0.214   3.159   3.029
 9329SOL    HW128886   0.115   3.174   3.030
 9329SOL    HW228887   0.233   3.064   3.003
 9330SOL     OW28888   0.233   5.716   0.456
 9330SOL    HW128889   0.247   5.617   0.462
 9330SOL    HW228890   0.195   5.750   0.541
 9331SOL     OW28891   0.515   1.055   6.212
 9331SOL    HW128892   0.581   1.127   6.189
 9331SOL    HW228893   0.500   1.054   6.311
 9332SOL     OW28894   3.474   3.990   2.965
 9332SOL    HW128895   3.515   4.038   2.888
 9332SOL    HW228896   3.435   3.903   2.934
 9333SOL     OW28897   5.210   4.004   0.987
 9333SOL    HW128898   5.253   4.033   1.073
 9333SOL    HW228899   5.233   3.908   0.970
 9334SOL     OW28900   3.820   7.007   3.279
 9334SOL    HW128901   3.745   7.022   3.215
 9334SOL    HW228902   3.900   6.972   3.229
 9335SOL     OW28903   1.373   1.389   6.493
 9335SOL    HW128904   1.302   1.326   6.523
 9335SOL    HW228905   1.428   1.346   6.421
 9336SOL     OW28906   3.206   6.274   6.398
 9336SOL    HW128907   3.298   6.234   6.393
 9336SOL    HW228908   3.146   6.214   6.450
 9337SOL     OW28909   5.159   0.250   2.743
 9337SOL    HW128910   5.130   0.198   2.663
 9337SOL    HW228911   5.081   0.264   2.804
 9338SOL     OW28912   4.176   0.511   2.221
 9338SOL    HW128913   4.221   0.498   2.132
 9338SOL    HW228914   4.162   0.608   2.238
 9339SOL     OW28915   5.912   6.880   0.387
 9339SOL    HW128916   5.859   6.828   0.320
 9339SOL    HW228917   5.935   6.970   0.349
 9340SOL     OW28918   5.199   3.718   5.609
 9340SOL    HW128919   5.240   3.660   5.539
 9340SOL    HW228920   5.211   3.676   5.699
 9341SOL     OW28921   1.469   6.035   6.829
 9341SOL    HW128922   1.380   5.993   6.844
 9341SOL    HW228923   1.469   6.081   6.740
 9342SOL     OW28924   2.637   0.283   4.478
 9342SOL    HW128925   2.734   0.298   4.498
 9342SOL    HW228926   2.588   0.266   4.564
 9343SOL     OW28927   6.211   4.473   4.253
 9343SOL    HW128928   6.224   4.570   4.272
 9343SOL    HW228929   6.268   4.447   4.175
 9344SOL     OW28930   4.966   5.725   1.044
 9344SOL    HW128931   4.955   5.817   1.007
 9344SOL    HW228932   5.049   5.721   1.099
 9345SOL     OW28933   6.354   3.013   2.186
 9345SOL    HW128934   6.315   2.933   2.141
 9345SOL    HW228935   6.443   3.035   2.145
 9346SOL     OW28936   5.848   0.998   1.208
 9346SOL    HW128937   5.827   0.974   1.303
 9346SOL    HW228938   5.944   0.981   1.190
 9347SOL     OW28939   1.756   5.131   1.147
 9347SOL    HW128940   1.818   5.145   1.224
 9347SOL    HW228941   1.662   5.154   1.174
 9348SOL     OW28942   4.289   5.487   0.891
 9348SOL    HW128943   4.349   5.448   0.961
 9348SOL    HW228944   4.210   5.529   0.935
 9349SOL     OW28945   0.423   6.943   2.297
 9349SOL    HW128946   0.443   0.012   2.272
 9349SOL    HW228947   0.325   6.935   2.317
 9350SOL     OW28948   0.777   2.678   5.866
 9350SOL    HW128949   0.800   2.746   5.796
 9350SOL    HW228950   0.831   2.595   5.851
 9351SOL     OW28951   3.227   1.863   6.905
 9351SOL    HW128952   3.261   1.802   6.977
 9351SOL    HW228953   3.135   1.835   6.879
 9352SOL     OW28954   2.594   3.829   0.121
 9352SOL    HW128955   2.502   3.796   0.099
 9352SOL    HW228956   2.639   3.765   0.182
 9353SOL     OW28957   0.695   5.229   1.788
 9353SOL    HW128958   0.657   5.143   1.753
 9353SOL    HW228959   0.744   5.211   1.873
 9354SOL     OW28960   6.481   2.629   6.431
 9354SOL    HW128961   6.557   2.567   6.410
 9354SOL    HW228962   6.499   2.719   6.391
 9355SOL     OW28963   1.115   1.806   4.495
 9355SOL    HW128964   1.162   1.890   4.522
 9355SOL    HW228965   1.173   1.753   4.434
 9356SOL     OW28966   4.187   6.620   1.248
 9356SOL    HW128967   4.249   6.666   1.185
 9356SOL    HW228968   4.240   6.565   1.313
 9357SOL     OW28969   1.357   2.243   6.802
 9357SOL    HW128970   1.345   2.206   6.710
 9357SOL    HW228971   1.408   2.329   6.797
 9358SOL     OW28972   0.114   4.205   2.374
 9358SOL    HW128973   0.057   4.152   2.436
 9358SOL    HW228974   0.145   4.289   2.419
 9359SOL     OW28975   1.645   6.063   5.925
 9359SOL    HW128976   1.701   5.989   5.962
 9359SOL    HW228977   1.701   6.144   5.910
 9360SOL     OW28978   1.668   6.939   6.618
 9360SOL    HW128979   1.703   6.949   6.711
 9360SOL    HW228980   1.744   6.945   6.553
 9361SOL     OW28981   1.874   6.468   3.496
 9361SOL    HW128982   1.798   6.518   3.454
 9361SOL    HW228983   1.838   6.390   3.548
 9362SOL     OW28984   1.889   1.105   2.117
 9362SOL    HW128985   1.974   1.074   2.075
 9362SOL    HW228986   1.811   1.076   2.062
 9363SOL     OW28987   3.076   5.263   2.631
 9363SOL    HW128988   3.142   5.189   2.617
 9363SOL    HW228989   2.990   5.224   2.665
 9364SOL     OW28990   2.238   2.502   1.926
 9364SOL    HW128991   2.298   2.442   1.872
 9364SOL    HW228992   2.271   2.596   1.919
 9365SOL     OW28993   3.364   2.173   4.497
 9365SOL    HW128994   3.462   2.156   4.511
 9365SOL    HW228995   3.325   2.099   4.443
 9366SOL     OW28996   3.424   5.859   0.853
 9366SOL    HW128997   3.425   5.924   0.928
 9366SOL    HW228998   3.330   5.848   0.819
 9367SOL     OW28999   5.079   0.002   1.315
 9367SOL    HW129000   4.992   6.992   1.283
 9367SOL    HW229001   5.148   7.017   1.244
 9368SOL     OW29002   3.898   0.488   2.729
 9368SOL    HW129003   3.822   0.455   2.673
 9368SOL    HW229004   3.985   0.467   2.684
 9369SOL     OW29005   0.935   5.262   6.508
 9369SOL    HW129006   0.843   5.286   6.477
 9369SOL    HW229007   0.972   5.190   6.449
 9370SOL     OW29008   4.058   1.527   4.382
 9370SOL    HW129009   4.146   1.526   4.429
 9370SOL    HW229010   4.011   1.613   4.402
 9371SOL     OW29011   3.553   5.740   1.542
 9371SOL    HW129012   3.549   5.788   1.454
 9371SOL    HW229013   3.575   5.805   1.615
 9372SOL     OW29014   4.671   6.936   1.455
 9372SOL    HW129015   4.663   6.944   1.554
 9372SOL    HW229016   4.678   0.002   1.414
 9373SOL     OW29017   6.212   1.870   6.902
 9373SOL    HW129018   6.204   1.802   6.975
 9373SOL    HW229019   6.166   1.954   6.930
 9374SOL     OW29020   0.664   4.593   6.054
 9374SOL    HW129021   0.716   4.532   6.114
 9374SOL    HW229022   0.728   4.644   5.996
 9375SOL     OW29023   6.891   1.757   6.434
 9375SOL    HW129024   6.910   1.666   6.397
 9375SOL    HW229025   6.957   1.822   6.397
 9376SOL     OW29026   2.091   3.603   2.580
 9376SOL    HW129027   2.103   3.655   2.496
 9376SOL    HW229028   2.030   3.525   2.563
 9377SOL     OW29029   2.199   5.686   2.399
 9377SOL    HW129030   2.208   5.655   2.304
 9377SOL    HW229031   2.161   5.612   2.454
 9378SOL     OW29032   3.639   0.767   3.708
 9378SOL    HW129033   3.542   0.793   3.709
 9378SOL    HW229034   3.682   0.792   3.794
 9379SOL     OW29035   3.894   6.071   4.618
 9379SOL    HW129036   3.853   6.017   4.544
 9379SOL    HW229037   3.822   6.113   4.673
 9380SOL     OW29038   4.428   5.466   6.324
 9380SOL    HW129039   4.373   5.401   6.377
 9380SOL    HW229040   4.506   5.496   6.380
 9381SOL     OW29041   5.542   1.451   4.695
 9381SOL    HW129042   5.585   1.531   4.736
 9381SOL    HW229043   5.489   1.402   4.764
 9382SOL     OW29044   3.622   0.510   4.018
 9382SOL    HW129045   3.646   0.573   4.091
 9382SOL    HW229046   3.523   0.502   4.012
 9383SOL     OW29047   4.669   4.183   3.789
 9383SOL    HW129048   4.708   4.091   3.788
 9383SOL    HW229049   4.710   4.237   3.862
 9384SOL     OW29050   1.783   6.991   2.161
 9384SOL    HW129051   1.866   0.002   2.119
 9384SOL    HW229052   1.717   6.965   2.090
 9385SOL     OW29053   4.157   1.216   3.470
 9385SOL    HW129054   4.157   1.169   3.558
 9385SOL    HW229055   4.220   1.294   3.474
 9386SOL     OW29056   4.143   5.800   5.171
 9386SOL    HW129057   4.209   5.802   5.096
 9386SOL    HW229058   4.052   5.825   5.137
 9387SOL     OW29059   3.494   2.296   0.159
 9387SOL    HW129060   3.475   2.383   0.115
 9387SOL    HW229061   3.419   2.271   0.219
 9388SOL     OW29062   2.007   6.715   4.265
 9388SOL    HW129063   1.924   6.690   4.316
 9388SOL    HW229064   2.032   6.639   4.204
 9389SOL     OW29065   3.741   5.175   2.243
 9389SOL    HW129066   3.724   5.091   2.190
 9389SOL    HW229067   3.703   5.253   2.194
 9390SOL     OW29068   5.047   4.537   5.661
 9390SOL    HW129069   5.073   4.455   5.610
 9390SOL    HW229070   4.948   4.538   5.674
 9391SOL     OW29071   0.910   6.359   4.304
 9391SOL    HW129072   0.959   6.362   4.217
 9391SOL    HW229073   0.885   6.264   4.325
 9392SOL     OW29074   5.275   4.015   3.032
 9392SOL    HW129075   5.326   3.968   2.959
 9392SOL    HW229076   5.340   4.052   3.099
 9393SOL     OW29077   3.153   6.440   5.934
 9393SOL    HW129078   3.129   6.394   6.019
 9393SOL    HW229079   3.105   6.397   5.857
 9394SOL     OW29080   5.087   0.227   1.080
 9394SOL    HW129081   5.155   0.153   1.084
 9394SOL    HW229082   5.010   0.205   1.140
 9395SOL     OW29083   2.768   1.937   0.701
 9395SOL    HW129084   2.749   1.839   0.707
 9395SOL    HW229085   2.738   1.982   0.786
 9396SOL     OW29086   1.298   6.279   6.780
 9396SOL    HW129087   1.238   6.209   6.741
 9396SOL    HW229088   1.386   6.277   6.734
 9397SOL     OW29089   4.110   0.245   6.495
 9397SOL    HW129090   4.139   0.313   6.427
 9397SOL    HW229091   4.053   0.176   6.450
 9398SOL     OW29092   6.689   1.773   6.642
 9398SOL    HW129093   6.777   1.749   6.600
 9398SOL    HW229094   6.622   1.791   6.570
 9399SOL     OW29095   1.969   2.727   3.890
 9399SOL    HW129096   1.967   2.737   3.989
 9399SOL    HW229097   1.887   2.768   3.851
 9400SOL     OW29098   5.258   0.974   0.464
 9400SOL    HW129099   5.323   0.966   0.388
 9400SOL    HW229100   5.271   0.898   0.527
 9401SOL     OW29101   0.647   1.581   2.650
 9401SOL    HW129102   0.717   1.651   2.662
 9401SOL    HW229103   0.593   1.601   2.569
 9402SOL     OW29104   1.516   5.775   3.413
 9402SOL    HW129105   1.501   5.678   3.435
 9402SOL    HW229106   1.574   5.782   3.332
 9403SOL     OW29107   6.649   2.076   1.955
 9403SOL    HW129108   6.637   2.167   1.915
 9403SOL    HW229109   6.646   2.083   2.054
 9404SOL     OW29110   2.216   3.537   0.882
 9404SOL    HW129111   2.143   3.533   0.814
 9404SOL    HW229112   2.282   3.463   0.866
 9405SOL     OW29113   0.346   4.703   5.437
 9405SOL    HW129114   0.297   4.620   5.461
 9405SOL    HW229115   0.409   4.727   5.511
 9406SOL     OW29116   0.199   2.856   7.019
 9406SOL    HW129117   0.143   2.837   6.938
 9406SOL    HW229118   0.177   2.947   0.029
 9407SOL     OW29119   1.946   4.797   5.524
 9407SOL    HW129120   1.990   4.869   5.472
 9407SOL    HW229121   1.987   4.709   5.501
 9408SOL     OW29122   6.479   4.905   4.761
 9408SOL    HW129123   6.520   4.815   4.779
 9408SOL    HW229124   6.401   4.918   4.822
 9409SOL     OW29125   6.702   4.900   2.419
 9409SOL    HW129126   6.642   4.844   2.362
 9409SOL    HW229127   6.794   4.861   2.419
 9410SOL     OW29128   4.078   0.460   1.436
 9410SOL    HW129129   4.152   0.414   1.387
 9410SOL    HW229130   3.995   0.459   1.380
 9411SOL     OW29131   3.261   3.072   3.728
 9411SOL    HW129132   3.229   3.049   3.820
 9411SOL    HW229133   3.280   3.170   3.723
 9412SOL     OW29134   6.500   6.813   1.603
 9412SOL    HW129135   6.424   6.826   1.666
 9412SOL    HW229136   6.517   6.898   1.553
 9413SOL     OW29137   4.195   5.032   3.660
 9413SOL    HW129138   4.114   5.044   3.603
 9413SOL    HW229139   4.189   5.094   3.739
 9414SOL     OW29140   2.230   1.732   4.683
 9414SOL    HW129141   2.175   1.649   4.681
 9414SOL    HW229142   2.312   1.717   4.738
 9415SOL     OW29143   4.162   1.044   2.048
 9415SOL    HW129144   4.097   1.101   1.997
 9415SOL    HW229145   4.179   1.085   2.138
 9416SOL     OW29146   6.459   5.345   6.395
 9416SOL    HW129147   6.499   5.379   6.310
 9416SOL    HW229148   6.373   5.297   6.375
 9417SOL     OW29149   3.630   5.956   1.675
 9417SOL    HW129150   3.689   5.898   1.731
 9417SOL    HW229151   3.671   6.046   1.665
 9418SOL     OW29152   3.223   2.149   4.746
 9418SOL    HW129153   3.156   2.077   4.730
 9418SOL    HW229154   3.278   2.163   4.663
 9419SOL     OW29155   2.556   2.973   6.792
 9419SOL    HW129156   2.568   3.066   6.757
 9419SOL    HW229157   2.553   2.974   6.892
 9420SOL     OW29158   5.251   3.665   0.006
 9420SOL    HW129159   5.321   3.625   0.064
 9420SOL    HW229160   5.278   3.657   6.936
 9421SOL     OW29161   3.779   6.390   5.828
 9421SOL    HW129162   3.846   6.316   5.826
 9421SOL    HW229163   3.789   6.441   5.914
 9422SOL     OW29164   2.098   5.862   4.715
 9422SOL    HW129165   2.060   5.889   4.627
 9422SOL    HW229166   2.026   5.819   4.771
 9423SOL     OW29167   4.387   5.303   3.081
 9423SOL    HW129168   4.483   5.287   3.055
 9423SOL    HW229169   4.331   5.310   2.998
 9424SOL     OW29170   5.592   0.650   4.692
 9424SOL    HW129171   5.569   0.621   4.785
 9424SOL    HW229172   5.680   0.698   4.692
 9425SOL     OW29173   6.809   4.979   0.237
 9425SOL    HW129174   6.751   4.932   0.303
 9425SOL    HW229175   6.890   5.016   0.284
 9426SOL     OW29176   6.975   2.656   6.195
 9426SOL    HW129177   0.021   2.586   6.204
 9426SOL    HW229178   6.899   2.634   6.257
 9427SOL     OW29179   3.864   5.766   3.567
 9427SOL    HW129180   3.893   5.683   3.519
 9427SOL    HW229181   3.881   5.846   3.510
 9428SOL     OW29182   6.639   0.147   6.354
 9428SOL    HW129183   6.607   0.238   6.380
 9428SOL    HW229184   6.566   0.098   6.307
 9429SOL     OW29185   2.038   2.175   4.128
 9429SOL    HW129186   2.137   2.168   4.141
 9429SOL    HW229187   1.992   2.121   4.197
 9430SOL     OW29188   0.613   2.420   4.478
 9430SOL    HW129189   0.559   2.430   4.562
 9430SOL    HW229190   0.702   2.463   4.491
 9431SOL     OW29191   0.288   4.377   6.339
 9431SOL    HW129192   0.241   4.453   6.293
 9431SOL    HW229193   0.227   4.336   6.406
 9432SOL     OW29194   6.755   1.544   3.539
 9432SOL    HW129195   6.769   1.503   3.629
 9432SOL    HW229196   6.834   1.601   3.516
 9433SOL     OW29197   3.924   6.343   2.825
 9433SOL    HW129198   4.021   6.339   2.845
 9433SOL    HW229199   3.910   6.357   2.727
 9434SOL     OW29200   5.044   5.309   4.192
 9434SOL    HW129201   5.079   5.377   4.128
 9434SOL    HW229202   5.121   5.263   4.238
 9435SOL     OW29203   0.634   3.096   1.471
 9435SOL    HW129204   0.699   3.140   1.533
 9435SOL    HW229205   0.541   3.125   1.494
 9436SOL     OW29206   1.443   0.370   3.613
 9436SOL    HW129207   1.440   0.356   3.514
 9436SOL    HW229208   1.383   0.447   3.637
 9437SOL     OW29209   6.293   5.754   4.688
 9437SOL    HW129210   6.364   5.780   4.754
 9437SOL    HW229211   6.304   5.809   4.605
 9438SOL     OW29212   3.454   6.016   2.241
 9438SOL    HW129213   3.368   6.025   2.190
 9438SOL    HW229214   3.435   6.022   2.339
 9439SOL     OW29215   1.128   2.862   0.424
 9439SOL    HW129216   1.035   2.885   0.396
 9439SOL    HW229217   1.129   2.842   0.522
 9440SOL     OW29218   2.594   5.250   3.021
 9440SOL    HW129219   2.510   5.256   2.966
 9440SOL    HW229220   2.608   5.155   3.050
 9441SOL     OW29221   6.784   6.444   4.525
 9441SOL    HW129222   6.834   6.478   4.445
 9441SOL    HW229223   6.832   6.364   4.561
 9442SOL     OW29224   4.114   3.749   0.538
 9442SOL    HW129225   4.060   3.735   0.455
 9442SOL    HW229226   4.187   3.813   0.520
 9443SOL     OW29227   2.198   4.573   2.910
 9443SOL    HW129228   2.116   4.546   2.961
 9443SOL    HW229229   2.205   4.516   2.828
 9444SOL     OW29230   1.399   4.355   0.411
 9444SOL    HW129231   1.386   4.447   0.449
 9444SOL    HW229232   1.312   4.306   0.414
 9445SOL     OW29233   0.487   1.802   4.318
 9445SOL    HW129234   0.486   1.735   4.244
 9445SOL    HW229235   0.557   1.871   4.300
 9446SOL     OW29236   6.375   4.894   3.155
 9446SOL    HW129237   6.417   4.812   3.116
 9446SOL    HW229238   6.311   4.867   3.228
 9447SOL     OW29239   5.450   4.970   2.084
 9447SOL    HW129240   5.521   4.919   2.133
 9447SOL    HW229241   5.444   5.063   2.120
 9448SOL     OW29242   5.427   0.475   5.659
 9448SOL    HW129243   5.384   0.486   5.569
 9448SOL    HW229244   5.356   0.473   5.730
 9449SOL     OW29245   6.093   0.311   1.948
 9449SOL    HW129246   6.154   0.256   1.890
 9449SOL    HW229247   6.020   0.254   1.983
 9450SOL     OW29248   1.825   6.225   4.024
 9450SOL    HW129249   1.841   6.297   3.956
 9450SOL    HW229250   1.896   6.155   4.016
 9451SOL     OW29251   3.897   6.315   6.486
 9451SOL    HW129252   3.810   6.311   6.535
 9451SOL    HW229253   3.947   6.229   6.499
 9452SOL     OW29254   6.904   4.312   0.485
 9452SOL    HW129255   6.837   4.313   0.410
 9452SOL    HW229256   6.862   4.350   0.567
 9453SOL     OW29257   4.016   6.119   3.283
 9453SOL    HW129258   4.061   6.186   3.225
 9453SOL    HW229259   4.001   6.158   3.374
 9454SOL     OW29260   4.634   3.584   0.502
 9454SOL    HW129261   4.553   3.526   0.505
 9454SOL    HW229262   4.710   3.537   0.548
 9455SOL     OW29263   2.705   2.254   2.265
 9455SOL    HW129264   2.664   2.345   2.260
 9455SOL    HW229265   2.791   2.254   2.213
 9456SOL     OW29266   6.631   3.056   2.041
 9456SOL    HW129267   6.631   3.109   1.956
 9456SOL    HW229268   6.640   2.959   2.020
 9457SOL     OW29269   0.196   5.575   3.569
 9457SOL    HW129270   0.247   5.661   3.568
 9457SOL    HW229271   0.212   5.528   3.656
 9458SOL     OW29272   6.077   3.435   6.999
 9458SOL    HW129273   6.086   3.516   6.941
 9458SOL    HW229274   6.165   3.415   0.017
 9459SOL     OW29275   5.062   5.114   4.948
 9459SOL    HW129276   4.984   5.052   4.947
 9459SOL    HW229277   5.144   5.065   4.919
 9460SOL     OW29278   1.134   1.929   3.062
 9460SOL    HW129279   1.049   1.902   3.016
 9460SOL    HW229280   1.150   1.868   3.140
 9461SOL     OW29281   1.282   2.665   2.891
 9461SOL    HW129282   1.316   2.580   2.852
 9461SOL    HW229283   1.300   2.741   2.828
 9462SOL     OW29284   1.786   1.294   4.237
 9462SOL    HW129285   1.807   1.234   4.314
 9462SOL    HW229286   1.707   1.350   4.259
 9463SOL     OW29287   5.672   5.627   0.646
 9463SOL    HW129288   5.654   5.720   0.614
 9463SOL    HW229289   5.733   5.630   0.725
 9464SOL     OW29290   0.817   0.895   1.449
 9464SOL    HW129291   0.859   0.965   1.391
 9464SOL    HW229292   0.865   0.890   1.536
 9465SOL     OW29293   6.759   4.330   0.725
 9465SOL    HW129294   6.704   4.247   0.727
 9465SOL    HW229295   6.705   4.407   0.758
 9466SOL     OW29296   3.627   5.201   6.722
 9466SOL    HW129297   3.653   5.104   6.719
 9466SOL    HW229298   3.640   5.242   6.632
 9467SOL     OW29299   2.395   3.308   0.854
 9467SOL    HW129300   2.475   3.359   0.824
 9467SOL    HW229301   2.418   3.253   0.934
 9468SOL     OW29302   6.445   2.320   0.608
 9468SOL    HW129303   6.351   2.353   0.598
 9468SOL    HW229304   6.452   2.228   0.571
 9469SOL     OW29305   0.998   6.456   1.475
 9469SOL    HW129306   0.998   6.357   1.466
 9469SOL    HW229307   0.966   6.497   1.389
 9470SOL     OW29308   3.925   4.350   1.116
 9470SOL    HW129309   3.965   4.418   1.177
 9470SOL    HW229310   3.994   4.319   1.050
 9471SOL     OW29311   6.141   2.912   4.980
 9471SOL    HW129312   6.103   2.848   4.913
 9471SOL    HW229313   6.241   2.906   4.979
 9472SOL     OW29314   1.692   2.957   6.797
 9472SOL    HW129315   1.762   2.978   6.866
 9472SOL    HW229316   1.639   3.039   6.778
 9473SOL     OW29317   3.159   4.877   0.556
 9473SOL    HW129318   3.101   4.936   0.500
 9473SOL    HW229319   3.181   4.794   0.505
 9474SOL     OW29320   5.422   2.861   1.322
 9474SOL    HW129321   5.353   2.916   1.368
 9474SOL    HW229322   5.512   2.880   1.361
 9475SOL     OW29323   4.652   3.947   6.062
 9475SOL    HW129324   4.656   3.879   6.136
 9475SOL    HW229325   4.662   4.038   6.101
 9476SOL     OW29326   3.355   4.164   5.943
 9476SOL    HW129327   3.411   4.082   5.934
 9476SOL    HW229328   3.314   4.185   5.854
 9477SOL     OW29329   2.137   4.230   1.297
 9477SOL    HW129330   2.167   4.180   1.379
 9477SOL    HW229331   2.217   4.252   1.241
 9478SOL     OW29332   5.114   2.177   7.016
 9478SOL    HW129333   5.072   2.099   6.970
 9478SOL    HW229334   5.077   2.262   6.980
 9479SOL     OW29335   3.881   0.719   1.286
 9479SOL    HW129336   3.954   0.722   1.354
 9479SOL    HW229337   3.816   0.792   1.304
 9480SOL     OW29338   6.366   0.090   6.949
 9480SOL    HW129339   6.410   0.178   6.931
 9480SOL    HW229340   6.278   0.086   6.901
 9481SOL     OW29341   4.191   1.498   3.310
 9481SOL    HW129342   4.277   1.542   3.284
 9481SOL    HW229343   4.183   1.411   3.262
 9482SOL     OW29344   6.144   0.038   0.940
 9482SOL    HW129345   6.184   0.130   0.938
 9482SOL    HW229346   6.181   7.010   0.864
 9483SOL     OW29347   0.060   1.015   0.702
 9483SOL    HW129348   7.018   0.944   0.683
 9483SOL    HW229349   0.090   1.009   0.797
 9484SOL     OW29350   3.509   5.981   4.943
 9484SOL    HW129351   3.502   5.886   4.975
 9484SOL    HW229352   3.426   6.031   4.969
 9485SOL     OW29353   0.005   1.331   6.693
 9485SOL    HW129354   6.969   1.305   6.767
 9485SOL    HW229355   0.007   1.431   6.685
 9486SOL     OW29356   4.837   5.807   7.016
 9486SOL    HW129357   4.917   5.749   0.005
 9486SOL    HW229358   4.762   5.753   6.978
 9487SOL     OW29359   3.324   3.258   3.971
 9487SOL    HW129360   3.234   3.298   3.955
 9487SOL    HW229361   3.314   3.161   3.995
 9488SOL     OW29362   0.913   1.935   0.634
 9488SOL    HW129363   0.960   1.846   0.628
 9488SOL    HW229364   0.814   1.920   0.636
 9489SOL     OW29365   4.980   4.442   0.621
 9489SOL    HW129366   5.055   4.480   0.676
 9489SOL    HW229367   4.934   4.370   0.672
 9490SOL     OW29368   5.570   3.895   3.845
 9490SOL    HW129369   5.530   3.894   3.936
 9490SOL    HW229370   5.504   3.861   3.778
 9491SOL     OW29371   5.174   6.566   2.734
 9491SOL    HW129372   5.209   6.647   2.783
 9491SOL    HW229373   5.116   6.512   2.795
 9492SOL     OW29374   4.973   2.696   4.659
 9492SOL    HW129375   4.908   2.729   4.590
 9492SOL    HW229376   4.976   2.596   4.656
 9493SOL     OW29377   4.277   6.737   3.054
 9493SOL    HW129378   4.355   6.745   2.992
 9493SOL    HW229379   4.196   6.777   3.012
 9494SOL     OW29380   5.371   2.211   1.922
 9494SOL    HW129381   5.421   2.186   2.005
 9494SOL    HW229382   5.434   2.254   1.857
 9495SOL     OW29383   1.229   0.780   2.424
 9495SOL    HW129384   1.289   0.848   2.466
 9495SOL    HW229385   1.231   0.791   2.324
 9496SOL     OW29386   4.280   2.186   2.567
 9496SOL    HW129387   4.267   2.169   2.469
 9496SOL    HW229388   4.361   2.243   2.580
 9497SOL     OW29389   5.318   5.134   4.636
 9497SOL    HW129390   5.418   5.130   4.638
 9497SOL    HW229391   5.281   5.044   4.659
 9498SOL     OW29392   6.778   5.685   3.683
 9498SOL    HW129393   6.720   5.646   3.611
 9498SOL    HW229394   6.768   5.784   3.684
 9499SOL     OW29395   6.046   6.019   5.809
 9499SOL    HW129396   6.046   6.021   5.909
 9499SOL    HW229397   6.104   5.944   5.777
 9500SOL     OW29398   4.315   1.048   0.742
 9500SOL    HW129399   4.366   0.993   0.675
 9500SOL    HW229400   4.305   0.996   0.827
 9501SOL     OW29401   1.695   3.044   4.821
 9501SOL    HW129402   1.678   3.118   4.887
 9501SOL    HW229403   1.616   3.036   4.760
 9502SOL     OW29404   5.650   4.690   5.543
 9502SOL    HW129405   5.566   4.641   5.567
 9502SOL    HW229406   5.627   4.779   5.503
 9503SOL     OW29407   0.335   2.452   6.576
 9503SOL    HW129408   0.333   2.455   6.476
 9503SOL    HW229409   0.401   2.519   6.610
 9504SOL     OW29410   6.572   5.219   1.939
 9504SOL    HW129411   6.472   5.224   1.935
 9504SOL    HW229412   6.599   5.128   1.970
 9505SOL     OW29413   4.370   5.002   5.106
 9505SOL    HW129414   4.371   5.000   5.206
 9505SOL    HW229415   4.443   5.062   5.073
 9506SOL     OW29416   3.320   1.699   1.061
 9506SOL    HW129417   3.270   1.780   1.093
 9506SOL    HW229418   3.405   1.727   1.017
 9507SOL     OW29419   5.705   6.777   2.108
 9507SOL    HW129420   5.609   6.751   2.111
 9507SOL    HW229421   5.730   6.822   2.194
 9508SOL     OW29422   5.095   1.387   3.041
 9508SOL    HW129423   5.026   1.373   2.970
 9508SOL    HW229424   5.174   1.329   3.022
 9509SOL     OW29425   6.669   6.704   2.439
 9509SOL    HW129426   6.666   6.804   2.440
 9509SOL    HW229427   6.763   6.673   2.424
 9510SOL     OW29428   0.742   2.508   3.801
 9510SOL    HW129429   0.720   2.426   3.854
 9510SOL    HW229430   0.724   2.490   3.704
 9511SOL     OW29431   1.215   1.386   0.725
 9511SOL    HW129432   1.131   1.344   0.762
 9511SOL    HW229433   1.278   1.314   0.696
 9512SOL     OW29434   6.534   2.436   1.227
 9512SOL    HW129435   6.598   2.452   1.152
 9512SOL    HW229436   6.447   2.402   1.191
 9513SOL     OW29437   4.030   5.382   6.837
 9513SOL    HW129438   4.124   5.412   6.853
 9513SOL    HW229439   4.004   5.404   6.743
 9514SOL     OW29440   3.140   3.285   6.806
 9514SOL    HW129441   3.177   3.247   6.891
 9514SOL    HW229442   3.171   3.380   6.796
 9515SOL     OW29443   2.150   5.267   3.894
 9515SOL    HW129444   2.187   5.174   3.889
 9515SOL    HW229445   2.120   5.286   3.988
 9516SOL     OW29446   6.760   3.631   0.399
 9516SOL    HW129447   6.692   3.684   0.450
 9516SOL    HW229448   6.723   3.541   0.379
 9517SOL     OW29449   1.268   4.812   0.772
 9517SOL    HW129450   1.217   4.885   0.727
 9517SOL    HW229451   1.248   4.725   0.727
 9518SOL     OW29452   1.637   0.931   0.284
 9518SOL    HW129453   1.694   0.870   0.229
 9518SOL    HW229454   1.655   1.026   0.258
 9519SOL     OW29455   1.305   2.712   5.329
 9519SOL    HW129456   1.223   2.761   5.299
 9519SOL    HW229457   1.385   2.749   5.280
 9520SOL     OW29458   1.945   6.723   2.550
 9520SOL    HW129459   1.935   6.631   2.513
 9520SOL    HW229460   1.986   6.782   2.481
 9521SOL     OW29461   5.263   5.625   4.462
 9521SOL    HW129462   5.316   5.543   4.483
 9521SOL    HW229463   5.166   5.602   4.460
 9522SOL     OW29464   3.780   6.204   0.996
 9522SOL    HW129465   3.879   6.219   1.003
 9522SOL    HW229466   3.763   6.126   0.936
 9523SOL     OW29467   3.205   5.712   4.698
 9523SOL    HW129468   3.128   5.774   4.713
 9523SOL    HW229469   3.223   5.705   4.600
 9524SOL     OW29470   4.138   3.198   1.231
 9524SOL    HW129471   4.137   3.176   1.328
 9524SOL    HW229472   4.065   3.262   1.210
 9525SOL     OW29473   2.926   0.948   6.248
 9525SOL    HW129474   2.844   0.939   6.191
 9525SOL    HW229475   2.942   0.862   6.296
 9526SOL     OW29476   5.163   5.348   2.541
 9526SOL    HW129477   5.202   5.293   2.615
 9526SOL    HW229478   5.082   5.396   2.575
 9527SOL     OW29479   0.331   1.914   1.952
 9527SOL    HW129480   0.280   1.940   1.870
 9527SOL    HW229481   0.301   1.970   2.030
 9528SOL     OW29482   0.053   0.972   2.149
 9528SOL    HW129483   0.088   1.058   2.185
 9528SOL    HW229484   0.009   0.988   2.061
 9529SOL     OW29485   0.843   2.991   5.980
 9529SOL    HW129486   0.794   2.918   6.027
 9529SOL    HW229487   0.810   3.000   5.886
 9530SOL     OW29488   1.044   1.773   3.402
 9530SOL    HW129489   1.107   1.807   3.471
 9530SOL    HW229490   0.967   1.835   3.393
 9531SOL     OW29491   3.314   6.810   3.037
 9531SOL    HW129492   3.335   6.904   3.063
 9531SOL    HW229493   3.364   6.787   2.953
 9532SOL     OW29494   1.831   0.137   1.657
 9532SOL    HW129495   1.871   0.217   1.702
 9532SOL    HW229496   1.785   0.080   1.725
 9533SOL     OW29497   1.559   1.115   6.077
 9533SOL    HW129498   1.625   1.162   6.019
 9533SOL    HW229499   1.477   1.093   6.023
 9534SOL     OW29500   5.613   2.765   4.859
 9534SOL    HW129501   5.522   2.791   4.829
 9534SOL    HW229502   5.678   2.776   4.783
 9535SOL     OW29503   2.572   1.076   5.787
 9535SOL    HW129504   2.514   1.023   5.849
 9535SOL    HW229505   2.593   1.164   5.829
 9536SOL     OW29506   1.444   6.006   5.762
 9536SOL    HW129507   1.531   6.018   5.811
 9536SOL    HW229508   1.459   5.947   5.682
 9537SOL     OW29509   2.869   7.002   1.468
 9537SOL    HW129510   2.821   6.940   1.407
 9537SOL    HW229511   2.822   7.005   1.556
 9538SOL     OW29512   6.606   2.373   4.252
 9538SOL    HW129513   6.594   2.274   4.245
 9538SOL    HW229514   6.675   2.403   4.186
 9539SOL     OW29515   0.800   5.979   0.475
 9539SOL    HW129516   0.801   5.933   0.564
 9539SOL    HW229517   0.785   5.911   0.403
 9540SOL     OW29518   4.895   4.508   4.661
 9540SOL    HW129519   4.836   4.584   4.685
 9540SOL    HW229520   4.843   4.441   4.607
 9541SOL     OW29521   2.004   2.683   4.176
 9541SOL    HW129522   2.073   2.618   4.208
 9541SOL    HW229523   2.027   2.775   4.208
 9542SOL     OW29524   4.864   3.595   4.234
 9542SOL    HW129525   4.942   3.637   4.188
 9542SOL    HW229526   4.875   3.602   4.333
 9543SOL     OW29527   5.663   2.110   2.563
 9543SOL    HW129528   5.705   2.146   2.646
 9543SOL    HW229529   5.576   2.155   2.547
 9544SOL     OW29530   4.448   1.382   2.062
 9544SOL    HW129531   4.465   1.446   1.987
 9544SOL    HW229532   4.378   1.420   2.123
 9545SOL     OW29533   6.859   0.936   3.844
 9545SOL    HW129534   6.881   0.841   3.863
 9545SOL    HW229535   6.930   0.976   3.786
 9546SOL     OW29536   2.637   5.663   0.670
 9546SOL    HW129537   2.548   5.683   0.711
 9546SOL    HW229538   2.710   5.680   0.737
 9547SOL     OW29539   0.866   6.742   3.899
 9547SOL    HW129540   0.855   6.643   3.910
 9547SOL    HW229541   0.920   6.761   3.818
 9548SOL     OW29542   4.717   5.883   3.536
 9548SOL    HW129543   4.745   5.943   3.461
 9548SOL    HW229544   4.639   5.827   3.506
 9549SOL     OW29545   2.372   5.874   0.774
 9549SOL    HW129546   2.406   5.807   0.840
 9549SOL    HW229547   2.303   5.931   0.817
 9550SOL     OW29548   0.976   1.396   0.321
 9550SOL    HW129549   0.880   1.416   0.338
 9550SOL    HW229550   1.029   1.481   0.328
 9551SOL     OW29551   1.228   6.494   4.627
 9551SOL    HW129552   1.285   6.575   4.639
 9551SOL    HW229553   1.257   6.444   4.546
 9552SOL     OW29554   1.764   5.415   3.165
 9552SOL    HW129555   1.822   5.351   3.215
 9552SOL    HW229556   1.805   5.433   3.075
 9553SOL     OW29557   5.487   4.348   5.790
 9553SOL    HW129558   5.463   4.291   5.869
 9553SOL    HW229559   5.534   4.430   5.821
 9554SOL     OW29560   2.026   1.422   2.042
 9554SOL    HW129561   2.021   1.498   2.107
 9554SOL    HW229562   1.986   1.340   2.084
 9555SOL     OW29563   0.136   2.300   0.800
 9555SOL    HW129564   0.042   2.309   0.765
 9555SOL    HW229565   0.143   2.216   0.854
 9556SOL     OW29566   1.851   1.661   1.479
 9556SOL    HW129567   1.875   1.744   1.428
 9556SOL    HW229568   1.923   1.642   1.547
 9557SOL     OW29569   5.294   0.914   2.291
 9557SOL    HW129570   5.385   0.890   2.257
 9557SOL    HW229571   5.284   0.880   2.384
 9558SOL     OW29572   6.087   4.860   2.639
 9558SOL    HW129573   6.026   4.898   2.570
 9558SOL    HW229574   6.052   4.882   2.730
 9559SOL     OW29575   6.960   2.954   1.732
 9559SOL    HW129576   6.931   3.035   1.680
 9559SOL    HW229577   0.024   2.924   1.698
 9560SOL     OW29578   3.207   1.682   3.944
 9560SOL    HW129579   3.146   1.604   3.933
 9560SOL    HW229580   3.298   1.658   3.910
 9561SOL     OW29581   3.966   6.525   0.525
 9561SOL    HW129582   3.988   6.504   0.429
 9561SOL    HW229583   3.870   6.550   0.532
 9562SOL     OW29584   5.304   5.214   2.724
 9562SOL    HW129585   5.252   5.207   2.809
 9562SOL    HW229586   5.349   5.127   2.706
 9563SOL     OW29587   6.308   6.185   0.158
 9563SOL    HW129588   6.330   6.163   0.063
 9563SOL    HW229589   6.258   6.272   0.161
 9564SOL     OW29590   2.185   6.706   6.857
 9564SOL    HW129591   2.246   6.685   6.781
 9564SOL    HW229592   2.233   6.762   6.924
 9565SOL     OW29593   3.721   5.938   4.447
 9565SOL    HW129594   3.711   6.033   4.417
 9565SOL    HW229595   3.704   5.876   4.371
 9566SOL     OW29596   2.738   4.723   5.339
 9566SOL    HW129597   2.759   4.746   5.434
 9566SOL    HW229598   2.811   4.666   5.301
 9567SOL     OW29599   6.115   5.672   5.890
 9567SOL    HW129600   6.057   5.682   5.971
 9567SOL    HW229601   6.200   5.625   5.914
 9568SOL     OW29602   4.893   3.740   6.370
 9568SOL    HW129603   4.811   3.751   6.315
 9568SOL    HW229604   4.871   3.753   6.467
 9569SOL     OW29605   6.013   1.040   0.651
 9569SOL    HW129606   6.050   0.970   0.712
 9569SOL    HW229607   5.941   1.091   0.698
 9570SOL     OW29608   0.369   1.020   0.628
 9570SOL    HW129609   0.390   1.056   0.537
 9570SOL    HW229610   0.276   0.984   0.629
 9571SOL     OW29611   2.128   3.901   0.425
 9571SOL    HW129612   2.128   3.867   0.519
 9571SOL    HW229613   2.194   3.849   0.371
 9572SOL     OW29614   1.564   4.540   1.477
 9572SOL    HW129615   1.526   4.451   1.450
 9572SOL    HW229616   1.491   4.608   1.475
 9573SOL     OW29617   1.161   1.786   1.058
 9573SOL    HW129618   1.238   1.794   0.995
 9573SOL    HW229619   1.104   1.868   1.052
 9574SOL     OW29620   2.642   1.813   5.453
 9574SOL    HW129621   2.727   1.864   5.469
 9574SOL    HW229622   2.595   1.800   5.541
 9575SOL     OW29623   5.716   0.426   1.986
 9575SOL    HW129624   5.770   0.501   1.946
 9575SOL    HW229625   5.620   0.452   1.988
 9576SOL     OW29626   3.424   2.192   6.124
 9576SOL    HW129627   3.372   2.212   6.207
 9576SOL    HW229628   3.360   2.175   6.049
 9577SOL     OW29629   1.022   6.496   3.220
 9577SOL    HW129630   1.091   6.431   3.251
 9577SOL    HW229631   0.975   6.460   3.140
 9578SOL     OW29632   6.210   3.466   1.936
 9578SOL    HW129633   6.212   3.558   1.975
 9578SOL    HW229634   6.163   3.404   1.998
 9579SOL     OW29635   0.951   6.831   2.539
 9579SOL    HW129636   1.017   6.771   2.584
 9579SOL    HW229637   0.998   6.889   2.473
 9580SOL     OW29638   4.422   3.643   6.112
 9580SOL    HW129639   4.356   3.584   6.066
 9580SOL    HW229640   4.390   3.737   6.110
 9581SOL     OW29641   1.242   4.520   5.918
 9581SOL    HW129642   1.254   4.425   5.890
 9581SOL    HW229643   1.171   4.563   5.861
 9582SOL     OW29644   4.808   5.247   4.944
 9582SOL    HW129645   4.850   5.291   4.865
 9582SOL    HW229646   4.875   5.189   4.990
 9583SOL     OW29647   2.040   4.264   1.692
 9583SOL    HW129648   2.096   4.321   1.753
 9583SOL    HW229649   1.968   4.220   1.745
 9584SOL     OW29650   5.842   5.748   6.325
 9584SOL    HW129651   5.757   5.752   6.377
 9584SOL    HW229652   5.915   5.795   6.375
 9585SOL     OW29653   5.716   0.552   4.371
 9585SOL    HW129654   5.791   0.562   4.436
 9585SOL    HW229655   5.732   0.613   4.293
 9586SOL     OW29656   5.405   3.334   3.414
 9586SOL    HW129657   5.322   3.389   3.406
 9586SOL    HW229658   5.481   3.383   3.372
 9587SOL     OW29659   4.781   6.746   1.879
 9587SOL    HW129660   4.877   6.770   1.865
 9587SOL    HW229661   4.773   6.647   1.890
 9588SOL     OW29662   6.879   0.546   2.145
 9588SOL    HW129663   6.798   0.579   2.097
 9588SOL    HW229664   6.898   0.605   2.223
 9589SOL     OW29665   2.911   1.324   6.573
 9589SOL    HW129666   2.938   1.328   6.477
 9589SOL    HW229667   2.816   1.356   6.582
 9590SOL     OW29668   6.719   4.548   5.044
 9590SOL    HW129669   6.711   4.449   5.055
 9590SOL    HW229670   6.799   4.581   5.095
 9591SOL     OW29671   1.576   4.770   1.851
 9591SOL    HW129672   1.647   4.707   1.817
 9591SOL    HW229673   1.613   4.863   1.852
 9592SOL     OW29674   4.777   5.155   2.036
 9592SOL    HW129675   4.810   5.094   1.964
 9592SOL    HW229676   4.855   5.194   2.085
 9593SOL     OW29677   0.651   2.818   3.994
 9593SOL    HW129678   0.748   2.804   3.976
 9593SOL    HW229679   0.604   2.729   3.992
 9594SOL     OW29680   6.091   6.953   1.997
 9594SOL    HW129681   6.093   6.943   2.096
 9594SOL    HW229682   6.060   6.867   1.955
 9595SOL     OW29683   1.172   5.072   4.234
 9595SOL    HW129684   1.267   5.099   4.219
 9595SOL    HW229685   1.168   4.993   4.295
 9596SOL     OW29686   5.481   6.459   4.570
 9596SOL    HW129687   5.437   6.476   4.658
 9596SOL    HW229688   5.572   6.421   4.586
 9597SOL     OW29689   2.257   3.915   1.059
 9597SOL    HW129690   2.284   3.821   1.040
 9597SOL    HW229691   2.339   3.970   1.075
 9598SOL     OW29692   0.018   5.443   6.007
 9598SOL    HW129693   0.025   5.503   5.927
 9598SOL    HW229694   6.948   5.439   6.037
 9599SOL     OW29695   5.072   1.791   4.896
 9599SOL    HW129696   5.155   1.796   4.842
 9599SOL    HW229697   4.996   1.759   4.839
 9600SOL     OW29698   1.306   6.724   6.957
 9600SOL    HW129699   1.358   6.810   6.956
 9600SOL    HW229700   1.225   6.735   7.015
 9601SOL     OW29701   0.662   5.190   5.665
 9601SOL    HW129702   0.684   5.280   5.703
 9601SOL    HW229703   0.567   5.168   5.684
 9602SOL     OW29704   1.287   5.788   0.680
 9602SOL    HW129705   1.386   5.775   0.681
 9602SOL    HW229706   1.258   5.837   0.762
 9603SOL     OW29707   1.903   5.641   3.985
 9603SOL    HW129708   1.839   5.646   3.908
 9603SOL    HW229709   1.927   5.734   4.014
 9604SOL     OW29710   6.862   1.028   7.008
 9604SOL    HW129711   6.765   1.031   6.984
 9604SOL    HW229712   6.873   0.990   0.074
 9605SOL     OW29713   1.890   5.813   6.592
 9605SOL    HW129714   1.902   5.887   6.658
 9605SOL    HW229715   1.801   5.822   6.548
 9606SOL     OW29716   6.319   6.371   4.347
 9606SOL    HW129717   6.413   6.402   4.335
 9606SOL    HW229718   6.317   6.292   4.408
 9607SOL     OW29719   1.080   2.614   1.900
 9607SOL    HW129720   1.165   2.566   1.877
 9607SOL    HW229721   1.014   2.601   1.826
 9608SOL     OW29722   6.900   6.367   2.693
 9608SOL    HW129723   6.899   6.321   2.781
 9608SOL    HW229724   6.861   6.307   2.623
 9609SOL     OW29725   1.655   3.106   3.794
 9609SOL    HW129726   1.575   3.089   3.853
 9609SOL    HW229727   1.650   3.047   3.714
 9610SOL     OW29728   2.796   1.718   6.508
 9610SOL    HW129729   2.758   1.809   6.526
 9610SOL    HW229730   2.868   1.698   6.574
 9611SOL     OW29731   6.676   6.501   1.114
 9611SOL    HW129732   6.749   6.466   1.172
 9611SOL    HW229733   6.661   6.439   1.037
 9612SOL     OW29734   5.799   2.930   2.094
 9612SOL    HW129735   5.890   2.970   2.086
 9612SOL    HW229736   5.787   2.861   2.022
 9613SOL     OW29737   5.809   6.447   5.850
 9613SOL    HW129738   5.755   6.421   5.770
 9613SOL    HW229739   5.890   6.389   5.856
 9614SOL     OW29740   3.627   3.342   2.419
 9614SOL    HW129741   3.680   3.351   2.503
 9614SOL    HW229742   3.552   3.277   2.433
 9615SOL     OW29743   1.104   6.666   3.646
 9615SOL    HW129744   1.164   6.744   3.663
 9615SOL    HW229745   1.148   6.582   3.679
 9616SOL     OW29746   3.194   3.606   1.113
 9616SOL    HW129747   3.194   3.659   1.198
 9616SOL    HW229748   3.288   3.581   1.090
 9617SOL     OW29749   0.883   3.822   3.422
 9617SOL    HW129750   0.851   3.732   3.393
 9617SOL    HW229751   0.857   3.890   3.353
 9618SOL     OW29752   4.532   5.748   6.806
 9618SOL    HW129753   4.441   5.707   6.795
 9618SOL    HW229754   4.526   5.847   6.787
 9619SOL     OW29755   2.362   0.003   0.899
 9619SOL    HW129756   2.322   6.960   0.838
 9619SOL    HW229757   2.328   7.015   0.992
 9620SOL     OW29758   3.488   1.275   6.650
 9620SOL    HW129759   3.418   1.319   6.593
 9620SOL    HW229760   3.480   1.176   6.642
 9621SOL     OW29761   1.269   1.888   1.304
 9621SOL    HW129762   1.193   1.898   1.239
 9621SOL    HW229763   1.264   1.799   1.348
 9622SOL     OW29764   6.483   0.457   5.649
 9622SOL    HW129765   6.397   0.507   5.643
 9622SOL    HW229766   6.490   0.392   5.572
 9623SOL     OW29767   4.085   6.471   6.584
 9623SOL    HW129768   4.011   6.413   6.549
 9623SOL    HW229769   4.047   6.545   6.638
 9624SOL     OW29770   4.309   5.209   4.455
 9624SOL    HW129771   4.280   5.161   4.371
 9624SOL    HW229772   4.249   5.287   4.470
 9625SOL     OW29773   4.827   3.731   5.606
 9625SOL    HW129774   4.763   3.724   5.682
 9625SOL    HW229775   4.781   3.771   5.526
 9626SOL     OW29776   2.390   3.592   6.672
 9626SOL    HW129777   2.433   3.672   6.631
 9626SOL    HW229778   2.394   3.516   6.608
 9627SOL     OW29779   0.805   5.244   6.768
 9627SOL    HW129780   0.720   5.296   6.758
 9627SOL    HW229781   0.859   5.253   6.685
 9628SOL     OW29782   6.051   1.707   6.292
 9628SOL    HW129783   6.100   1.705   6.205
 9628SOL    HW229784   6.108   1.668   6.364
 9629SOL     OW29785   6.392   5.795   3.818
 9629SOL    HW129786   6.404   5.821   3.914
 9629SOL    HW229787   6.442   5.710   3.800
 9630SOL     OW29788   5.732   6.356   6.095
 9630SOL    HW129789   5.737   6.380   5.999
 9630SOL    HW229790   5.645   6.308   6.112
 9631SOL     OW29791   4.211   0.983   0.111
 9631SOL    HW129792   4.293   1.016   0.066
 9631SOL    HW229793   4.178   0.900   0.066
 9632SOL     OW29794   3.556   6.012   1.997
 9632SOL    HW129795   3.569   5.915   1.977
 9632SOL    HW229796   3.532   6.024   2.093
 9633SOL     OW29797   3.603   2.886   2.308
 9633SOL    HW129798   3.685   2.930   2.272
 9633SOL    HW229799   3.627   2.830   2.387
 9634SOL     OW29800   5.378   4.534   2.890
 9634SOL    HW129801   5.284   4.566   2.878
 9634SOL    HW229802   5.441   4.612   2.888
 9635SOL     OW29803   0.116   5.192   3.768
 9635SOL    HW129804   0.180   5.134   3.719
 9635SOL    HW229805   0.158   5.282   3.784
 9636SOL     OW29806   4.899   3.045   4.005
 9636SOL    HW129807   4.894   3.132   4.054
 9636SOL    HW229808   4.897   2.969   4.071
 9637SOL     OW29809   2.578   2.893   0.075
 9637SOL    HW129810   2.587   2.960   0.149
 9637SOL    HW229811   2.496   2.838   0.090
 9638SOL     OW29812   6.041   4.992   5.666
 9638SOL    HW129813   5.944   4.978   5.646
 9638SOL    HW229814   6.087   5.025   5.584
 9639SOL     OW29815   3.929   1.584   2.674
 9639SOL    HW129816   4.003   1.518   2.684
 9639SOL    HW229817   3.841   1.537   2.679
 9640SOL     OW29818   4.470   0.388   2.857
 9640SOL    HW129819   4.413   0.324   2.910
 9640SOL    HW229820   4.560   0.347   2.843
 9641SOL     OW29821   5.978   3.479   3.271
 9641SOL    HW129822   6.046   3.456   3.341
 9641SOL    HW229823   5.918   3.400   3.256
 9642SOL     OW29824   1.619   0.180   3.800
 9642SOL    HW129825   1.568   0.244   3.743
 9642SOL    HW229826   1.622   0.091   3.755
 9643SOL     OW29827   4.851   4.886   4.237
 9643SOL    HW129828   4.811   4.929   4.319
 9643SOL    HW229829   4.819   4.792   4.229
 9644SOL     OW29830   1.245   5.888   4.826
 9644SOL    HW129831   1.342   5.890   4.849
 9644SOL    HW229832   1.199   5.966   4.868
 9645SOL     OW29833   0.489   5.007   6.647
 9645SOL    HW129834   0.432   5.024   6.728
 9645SOL    HW229835   0.576   5.055   6.658
 9646SOL     OW29836   3.530   5.880   5.992
 9646SOL    HW129837   3.443   5.871   5.944
 9646SOL    HW229838   3.595   5.929   5.935
 9647SOL     OW29839   6.304   6.883   3.528
 9647SOL    HW129840   6.223   6.941   3.534
 9647SOL    HW229841   6.360   6.895   3.611
 9648SOL     OW29842   3.624   2.050   1.342
 9648SOL    HW129843   3.613   1.960   1.385
 9648SOL    HW229844   3.588   2.120   1.403
 9649SOL     OW29845   1.686   5.853   6.816
 9649SOL    HW129846   1.771   5.893   6.782
 9649SOL    HW229847   1.610   5.916   6.799
 9650SOL     OW29848   6.793   5.322   4.991
 9650SOL    HW129849   6.810   5.420   5.004
 9650SOL    HW229850   6.880   5.276   4.972
 9651SOL     OW29851   4.511   1.604   0.505
 9651SOL    HW129852   4.563   1.681   0.543
 9651SOL    HW229853   4.562   1.563   0.430
 9652SOL     OW29854   0.003   3.597   0.345
 9652SOL    HW129855   6.938   3.614   0.385
 9652SOL    HW229856   0.013   3.499   0.325
 9653SOL     OW29857   4.356   4.194   6.126
 9653SOL    HW129858   4.351   4.236   6.035
 9653SOL    HW229859   4.450   4.199   6.159
 9654SOL     OW29860   3.784   3.469   3.866
 9654SOL    HW129861   3.703   3.435   3.913
 9654SOL    HW229862   3.771   3.461   3.767
 9655SOL     OW29863   4.487   0.827   1.333
 9655SOL    HW129864   4.496   0.780   1.245
 9655SOL    HW229865   4.390   0.837   1.355
 9656SOL     OW29866   5.727   3.971   0.746
 9656SOL    HW129867   5.725   4.071   0.757
 9656SOL    HW229868   5.673   3.929   0.819
 9657SOL     OW29869   5.645   3.780   3.387
 9657SOL    HW129870   5.546   3.779   3.401
 9657SOL    HW229871   5.677   3.875   3.383
 9658SOL     OW29872   4.953   2.108   2.509
 9658SOL    HW129873   4.946   2.058   2.423
 9658SOL    HW229874   5.011   2.188   2.497
 9659SOL     OW29875   2.641   3.225   0.529
 9659SOL    HW129876   2.556   3.179   0.504
 9659SOL    HW229877   2.622   3.319   0.556
 9660SOL     OW29878   0.465   5.649   1.599
 9660SOL    HW129879   0.527   5.579   1.562
 9660SOL    HW229880   0.493   5.739   1.566
 9661SOL     OW29881   5.151   5.063   0.723
 9661SOL    HW129882   5.228   4.999   0.725
 9661SOL    HW229883   5.133   5.096   0.816
 9662SOL     OW29884   5.703   5.328   5.781
 9662SOL    HW129885   5.676   5.318   5.685
 9662SOL    HW229886   5.707   5.238   5.824
 9663SOL     OW29887   0.778   5.238   3.460
 9663SOL    HW129888   0.847   5.169   3.442
 9663SOL    HW229889   0.730   5.261   3.375
 9664SOL     OW29890   4.831   3.936   3.346
 9664SOL    HW129891   4.857   3.975   3.258
 9664SOL    HW229892   4.818   4.009   3.413
 9665SOL     OW29893   5.604   5.719   6.783
 9665SOL    HW129894   5.703   5.703   6.779
 9665SOL    HW229895   5.585   5.816   6.773
 9666SOL     OW29896   5.336   3.475   0.371
 9666SOL    HW129897   5.266   3.547   0.367
 9666SOL    HW229898   5.314   3.404   0.304
 9667SOL     OW29899   6.115   6.404   6.407
 9667SOL    HW129900   6.034   6.411   6.348
 9667SOL    HW229901   6.181   6.342   6.366
 9668SOL     OW29902   0.362   0.117   5.795
 9668SOL    HW129903   0.297   0.043   5.808
 9668SOL    HW229904   0.431   0.090   5.728
 9669SOL     OW29905   3.872   0.004   0.218
 9669SOL    HW129906   3.902   0.078   0.158
 9669SOL    HW229907   3.818   0.042   0.294
 9670SOL     OW29908   0.088   6.929   6.617
 9670SOL    HW129909   0.014   6.991   6.593
 9670SOL    HW229910   0.088   6.913   6.715
 9671SOL     OW29911   1.330   5.677   6.330
 9671SOL    HW129912   1.286   5.715   6.411
 9671SOL    HW229913   1.331   5.578   6.335
 9672SOL     OW29914   0.888   3.295   4.406
 9672SOL    HW129915   0.918   3.249   4.323
 9672SOL    HW229916   0.866   3.391   4.386
 9673SOL     OW29917   2.268   4.173   0.880
 9673SOL    HW129918   2.270   4.190   0.979
 9673SOL    HW229919   2.337   4.105   0.856
 9674SOL     OW29920   2.710   5.985   4.520
 9674SOL    HW129921   2.719   6.019   4.426
 9674SOL    HW229922   2.629   5.927   4.527
 9675SOL     OW29923   4.543   3.591   1.253
 9675SOL    HW129924   4.637   3.611   1.228
 9675SOL    HW229925   4.517   3.502   1.215
 9676SOL     OW29926   0.642   2.872   6.457
 9676SOL    HW129927   0.706   2.806   6.497
 9676SOL    HW229928   0.549   2.852   6.488
 9677SOL     OW29929   6.690   5.115   0.713
 9677SOL    HW129930   6.612   5.156   0.759
 9677SOL    HW229931   6.694   5.147   0.618
 9678SOL     OW29932   3.809   3.266   4.858
 9678SOL    HW129933   3.790   3.348   4.911
 9678SOL    HW229934   3.865   3.203   4.913
 9679SOL     OW29935   2.048   1.554   4.859
 9679SOL    HW129936   1.975   1.556   4.791
 9679SOL    HW229937   2.091   1.464   4.858
 9680SOL     OW29938   4.710   5.859   2.515
 9680SOL    HW129939   4.768   5.934   2.482
 9680SOL    HW229940   4.725   5.779   2.458
 9681SOL     OW29941   1.469   1.695   2.616
 9681SOL    HW129942   1.507   1.664   2.703
 9681SOL    HW229943   1.441   1.790   2.623
 9682SOL     OW29944   5.432   5.437   5.127
 9682SOL    HW129945   5.440   5.530   5.163
 9682SOL    HW229946   5.347   5.429   5.075
 9683SOL     OW29947   2.898   5.917   2.009
 9683SOL    HW129948   2.945   5.829   2.006
 9683SOL    HW229949   2.941   5.980   1.943
 9684SOL     OW29950   1.130   3.848   5.761
 9684SOL    HW129951   1.174   3.770   5.805
 9684SOL    HW229952   1.063   3.816   5.694
 9685SOL     OW29953   3.733   4.649   1.422
 9685SOL    HW129954   3.676   4.620   1.345
 9685SOL    HW229955   3.825   4.669   1.389
 9686SOL     OW29956   0.125   1.846   5.867
 9686SOL    HW129957   0.086   1.779   5.803
 9686SOL    HW229958   0.091   1.828   5.959
 9687SOL     OW29959   5.816   0.921   2.088
 9687SOL    HW129960   5.854   0.994   2.031
 9687SOL    HW229961   5.853   0.929   2.181
 9688SOL     OW29962   0.157   4.174   1.260
 9688SOL    HW129963   0.218   4.200   1.334
 9688SOL    HW229964   0.149   4.249   1.194
 9689SOL     OW29965   1.413   6.223   0.730
 9689SOL    HW129966   1.363   6.164   0.666
 9689SOL    HW229967   1.476   6.281   0.679
 9690SOL     OW29968   6.121   5.092   5.397
 9690SOL    HW129969   6.210   5.055   5.424
 9690SOL    HW229970   6.126   5.127   5.303
 9691SOL     OW29971   3.174   4.055   1.922
 9691SOL    HW129972   3.217   4.004   1.847
 9691SOL    HW229973   3.244   4.101   1.976
 9692SOL     OW29974   5.330   5.110   1.258
 9692SOL    HW129975   5.384   5.137   1.338
 9692SOL    HW229976   5.234   5.101   1.285
 9693SOL     OW29977   5.445   3.802   4.519
 9693SOL    HW129978   5.372   3.754   4.471
 9693SOL    HW229979   5.522   3.815   4.456
 9694SOL     OW29980   3.612   6.868   2.450
 9694SOL    HW129981   3.539   6.879   2.517
 9694SOL    HW229982   3.576   6.823   2.368
 9695SOL     OW29983   0.868   2.531   3.214
 9695SOL    HW129984   0.778   2.546   3.173
 9695SOL    HW229985   0.926   2.480   3.150
 9696SOL     OW29986   5.992   2.307   2.452
 9696SOL    HW129987   5.954   2.351   2.534
 9696SOL    HW229988   5.947   2.219   2.437
 9697SOL     OW29989   1.023   6.040   0.771
 9697SOL    HW129990   1.107   6.006   0.812
 9697SOL    HW229991   1.028   6.029   0.672
 9698SOL     OW29992   5.979   3.108   0.596
 9698SOL    HW129993   6.000   3.204   0.612
 9698SOL    HW229994   5.983   3.057   0.683
 9699SOL     OW29995   1.435   5.371   1.379
 9699SOL    HW129996   1.414   5.437   1.307
 9699SOL    HW229997   1.367   5.379   1.453
 9700SOL     OW29998   5.556   0.343   5.255
 9700SOL    HW129999   5.489   0.360   5.183
 9700SOL    HW230000   5.647   0.334   5.214
 9701SOL     OW30001   4.423   3.462   6.448
 9701SOL    HW130002   4.394   3.399   6.520
 9701SOL    HW230003   4.358   3.459   6.372
 9702SOL     OW30004   3.760   2.927   1.368
 9702SOL    HW130005   3.724   2.859   1.303
 9702SOL    HW230006   3.744   2.896   1.461
 9703SOL     OW30007   6.854   3.914   4.891
 9703SOL    HW130008   6.903   3.899   4.978
 9703SOL    HW230009   6.882   4.002   4.853
 9704SOL     OW30010   2.280   4.249   2.899
 9704SOL    HW130011   2.183   4.270   2.909
 9704SOL    HW230012   2.306   4.177   2.964
 9705SOL     OW30013   6.340   3.224   5.767
 9705SOL    HW130014   6.369   3.314   5.734
 9705SOL    HW230015   6.240   3.220   5.772
 9706SOL     OW30016   1.370   1.639   2.256
 9706SOL    HW130017   1.415   1.639   2.345
 9706SOL    HW230018   1.438   1.636   2.183
 9707SOL     OW30019   6.933   4.918   2.653
 9707SOL    HW130020   6.880   4.834   2.651
 9707SOL    HW230021   6.992   4.918   2.733
 9708SOL     OW30022   2.388   0.506   2.283
 9708SOL    HW130023   2.474   0.558   2.293
 9708SOL    HW230024   2.338   0.541   2.203
 9709SOL     OW30025   5.833   1.944   2.390
 9709SOL    HW130026   5.773   1.992   2.453
 9709SOL    HW230027   5.927   1.973   2.405
 9710SOL     OW30028   6.218   5.910   4.058
 9710SOL    HW130029   6.288   5.898   4.127
 9710SOL    HW230030   6.236   5.994   4.007
 9711SOL     OW30031   4.188   0.307   7.008
 9711SOL    HW130032   4.227   0.315   0.074
 9711SOL    HW230033   4.091   0.284   7.014
 9712SOL     OW30034   5.450   1.973   6.884
 9712SOL    HW130035   5.546   1.994   6.903
 9712SOL    HW230036   5.443   1.879   6.850
 9713SOL     OW30037   1.285   6.679   3.278
 9713SOL    HW130038   1.201   6.626   3.268
 9713SOL    HW230039   1.365   6.619   3.272
 9714SOL     OW30040   2.653   4.665   4.415
 9714SOL    HW130041   2.669   4.754   4.457
 9714SOL    HW230042   2.668   4.592   4.483
 9715SOL     OW30043   6.520   3.675   0.139
 9715SOL    HW130044   6.572   3.597   0.174
 9715SOL    HW230045   6.488   3.656   0.047
 9716SOL     OW30046   2.924   4.975   0.074
 9716SOL    HW130047   2.838   4.923   0.080
 9716SOL    HW230048   2.948   5.007   0.166
 9717SOL     OW30049   4.285   0.951   5.287
 9717SOL    HW130050   4.317   0.971   5.380
 9717SOL    HW230051   4.212   1.014   5.262
 9718SOL     OW30052   3.391   2.459   6.990
 9718SOL    HW130053   3.314   2.518   6.966
 9718SOL    HW230054   3.395   2.383   6.925
 9719SOL     OW30055   4.581   6.188   4.721
 9719SOL    HW130056   4.506   6.247   4.691
 9719SOL    HW230057   4.662   6.244   4.741
 9720SOL     OW30058   2.205   3.898   2.899
 9720SOL    HW130059   2.139   3.823   2.888
 9720SOL    HW230060   2.256   3.911   2.814
 9721SOL     OW30061   0.728   1.595   0.467
 9721SOL    HW130062   0.667   1.624   0.541
 9721SOL    HW230063   0.686   1.519   0.417
 9722SOL     OW30064   3.886   3.097   5.102
 9722SOL    HW130065   3.842   3.032   5.040
 9722SOL    HW230066   3.896   3.055   5.193
 9723SOL     OW30067   6.500   5.794   4.120
 9723SOL    HW130068   6.580   5.734   4.122
 9723SOL    HW230069   6.528   5.886   4.092
 9724SOL     OW30070   1.077   5.403   0.142
 9724SOL    HW130071   0.996   5.413   0.085
 9724SOL    HW230072   1.138   5.480   0.128
 9725SOL     OW30073   3.339   5.557   5.458
 9725SOL    HW130074   3.301   5.497   5.529
 9725SOL    HW230075   3.366   5.644   5.500
 9726SOL     OW30076   6.068   1.346   4.181
 9726SOL    HW130077   6.082   1.423   4.119
 9726SOL    HW230078   6.156   1.311   4.211
 9727SOL     OW30079   0.787   1.107   0.077
 9727SOL    HW130080   0.806   1.205   0.067
 9727SOL    HW230081   0.831   1.073   0.160
 9728SOL     OW30082   4.804   0.906   5.716
 9728SOL    HW130083   4.754   0.841   5.660
 9728SOL    HW230084   4.874   0.951   5.661
 9729SOL     OW30085   0.404   5.412   3.249
 9729SOL    HW130086   0.331   5.475   3.222
 9729SOL    HW230087   0.370   5.352   3.321
 9730SOL     OW30088   6.967   4.336   3.433
 9730SOL    HW130089   6.981   4.245   3.394
 9730SOL    HW230090   6.979   4.333   3.532
 9731SOL     OW30091   4.978   3.571   2.516
 9731SOL    HW130092   5.065   3.524   2.522
 9731SOL    HW230093   4.976   3.628   2.434
 9732SOL     OW30094   1.131   2.881   2.247
 9732SOL    HW130095   1.094   2.894   2.155
 9732SOL    HW230096   1.217   2.830   2.242
 9733SOL     OW30097   6.623   4.979   2.705
 9733SOL    HW130098   6.589   4.895   2.747
 9733SOL    HW230099   6.665   4.958   2.617
 9734SOL     OW30100   6.132   6.489   5.623
 9734SOL    HW130101   6.175   6.431   5.554
 9734SOL    HW230102   6.058   6.438   5.668
 9735SOL     OW30103   1.575   2.521   2.273
 9735SOL    HW130104   1.545   2.426   2.282
 9735SOL    HW230105   1.499   2.577   2.240
 9736SOL     OW30106   4.736   2.335   5.034
 9736SOL    HW130107   4.745   2.257   5.096
 9736SOL    HW230108   4.815   2.395   5.046
 9737SOL     OW30109   5.890   2.426   2.664
 9737SOL    HW130110   5.842   2.363   2.727
 9737SOL    HW230111   5.873   2.520   2.693
 9738SOL     OW30112   1.761   5.857   2.176
 9738SOL    HW130113   1.688   5.921   2.203
 9738SOL    HW230114   1.815   5.833   2.255
 9739SOL     OW30115   5.992   0.080   0.235
 9739SOL    HW130116   6.026   0.035   0.153
 9739SOL    HW230117   6.038   0.168   0.246
 9740SOL     OW30118   6.948   1.029   1.916
 9740SOL    HW130119   6.928   1.127   1.916
 9740SOL    HW230120   6.962   0.998   1.822
 9741SOL     OW30121   2.747   1.402   4.833
 9741SOL    HW130122   2.808   1.325   4.853
 9741SOL    HW230123   2.789   1.460   4.763
 9742SOL     OW30124   3.932   2.497   5.935
 9742SOL    HW130125   3.898   2.496   6.029
 9742SOL    HW230126   3.910   2.410   5.891
 9743SOL     OW30127   6.048   3.466   4.032
 9743SOL    HW130128   6.043   3.374   3.992
 9743SOL    HW230129   6.138   3.478   4.075
 9744SOL     OW30130   2.093   0.494   3.894
 9744SOL    HW130131   2.047   0.412   3.928
 9744SOL    HW230132   2.026   0.555   3.853
 9745SOL     OW30133   6.825   0.858   5.249
 9745SOL    HW130134   6.818   0.957   5.264
 9745SOL    HW230135   6.908   0.823   5.291
 9746SOL     OW30136   4.241   5.247   6.231
 9746SOL    HW130137   4.144   5.252   6.256
 9746SOL    HW230138   4.253   5.183   6.156
 9747SOL     OW30139   2.315   2.715   3.156
 9747SOL    HW130140   2.379   2.688   3.083
 9747SOL    HW230141   2.335   2.662   3.238
 9748SOL     OW30142   1.154   0.607   3.172
 9748SOL    HW130143   1.130   0.544   3.098
 9748SOL    HW230144   1.071   0.649   3.209
 9749SOL     OW30145   6.628   1.503   1.788
 9749SOL    HW130146   6.591   1.418   1.825
 9749SOL    HW230147   6.680   1.551   1.859
 9750SOL     OW30148   6.886   4.548   4.049
 9750SOL    HW130149   6.858   4.466   4.001
 9750SOL    HW230150   6.982   4.567   4.029
 9751SOL     OW30151   2.526   1.302   1.833
 9751SOL    HW130152   2.563   1.259   1.915
 9751SOL    HW230153   2.447   1.358   1.857
 9752SOL     OW30154   3.585   3.230   6.848
 9752SOL    HW130155   3.545   3.139   6.846
 9752SOL    HW230156   3.516   3.296   6.877
 9753SOL     OW30157   6.398   6.071   5.006
 9753SOL    HW130158   6.447   6.127   5.073
 9753SOL    HW230159   6.354   6.130   4.938
 9754SOL     OW30160   3.735   1.330   1.120
 9754SOL    HW130161   3.702   1.285   1.204
 9754SOL    HW230162   3.710   1.274   1.041
 9755SOL     OW30163   3.427   4.682   6.572
 9755SOL    HW130164   3.452   4.585   6.573
 9755SOL    HW230165   3.354   4.698   6.637
 9756SOL     OW30166   6.168   0.543   6.140
 9756SOL    HW130167   6.088   0.601   6.124
 9756SOL    HW230168   6.240   0.567   6.075
 9757SOL     OW30169   4.912   4.005   3.786
 9757SOL    HW130170   4.924   3.907   3.772
 9757SOL    HW230171   4.999   4.052   3.771
 9758SOL     OW30172   1.947   0.481   1.039
 9758SOL    HW130173   1.861   0.510   1.080
 9758SOL    HW230174   1.956   0.521   0.948
 9759SOL     OW30175   0.670   0.995   0.648
 9759SOL    HW130176   0.575   1.020   0.667
 9759SOL    HW230177   0.678   0.958   0.556
 9760SOL     OW30178   4.400   2.124   0.153
 9760SOL    HW130179   4.333   2.093   0.221
 9760SOL    HW230180   4.488   2.138   0.198
 9761SOL     OW30181   1.347   2.359   1.973
 9761SOL    HW130182   1.426   2.378   1.913
 9761SOL    HW230183   1.373   2.292   2.042
 9762SOL     OW30184   2.516   1.400   5.579
 9762SOL    HW130185   2.529   1.448   5.493
 9762SOL    HW230186   2.482   1.307   5.560
 9763SOL     OW30187   6.097   1.554   0.756
 9763SOL    HW130188   6.093   1.607   0.671
 9763SOL    HW230189   6.191   1.553   0.790
 9764SOL     OW30190   5.430   2.034   2.285
 9764SOL    HW130191   5.364   1.959   2.274
 9764SOL    HW230192   5.520   2.004   2.253
 9765SOL     OW30193   6.616   1.244   1.226
 9765SOL    HW130194   6.543   1.306   1.256
 9765SOL    HW230195   6.703   1.294   1.225
 9766SOL     OW30196   2.212   1.272   4.821
 9766SOL    HW130197   2.192   1.257   4.724
 9766SOL    HW230198   2.135   1.240   4.876
 9767SOL     OW30199   2.037   3.373   5.952
 9767SOL    HW130200   2.112   3.331   6.004
 9767SOL    HW230201   2.075   3.421   5.873
 9768SOL     OW30202   6.302   2.359   1.110
 9768SOL    HW130203   6.240   2.337   1.184
 9768SOL    HW230204   6.251   2.403   1.036
 9769SOL     OW30205   2.935   1.823   4.943
 9769SOL    HW130206   2.878   1.852   4.867
 9769SOL    HW230207   2.992   1.899   4.974
 9770SOL     OW30208   2.880   2.065   6.385
 9770SOL    HW130209   2.929   1.984   6.352
 9770SOL    HW230210   2.841   2.113   6.307
 9771SOL     OW30211   3.105   6.410   3.191
 9771SOL    HW130212   3.099   6.399   3.092
 9771SOL    HW230213   3.174   6.348   3.227
 9772SOL     OW30214   1.277   6.504   1.472
 9772SOL    HW130215   1.246   6.472   1.382
 9772SOL    HW230216   1.204   6.493   1.539
 9773SOL     OW30217   4.829   5.446   1.705
 9773SOL    HW130218   4.840   5.504   1.785
 9773SOL    HW230219   4.761   5.375   1.724
 9774SOL     OW30220   0.853   5.605   4.300
 9774SOL    HW130221   0.891   5.545   4.230
 9774SOL    HW230222   0.768   5.567   4.335
 9775SOL     OW30223   2.055   1.147   3.983
 9775SOL    HW130224   2.020   1.076   4.044
 9775SOL    HW230225   2.119   1.205   4.033
 9776SOL     OW30226   1.494   5.980   6.520
 9776SOL    HW130227   1.566   5.954   6.455
 9776SOL    HW230228   1.407   5.941   6.490
 9777SOL     OW30229   4.867   0.407   5.897
 9777SOL    HW130230   4.887   0.504   5.884
 9777SOL    HW230231   4.772   0.396   5.928
 9778SOL     OW30232   0.075   2.691   4.017
 9778SOL    HW130233   0.047   2.777   3.975
 9778SOL    HW230234   0.082   2.703   4.116
 9779SOL     OW30235   1.473   0.948   3.751
 9779SOL    HW130236   1.484   0.893   3.669
 9779SOL    HW230237   1.422   1.031   3.729
 9780SOL     OW30238   2.060   2.339   1.588
 9780SOL    HW130239   2.107   2.307   1.506
 9780SOL    HW230240   2.073   2.438   1.597
 9781SOL     OW30241   1.761   2.800   3.707
 9781SOL    HW130242   1.827   2.875   3.697
 9781SOL    HW230243   1.668   2.837   3.705
 9782SOL     OW30244   0.267   2.393   1.625
 9782SOL    HW130245   0.201   2.339   1.573
 9782SOL    HW230246   0.238   2.489   1.625
 9783SOL     OW30247   3.442   1.369   2.963
 9783SOL    HW130248   3.388   1.312   3.026
 9783SOL    HW230249   3.499   1.432   3.015
 9784SOL     OW30250   1.798   1.337   0.413
 9784SOL    HW130251   1.736   1.354   0.490
 9784SOL    HW230252   1.854   1.418   0.397
 9785SOL     OW30253   6.783   2.379   4.450
 9785SOL    HW130254   6.834   2.464   4.460
 9785SOL    HW230255   6.703   2.394   4.393
 9786SOL     OW30256   2.273   4.789   1.190
 9786SOL    HW130257   2.179   4.817   1.207
 9786SOL    HW230258   2.274   4.704   1.138
 9787SOL     OW30259   3.742   3.265   2.710
 9787SOL    HW130260   3.762   3.174   2.673
 9787SOL    HW230261   3.657   3.261   2.762
 9788SOL     OW30262   6.649   6.202   1.450
 9788SOL    HW130263   6.655   6.301   1.437
 9788SOL    HW230264   6.553   6.175   1.451
 9789SOL     OW30265   3.666   0.321   6.660
 9789SOL    HW130266   3.596   0.381   6.699
 9789SOL    HW230267   3.739   0.307   6.728
 9790SOL     OW30268   0.367   4.740   4.398
 9790SOL    HW130269   0.326   4.766   4.311
 9790SOL    HW230270   0.322   4.791   4.472
 9791SOL     OW30271   1.209   6.420   1.217
 9791SOL    HW130272   1.235   6.354   1.146
 9791SOL    HW230273   1.115   6.450   1.201
 9792SOL     OW30274   3.743   5.780   1.202
 9792SOL    HW130275   3.741   5.726   1.118
 9792SOL    HW230276   3.792   5.729   1.273
 9793SOL     OW30277   4.717   1.816   2.512
 9793SOL    HW130278   4.638   1.798   2.454
 9793SOL    HW230279   4.793   1.850   2.456
 9794SOL     OW30280   4.882   4.650   5.036
 9794SOL    HW130281   4.981   4.655   5.029
 9794SOL    HW230282   4.850   4.567   4.990
 9795SOL     OW30283   1.257   3.650   3.790
 9795SOL    HW130284   1.260   3.746   3.762
 9795SOL    HW230285   1.284   3.592   3.714
 9796SOL     OW30286   3.153   3.395   3.135
 9796SOL    HW130287   3.136   3.424   3.229
 9796SOL    HW230288   3.186   3.472   3.082
 9797SOL     OW30289   3.092   6.853   6.329
 9797SOL    HW130290   3.138   6.776   6.374
 9797SOL    HW230291   3.069   6.827   6.235
 9798SOL     OW30292   1.339   3.251   0.247
 9798SOL    HW130293   1.288   3.179   0.201
 9798SOL    HW230294   1.355   3.327   0.184
 9799SOL     OW30295   2.398   0.002   6.021
 9799SOL    HW130296   2.376   0.008   5.923
 9799SOL    HW230297   2.494   7.004   6.032
 9800SOL     OW30298   6.287   3.435   4.738
 9800SOL    HW130299   6.263   3.434   4.641
 9800SOL    HW230300   6.332   3.522   4.761
 9801SOL     OW30301   6.448   5.729   6.841
 9801SOL    HW130302   6.481   5.658   6.904
 9801SOL    HW230303   6.412   5.806   6.893
 9802SOL     OW30304   4.670   4.807   0.909
 9802SOL    HW130305   4.766   4.813   0.882
 9802SOL    HW230306   4.662   4.764   0.998
 9803SOL     OW30307   0.594   3.813   6.547
 9803SOL    HW130308   0.637   3.778   6.630
 9803SOL    HW230309   0.584   3.912   6.554
 9804SOL     OW30310   6.621   5.317   2.303
 9804SOL    HW130311   6.709   5.280   2.274
 9804SOL    HW230312   6.601   5.400   2.253
 9805SOL     OW30313   0.584   6.686   4.069
 9805SOL    HW130314   0.648   6.611   4.086
 9805SOL    HW230315   0.493   6.661   4.100
 9806SOL     OW30316   2.945   2.527   5.621
 9806SOL    HW130317   2.890   2.484   5.692
 9806SOL    HW230318   2.934   2.627   5.627
 9807SOL     OW30319   3.009   3.802   1.882
 9807SOL    HW130320   3.014   3.878   1.817
 9807SOL    HW230321   3.019   3.836   1.975
 9808SOL     OW30322   4.768   6.747   3.532
 9808SOL    HW130323   4.744   6.807   3.456
 9808SOL    HW230324   4.699   6.756   3.605
 9809SOL     OW30325   0.198   2.779   0.601
 9809SOL    HW130326   0.152   2.861   0.634
 9809SOL    HW230327   0.255   2.741   0.674
 9810SOL     OW30328   1.759   1.730   6.561
 9810SOL    HW130329   1.713   1.642   6.555
 9810SOL    HW230330   1.854   1.717   6.589
 9811SOL     OW30331   6.204   4.166   3.982
 9811SOL    HW130332   6.259   4.137   4.061
 9811SOL    HW230333   6.138   4.235   4.012
 9812SOL     OW30334   2.548   6.224   4.812
 9812SOL    HW130335   2.468   6.168   4.792
 9812SOL    HW230336   2.530   6.280   4.893
 9813SOL     OW30337   4.870   2.148   1.299
 9813SOL    HW130338   4.812   2.223   1.266
 9813SOL    HW230339   4.892   2.164   1.395
 9814SOL     OW30340   5.759   1.006   0.362
 9814SOL    HW130341   5.850   1.004   0.322
 9814SOL    HW230342   5.692   0.971   0.296
 9815SOL     OW30343   4.226   2.315   4.685
 9815SOL    HW130344   4.263   2.408   4.678
 9815SOL    HW230345   4.274   2.255   4.620
 9816SOL     OW30346   1.269   0.417   0.642
 9816SOL    HW130347   1.306   0.324   0.640
 9816SOL    HW230348   1.187   0.418   0.700
 9817SOL     OW30349   0.231   6.768   3.711
 9817SOL    HW130350   0.301   6.701   3.733
 9817SOL    HW230351   0.274   6.856   3.691
 9818SOL     OW30352   6.204   2.439   4.592
 9818SOL    HW130353   6.168   2.383   4.518
 9818SOL    HW230354   6.294   2.475   4.565
 9819SOL     OW30355   3.629   1.581   3.637
 9819SOL    HW130356   3.639   1.678   3.660
 9819SOL    HW230357   3.693   1.527   3.692
 9820SOL     OW30358   4.062   4.227   6.134
 9820SOL    HW130359   4.037   4.268   6.222
 9820SOL    HW230360   4.158   4.201   6.135
 9821SOL     OW30361   5.191   5.802   6.576
 9821SOL    HW130362   5.096   5.813   6.546
 9821SOL    HW230363   5.251   5.856   6.517
 9822SOL     OW30364   0.599   6.980   2.973
 9822SOL    HW130365   0.508   7.021   2.981
 9822SOL    HW230366   0.589   6.885   2.943
 9823SOL     OW30367   3.725   0.879   1.843
 9823SOL    HW130368   3.668   0.819   1.787
 9823SOL    HW230369   3.771   0.946   1.785
 9824SOL     OW30370   1.379   4.396   5.294
 9824SOL    HW130371   1.451   4.466   5.293
 9824SOL    HW230372   1.292   4.438   5.268
 9825SOL     OW30373   3.823   4.815   5.274
 9825SOL    HW130374   3.728   4.800   5.246
 9825SOL    HW230375   3.878   4.840   5.194
 9826SOL     OW30376   4.621   6.765   6.025
 9826SOL    HW130377   4.646   6.770   5.928
 9826SOL    HW230378   4.591   6.672   6.047
 9827SOL     OW30379   1.863   4.171   4.983
 9827SOL    HW130380   1.853   4.204   4.890
 9827SOL    HW230381   1.960   4.175   5.010
 9828SOL     OW30382   4.017   2.269   0.165
 9828SOL    HW130383   4.062   2.230   0.084
 9828SOL    HW230384   3.918   2.269   0.151
 9829SOL     OW30385   2.934   6.328   0.184
 9829SOL    HW130386   2.903   6.403   0.242
 9829SOL    HW230387   2.855   6.283   0.143
 9830SOL     OW30388   5.544   1.488   0.963
 9830SOL    HW130389   5.551   1.495   1.063
 9830SOL    HW230390   5.614   1.424   0.929
 9831SOL     OW30391   1.460   6.274   1.547
 9831SOL    HW130392   1.433   6.352   1.492
 9831SOL    HW230393   1.487   6.198   1.487
 9832SOL     OW30394   4.587   5.296   1.805
 9832SOL    HW130395   4.590   5.287   1.905
 9832SOL    HW230396   4.494   5.279   1.773
 9833SOL     OW30397   3.746   3.776   5.093
 9833SOL    HW130398   3.715   3.790   5.187
 9833SOL    HW230399   3.751   3.865   5.047
 9834SOL     OW30400   2.053   4.085   5.514
 9834SOL    HW130401   2.024   4.181   5.515
 9834SOL    HW230402   2.129   4.074   5.451
 9835SOL     OW30403   5.317   2.006   4.558
 9835SOL    HW130404   5.389   2.074   4.545
 9835SOL    HW230405   5.286   1.973   4.469
 9836SOL     OW30406   5.426   3.611   3.102
 9836SOL    HW130407   5.462   3.704   3.091
 9836SOL    HW230408   5.437   3.582   3.197
 9837SOL     OW30409   2.267   0.081   3.885
 9837SOL    HW130410   2.202   0.083   3.960
 9837SOL    HW230411   2.269   0.170   3.839
 9838SOL     OW30412   0.841   6.495   6.178
 9838SOL    HW130413   0.928   6.528   6.216
 9838SOL    HW230414   0.822   6.542   6.092
 9839SOL     OW30415   6.413   1.654   1.736
 9839SOL    HW130416   6.398   1.723   1.807
 9839SOL    HW230417   6.502   1.612   1.748
 9840SOL     OW30418   0.058   0.703   1.157
 9840SOL    HW130419   0.093   0.745   1.241
 9840SOL    HW230420   0.133   0.659   1.108
 9841SOL     OW30421   1.483   3.985   4.944
 9841SOL    HW130422   1.527   3.928   4.876
 9841SOL    HW230423   1.527   3.972   5.033
 9842SOL     OW30424   3.498   3.327   2.791
 9842SOL    HW130425   3.399   3.311   2.790
 9842SOL    HW230426   3.523   3.379   2.873
 9843SOL     OW30427   6.667   1.864   1.121
 9843SOL    HW130428   6.755   1.903   1.150
 9843SOL    HW230429   6.668   1.851   1.022
 9844SOL     OW30430   4.453   6.792   2.570
 9844SOL    HW130431   4.379   6.817   2.632
 9844SOL    HW230432   4.447   6.695   2.548
 9845SOL     OW30433   2.706   1.677   4.643
 9845SOL    HW130434   2.774   1.746   4.620
 9845SOL    HW230435   2.733   1.589   4.604
 9846SOL     OW30436   3.055   3.923   3.076
 9846SOL    HW130437   3.000   3.885   3.001
 9846SOL    HW230438   3.022   3.886   3.163
 9847SOL     OW30439   2.546   2.980   6.401
 9847SOL    HW130440   2.456   2.998   6.441
 9847SOL    HW230441   2.610   2.952   6.473
 9848SOL     OW30442   4.587   2.845   6.281
 9848SOL    HW130443   4.520   2.773   6.265
 9848SOL    HW230444   4.657   2.813   6.346
 9849SOL     OW30445   6.263   0.612   6.841
 9849SOL    HW130446   6.234   0.707   6.849
 9849SOL    HW230447   6.227   0.573   6.757
 9850SOL     OW30448   4.210   6.341   2.866
 9850SOL    HW130449   4.230   6.267   2.803
 9850SOL    HW230450   4.292   6.365   2.918
 9851SOL     OW30451   4.564   2.028   5.079
 9851SOL    HW130452   4.630   1.963   5.042
 9851SOL    HW230453   4.607   2.081   5.152
 9852SOL     OW30454   4.667   1.862   3.631
 9852SOL    HW130455   4.585   1.811   3.658
 9852SOL    HW230456   4.640   1.942   3.578
 9853SOL     OW30457   5.269   4.222   2.195
 9853SOL    HW130458   5.225   4.295   2.144
 9853SOL    HW230459   5.213   4.139   2.189
 9854SOL     OW30460   5.721   5.574   4.826
 9854SOL    HW130461   5.770   5.658   4.803
 9854SOL    HW230462   5.787   5.500   4.843
 9855SOL     OW30463   1.012   4.549   1.206
 9855SOL    HW130464   1.068   4.466   1.207
 9855SOL    HW230465   1.043   4.609   1.132
 9856SOL     OW30466   3.963   4.042   0.810
 9856SOL    HW130467   3.882   4.101   0.801
 9856SOL    HW230468   3.933   3.947   0.821
 9857SOL     OW30469   5.572   1.772   2.732
 9857SOL    HW130470   5.499   1.712   2.765
 9857SOL    HW230471   5.554   1.866   2.761
 9858SOL     OW30472   4.801   0.515   1.775
 9858SOL    HW130473   4.719   0.505   1.719
 9858SOL    HW230474   4.852   0.596   1.746
 9859SOL     OW30475   5.912   0.404   1.286
 9859SOL    HW130476   5.884   0.324   1.339
 9859SOL    HW230477   5.847   0.479   1.302
 9860SOL     OW30478   0.277   0.722   1.352
 9860SOL    HW130479   0.225   0.656   1.406
 9860SOL    HW230480   0.340   0.772   1.412
 9861SOL     OW30481   3.660   6.118   4.749
 9861SOL    HW130482   3.593   6.185   4.716
 9861SOL    HW230483   3.616   6.058   4.816
 9862SOL     OW30484   2.542   3.573   0.829
 9862SOL    HW130485   2.596   3.634   0.770
 9862SOL    HW230486   2.495   3.627   0.898
 9863SOL     OW30487   3.106   0.086   2.825
 9863SOL    HW130488   3.204   0.086   2.847
 9863SOL    HW230489   3.060   0.013   2.877
 9864SOL     OW30490   4.687   5.959   3.803
 9864SOL    HW130491   4.647   6.039   3.758
 9864SOL    HW230492   4.678   5.879   3.743
 9865SOL     OW30493   0.431   0.354   3.575
 9865SOL    HW130494   0.462   0.316   3.488
 9865SOL    HW230495   0.425   0.454   3.567
 9866SOL     OW30496   4.834   4.086   4.504
 9866SOL    HW130497   4.834   4.042   4.593
 9866SOL    HW230498   4.863   4.021   4.434
 9867SOL     OW30499   3.903   1.286   0.319
 9867SOL    HW130500   3.937   1.265   0.227
 9867SOL    HW230501   3.858   1.206   0.357
 9868SOL     OW30502   0.861   4.543   0.052
 9868SOL    HW130503   0.822   4.515   6.990
 9868SOL    HW230504   0.855   4.643   0.060
 9869SOL     OW30505   1.676   3.849   3.703
 9869SOL    HW130506   1.707   3.786   3.631
 9869SOL    HW230507   1.624   3.798   3.771
 9870SOL     OW30508   4.862   6.089   2.410
 9870SOL    HW130509   4.929   6.064   2.480
 9870SOL    HW230510   4.904   6.155   2.347
 9871SOL     OW30511   1.582   0.357   5.978
 9871SOL    HW130512   1.514   0.417   5.935
 9871SOL    HW230513   1.671   0.401   5.975
 9872SOL     OW30514   2.664   4.999   3.117
 9872SOL    HW130515   2.739   4.954   3.067
 9872SOL    HW230516   2.649   4.950   3.203
 9873SOL     OW30517   2.046   3.063   0.510
 9873SOL    HW130518   1.971   3.041   0.572
 9873SOL    HW230519   2.102   3.135   0.549
 9874SOL     OW30520   0.809   2.228   4.058
 9874SOL    HW130521   0.814   2.218   3.959
 9874SOL    HW230522   0.742   2.163   4.094
 9875SOL     OW30523   0.708   0.768   1.803
 9875SOL    HW130524   0.741   0.704   1.872
 9875SOL    HW230525   0.687   0.856   1.847
 9876SOL     OW30526   6.750   0.888   2.246
 9876SOL    HW130527   6.811   0.821   2.290
 9876SOL    HW230528   6.655   0.867   2.269
 9877SOL     OW30529   2.635   6.492   2.811
 9877SOL    HW130530   2.561   6.552   2.843
 9877SOL    HW230531   2.722   6.521   2.851
 9878SOL     OW30532   2.009   5.680   6.211
 9878SOL    HW130533   1.917   5.648   6.186
 9878SOL    HW230534   2.077   5.621   6.169
 9879SOL     OW30535   5.387   5.390   4.520
 9879SOL    HW130536   5.369   5.300   4.560
 9879SOL    HW230537   5.481   5.417   4.540
 9880SOL     OW30538   1.648   2.958   5.374
 9880SOL    HW130539   1.716   3.017   5.331
 9880SOL    HW230540   1.628   2.992   5.466
 9881SOL     OW30541   1.619   2.407   4.751
 9881SOL    HW130542   1.558   2.452   4.685
 9881SOL    HW230543   1.618   2.458   4.837
 9882SOL     OW30544   0.832   2.175   3.769
 9882SOL    HW130545   0.875   2.246   3.713
 9882SOL    HW230546   0.874   2.087   3.749
 9883SOL     OW30547   0.922   6.563   1.228
 9883SOL    HW130548   0.857   6.495   1.193
 9883SOL    HW230549   0.875   6.650   1.244
 9884SOL     OW30550   4.162   1.538   3.579
 9884SOL    HW130551   4.164   1.635   3.604
 9884SOL    HW230552   4.157   1.529   3.480
 9885SOL     OW30553   6.738   4.104   5.261
 9885SOL    HW130554   6.683   4.160   5.323
 9885SOL    HW230555   6.733   4.008   5.289
 9886SOL     OW30556   0.655   4.890   2.774
 9886SOL    HW130557   0.679   4.859   2.682
 9886SOL    HW230558   0.605   4.976   2.768
 9887SOL     OW30559   4.076   1.281   6.699
 9887SOL    HW130560   3.998   1.243   6.748
 9887SOL    HW230561   4.109   1.362   6.747
 9888SOL     OW30562   0.178   4.099   0.871
 9888SOL    HW130563   0.089   4.144   0.861
 9888SOL    HW230564   0.189   4.069   0.966
 9889SOL     OW30565   6.560   4.871   0.851
 9889SOL    HW130566   6.481   4.848   0.793
 9889SOL    HW230567   6.586   4.966   0.834
 9890SOL     OW30568   1.819   2.117   0.370
 9890SOL    HW130569   1.899   2.097   0.313
 9890SOL    HW230570   1.751   2.166   0.316
 9891SOL     OW30571   6.116   2.626   0.346
 9891SOL    HW130572   6.057   2.600   0.270
 9891SOL    HW230573   6.123   2.725   0.351
 9892SOL     OW30574   6.701   5.556   0.096
 9892SOL    HW130575   6.745   5.484   0.150
 9892SOL    HW230576   6.603   5.554   0.112
 9893SOL     OW30577   1.563   0.384   0.912
 9893SOL    HW130578   1.473   0.340   0.904
 9893SOL    HW230579   1.633   0.323   0.874
 9894SOL     OW30580   2.353   2.364   1.489
 9894SOL    HW130581   2.297   2.300   1.435
 9894SOL    HW230582   2.447   2.331   1.491
 9895SOL     OW30583   5.672   3.533   5.085
 9895SOL    HW130584   5.611   3.612   5.096
 9895SOL    HW230585   5.629   3.452   5.124
 9896SOL     OW30586   6.272   6.824   6.616
 9896SOL    HW130587   6.259   6.869   6.528
 9896SOL    HW230588   6.271   6.725   6.604
 9897SOL     OW30589   5.396   5.468   3.282
 9897SOL    HW130590   5.449   5.549   3.256
 9897SOL    HW230591   5.432   5.431   3.368
 9898SOL     OW30592   2.344   6.246   6.343
 9898SOL    HW130593   2.316   6.322   6.284
 9898SOL    HW230594   2.303   6.258   6.434
 9899SOL     OW30595   6.970   5.564   0.654
 9899SOL    HW130596   6.970   5.661   0.628
 9899SOL    HW230597   6.911   5.551   0.734
 9900SOL     OW30598   1.538   3.630   3.409
 9900SOL    HW130599   1.596   3.700   3.366
 9900SOL    HW230600   1.589   3.584   3.481
 9901SOL     OW30601   2.811   2.041   5.891
 9901SOL    HW130602   2.722   2.021   5.932
 9901SOL    HW230603   2.806   2.130   5.844
 9902SOL     OW30604   2.613   4.953   6.984
 9902SOL    HW130605   2.530   5.008   6.974
 9902SOL    HW230606   2.675   4.973   6.908
 9903SOL     OW30607   4.923   1.409   2.402
 9903SOL    HW130608   4.951   1.439   2.311
 9903SOL    HW230609   4.954   1.315   2.416
 9904SOL     OW30610   1.316   3.041   6.786
 9904SOL    HW130611   1.388   3.109   6.772
 9904SOL    HW230612   1.311   2.981   6.707
 9905SOL     OW30613   3.601   1.023   6.874
 9905SOL    HW130614   3.580   0.983   6.785
 9905SOL    HW230615   3.678   0.974   6.915
 9906SOL     OW30616   3.503   2.873   1.973
 9906SOL    HW130617   3.539   2.886   2.065
 9906SOL    HW230618   3.413   2.829   1.978
 9907SOL     OW30619   6.700   1.064   0.795
 9907SOL    HW130620   6.606   1.081   0.825
 9907SOL    HW230621   6.729   0.974   0.829
 9908SOL     OW30622   5.605   1.875   3.409
 9908SOL    HW130623   5.599   1.823   3.324
 9908SOL    HW230624   5.526   1.855   3.466
 9909SOL     OW30625   3.955   0.184   3.953
 9909SOL    HW130626   3.946   0.095   3.909
 9909SOL    HW230627   3.876   0.199   4.012
 9910SOL     OW30628   0.836   3.646   2.269
 9910SOL    HW130629   0.760   3.685   2.321
 9910SOL    HW230630   0.920   3.695   2.292
 9911SOL     OW30631   3.537   6.800   2.172
 9911SOL    HW130632   3.623   6.832   2.131
 9911SOL    HW230633   3.461   6.823   2.112
 9912SOL     OW30634   3.870   1.771   1.374
 9912SOL    HW130635   3.777   1.774   1.409
 9912SOL    HW230636   3.934   1.792   1.448
 9913SOL     OW30637   5.911   3.888   0.595
 9913SOL    HW130638   5.841   3.896   0.665
 9913SOL    HW230639   5.966   3.972   0.594
 9914SOL     OW30640   6.584   3.452   4.721
 9914SOL    HW130641   6.527   3.393   4.778
 9914SOL    HW230642   6.627   3.522   4.779
 9915SOL     OW30643   4.429   0.581   3.052
 9915SOL    HW130644   4.438   0.537   3.142
 9915SOL    HW230645   4.469   0.522   2.982
 9916SOL     OW30646   2.075   2.954   3.388
 9916SOL    HW130647   2.105   3.046   3.411
 9916SOL    HW230648   2.140   2.887   3.424
 9917SOL     OW30649   5.862   3.261   6.934
 9917SOL    HW130650   5.772   3.293   6.964
 9917SOL    HW230651   5.932   3.326   6.965
 9918SOL     OW30652   3.379   1.341   2.686
 9918SOL    HW130653   3.305   1.404   2.662
 9918SOL    HW230654   3.415   1.363   2.776
 9919SOL     OW30655   5.493   5.425   1.580
 9919SOL    HW130656   5.577   5.421   1.634
 9919SOL    HW230657   5.499   5.500   1.514
 9920SOL     OW30658   4.725   1.622   1.841
 9920SOL    HW130659   4.683   1.680   1.772
 9920SOL    HW230660   4.662   1.612   1.918
 9921SOL     OW30661   4.517   5.697   6.104
 9921SOL    HW130662   4.558   5.668   6.017
 9921SOL    HW230663   4.431   5.647   6.119
 9922SOL     OW30664   1.622   4.551   0.482
 9922SOL    HW130665   1.579   4.509   0.403
 9922SOL    HW230666   1.663   4.639   0.456
 9923SOL     OW30667   5.125   4.565   6.409
 9923SOL    HW130668   5.125   4.619   6.325
 9923SOL    HW230669   5.031   4.556   6.443
 9924SOL     OW30670   0.046   2.226   4.756
 9924SOL    HW130671   0.050   2.233   4.656
 9924SOL    HW230672   6.978   2.245   4.787
 9925SOL     OW30673   6.846   4.286   4.552
 9925SOL    HW130674   6.893   4.200   4.531
 9925SOL    HW230675   6.903   4.363   4.522
 9926SOL     OW30676   2.608   3.518   0.503
 9926SOL    HW130677   2.631   3.535   0.407
 9926SOL    HW230678   2.633   3.597   0.558
 9927SOL     OW30679   6.352   6.837   1.850
 9927SOL    HW130680   6.351   6.935   1.832
 9927SOL    HW230681   6.334   6.821   1.947
 9928SOL     OW30682   4.824   5.645   1.527
 9928SOL    HW130683   4.797   5.655   1.431
 9928SOL    HW230684   4.786   5.561   1.564
 9929SOL     OW30685   1.956   5.174   5.772
 9929SOL    HW130686   2.039   5.219   5.740
 9929SOL    HW230687   1.895   5.243   5.813
 9930SOL     OW30688   6.162   0.598   4.797
 9930SOL    HW130689   6.151   0.622   4.893
 9930SOL    HW230690   6.209   0.510   4.790
 9931SOL     OW30691   0.978   4.560   4.898
 9931SOL    HW130692   0.984   4.472   4.850
 9931SOL    HW230693   1.031   4.555   4.982
 9932SOL     OW30694   2.070   5.478   0.079
 9932SOL    HW130695   1.998   5.438   0.022
 9932SOL    HW230696   2.029   5.526   0.156
 9933SOL     OW30697   1.404   4.922   3.103
 9933SOL    HW130698   1.461   4.840   3.111
 9933SOL    HW230699   1.461   5.003   3.116
 9934SOL     OW30700   6.290   1.829   5.533
 9934SOL    HW130701   6.218   1.760   5.540
 9934SOL    HW230702   6.307   1.869   5.623
 9935SOL     OW30703   3.026   0.430   0.282
 9935SOL    HW130704   2.985   0.343   0.254
 9935SOL    HW230705   2.953   0.493   0.310
 9936SOL     OW30706   6.301   4.943   4.999
 9936SOL    HW130707   6.306   5.008   5.074
 9936SOL    HW230708   6.294   4.850   5.037
 9937SOL     OW30709   6.718   2.272   5.879
 9937SOL    HW130710   6.701   2.362   5.918
 9937SOL    HW230711   6.804   2.273   5.828
 9938SOL     OW30712   6.412   5.746   3.344
 9938SOL    HW130713   6.364   5.658   3.335
 9938SOL    HW230714   6.498   5.742   3.292
 9939SOL     OW30715   3.475   2.348   0.721
 9939SOL    HW130716   3.542   2.322   0.651
 9939SOL    HW230717   3.517   2.342   0.811
 9940SOL     OW30718   0.622   0.621   1.070
 9940SOL    HW130719   0.601   0.597   1.165
 9940SOL    HW230720   0.589   0.714   1.052
 9941SOL     OW30721   3.336   3.949   5.135
 9941SOL    HW130722   3.316   3.861   5.091
 9941SOL    HW230723   3.318   4.023   5.070
 9942SOL     OW30724   2.071   5.467   2.500
 9942SOL    HW130725   2.099   5.377   2.534
 9942SOL    HW230726   2.012   5.455   2.420
 9943SOL     OW30727   7.001   5.881   5.286
 9943SOL    HW130728   6.938   5.803   5.292
 9943SOL    HW230729   0.065   5.849   5.255
 9944SOL     OW30730   2.136   4.441   6.682
 9944SOL    HW130731   2.198   4.514   6.711
 9944SOL    HW230732   2.174   4.394   6.602
 9945SOL     OW30733   6.366   5.330   7.005
 9945SOL    HW130734   6.361   5.290   0.070
 9945SOL    HW230735   6.461   5.346   6.980
 9946SOL     OW30736   5.232   1.249   4.633
 9946SOL    HW130737   5.232   1.349   4.630
 9946SOL    HW230738   5.234   1.219   4.728
 9947SOL     OW30739   0.718   3.766   6.125
 9947SOL    HW130740   0.726   3.814   6.038
 9947SOL    HW230741   0.797   3.705   6.137
 9948SOL     OW30742   4.731   4.645   3.886
 9948SOL    HW130743   4.662   4.706   3.925
 9948SOL    HW230744   4.796   4.618   3.958
 9949SOL     OW30745   5.031   5.236   3.405
 9949SOL    HW130746   5.067   5.296   3.333
 9949SOL    HW230747   4.951   5.279   3.447
 9950SOL     OW30748   5.901   6.233   5.496
 9950SOL    HW130749   5.875   6.162   5.430
 9950SOL    HW230750   5.920   6.191   5.585
 9951SOL     OW30751   6.378   1.617   3.849
 9951SOL    HW130752   6.460   1.662   3.813
 9951SOL    HW230753   6.313   1.687   3.879
 9952SOL     OW30754   6.627   3.870   0.500
 9952SOL    HW130755   6.697   3.903   0.437
 9952SOL    HW230756   6.628   3.925   0.583
 9953SOL     OW30757   6.163   2.644   4.108
 9953SOL    HW130758   6.076   2.616   4.069
 9953SOL    HW230759   6.237   2.590   4.068
 9954SOL     OW30760   5.902   6.700   5.885
 9954SOL    HW130761   5.880   6.603   5.893
 9954SOL    HW230762   5.913   6.739   5.976
 9955SOL     OW30763   6.622   4.084   4.456
 9955SOL    HW130764   6.706   4.034   4.435
 9955SOL    HW230765   6.626   4.175   4.413
 9956SOL     OW30766   2.301   6.813   1.656
 9956SOL    HW130767   2.228   6.862   1.608
 9956SOL    HW230768   2.285   6.818   1.754
 9957SOL     OW30769   5.358   5.474   2.808
 9957SOL    HW130770   5.294   5.547   2.787
 9957SOL    HW230771   5.317   5.385   2.786
 9958SOL     OW30772   2.946   5.244   0.425
 9958SOL    HW130773   3.028   5.300   0.415
 9958SOL    HW230774   2.869   5.290   0.381
 9959SOL     OW30775   4.180   3.869   5.884
 9959SOL    HW130776   4.230   3.910   5.808
 9959SOL    HW230777   4.238   3.872   5.966
 9960SOL     OW30778   6.910   0.277   2.237
 9960SOL    HW130779   6.816   0.249   2.219
 9960SOL    HW230780   6.924   0.371   2.208
 9961SOL     OW30781   1.792   6.182   4.437
 9961SOL    HW130782   1.734   6.233   4.502
 9961SOL    HW230783   1.743   6.172   4.350
 9962SOL     OW30784   6.518   6.727   3.381
 9962SOL    HW130785   6.449   6.771   3.438
 9962SOL    HW230786   6.595   6.698   3.437
 9963SOL     OW30787   2.897   2.892   6.869
 9963SOL    HW130788   2.984   2.874   6.915
 9963SOL    HW230789   2.895   2.987   6.838
 9964SOL     OW30790   4.615   5.698   4.178
 9964SOL    HW130791   4.586   5.783   4.134
 9964SOL    HW230792   4.578   5.620   4.129
 9965SOL     OW30793   4.328   6.456   6.496
 9965SOL    HW130794   4.363   6.365   6.474
 9965SOL    HW230795   4.233   6.448   6.526
 9966SOL     OW30796   1.283   4.976   1.832
 9966SOL    HW130797   1.293   4.906   1.760
 9966SOL    HW230798   1.318   5.063   1.798
 9967SOL     OW30799   0.348   5.490   2.305
 9967SOL    HW130800   0.372   5.424   2.377
 9967SOL    HW230801   0.384   5.580   2.329
 9968SOL     OW30802   3.528   3.813   1.907
 9968SOL    HW130803   3.589   3.874   1.958
 9968SOL    HW230804   3.544   3.719   1.936
 9969SOL     OW30805   1.742   4.192   2.715
 9969SOL    HW130806   1.828   4.167   2.759
 9969SOL    HW230807   1.678   4.115   2.721
 9970SOL     OW30808   5.261   3.989   1.656
 9970SOL    HW130809   5.337   4.002   1.593
 9970SOL    HW230810   5.175   4.010   1.608
 9971SOL     OW30811   1.586   4.868   1.274
 9971SOL    HW130812   1.522   4.945   1.278
 9971SOL    HW230813   1.542   4.790   1.229
 9972SOL     OW30814   6.373   4.162   1.742
 9972SOL    HW130815   6.365   4.134   1.838
 9972SOL    HW230816   6.318   4.243   1.725
 9973SOL     OW30817   5.694   2.040   3.634
 9973SOL    HW130818   5.726   1.990   3.715
 9973SOL    HW230819   5.664   1.974   3.564
 9974SOL     OW30820   0.891   1.929   2.959
 9974SOL    HW130821   0.794   1.913   2.943
 9974SOL    HW230822   0.916   2.020   2.926
 9975SOL     OW30823   6.356   3.105   0.603
 9975SOL    HW130824   6.398   3.087   0.693
 9975SOL    HW230825   6.292   3.031   0.581
 9976SOL     OW30826   1.583   6.119   5.415
 9976SOL    HW130827   1.535   6.196   5.456
 9976SOL    HW230828   1.599   6.137   5.318
 9977SOL     OW30829   5.681   5.382   5.520
 9977SOL    HW130830   5.596   5.393   5.470
 9977SOL    HW230831   5.736   5.309   5.478
 9978SOL     OW30832   1.016   2.567   5.157
 9978SOL    HW130833   1.033   2.660   5.188
 9978SOL    HW230834   1.072   2.548   5.076
 9979SOL     OW30835   5.901   4.782   5.414
 9979SOL    HW130836   5.915   4.754   5.320
 9979SOL    HW230837   5.824   4.731   5.454
 9980SOL     OW30838   2.577   6.972   6.900
 9980SOL    HW130839   2.628   0.022   6.941
 9980SOL    HW230840   2.582   6.892   6.960
 9981SOL     OW30841   2.675   1.646   2.950
 9981SOL    HW130842   2.713   1.683   2.866
 9981SOL    HW230843   2.736   1.668   3.026
 9982SOL     OW30844   6.663   5.729   3.239
 9982SOL    HW130845   6.711   5.648   3.272
 9982SOL    HW230846   6.696   5.753   3.148
 9983SOL     OW30847   0.050   1.604   2.789
 9983SOL    HW130848   0.066   1.703   2.786
 9983SOL    HW230849   6.979   1.586   2.807
 9984SOL     OW30850   2.502   2.206   6.926
 9984SOL    HW130851   2.511   2.304   6.941
 9984SOL    HW230852   2.406   2.179   6.934
 9985SOL     OW30853   2.249   0.527   1.686
 9985SOL    HW130854   2.330   0.504   1.740
 9985SOL    HW230855   2.228   0.453   1.623
 9986SOL     OW30856   5.826   4.415   5.709
 9986SOL    HW130857   5.741   4.364   5.697
 9986SOL    HW230858   5.897   4.378   5.649
 9987SOL     OW30859   5.743   3.049   6.128
 9987SOL    HW130860   5.841   3.030   6.124
 9987SOL    HW230861   5.708   3.030   6.220
 9988SOL     OW30862   6.670   0.248   4.822
 9988SOL    HW130863   6.681   0.219   4.727
 9988SOL    HW230864   6.628   0.174   4.874
 9989SOL     OW30865   6.968   3.360   4.126
 9989SOL    HW130866   6.884   3.311   4.150
 9989SOL    HW230867   0.001   3.368   4.207
 9990SOL     OW30868   1.741   5.378   3.578
 9990SOL    HW130869   1.773   5.422   3.494
 9990SOL    HW230870   1.818   5.368   3.641
 9991SOL     OW30871   2.926   2.217   4.707
 9991SOL    HW130872   2.870   2.297   4.686
 9991SOL    HW230873   2.955   2.221   4.803
 9992SOL     OW30874   5.890   4.667   6.546
 9992SOL    HW130875   5.853   4.583   6.505
 9992SOL    HW230876   5.816   4.730   6.566
 9993SOL     OW30877   2.325   1.355   1.480
 9993SOL    HW130878   2.333   1.430   1.414
 9993SOL    HW230879   2.414   1.308   1.487
 9994SOL     OW30880   5.962   4.774   3.054
 9994SOL    HW130881   6.002   4.743   3.140
 9994SOL    HW230882   5.959   4.697   2.989
 9995SOL     OW30883   5.024   1.679   3.880
 9995SOL    HW130884   4.990   1.762   3.924
 9995SOL    HW230885   5.078   1.626   3.946
 9996SOL     OW30886   2.709   4.284   0.218
 9996SOL    HW130887   2.749   4.300   0.308
 9996SOL    HW230888   2.762   4.334   0.149
 9997SOL     OW30889   2.915   1.675   5.699
 9997SOL    HW130890   2.822   1.665   5.735
 9997SOL    HW230891   2.944   1.770   5.709
 9998SOL     OW30892   6.166   5.460   5.243
 9998SOL    HW130893   6.070   5.483   5.258
 9998SOL    HW230894   6.203   5.516   5.169
 9999SOL     OW30895   6.058   2.432   5.759
 9999SOL    HW130896   5.980   2.492   5.776
 9999SOL    HW230897   6.134   2.458   5.818
10000SOL     OW30898   7.012   2.676   0.188
10000SOL    HW130899   0.041   2.701   0.108
10000SOL    HW230900   0.043   2.681   0.270
10001SOL     OW30901   4.821   1.099   1.733
10001SOL    HW130902   4.806   1.197   1.736
10001SOL    HW230903   4.818   1.068   1.638
10002SOL     OW30904   1.232   5.987   2.160
10002SOL    HW130905   1.235   6.029   2.250
10002SOL    HW230906   1.287   5.903   2.160
10003SOL     OW30907   3.345   1.964   3.505
10003SOL    HW130908   3.330   1.943   3.602
10003SOL    HW230909   3.421   1.909   3.470
10004SOL     OW30910   6.874   2.331   3.296
10004SOL    HW130911   6.900   2.235   3.310
10004SOL    HW230912   6.780   2.344   3.327
10005SOL     OW30913   5.356   0.464   2.721
10005SOL    HW130914   5.340   0.522   2.800
10005SOL    HW230915   5.304   0.379   2.731
10006SOL     OW30916   3.732   0.102   4.295
10006SOL    HW130917   3.739   0.054   4.382
10006SOL    HW230918   3.824   0.122   4.261
10007SOL     OW30919   0.736   3.628   5.479
10007SOL    HW130920   0.664   3.627   5.548
10007SOL    HW230921   0.698   3.656   5.391
10008SOL     OW30922   3.918   0.315   4.439
10008SOL    HW130923   3.936   0.346   4.345
10008SOL    HW230924   3.952   0.222   4.450
10009SOL     OW30925   2.135   4.180   2.017
10009SOL    HW130926   2.054   4.122   2.021
10009SOL    HW230927   2.173   4.179   1.924
10010SOL     OW30928   2.123   0.927   0.297
10010SOL    HW130929   2.052   0.980   0.250
10010SOL    HW230930   2.159   0.981   0.373
10011SOL     OW30931   6.908   0.333   4.929
10011SOL    HW130932   6.970   0.301   4.858
10011SOL    HW230933   6.814   0.328   4.897
10012SOL     OW30934   5.739   1.199   3.324
10012SOL    HW130935   5.756   1.210   3.422
10012SOL    HW230936   5.819   1.230   3.273
10013SOL     OW30937   6.996   0.670   2.663
10013SOL    HW130938   0.000   0.575   2.671
10013SOL    HW230939   6.897   0.672   2.645
10014SOL     OW30940   1.248   4.023   6.363
10014SOL    HW130941   1.228   4.087   6.288
10014SOL    HW230942   1.315   4.065   6.425
10015SOL     OW30943   1.983   5.159   0.523
10015SOL    HW130944   2.016   5.131   0.433
10015SOL    HW230945   2.055   5.209   0.571
10016SOL     OW30946   1.813   1.306   6.935
10016SOL    HW130947   1.742   1.243   6.965
10016SOL    HW230948   1.867   1.264   6.861
10017SOL     OW30949   2.565   2.044   4.545
10017SOL    HW130950   2.504   1.969   4.519
10017SOL    HW230951   2.644   2.007   4.595
10018SOL     OW30952   5.612   0.427   6.119
10018SOL    HW130953   5.652   0.335   6.121
10018SOL    HW230954   5.518   0.424   6.151
10019SOL     OW30955   1.250   0.760   2.831
10019SOL    HW130956   1.314   0.715   2.770
10019SOL    HW230957   1.227   0.850   2.795
10020SOL     OW30958   1.599   2.939   1.244
10020SOL    HW130959   1.692   2.949   1.208
10020SOL    HW230960   1.534   2.940   1.168
10021SOL     OW30961   0.055   3.722   0.795
10021SOL    HW130962   0.055   3.672   0.881
10021SOL    HW230963   6.986   3.732   0.762
10022SOL     OW30964   1.645   1.154   6.601
10022SOL    HW130965   1.696   1.126   6.519
10022SOL    HW230966   1.670   1.095   6.678
10023SOL     OW30967   6.405   3.728   0.536
10023SOL    HW130968   6.429   3.635   0.562
10023SOL    HW230969   6.488   3.780   0.517
10024SOL     OW30970   1.553   5.128   3.621
10024SOL    HW130971   1.611   5.075   3.558
10024SOL    HW230972   1.589   5.221   3.628
10025SOL     OW30973   1.649   0.963   1.394
10025SOL    HW130974   1.656   0.967   1.294
10025SOL    HW230975   1.736   0.992   1.434
10026SOL     OW30976   5.782   0.423   3.173
10026SOL    HW130977   5.802   0.512   3.134
10026SOL    HW230978   5.868   0.375   3.193
10027SOL     OW30979   6.009   3.318   4.530
10027SOL    HW130980   5.924   3.288   4.486
10027SOL    HW230981   5.986   3.379   4.607
10028SOL     OW30982   1.918   1.028   0.821
10028SOL    HW130983   1.893   1.123   0.802
10028SOL    HW230984   1.858   0.966   0.770
10029SOL     OW30985   5.884   2.215   3.620
10029SOL    HW130986   5.814   2.147   3.641
10029SOL    HW230987   5.948   2.177   3.553
10030SOL     OW30988   1.671   0.449   4.280
10030SOL    HW130989   1.728   0.369   4.297
10030SOL    HW230990   1.599   0.426   4.213
10031SOL     OW30991   5.712   4.830   3.147
10031SOL    HW130992   5.670   4.743   3.121
10031SOL    HW230993   5.801   4.839   3.102
10032SOL     OW30994   2.565   1.527   5.317
10032SOL    HW130995   2.502   1.529   5.240
10032SOL    HW230996   2.623   1.609   5.315
10033SOL     OW30997   5.767   2.879   4.400
10033SOL    HW130998   5.771   2.979   4.403
10033SOL    HW230999   5.693   2.847   4.458
10034SOL     OW31000   4.414   0.104   5.540
10034SOL    HW131001   4.332   0.081   5.593
10034SOL    HW231002   4.422   0.203   5.531
10035SOL     OW31003   6.998   4.830   1.358
10035SOL    HW131004   6.987   4.733   1.377
10035SOL    HW231005   7.015   4.843   1.260
10036SOL     OW31006   6.759   1.872   0.126
10036SOL    HW131007   6.825   1.828   0.064
10036SOL    HW231008   6.723   1.955   0.082
10037SOL     OW31009   0.068   0.508   6.515
10037SOL    HW131010   0.149   0.463   6.551
10037SOL    HW231011   7.013   0.453   6.535
10038SOL     OW31012   6.294   6.881   1.140
10038SOL    HW131013   6.252   6.885   1.049
10038SOL    HW231014   6.387   6.844   1.132
10039SOL     OW31015   3.221   0.741   4.135
10039SOL    HW131016   3.196   0.824   4.084
10039SOL    HW231017   3.277   0.682   4.077
10040SOL     OW31018   6.712   3.267   0.840
10040SOL    HW131019   6.730   3.358   0.877
10040SOL    HW231020   6.786   3.206   0.866
10041SOL     OW31021   2.914   6.728   0.206
10041SOL    HW131022   2.874   6.657   0.148
10041SOL    HW231023   2.900   6.704   0.302
10042SOL     OW31024   0.014   1.928   2.952
10042SOL    HW131025   7.025   1.927   2.853
10042SOL    HW231026   0.099   1.881   2.974
10043SOL     OW31027   0.056   1.630   5.674
10043SOL    HW131028   7.023   1.575   5.614
10043SOL    HW231029   0.136   1.576   5.702
10044SOL     OW31030   3.095   2.173   5.560
10044SOL    HW131031   3.081   2.266   5.593
10044SOL    HW231032   3.189   2.163   5.526
10045SOL     OW31033   3.950   1.053   0.113
10045SOL    HW131034   3.903   1.010   0.036
10045SOL    HW231035   4.045   1.023   0.115
10046SOL     OW31036   1.693   5.314   1.457
10046SOL    HW131037   1.732   5.227   1.424
10046SOL    HW231038   1.594   5.310   1.450
10047SOL     OW31039   0.454   3.033   0.191
10047SOL    HW131040   0.437   3.084   0.107
10047SOL    HW231041   0.367   3.004   0.231
10048SOL     OW31042   6.010   6.572   2.501
10048SOL    HW131043   5.921   6.594   2.461
10048SOL    HW231044   6.047   6.490   2.456
10049SOL     OW31045   0.163   1.380   5.408
10049SOL    HW131046   0.250   1.333   5.420
10049SOL    HW231047   0.179   1.476   5.387
10050SOL     OW31048   6.037   3.149   5.812
10050SOL    HW131049   6.015   3.094   5.893
10050SOL    HW231050   5.991   3.237   5.818
10051SOL     OW31051   0.812   3.985   4.184
10051SOL    HW131052   0.815   4.083   4.166
10051SOL    HW231053   0.744   3.943   4.125
10052SOL     OW31054   1.489   0.028   3.057
10052SOL    HW131055   1.505   0.036   2.958
10052SOL    HW231056   1.399   7.014   3.073
10053SOL     OW31057   5.015   5.524   4.484
10053SOL    HW131058   5.034   5.442   4.540
10053SOL    HW231059   4.919   5.524   4.458
10054SOL     OW31060   6.317   4.296   4.593
10054SOL    HW131061   6.397   4.238   4.606
10054SOL    HW231062   6.331   4.382   4.642
10055SOL     OW31063   0.251   1.561   6.297
10055SOL    HW131064   0.285   1.543   6.205
10055SOL    HW231065   0.170   1.506   6.314
10056SOL     OW31066   5.970   2.981   3.778
10056SOL    HW131067   5.912   2.965   3.858
10056SOL    HW231068   5.914   3.008   3.700
10057SOL     OW31069   5.620   4.804   6.243
10057SOL    HW131070   5.582   4.733   6.302
10057SOL    HW231071   5.549   4.870   6.222
10058SOL     OW31072   6.373   4.102   5.596
10058SOL    HW131073   6.430   4.046   5.656
10058SOL    HW231074   6.427   4.178   5.560
10059SOL     OW31075   0.455   0.558   6.669
10059SOL    HW131076   0.427   0.652   6.650
10059SOL    HW231077   0.388   0.494   6.630
10060SOL     OW31078   2.308   2.229   2.639
10060SOL    HW131079   2.384   2.265   2.693
10060SOL    HW231080   2.245   2.303   2.616
10061SOL     OW31081   3.747   0.216   3.036
10061SOL    HW131082   3.796   0.289   3.084
10061SOL    HW231083   3.794   0.195   2.950
10062SOL     OW31084   6.247   0.597   4.473
10062SOL    HW131085   6.181   0.554   4.411
10062SOL    HW231086   6.339   0.562   4.453
10063SOL     OW31087   1.634   3.237   5.023
10063SOL    HW131088   1.693   3.252   5.102
10063SOL    HW231089   1.551   3.291   5.033
10064SOL     OW31090   3.106   6.583   0.612
10064SOL    HW131091   3.143   6.499   0.571
10064SOL    HW231092   3.090   6.651   0.540
10065SOL     OW31093   0.977   1.572   2.110
10065SOL    HW131094   0.884   1.570   2.072
10065SOL    HW231095   1.044   1.564   2.037
10066SOL     OW31096   6.172   3.504   3.470
10066SOL    HW131097   6.150   3.529   3.564
10066SOL    HW231098   6.228   3.576   3.428
10067SOL     OW31099   6.502   2.332   4.749
10067SOL    HW131100   6.424   2.303   4.805
10067SOL    HW231101   6.586   2.296   4.788
10068SOL     OW31102   1.778   3.034   2.975
10068SOL    HW131103   1.798   3.123   2.934
10068SOL    HW231104   1.828   2.963   2.926
10069SOL     OW31105   2.304   5.513   1.181
10069SOL    HW131106   2.220   5.472   1.217
10069SOL    HW231107   2.346   5.451   1.116
10070SOL     OW31108   4.019   5.925   5.490
10070SOL    HW131109   4.116   5.928   5.468
10070SOL    HW231110   3.987   5.830   5.490
10071SOL     OW31111   5.850   0.337   3.588
10071SOL    HW131112   5.882   0.429   3.614
10071SOL    HW231113   5.845   0.330   3.489
10072SOL     OW31114   6.449   1.943   1.792
10072SOL    HW131115   6.520   1.925   1.861
10072SOL    HW231116   6.453   2.040   1.766
10073SOL     OW31117   6.594   4.656   4.813
10073SOL    HW131118   6.639   4.611   4.891
10073SOL    HW231119   6.664   4.692   4.751
10074SOL     OW31120   1.322   4.502   0.155
10074SOL    HW131121   1.421   4.513   0.146
10074SOL    HW231122   1.293   4.525   0.248
10075SOL     OW31123   1.608   3.538   1.863
10075SOL    HW131124   1.523   3.493   1.835
10075SOL    HW231125   1.591   3.636   1.874
10076SOL     OW31126   5.011   5.616   3.949
10076SOL    HW131127   5.087   5.562   3.985
10076SOL    HW231128   4.948   5.638   4.023
10077SOL     OW31129   5.803   3.502   6.140
10077SOL    HW131130   5.813   3.545   6.051
10077SOL    HW231131   5.878   3.531   6.200
10078SOL     OW31132   6.460   6.479   4.903
10078SOL    HW131133   6.408   6.405   4.860
10078SOL    HW231134   6.521   6.520   4.836
10079SOL     OW31135   4.805   2.230   3.406
10079SOL    HW131136   4.719   2.196   3.444
10079SOL    HW231137   4.792   2.252   3.310
10080SOL     OW31138   5.148   0.705   6.009
10080SOL    HW131139   5.124   0.667   6.098
10080SOL    HW231140   5.216   0.777   6.020
10081SOL     OW31141   1.836   3.327   1.114
10081SOL    HW131142   1.886   3.404   1.074
10081SOL    HW231143   1.863   3.242   1.069
10082SOL     OW31144   1.206   4.308   1.201
10082SOL    HW131145   1.246   4.301   1.110
10082SOL    HW231146   1.178   4.218   1.233
10083SOL     OW31147   3.263   4.952   3.541
10083SOL    HW131148   3.224   5.019   3.478
10083SOL    HW231149   3.351   4.920   3.504
10084SOL     OW31150   1.070   0.691   4.241
10084SOL    HW131151   1.144   0.739   4.288
10084SOL    HW231152   1.094   0.680   4.145
10085SOL     OW31153   4.965   6.837   6.914
10085SOL    HW131154   4.933   6.930   6.933
10085SOL    HW231155   5.064   6.834   6.925
10086SOL     OW31156   0.006   6.546   2.945
10086SOL    HW131157   0.080   6.511   3.002
10086SOL    HW231158   0.043   6.614   2.881
10087SOL     OW31159   1.740   6.639   5.397
10087SOL    HW131160   1.701   6.640   5.305
10087SOL    HW231161   1.668   6.655   5.464
10088SOL     OW31162   0.526   2.550   7.005
10088SOL    HW131163   0.548   2.533   0.076
10088SOL    HW231164   0.604   2.593   6.960
10089SOL     OW31165   3.608   1.764   1.777
10089SOL    HW131166   3.597   1.844   1.836
10089SOL    HW231167   3.581   1.682   1.827
10090SOL     OW31168   2.390   5.932   3.123
10090SOL    HW131169   2.488   5.941   3.104
10090SOL    HW231170   2.357   5.845   3.085
10091SOL     OW31171   7.010   3.874   5.430
10091SOL    HW131172   0.027   3.785   5.416
10091SOL    HW231173   6.917   3.862   5.464
10092SOL     OW31174   0.529   1.830   3.791
10092SOL    HW131175   0.609   1.774   3.814
10092SOL    HW231176   0.446   1.780   3.812
10093SOL     OW31177   5.193   4.788   5.667
10093SOL    HW131178   5.141   4.702   5.677
10093SOL    HW231179   5.158   4.855   5.733
10094SOL     OW31180   3.528   1.355   0.550
10094SOL    HW131181   3.441   1.306   0.554
10094SOL    HW231182   3.563   1.353   0.457
10095SOL     OW31183   4.936   3.071   5.425
10095SOL    HW131184   4.981   3.091   5.338
10095SOL    HW231185   4.905   2.976   5.425
10096SOL     OW31186   5.435   2.269   2.837
10096SOL    HW131187   5.352   2.293   2.886
10096SOL    HW231188   5.416   2.196   2.771
10097SOL     OW31189   0.908   1.778   6.669
10097SOL    HW131190   0.898   1.869   6.629
10097SOL    HW231191   1.005   1.761   6.688
10098SOL     OW31192   2.996   5.485   3.778
10098SOL    HW131193   2.908   5.495   3.825
10098SOL    HW231194   3.035   5.396   3.799
10099SOL     OW31195   0.296   4.765   1.214
10099SOL    HW131196   0.225   4.723   1.157
10099SOL    HW231197   0.335   4.843   1.165
10100SOL     OW31198   4.553   5.070   4.130
10100SOL    HW131199   4.519   5.032   4.216
10100SOL    HW231200   4.633   5.127   4.147
10101SOL     OW31201   0.923   2.345   1.744
10101SOL    HW131202   0.836   2.300   1.765
10101SOL    HW231203   0.912   2.401   1.662
10102SOL     OW31204   6.468   5.799   2.823
10102SOL    HW131205   6.388   5.758   2.866
10102SOL    HW231206   6.508   5.735   2.758
10103SOL     OW31207   6.771   6.341   6.296
10103SOL    HW131208   6.725   6.349   6.208
10103SOL    HW231209   6.870   6.347   6.283
10104SOL     OW31210   2.518   0.073   4.008
10104SOL    HW131211   2.432   0.063   3.958
10104SOL    HW231212   2.503   0.048   4.104
10105SOL     OW31213   3.148   1.005   6.054
10105SOL    HW131214   3.068   1.000   6.114
10105SOL    HW231215   3.206   0.926   6.070
10106SOL     OW31216   5.191   5.616   1.265
10106SOL    HW131217   5.119   5.552   1.291
10106SOL    HW231218   5.246   5.576   1.192
10107SOL     OW31219   4.865   4.592   6.423
10107SOL    HW131220   4.791   4.586   6.489
10107SOL    HW231221   4.832   4.562   6.333
10108SOL     OW31222   1.921   2.565   0.291
10108SOL    HW131223   1.895   2.475   0.326
10108SOL    HW231224   1.876   2.636   0.344
10109SOL     OW31225   1.584   2.520   1.174
10109SOL    HW131226   1.493   2.512   1.133
10109SOL    HW231227   1.589   2.605   1.227
10110SOL     OW31228   5.020   6.429   2.513
10110SOL    HW131229   5.067   6.341   2.503
10110SOL    HW231230   5.008   6.451   2.610
10111SOL     OW31231   1.384   2.687   2.165
10111SOL    HW131232   1.412   2.713   2.073
10111SOL    HW231233   1.334   2.601   2.162
10112SOL     OW31234   0.210   1.763   3.314
10112SOL    HW131235   0.310   1.771   3.316
10112SOL    HW231236   0.171   1.828   3.379
10113SOL     OW31237   6.831   0.768   5.780
10113SOL    HW131238   6.892   0.829   5.729
10113SOL    HW231239   6.804   0.691   5.722
10114SOL     OW31240   5.089   1.485   1.681
10114SOL    HW131241   5.102   1.388   1.701
10114SOL    HW231242   5.080   1.497   1.582
10115SOL     OW31243   3.593   2.920   6.424
10115SOL    HW131244   3.514   2.865   6.396
10115SOL    HW231245   3.660   2.862   6.471
10116SOL     OW31246   6.738   0.930   4.661
10116SOL    HW131247   6.680   1.007   4.633
10116SOL    HW231248   6.741   0.925   4.760
10117SOL     OW31249   6.152   4.402   3.775
10117SOL    HW131250   6.140   4.487   3.826
10117SOL    HW231251   6.155   4.422   3.677
10118SOL     OW31252   4.883   6.149   3.694
10118SOL    HW131253   4.846   6.057   3.690
10118SOL    HW231254   4.809   6.216   3.689
10119SOL     OW31255   0.148   5.112   5.566
10119SOL    HW131256   0.229   5.111   5.507
10119SOL    HW231257   0.066   5.115   5.509
10120SOL     OW31258   2.111   3.326   2.898
10120SOL    HW131259   2.161   3.374   2.970
10120SOL    HW231260   2.106   3.229   2.920
10121SOL     OW31261   5.775   4.426   1.142
10121SOL    HW131262   5.722   4.341   1.130
10121SOL    HW231263   5.734   4.481   1.214
10122SOL     OW31264   1.286   0.316   4.101
10122SOL    HW131265   1.217   0.337   4.032
10122SOL    HW231266   1.248   0.254   4.170
10123SOL     OW31267   6.187   5.333   6.780
10123SOL    HW131268   6.236   5.274   6.715
10123SOL    HW231269   6.248   5.358   6.855
10124SOL     OW31270   1.480   5.343   2.840
10124SOL    HW131271   1.479   5.349   2.939
10124SOL    HW231272   1.544   5.272   2.811
10125SOL     OW31273   2.398   1.035   4.925
10125SOL    HW131274   2.412   1.118   4.980
10125SOL    HW231275   2.366   1.061   4.833
10126SOL     OW31276   6.583   6.333   6.483
10126SOL    HW131277   6.637   6.358   6.563
10126SOL    HW231278   6.641   6.337   6.402
10127SOL     OW31279   2.129   6.819   6.178
10127SOL    HW131280   2.188   6.898   6.192
10127SOL    HW231281   2.179   6.747   6.130
10128SOL     OW31282   2.664   1.891   6.943
10128SOL    HW131283   2.652   1.874   0.015
10128SOL    HW231284   2.719   1.973   6.930
10129SOL     OW31285   6.091   1.704   4.843
10129SOL    HW131286   6.025   1.778   4.854
10129SOL    HW231287   6.161   1.732   4.776
10130SOL     OW31288   1.197   1.022   2.713
10130SOL    HW131289   1.112   1.011   2.660
10130SOL    HW231290   1.191   1.104   2.770
10131SOL     OW31291   1.660   6.346   3.676
10131SOL    HW131292   1.660   6.301   3.587
10131SOL    HW231293   1.566   6.362   3.705
10132SOL     OW31294   6.627   0.567   1.389
10132SOL    HW131295   6.569   0.583   1.310
10132SOL    HW231296   6.719   0.603   1.372
10133SOL     OW31297   5.891   6.437   7.003
10133SOL    HW131298   5.938   6.349   6.995
10133SOL    HW231299   5.830   6.435   0.056
10134SOL     OW31300   6.636   6.786   2.124
10134SOL    HW131301   6.631   6.762   2.027
10134SOL    HW231302   6.660   6.704   2.177
10135SOL     OW31303   6.429   0.224   2.568
10135SOL    HW131304   6.353   0.288   2.564
10135SOL    HW231305   6.436   0.174   2.482
10136SOL     OW31306   5.036   1.998   2.754
10136SOL    HW131307   5.055   1.900   2.765
10136SOL    HW231308   4.989   2.013   2.667
10137SOL     OW31309   6.270   5.845   5.693
10137SOL    HW131310   6.234   5.775   5.755
10137SOL    HW231311   6.338   5.900   5.741
10138SOL     OW31312   0.809   2.247   0.517
10138SOL    HW131313   0.881   2.206   0.573
10138SOL    HW231314   0.747   2.176   0.484
10139SOL     OW31315   3.287   2.958   6.693
10139SOL    HW131316   3.264   2.874   6.643
10139SOL    HW231317   3.386   2.962   6.708
10140SOL     OW31318   0.860   6.124   5.537
10140SOL    HW131319   0.907   6.149   5.452
10140SOL    HW231320   0.764   6.152   5.532
10141SOL     OW31321   2.163   3.183   4.550
10141SOL    HW131322   2.135   3.220   4.462
10141SOL    HW231323   2.082   3.161   4.605
10142SOL     OW31324   3.828   6.349   4.094
10142SOL    HW131325   3.900   6.396   4.145
10142SOL    HW231326   3.863   6.263   4.058
10143SOL     OW31327   4.948   3.000   6.957
10143SOL    HW131328   4.979   3.024   6.866
10143SOL    HW231329   4.944   2.901   6.967
10144SOL     OW31330   3.963   0.029   6.365
10144SOL    HW131331   3.997   6.962   6.381
10144SOL    HW231332   3.864   0.032   6.381
10145SOL     OW31333   5.521   6.284   6.313
10145SOL    HW131334   5.446   6.296   6.248
10145SOL    HW231335   5.530   6.366   6.369
10146SOL     OW31336   0.154   2.971   4.541
10146SOL    HW131337   0.195   3.057   4.512
10146SOL    HW231338   0.182   2.950   4.634
10147SOL     OW31339   4.894   5.315   5.580
10147SOL    HW131340   4.820   5.383   5.581
10147SOL    HW231341   4.909   5.283   5.487
10148SOL     OW31342   0.844   4.294   1.080
10148SOL    HW131343   0.841   4.329   1.173
10148SOL    HW231344   0.845   4.371   1.016
10149SOL     OW31345   3.672   4.306   0.375
10149SOL    HW131346   3.770   4.284   0.382
10149SOL    HW231347   3.650   4.329   0.280
10150SOL     OW31348   4.181   4.312   0.967
10150SOL    HW131349   4.280   4.322   0.978
10150SOL    HW231350   4.162   4.256   0.887
10151SOL     OW31351   6.137   0.180   5.952
10151SOL    HW131352   6.233   0.192   5.930
10151SOL    HW231353   6.081   0.197   5.870
10152SOL     OW31354   4.151   6.762   2.367
10152SOL    HW131355   4.157   6.668   2.398
10152SOL    HW231356   4.069   6.805   2.406
10153SOL     OW31357   4.505   4.467   2.374
10153SOL    HW131358   4.411   4.500   2.360
10153SOL    HW231359   4.544   4.441   2.286
10154SOL     OW31360   4.685   5.851   5.612
10154SOL    HW131361   4.668   5.852   5.513
10154SOL    HW231362   4.598   5.859   5.660
10155SOL     OW31363   4.434   1.738   4.615
10155SOL    HW131364   4.512   1.675   4.620
10155SOL    HW231365   4.361   1.704   4.673
10156SOL     OW31366   5.161   1.830   0.634
10156SOL    HW131367   5.131   1.875   0.718
10156SOL    HW231368   5.209   1.745   0.657
10157SOL     OW31369   0.609   3.404   1.480
10157SOL    HW131370   0.639   3.439   1.391
10157SOL    HW231371   0.510   3.386   1.477
10158SOL     OW31372   5.981   4.793   0.177
10158SOL    HW131373   5.991   4.772   0.079
10158SOL    HW231374   6.061   4.759   0.226
10159SOL     OW31375   3.323   2.864   2.303
10159SOL    HW131376   3.257   2.869   2.228
10159SOL    HW231377   3.415   2.850   2.265
10160SOL     OW31378   0.971   5.008   2.895
10160SOL    HW131379   1.033   4.985   2.821
10160SOL    HW231380   0.879   4.975   2.873
10161SOL     OW31381   5.277   3.336   4.998
10161SOL    HW131382   5.365   3.329   5.046
10161SOL    HW231383   5.203   3.328   5.064
10162SOL     OW31384   1.333   3.141   2.372
10162SOL    HW131385   1.369   3.050   2.351
10162SOL    HW231386   1.345   3.160   2.470
10163SOL     OW31387   2.254   6.296   5.379
10163SOL    HW131388   2.330   6.267   5.321
10163SOL    HW231389   2.289   6.335   5.464
10164SOL     OW31390   1.425   1.670   3.484
10164SOL    HW131391   1.439   1.717   3.396
10164SOL    HW231392   1.422   1.738   3.557
10165SOL     OW31393   0.261   3.712   4.426
10165SOL    HW131394   0.244   3.614   4.431
10165SOL    HW231395   0.303   3.743   4.512
10166SOL     OW31396   2.247   0.883   1.438
10166SOL    HW131397   2.190   0.958   1.470
10166SOL    HW231398   2.280   0.829   1.516
10167SOL     OW31399   2.211   1.137   6.872
10167SOL    HW131400   2.113   1.120   6.860
10167SOL    HW231401   2.230   1.153   6.968
10168SOL     OW31402   6.580   0.406   6.360
10168SOL    HW131403   6.568   0.465   6.441
10168SOL    HW231404   6.586   0.464   6.279
10169SOL     OW31405   5.095   3.577   3.860
10169SOL    HW131406   5.011   3.628   3.841
10169SOL    HW231407   5.079   3.514   3.936
10170SOL     OW31408   5.982   5.635   0.144
10170SOL    HW131409   6.011   5.552   0.190
10170SOL    HW231410   5.893   5.621   0.102
10171SOL     OW31411   2.553   3.715   6.259
10171SOL    HW131412   2.607   3.706   6.175
10171SOL    HW231413   2.475   3.775   6.242
10172SOL     OW31414   5.922   0.665   3.041
10172SOL    HW131415   5.964   0.640   2.954
10172SOL    HW231416   5.984   0.640   3.116
10173SOL     OW31417   3.448   4.165   4.955
10173SOL    HW131418   3.439   4.201   5.049
10173SOL    HW231419   3.544   4.141   4.938
10174SOL     OW31420   4.446   5.375   2.687
10174SOL    HW131421   4.351   5.393   2.712
10174SOL    HW231422   4.482   5.299   2.741
10175SOL     OW31423   0.172   0.934   3.759
10175SOL    HW131424   0.181   0.884   3.845
10175SOL    HW231425   0.116   0.881   3.695
10176SOL     OW31426   6.696   1.415   5.294
10176SOL    HW131427   6.700   1.318   5.316
10176SOL    HW231428   6.733   1.431   5.203
10177SOL     OW31429   2.678   0.840   3.645
10177SOL    HW131430   2.627   0.754   3.642
10177SOL    HW231431   2.664   0.884   3.734
10178SOL     OW31432   0.566   1.788   0.688
10178SOL    HW131433   0.499   1.717   0.710
10178SOL    HW231434   0.643   1.782   0.751
10179SOL     OW31435   0.331   4.224   0.649
10179SOL    HW131436   0.302   4.148   0.706
10179SOL    HW231437   0.397   4.192   0.581
10180SOL     OW31438   4.454   6.856   5.609
10180SOL    HW131439   4.466   6.955   5.605
10180SOL    HW231440   4.533   6.814   5.653
10181SOL     OW31441   6.211   3.324   2.739
10181SOL    HW131442   6.262   3.402   2.775
10181SOL    HW231443   6.230   3.314   2.641
10182SOL     OW31444   4.902   1.714   1.223
10182SOL    HW131445   4.814   1.700   1.269
10182SOL    HW231446   4.917   1.639   1.158
10183SOL     OW31447   6.374   1.350   6.508
10183SOL    HW131448   6.431   1.315   6.434
10183SOL    HW231449   6.340   1.273   6.564
10184SOL     OW31450   5.896   1.959   5.542
10184SOL    HW131451   5.898   1.859   5.549
10184SOL    HW231452   5.869   1.985   5.450
10185SOL     OW31453   4.060   5.600   2.612
10185SOL    HW131454   4.133   5.641   2.668
10185SOL    HW231455   4.087   5.508   2.584
10186SOL     OW31456   3.615   3.591   5.895
10186SOL    HW131457   3.591   3.504   5.938
10186SOL    HW231458   3.560   3.603   5.812
10187SOL     OW31459   1.882   4.290   6.742
10187SOL    HW131460   1.843   4.261   6.654
10187SOL    HW231461   1.972   4.331   6.727
10188SOL     OW31462   3.366   0.491   6.431
10188SOL    HW131463   3.342   0.484   6.528
10188SOL    HW231464   3.304   0.434   6.377
10189SOL     OW31465   1.284   1.831   5.978
10189SOL    HW131466   1.266   1.789   5.889
10189SOL    HW231467   1.372   1.798   6.013
10190SOL     OW31468   4.427   5.500   1.411
10190SOL    HW131469   4.472   5.411   1.419
10190SOL    HW231470   4.353   5.505   1.479
10191SOL     OW31471   5.501   6.572   6.445
10191SOL    HW131472   5.578   6.614   6.397
10191SOL    HW231473   5.513   6.582   6.544
10192SOL     OW31474   2.055   1.738   4.102
10192SOL    HW131475   2.097   1.736   4.011
10192SOL    HW231476   1.991   1.661   4.111
10193SOL     OW31477   3.337   3.473   3.417
10193SOL    HW131478   3.335   3.420   3.332
10193SOL    HW231479   3.427   3.515   3.428
10194SOL     OW31480   2.677   0.434   3.522
10194SOL    HW131481   2.604   0.368   3.505
10194SOL    HW231482   2.724   0.410   3.608
10195SOL     OW31483   3.965   6.395   2.557
10195SOL    HW131484   3.961   6.295   2.550
10195SOL    HW231485   4.029   6.431   2.489
10196SOL     OW31486   6.006   2.074   3.857
10196SOL    HW131487   6.055   1.998   3.814
10196SOL    HW231488   6.037   2.160   3.818
10197SOL     OW31489   5.625   0.162   1.706
10197SOL    HW131490   5.579   0.198   1.624
10197SOL    HW231491   5.706   0.218   1.726
10198SOL     OW31492   2.136   6.907   0.582
10198SOL    HW131493   2.096   6.980   0.637
10198SOL    HW231494   2.096   6.819   0.609
10199SOL     OW31495   0.886   1.155   0.578
10199SOL    HW131496   0.870   1.244   0.622
10199SOL    HW231497   0.814   1.091   0.605
10200SOL     OW31498   5.572   3.980   4.714
10200SOL    HW131499   5.486   3.950   4.672
10200SOL    HW231500   5.568   4.078   4.733
10201SOL     OW31501   1.716   5.604   2.496
10201SOL    HW131502   1.736   5.532   2.563
10201SOL    HW231503   1.734   5.693   2.538
10202SOL     OW31504   0.717   3.313   2.337
10202SOL    HW131505   0.787   3.369   2.380
10202SOL    HW231506   0.743   3.216   2.343
10203SOL     OW31507   1.534   3.484   2.548
10203SOL    HW131508   1.446   3.477   2.500
10203SOL    HW231509   1.592   3.407   2.522
10204SOL     OW31510   2.936   4.877   4.883
10204SOL    HW131511   2.915   4.783   4.907
10204SOL    HW231512   2.867   4.938   4.923
10205SOL     OW31513   4.600   1.340   2.918
10205SOL    HW131514   4.688   1.296   2.899
10205SOL    HW231515   4.616   1.426   2.967
10206SOL     OW31516   5.119   0.104   6.638
10206SOL    HW131517   5.056   0.176   6.609
10206SOL    HW231518   5.140   0.116   6.735
10207SOL     OW31519   4.504   0.764   2.515
10207SOL    HW131520   4.602   0.741   2.517
10207SOL    HW231521   4.459   0.722   2.594
10208SOL     OW31522   5.996   4.281   5.482
10208SOL    HW131523   6.009   4.189   5.519
10208SOL    HW231524   6.033   4.286   5.389
10209SOL     OW31525   5.898   0.109   6.368
10209SOL    HW131526   5.939   0.141   6.454
10209SOL    HW231527   5.929   0.167   6.293
10210SOL     OW31528   5.096   5.662   1.602
10210SOL    HW131529   5.143   5.749   1.621
10210SOL    HW231530   5.005   5.682   1.565
10211SOL     OW31531   4.047   5.547   5.234
10211SOL    HW131532   3.953   5.545   5.201
10211SOL    HW231533   4.088   5.636   5.211
10212SOL     OW31534   6.826   0.606   5.038
10212SOL    HW131535   6.843   0.593   5.136
10212SOL    HW231536   6.857   0.526   4.988
10213SOL     OW31537   6.216   1.069   3.027
10213SOL    HW131538   6.227   0.994   2.961
10213SOL    HW231539   6.256   1.043   3.115
10214SOL     OW31540   6.731   0.355   1.938
10214SOL    HW131541   6.829   0.344   1.926
10214SOL    HW231542   6.708   0.452   1.941
10215SOL     OW31543   3.849   3.657   0.008
10215SOL    HW131544   3.749   3.658   0.013
10215SOL    HW231545   3.881   3.563   7.022
10216SOL     OW31546   5.210   7.024   1.569
10216SOL    HW131547   5.148   0.021   1.494
10216SOL    HW231548   5.301   7.003   1.531
10217SOL     OW31549   2.557   1.957   5.191
10217SOL    HW131550   2.584   1.927   5.282
10217SOL    HW231551   2.616   1.915   5.122
10218SOL     OW31552   2.060   1.912   0.661
10218SOL    HW131553   2.056   1.975   0.739
10218SOL    HW231554   1.977   1.856   0.659
10219SOL     OW31555   0.879   3.670   0.243
10219SOL    HW131556   0.868   3.645   0.339
10219SOL    HW231557   0.791   3.663   0.196
10220SOL     OW31558   4.175   1.772   1.245
10220SOL    HW131559   4.170   1.677   1.274
10220SOL    HW231560   4.084   1.813   1.247
10221SOL     OW31561   2.603   0.534   5.255
10221SOL    HW131562   2.511   0.568   5.235
10221SOL    HW231563   2.598   0.438   5.282
10222SOL     OW31564   1.383   5.339   6.143
10222SOL    HW131565   1.436   5.337   6.228
10222SOL    HW231566   1.286   5.348   6.165
10223SOL     OW31567   0.483   4.453   0.666
10223SOL    HW131568   0.478   4.535   0.609
10223SOL    HW231569   0.400   4.399   0.654
10224SOL     OW31570   1.735   6.961   4.359
10224SOL    HW131571   1.702   6.900   4.287
10224SOL    HW231572   1.796   6.911   4.420
10225SOL     OW31573   6.294   6.139   3.934
10225SOL    HW131574   6.247   6.178   3.854
10225SOL    HW231575   6.337   6.213   3.986
10226SOL     OW31576   1.196   1.644   0.614
10226SOL    HW131577   1.133   1.650   0.536
10226SOL    HW231578   1.219   1.549   0.632
10227SOL     OW31579   5.717   5.096   6.439
10227SOL    HW131580   5.765   5.048   6.513
10227SOL    HW231581   5.680   5.029   6.375
10228SOL     OW31582   1.344   5.516   3.381
10228SOL    HW131583   1.302   5.534   3.469
10228SOL    HW231584   1.313   5.427   3.347
10229SOL     OW31585   1.330   7.006   2.317
10229SOL    HW131586   1.391   6.926   2.314
10229SOL    HW231587   1.309   0.002   2.413
10230SOL     OW31588   6.561   0.651   3.510
10230SOL    HW131589   6.615   0.572   3.535
10230SOL    HW231590   6.547   0.709   3.590
10231SOL     OW31591   4.971   0.564   4.709
10231SOL    HW131592   5.032   0.500   4.756
10231SOL    HW231593   4.929   0.519   4.631
10232SOL     OW31594   3.340   2.150   4.984
10232SOL    HW131595   3.322   2.153   4.886
10232SOL    HW231596   3.259   2.180   5.034
10233SOL     OW31597   4.362   1.594   5.919
10233SOL    HW131598   4.297   1.650   5.971
10233SOL    HW231599   4.358   1.619   5.822
10234SOL     OW31600   5.041   6.176   1.786
10234SOL    HW131601   5.128   6.216   1.756
10234SOL    HW231602   4.969   6.245   1.778
10235SOL     OW31603   5.979   0.988   6.640
10235SOL    HW131604   5.999   1.068   6.582
10235SOL    HW231605   5.894   1.003   6.689
10236SOL     OW31606   2.284   5.333   2.005
10236SOL    HW131607   2.286   5.361   1.909
10236SOL    HW231608   2.366   5.280   2.026
10237SOL     OW31609   6.611   3.056   2.610
10237SOL    HW131610   6.657   3.106   2.683
10237SOL    HW231611   6.544   2.993   2.649
10238SOL     OW31612   5.160   4.631   4.674
10238SOL    HW131613   5.070   4.598   4.702
10238SOL    HW231614   5.149   4.702   4.604
10239SOL     OW31615   0.256   4.367   4.137
10239SOL    HW131616   0.262   4.272   4.104
10239SOL    HW231617   0.349   4.403   4.150
10240SOL     OW31618   0.045   4.285   3.698
10240SOL    HW131619   0.130   4.232   3.692
10240SOL    HW231620   7.024   4.265   3.784
10241SOL     OW31621   2.156   1.068   1.964
10241SOL    HW131622   2.221   1.088   2.037
10241SOL    HW231623   2.205   1.050   1.879
10242SOL     OW31624   7.020   0.031   5.934
10242SOL    HW131625   0.012   7.021   6.026
10242SOL    HW231626   0.008   0.130   5.934
10243SOL     OW31627   1.458   5.448   1.859
10243SOL    HW131628   1.484   5.528   1.805
10243SOL    HW231629   1.462   5.470   1.956
10244SOL     OW31630   2.356   6.388   6.884
10244SOL    HW131631   2.257   6.403   6.880
10244SOL    HW231632   2.402   6.475   6.901
10245SOL     OW31633   2.585   2.015   0.155
10245SOL    HW131634   2.576   2.113   0.138
10245SOL    HW231635   2.542   1.992   0.243
10246SOL     OW31636   3.531   4.049   4.529
10246SOL    HW131637   3.510   3.970   4.585
10246SOL    HW231638   3.590   4.022   4.453
10247SOL     OW31639   1.045   4.849   5.201
10247SOL    HW131640   0.987   4.796   5.141
10247SOL    HW231641   0.997   4.932   5.230
10248SOL     OW31642   4.105   0.060   1.682
10248SOL    HW131643   4.187   0.029   1.635
10248SOL    HW231644   4.095   0.159   1.669
10249SOL     OW31645   4.604   1.269   6.538
10249SOL    HW131646   4.514   1.235   6.513
10249SOL    HW231647   4.667   1.258   6.461
10250SOL     OW31648   6.503   0.534   0.286
10250SOL    HW131649   6.516   0.499   0.379
10250SOL    HW231650   6.535   0.629   0.282
10251SOL     OW31651   2.815   4.005   0.148
10251SOL    HW131652   2.779   4.077   0.207
10251SOL    HW231653   2.743   3.940   0.126
10252SOL     OW31654   6.683   4.981   2.125
10252SOL    HW131655   6.764   5.001   2.180
10252SOL    HW231656   6.610   4.947   2.185
10253SOL     OW31657   3.715   5.388   6.902
10253SOL    HW131658   3.675   5.340   6.824
10253SOL    HW231659   3.718   5.486   6.883
10254SOL     OW31660   2.425   2.336   5.416
10254SOL    HW131661   2.432   2.241   5.448
10254SOL    HW231662   2.384   2.338   5.325
10255SOL     OW31663   3.357   6.016   2.506
10255SOL    HW131664   3.343   6.006   2.604
10255SOL    HW231665   3.280   5.975   2.457
10256SOL     OW31666   5.772   6.729   6.345
10256SOL    HW131667   5.812   6.802   6.289
10256SOL    HW231668   5.766   6.759   6.440
10257SOL     OW31669   1.162   6.074   5.857
10257SOL    HW131670   1.247   6.027   5.833
10257SOL    HW231671   1.183   6.155   5.912
10258SOL     OW31672   4.035   0.695   3.203
10258SOL    HW131673   4.085   0.778   3.228
10258SOL    HW231674   3.990   0.657   3.284
10259SOL     OW31675   0.006   4.214   3.053
10259SOL    HW131676   7.025   4.312   3.068
10259SOL    HW231677   0.005   4.166   3.141
10260SOL     OW31678   1.093   6.739   1.632
10260SOL    HW131679   1.047   6.819   1.672
10260SOL    HW231680   1.046   6.656   1.662
10261SOL     OW31681   1.417   6.004   2.472
10261SOL    HW131682   1.427   5.940   2.548
10261SOL    HW231683   1.322   6.035   2.466
10262SOL     OW31684   1.282   5.048   4.859
10262SOL    HW131685   1.259   5.012   4.949
10262SOL    HW231686   1.382   5.052   4.850
10263SOL     OW31687   6.415   2.341   6.198
10263SOL    HW131688   6.399   2.355   6.296
10263SOL    HW231689   6.449   2.425   6.157
10264SOL     OW31690   0.329   0.565   5.796
10264SOL    HW131691   0.266   0.487   5.794
10264SOL    HW231692   0.423   0.532   5.787
10265SOL     OW31693   4.209   1.706   2.096
10265SOL    HW131694   4.150   1.630   2.123
10265SOL    HW231695   4.189   1.785   2.154
10266SOL     OW31696   2.991   4.308   6.651
10266SOL    HW131697   3.072   4.251   6.670
10266SOL    HW231698   3.020   4.400   6.628
10267SOL     OW31699   6.933   2.165   6.149
10267SOL    HW131700   6.888   2.234   6.205
10267SOL    HW231701   6.968   2.207   6.065
10268SOL     OW31702   5.766   5.512   1.668
10268SOL    HW131703   5.777   5.598   1.617
10268SOL    HW231704   5.799   5.436   1.613
10269SOL     OW31705   2.723   2.995   6.044
10269SOL    HW131706   2.786   2.969   6.116
10269SOL    HW231707   2.645   2.932   6.044
10270SOL     OW31708   1.980   5.883   0.641
10270SOL    HW131709   1.963   5.806   0.702
10270SOL    HW231710   2.024   5.958   0.692
10271SOL     OW31711   4.593   4.681   1.148
10271SOL    HW131712   4.597   4.583   1.128
10271SOL    HW231713   4.524   4.699   1.217
10272SOL     OW31714   0.814   0.958   5.817
10272SOL    HW131715   0.804   1.057   5.811
10272SOL    HW231716   0.725   0.916   5.836
10273SOL     OW31717   4.318   5.802   4.480
10273SOL    HW131718   4.276   5.718   4.513
10273SOL    HW231719   4.415   5.786   4.462
10274SOL     OW31720   1.340   5.585   5.969
10274SOL    HW131721   1.351   5.534   6.055
10274SOL    HW231722   1.265   5.650   5.979
10275SOL     OW31723   0.866   6.430   2.418
10275SOL    HW131724   0.853   6.520   2.376
10275SOL    HW231725   0.788   6.372   2.396
10276SOL     OW31726   6.330   5.614   6.262
10276SOL    HW131727   6.424   5.627   6.295
10276SOL    HW231728   6.271   5.592   6.339
10277SOL     OW31729   2.351   6.009   4.740
10277SOL    HW131730   2.356   6.069   4.660
10277SOL    HW231731   2.257   5.978   4.753
10278SOL     OW31732   6.013   0.546   5.396
10278SOL    HW131733   6.011   0.543   5.496
10278SOL    HW231734   5.992   0.455   5.360
10279SOL     OW31735   3.243   6.844   4.088
10279SOL    HW131736   3.243   6.746   4.069
10279SOL    HW231737   3.337   6.878   4.087
10280SOL     OW31738   1.903   3.654   6.747
10280SOL    HW131739   1.998   3.680   6.730
10280SOL    HW231740   1.865   3.712   6.819
10281SOL     OW31741   4.504   0.772   3.693
10281SOL    HW131742   4.430   0.754   3.629
10281SOL    HW231743   4.588   0.790   3.643
10282SOL     OW31744   0.947   1.844   4.097
10282SOL    HW131745   0.888   1.797   4.163
10282SOL    HW231746   0.976   1.932   4.135
10283SOL     OW31747   1.241   4.064   6.752
10283SOL    HW131748   1.172   4.128   6.786
10283SOL    HW231749   1.325   4.075   6.805
10284SOL     OW31750   5.609   3.036   5.207
10284SOL    HW131751   5.675   3.032   5.282
10284SOL    HW231752   5.529   2.980   5.231
10285SOL     OW31753   5.907   0.022   1.088
10285SOL    HW131754   5.840   0.076   1.036
10285SOL    HW231755   5.999   0.047   1.059
10286SOL     OW31756   4.041   0.730   3.529
10286SOL    HW131757   4.079   0.777   3.450
10286SOL    HW231758   4.016   0.636   3.502
10287SOL     OW31759   2.653   6.219   1.731
10287SOL    HW131760   2.705   6.139   1.701
10287SOL    HW231761   2.583   6.190   1.796
10288SOL     OW31762   5.950   6.403   3.931
10288SOL    HW131763   6.006   6.393   4.013
10288SOL    HW231764   5.890   6.482   3.940
10289SOL     OW31765   3.466   0.837   1.711
10289SOL    HW131766   3.479   0.819   1.614
10289SOL    HW231767   3.457   0.751   1.760
10290SOL     OW31768   3.920   3.973   2.412
10290SOL    HW131769   3.943   4.003   2.504
10290SOL    HW231770   3.988   3.906   2.381
10291SOL     OW31771   3.358   0.448   5.575
10291SOL    HW131772   3.339   0.423   5.480
10291SOL    HW231773   3.334   0.371   5.635
10292SOL     OW31774   0.797   1.261   4.647
10292SOL    HW131775   0.711   1.297   4.684
10292SOL    HW231776   0.873   1.289   4.706
10293SOL     OW31777   1.927   6.127   3.324
10293SOL    HW131778   1.933   6.224   3.297
10293SOL    HW231779   1.992   6.109   3.397
10294SOL     OW31780   5.721   1.495   3.087
10294SOL    HW131781   5.734   1.578   3.033
10294SOL    HW231782   5.729   1.415   3.027
10295SOL     OW31783   0.456   5.503   6.240
10295SOL    HW131784   0.359   5.521   6.226
10295SOL    HW231785   0.488   5.435   6.174
10296SOL     OW31786   6.687   2.431   0.538
10296SOL    HW131787   6.706   2.405   0.443
10296SOL    HW231788   6.599   2.392   0.565
10297SOL     OW31789   1.812   5.319   5.012
10297SOL    HW131790   1.849   5.227   5.020
10297SOL    HW231791   1.888   5.385   5.004
10298SOL     OW31792   4.902   3.301   4.136
10298SOL    HW131793   4.999   3.325   4.128
10298SOL    HW231794   4.849   3.383   4.158
10299SOL     OW31795   5.093   4.281   3.273
10299SOL    HW131796   5.185   4.279   3.233
10299SOL    HW231797   5.099   4.307   3.369
10300SOL     OW31798   0.983   4.791   2.706
10300SOL    HW131799   0.897   4.778   2.658
10300SOL    HW231800   1.059   4.764   2.647
10301SOL     OW31801   5.302   1.500   1.296
10301SOL    HW131802   5.378   1.492   1.361
10301SOL    HW231803   5.317   1.580   1.237
10302SOL     OW31804   1.773   5.658   3.269
10302SOL    HW131805   1.748   5.579   3.212
10302SOL    HW231806   1.796   5.627   3.361
10303SOL     OW31807   3.201   3.115   1.404
10303SOL    HW131808   3.282   3.079   1.451
10303SOL    HW231809   3.226   3.140   1.311
10304SOL     OW31810   6.779   6.644   2.724
10304SOL    HW131811   6.846   6.577   2.756
10304SOL    HW231812   6.710   6.597   2.667
10305SOL     OW31813   1.729   5.749   1.332
10305SOL    HW131814   1.706   5.743   1.429
10305SOL    HW231815   1.784   5.830   1.316
10306SOL     OW31816   4.333   6.034   7.006
10306SOL    HW131817   4.288   5.949   0.006
10306SOL    HW231818   4.372   6.026   6.915
10307SOL     OW31819   2.187   1.473   5.959
10307SOL    HW131820   2.237   1.558   5.976
10307SOL    HW231821   2.191   1.416   6.041
10308SOL     OW31822   3.359   5.761   3.562
10308SOL    HW131823   3.283   5.811   3.520
10308SOL    HW231824   3.324   5.688   3.620
10309SOL     OW31825   0.181   6.472   3.167
10309SOL    HW131826   0.211   6.567   3.152
10309SOL    HW231827   0.129   6.467   3.251
10310SOL     OW31828   3.753   4.103   3.441
10310SOL    HW131829   3.659   4.094   3.408
10310SOL    HW231830   3.752   4.130   3.537
10311SOL     OW31831   6.935   5.285   0.296
10311SOL    HW131832   6.847   5.282   0.342
10311SOL    HW231833   7.005   5.318   0.359
10312SOL     OW31834   2.200   4.541   1.093
10312SOL    HW131835   2.141   4.531   1.173
10312SOL    HW231836   2.204   4.454   1.044
10313SOL     OW31837   5.314   6.742   3.200
10313SOL    HW131838   5.256   6.823   3.196
10313SOL    HW231839   5.365   6.732   3.114
10314SOL     OW31840   6.725   6.022   0.926
10314SOL    HW131841   6.710   5.951   0.995
10314SOL    HW231842   6.667   6.005   0.847
10315SOL     OW31843   6.169   5.266   4.775
10315SOL    HW131844   6.158   5.180   4.724
10315SOL    HW231845   6.242   5.255   4.843
10316SOL     OW31846   0.038   4.708   3.275
10316SOL    HW131847   0.083   4.623   3.304
10316SOL    HW231848   0.039   4.774   3.350
10317SOL     OW31849   3.819   4.714   0.309
10317SOL    HW131850   3.766   4.655   0.248
10317SOL    HW231851   3.875   4.777   0.255
10318SOL     OW31852   6.176   5.278   2.289
10318SOL    HW131853   6.091   5.253   2.335
10318SOL    HW231854   6.204   5.370   2.318
10319SOL     OW31855   5.987   6.449   3.059
10319SOL    HW131856   6.072   6.496   3.036
10319SOL    HW231857   5.920   6.515   3.093
10320SOL     OW31858   5.954   6.765   1.120
10320SOL    HW131859   5.969   6.859   1.091
10320SOL    HW231860   5.867   6.758   1.168
10321SOL     OW31861   4.608   5.545   3.927
10321SOL    HW131862   4.670   5.472   3.956
10321SOL    HW231863   4.646   5.592   3.848
10322SOL     OW31864   6.164   2.860   0.094
10322SOL    HW131865   6.079   2.821   0.130
10322SOL    HW231866   6.231   2.787   0.079
10323SOL     OW31867   5.205   2.992   5.043
10323SOL    HW131868   5.176   2.944   4.960
10323SOL    HW231869   5.126   3.009   5.101
10324SOL     OW31870   3.032   3.290   3.713
10324SOL    HW131871   3.063   3.214   3.656
10324SOL    HW231872   3.026   3.373   3.658
10325SOL     OW31873   6.830   3.746   3.367
10325SOL    HW131874   6.927   3.757   3.347
10325SOL    HW231875   6.814   3.763   3.464
10326SOL     OW31876   5.726   2.020   0.557
10326SOL    HW131877   5.640   2.060   0.524
10326SOL    HW231878   5.797   2.031   0.488
10327SOL     OW31879   6.846   1.037   3.249
10327SOL    HW131880   6.864   0.939   3.246
10327SOL    HW231881   6.864   1.072   3.342
10328SOL     OW31882   6.315   2.642   1.778
10328SOL    HW131883   6.330   2.544   1.775
10328SOL    HW231884   6.398   2.689   1.745
10329SOL     OW31885   3.525   6.613   2.565
10329SOL    HW131886   3.470   6.605   2.481
10329SOL    HW231887   3.580   6.696   2.561
10330SOL     OW31888   4.044   5.217   1.268
10330SOL    HW131889   4.060   5.152   1.342
10330SOL    HW231890   4.055   5.310   1.303
10331SOL     OW31891   6.065   0.604   3.266
10331SOL    HW131892   6.066   0.504   3.269
10331SOL    HW231893   6.156   0.639   3.288
10332SOL     OW31894   0.178   2.733   6.434
10332SOL    HW131895   0.231   2.799   6.381
10332SOL    HW231896   0.185   2.642   6.392
10333SOL     OW31897   4.585   4.418   4.781
10333SOL    HW131898   4.492   4.435   4.814
10333SOL    HW231899   4.584   4.343   4.715
10334SOL     OW31900   1.696   4.552   5.096
10334SOL    HW131901   1.785   4.581   5.131
10334SOL    HW231902   1.674   4.462   5.133
10335SOL     OW31903   2.069   5.246   1.590
10335SOL    HW131904   2.035   5.242   1.684
10335SOL    HW231905   2.157   5.198   1.584
10336SOL     OW31906   3.890   6.913   2.677
10336SOL    HW131907   3.877   6.826   2.629
10336SOL    HW231908   3.953   6.971   2.625
10337SOL     OW31909   0.763   5.215   5.280
10337SOL    HW131910   0.690   5.152   5.253
10337SOL    HW231911   0.847   5.163   5.296
10338SOL     OW31912   3.118   6.073   3.211
10338SOL    HW131913   3.124   6.077   3.111
10338SOL    HW231914   3.188   6.131   3.252
10339SOL     OW31915   2.930   5.718   1.093
10339SOL    HW131916   2.919   5.689   1.188
10339SOL    HW231917   2.976   5.646   1.041
10340SOL     OW31918   2.106   0.336   0.211
10340SOL    HW131919   2.188   0.302   0.257
10340SOL    HW231920   2.112   0.317   0.113
10341SOL     OW31921   2.016   1.081   2.521
10341SOL    HW131922   2.054   1.152   2.580
10341SOL    HW231923   1.935   1.117   2.474
10342SOL     OW31924   2.495   6.395   5.006
10342SOL    HW131925   2.581   6.443   5.022
10342SOL    HW231926   2.426   6.460   4.972
10343SOL     OW31927   2.184   3.399   5.208
10343SOL    HW131928   2.177   3.484   5.155
10343SOL    HW231929   2.151   3.323   5.154
10344SOL     OW31930   3.951   4.918   5.050
10344SOL    HW131931   3.993   4.872   4.971
10344SOL    HW231932   3.938   5.015   5.029
10345SOL     OW31933   1.934   1.154   6.751
10345SOL    HW131934   1.945   1.206   6.666
10345SOL    HW231935   1.881   1.072   6.733
10346SOL     OW31936   5.219   5.844   6.877
10346SOL    HW131937   5.201   5.850   6.778
10346SOL    HW231938   5.266   5.927   6.907
10347SOL     OW31939   5.609   1.731   2.068
10347SOL    HW131940   5.587   1.650   2.124
10347SOL    HW231941   5.542   1.740   1.995
10348SOL     OW31942   0.473   5.693   5.499
10348SOL    HW131943   0.420   5.688   5.583
10348SOL    HW231944   0.443   5.621   5.436
10349SOL     OW31945   0.068   2.008   0.609
10349SOL    HW131946   7.011   2.024   0.664
10349SOL    HW231947   0.041   1.989   0.515
10350SOL     OW31948   1.998   4.528   4.838
10350SOL    HW131949   2.022   4.616   4.879
10350SOL    HW231950   2.056   4.456   4.876
10351SOL     OW31951   4.841   4.378   4.946
10351SOL    HW131952   4.764   4.329   4.905
10351SOL    HW231953   4.917   4.380   4.882
10352SOL     OW31954   5.384   1.936   0.393
10352SOL    HW131955   5.337   2.024   0.396
10352SOL    HW231956   5.398   1.902   0.486
10353SOL     OW31957   6.585   2.679   3.685
10353SOL    HW131958   6.570   2.686   3.784
10353SOL    HW231959   6.672   2.722   3.662
10354SOL     OW31960   0.430   3.443   0.848
10354SOL    HW131961   0.424   3.343   0.854
10354SOL    HW231962   0.526   3.470   0.836
10355SOL     OW31963   0.855   1.439   1.061
10355SOL    HW131964   0.799   1.363   1.094
10355SOL    HW231965   0.885   1.494   1.139
10356SOL     OW31966   6.553   3.550   6.310
10356SOL    HW131967   6.577   3.628   6.367
10356SOL    HW231968   6.571   3.571   6.214
10357SOL     OW31969   1.407   2.921   5.759
10357SOL    HW131970   1.426   2.907   5.856
10357SOL    HW231971   1.393   2.833   5.714
10358SOL     OW31972   0.683   2.211   2.617
10358SOL    HW131973   0.756   2.204   2.686
10358SOL    HW231974   0.676   2.305   2.585
10359SOL     OW31975   6.358   1.694   2.594
10359SOL    HW131976   6.396   1.677   2.503
10359SOL    HW231977   6.377   1.616   2.654
10360SOL     OW31978   5.905   4.299   1.659
10360SOL    HW131979   5.978   4.328   1.596
10360SOL    HW231980   5.868   4.211   1.629
10361SOL     OW31981   0.768   1.722   1.942
10361SOL    HW131982   0.827   1.776   1.882
10361SOL    HW231983   0.673   1.730   1.912
10362SOL     OW31984   0.919   5.066   1.996
10362SOL    HW131985   0.940   5.050   1.899
10362SOL    HW231986   0.988   5.128   2.035
10363SOL     OW31987   5.167   4.337   6.763
10363SOL    HW131988   5.183   4.276   6.684
10363SOL    HW231989   5.069   4.342   6.781
10364SOL     OW31990   5.769   4.658   2.330
10364SOL    HW131991   5.734   4.646   2.423
10364SOL    HW231992   5.865   4.631   2.327
10365SOL     OW31993   5.638   5.754   0.177
10365SOL    HW131994   5.580   5.706   0.243
10365SOL    HW231995   5.701   5.689   0.134
10366SOL     OW31996   2.583   6.114   3.604
10366SOL    HW131997   2.577   6.200   3.654
10366SOL    HW231998   2.603   6.133   3.507
10367SOL     OW31999   5.774   1.209   1.518
10367SOL    HW132000   5.866   1.213   1.479
10367SOL    HW232001   5.735   1.118   1.504
10368SOL     OW32002   2.433   6.167   2.583
10368SOL    HW132003   2.345   6.120   2.572
10368SOL    HW232004   2.452   6.221   2.501
10369SOL     OW32005   2.851   0.291   6.272
10369SOL    HW132006   2.814   0.331   6.357
10369SOL    HW232007   2.865   0.193   6.285
10370SOL     OW32008   0.940   0.669   5.643
10370SOL    HW132009   0.959   0.674   5.741
10370SOL    HW232010   0.957   0.759   5.601
10371SOL     OW32011   3.887   5.613   2.900
10371SOL    HW132012   3.871   5.671   2.820
10371SOL    HW232013   3.983   5.586   2.904
10372SOL     OW32014   2.956   6.779   1.708
10372SOL    HW132015   2.997   6.716   1.773
10372SOL    HW232016   2.987   6.758   1.616
10373SOL     OW32017   0.928   1.499   5.455
10373SOL    HW132018   0.915   1.520   5.358
10373SOL    HW232019   0.926   1.584   5.507
10374SOL     OW32020   4.276   5.760   3.932
10374SOL    HW132021   4.208   5.821   3.893
10374SOL    HW232022   4.235   5.671   3.949
10375SOL     OW32023   2.355   4.030   7.021
10375SOL    HW132024   2.396   4.114   0.030
10375SOL    HW232025   2.279   4.052   6.960
10376SOL     OW32026   1.709   4.803   3.042
10376SOL    HW132027   1.762   4.751   2.975
10376SOL    HW232028   1.677   4.741   3.114
10377SOL     OW32029   1.709   0.439   2.509
10377SOL    HW132030   1.746   0.521   2.465
10377SOL    HW232031   1.656   0.387   2.442
10378SOL     OW32032   0.178   4.812   3.773
10378SOL    HW132033   0.192   4.726   3.724
10378SOL    HW232034   0.203   4.800   3.869
10379SOL     OW32035   1.778   6.091   4.737
10379SOL    HW132036   1.865   6.125   4.772
10379SOL    HW232037   1.739   6.025   4.802
10380SOL     OW32038   2.209   2.930   4.839
10380SOL    HW132039   2.258   2.986   4.906
10380SOL    HW232040   2.133   2.982   4.800
10381SOL     OW32041   4.659   4.735   2.022
10381SOL    HW132042   4.669   4.825   1.981
10381SOL    HW232043   4.660   4.743   2.122
10382SOL     OW32044   4.041   5.239   2.167
10382SOL    HW132045   3.956   5.243   2.219
10382SOL    HW232046   4.072   5.144   2.160
10383SOL     OW32047   1.948   4.140   0.591
10383SOL    HW132048   1.909   4.232   0.580
10383SOL    HW232049   2.035   4.135   0.542
10384SOL     OW32050   6.211   6.531   1.508
10384SOL    HW132051   6.229   6.563   1.601
10384SOL    HW232052   6.128   6.475   1.507
10385SOL     OW32053   4.509   4.535   6.842
10385SOL    HW132054   4.546   4.591   6.916
10385SOL    HW232055   4.480   4.447   6.879
10386SOL     OW32056   0.085   1.421   0.264
10386SOL    HW132057   0.105   1.482   0.341
10386SOL    HW232058   0.061   1.476   0.184
10387SOL     OW32059   4.900   3.037   2.196
10387SOL    HW132060   4.827   3.006   2.136
10387SOL    HW232061   4.955   3.107   2.149
10388SOL     OW32062   2.985   0.987   5.810
10388SOL    HW132063   2.943   0.897   5.824
10388SOL    HW232064   3.065   0.996   5.868
10389SOL     OW32065   1.081   3.296   0.715
10389SOL    HW132066   0.987   3.272   0.692
10389SOL    HW232067   1.141   3.274   0.639
10390SOL     OW32068   2.594   2.223   1.462
10390SOL    HW132069   2.619   2.222   1.559
10390SOL    HW232070   2.607   2.315   1.425
10391SOL     OW32071   5.564   6.923   4.797
10391SOL    HW132072   5.606   6.833   4.787
10391SOL    HW232073   5.494   6.935   4.727
10392SOL     OW32074   6.791   5.138   4.102
10392SOL    HW132075   6.852   5.096   4.034
10392SOL    HW232076   6.719   5.073   4.127
10393SOL     OW32077   1.753   4.258   3.710
10393SOL    HW132078   1.752   4.343   3.764
10393SOL    HW232079   1.848   4.229   3.697
10394SOL     OW32080   2.510   5.636   4.430
10394SOL    HW132081   2.597   5.588   4.437
10394SOL    HW232082   2.466   5.640   4.520
10395SOL     OW32083   0.295   6.961   0.510
10395SOL    HW132084   0.351   6.988   0.588
10395SOL    HW232085   0.311   7.024   0.433
10396SOL     OW32086   2.749   1.748   5.117
10396SOL    HW132087   2.837   1.766   5.073
10396SOL    HW232088   2.684   1.713   5.050
10397SOL     OW32089   3.089   2.054   2.168
10397SOL    HW132090   3.121   2.061   2.262
10397SOL    HW232091   3.037   2.135   2.144
10398SOL     OW32092   0.066   2.591   1.802
10398SOL    HW132093   0.094   2.651   1.877
10398SOL    HW232094   0.087   2.635   1.715
10399SOL     OW32095   6.460   3.034   1.658
10399SOL    HW132096   6.421   3.120   1.690
10399SOL    HW232097   6.402   2.995   1.586
10400SOL     OW32098   3.694   6.606   0.487
10400SOL    HW132099   3.653   6.629   0.575
10400SOL    HW232100   3.670   6.676   0.420
10401SOL     OW32101   6.355   0.698   4.184
10401SOL    HW132102   6.415   0.686   4.263
10401SOL    HW232103   6.272   0.747   4.212
10402SOL     OW32104   6.754   2.789   4.518
10402SOL    HW132105   6.672   2.775   4.573
10402SOL    HW232106   6.756   2.884   4.485
10403SOL     OW32107   2.925   0.504   3.634
10403SOL    HW132108   3.012   0.530   3.592
10403SOL    HW232109   2.851   0.516   3.568
10404SOL     OW32110   0.043   6.631   5.746
10404SOL    HW132111   0.049   6.540   5.704
10404SOL    HW232112   0.136   6.666   5.763
10405SOL     OW32113   0.297   1.484   5.726
10405SOL    HW132114   0.326   1.394   5.757
10405SOL    HW232115   0.342   1.507   5.640
10406SOL     OW32116   3.307   4.840   1.459
10406SOL    HW132117   3.368   4.761   1.466
10406SOL    HW232118   3.300   4.886   1.547
10407SOL     OW32119   3.556   6.525   6.567
10407SOL    HW132120   3.601   6.435   6.566
10407SOL    HW232121   3.468   6.518   6.613
10408SOL     OW32122   4.754   1.059   6.958
10408SOL    HW132123   4.733   1.107   6.873
10408SOL    HW232124   4.750   0.960   6.943
10409SOL     OW32125   6.183   4.541   0.424
10409SOL    HW132126   6.221   4.465   0.372
10409SOL    HW232127   6.087   4.555   0.398
10410SOL     OW32128   5.662   1.342   0.252
10410SOL    HW132129   5.648   1.243   0.259
10410SOL    HW232130   5.598   1.379   0.185
10411SOL     OW32131   2.516   5.423   3.237
10411SOL    HW132132   2.552   5.365   3.164
10411SOL    HW232133   2.560   5.398   3.323
10412SOL     OW32134   6.025   1.276   0.835
10412SOL    HW132135   6.067   1.366   0.839
10412SOL    HW232136   6.086   1.209   0.878
10413SOL     OW32137   0.054   1.973   1.311
10413SOL    HW132138   6.981   1.968   1.324
10413SOL    HW232139   0.097   1.891   1.351
10414SOL     OW32140   5.150   3.373   5.248
10414SOL    HW132141   5.187   3.305   5.312
10414SOL    HW232142   5.053   3.389   5.269
10415SOL     OW32143   0.656   5.864   6.496
10415SOL    HW132144   0.697   5.953   6.476
10415SOL    HW232145   0.617   5.825   6.412
10416SOL     OW32146   5.943   2.651   4.448
10416SOL    HW132147   6.038   2.673   4.425
10416SOL    HW232148   5.882   2.716   4.402
10417SOL     OW32149   3.190   5.284   4.549
10417SOL    HW132150   3.100   5.245   4.530
10417SOL    HW232151   3.240   5.224   4.611
10418SOL     OW32152   0.253   4.286   5.722
10418SOL    HW132153   0.227   4.194   5.693
10418SOL    HW232154   0.211   4.307   5.810
10419SOL     OW32155   0.745   0.553   0.206
10419SOL    HW132156   0.770   0.496   0.128
10419SOL    HW232157   0.821   0.614   0.228
10420SOL     OW32158   0.159   3.442   2.694
10420SOL    HW132159   0.161   3.470   2.790
10420SOL    HW232160   0.232   3.375   2.677
10421SOL     OW32161   1.415   1.162   3.298
10421SOL    HW132162   1.513   1.160   3.281
10421SOL    HW232163   1.393   1.237   3.360
10422SOL     OW32164   6.568   2.566   5.608
10422SOL    HW132165   6.482   2.529   5.644
10422SOL    HW232166   6.556   2.591   5.512
10423SOL     OW32167   4.775   4.625   4.347
10423SOL    HW132168   4.865   4.582   4.355
10423SOL    HW232169   4.740   4.646   4.438
10424SOL     OW32170   5.309   1.841   6.673
10424SOL    HW132171   5.211   1.830   6.657
10424SOL    HW232172   5.337   1.934   6.647
10425SOL     OW32173   1.563   6.965   2.501
10425SOL    HW132174   1.479   6.979   2.552
10425SOL    HW232175   1.640   6.957   2.565
10426SOL     OW32176   6.399   4.087   0.270
10426SOL    HW132177   6.333   4.015   0.246
10426SOL    HW232178   6.490   4.061   0.237
10427SOL     OW32179   4.560   2.185   0.734
10427SOL    HW132180   4.556   2.093   0.771
10427SOL    HW232181   4.476   2.202   0.681
10428SOL     OW32182   3.657   0.396   4.537
10428SOL    HW132183   3.751   0.362   4.548
10428SOL    HW232184   3.594   0.335   4.584
10429SOL     OW32185   6.820   5.655   1.629
10429SOL    HW132186   6.879   5.724   1.586
10429SOL    HW232187   6.832   5.567   1.582
10430SOL     OW32188   4.049   6.883   3.059
10430SOL    HW132189   3.956   6.858   3.034
10430SOL    HW232190   4.072   6.973   3.023
10431SOL     OW32191   2.997   0.429   5.524
10431SOL    HW132192   2.956   0.495   5.462
10431SOL    HW232193   2.925   0.382   5.575
10432SOL     OW32194   6.343   0.861   3.935
10432SOL    HW132195   6.309   0.794   3.869
10432SOL    HW232196   6.357   0.817   4.023
10433SOL     OW32197   2.088   6.607   2.069
10433SOL    HW132198   2.059   6.516   2.099
10433SOL    HW232199   2.038   6.677   2.121
10434SOL     OW32200   3.552   7.020   3.415
10434SOL    HW132201   3.511   7.014   3.506
10434SOL    HW232202   3.619   6.947   3.404
10435SOL     OW32203   6.492   6.573   5.141
10435SOL    HW132204   6.495   6.508   5.064
10435SOL    HW232205   6.400   6.611   5.148
10436SOL     OW32206   0.422   5.087   4.370
10436SOL    HW132207   0.500   5.025   4.383
10436SOL    HW232208   0.379   5.105   4.458
10437SOL     OW32209   6.082   5.212   5.813
10437SOL    HW132210   6.031   5.282   5.764
10437SOL    HW232211   6.074   5.125   5.765
10438SOL     OW32212   5.411   6.622   0.123
10438SOL    HW132213   5.416   6.687   0.047
10438SOL    HW232214   5.502   6.610   0.163
10439SOL     OW32215   3.638   0.356   5.464
10439SOL    HW132216   3.612   0.452   5.457
10439SOL    HW232217   3.737   0.347   5.455
10440SOL     OW32218   0.765   6.818   0.938
10440SOL    HW132219   0.670   6.848   0.931
10440SOL    HW232220   0.792   6.815   1.034
10441SOL     OW32221   5.249   1.562   6.598
10441SOL    HW132222   5.293   1.652   6.602
10441SOL    HW232223   5.301   1.497   6.654
10442SOL     OW32224   3.383   5.206   5.633
10442SOL    HW132225   3.301   5.257   5.607
10442SOL    HW232226   3.460   5.268   5.645
10443SOL     OW32227   6.141   3.861   4.959
10443SOL    HW132228   6.158   3.763   4.944
10443SOL    HW232229   6.043   3.878   4.967
10444SOL     OW32230   3.719   5.432   4.765
10444SOL    HW132231   3.647   5.401   4.702
10444SOL    HW232232   3.691   5.517   4.809
10445SOL     OW32233   6.609   5.324   4.787
10445SOL    HW132234   6.686   5.310   4.848
10445SOL    HW232235   6.630   5.287   4.697
10446SOL     OW32236   0.570   4.331   6.700
10446SOL    HW132237   0.572   4.267   6.624
10446SOL    HW232238   0.512   4.293   6.773
10447SOL     OW32239   6.606   2.138   1.137
10447SOL    HW132240   6.626   2.040   1.129
10447SOL    HW232241   6.652   2.175   1.218
10448SOL     OW32242   3.782   3.851   1.287
10448SOL    HW132243   3.869   3.900   1.285
10448SOL    HW232244   3.707   3.917   1.286
10449SOL     OW32245   2.377   5.391   4.569
10449SOL    HW132246   2.430   5.316   4.529
10449SOL    HW232247   2.305   5.418   4.505
10450SOL     OW32248   0.142   2.442   0.138
10450SOL    HW132249   0.219   2.501   0.115
10450SOL    HW232250   0.069   2.497   0.180
10451SOL     OW32251   2.613   4.642   2.966
10451SOL    HW132252   2.536   4.668   3.024
10451SOL    HW232253   2.596   4.552   2.925
10452SOL     OW32254   0.611   3.630   4.018
10452SOL    HW132255   0.585   3.542   4.056
10452SOL    HW232256   0.629   3.620   3.920
10453SOL     OW32257   5.812   5.779   1.550
10453SOL    HW132258   5.876   5.825   1.488
10453SOL    HW232259   5.831   5.809   1.644
10454SOL     OW32260   5.397   2.969   2.346
10454SOL    HW132261   5.328   2.964   2.274
10454SOL    HW232262   5.352   2.964   2.435
10455SOL     OW32263   0.439   5.260   3.885
10455SOL    HW132264   0.493   5.276   3.802
10455SOL    HW232265   0.423   5.162   3.896
10456SOL     OW32266   3.385   6.043   1.583
10456SOL    HW132267   3.457   6.024   1.649
10456SOL    HW232268   3.416   6.112   1.517
10457SOL     OW32269   3.694   4.089   3.727
10457SOL    HW132270   3.634   4.009   3.722
10457SOL    HW232271   3.784   4.062   3.760
10458SOL     OW32272   0.928   6.987   0.792
10458SOL    HW132273   0.898   6.913   0.852
10458SOL    HW232274   1.014   6.962   0.749
10459SOL     OW32275   5.408   5.255   2.128
10459SOL    HW132276   5.408   5.347   2.090
10459SOL    HW232277   5.317   5.233   2.164
10460SOL     OW32278   2.807   5.269   1.941
10460SOL    HW132279   2.864   5.335   1.891
10460SOL    HW232280   2.861   5.229   2.016
10461SOL     OW32281   2.432   6.804   6.698
10461SOL    HW132282   2.396   6.838   6.611
10461SOL    HW232283   2.502   6.866   6.732
10462SOL     OW32284   5.880   0.787   0.887
10462SOL    HW132285   5.918   0.732   0.961
10462SOL    HW232286   5.817   0.856   0.925
10463SOL     OW32287   3.031   4.345   6.982
10463SOL    HW132288   3.062   4.397   6.902
10463SOL    HW232289   2.963   4.399   0.007
10464SOL     OW32290   4.812   6.881   0.523
10464SOL    HW132291   4.875   6.853   0.596
10464SOL    HW232292   4.808   6.981   0.520
10465SOL     OW32293   0.357   5.601   5.747
10465SOL    HW132294   0.281   5.565   5.693
10465SOL    HW232295   0.360   5.554   5.836
10466SOL     OW32296   5.168   5.544   5.082
10466SOL    HW132297   5.111   5.625   5.074
10466SOL    HW232298   5.199   5.534   5.176
10467SOL     OW32299   2.248   1.624   5.487
10467SOL    HW132300   2.322   1.633   5.554
10467SOL    HW232301   2.206   1.714   5.471
10468SOL     OW32302   3.099   6.642   4.474
10468SOL    HW132303   3.193   6.676   4.484
10468SOL    HW232304   3.085   6.565   4.536
10469SOL     OW32305   1.715   4.078   0.892
10469SOL    HW132306   1.805   4.114   0.916
10469SOL    HW232307   1.687   4.114   0.803
10470SOL     OW32308   2.548   1.821   3.753
10470SOL    HW132309   2.474   1.888   3.755
10470SOL    HW232310   2.515   1.734   3.789
10471SOL     OW32311   2.774   3.720   1.318
10471SOL    HW132312   2.739   3.720   1.411
10471SOL    HW232313   2.831   3.801   1.303
10472SOL     OW32314   3.785   0.056   1.859
10472SOL    HW132315   3.839   0.062   1.775
10472SOL    HW232316   3.832   0.106   1.932
10473SOL     OW32317   5.817   6.028   6.839
10473SOL    HW132318   5.891   5.990   6.784
10473SOL    HW232319   5.786   6.114   6.798
10474SOL     OW32320   3.987   0.777   4.236
10474SOL    HW132321   3.957   0.871   4.218
10474SOL    HW232322   4.087   0.773   4.237
10475SOL     OW32323   4.037   7.001   1.130
10475SOL    HW132324   4.034   0.075   1.136
10475SOL    HW232325   4.024   6.973   1.035
10476SOL     OW32326   6.287   5.148   6.278
10476SOL    HW132327   6.309   5.123   6.184
10476SOL    HW232328   6.301   5.069   6.338
10477SOL     OW32329   5.874   4.089   5.012
10477SOL    HW132330   5.789   4.097   5.063
10477SOL    HW232331   5.881   3.997   4.973
10478SOL     OW32332   0.155   6.137   0.768
10478SOL    HW132333   0.171   6.201   0.843
10478SOL    HW232334   0.194   6.174   0.684
10479SOL     OW32335   2.084   3.830   2.425
10479SOL    HW132336   1.985   3.836   2.432
10479SOL    HW232337   2.119   3.913   2.382
10480SOL     OW32338   5.417   6.676   2.442
10480SOL    HW132339   5.443   6.770   2.465
10480SOL    HW232340   5.342   6.678   2.376
10481SOL     OW32341   1.850   0.540   5.024
10481SOL    HW132342   1.840   0.485   4.942
10481SOL    HW232343   1.813   0.632   5.008
10482SOL     OW32344   0.937   6.150   4.736
10482SOL    HW132345   0.951   6.238   4.691
10482SOL    HW232346   0.904   6.084   4.669
10483SOL     OW32347   6.797   5.792   6.509
10483SOL    HW132348   6.777   5.704   6.552
10483SOL    HW232349   6.885   5.825   6.540
10484SOL     OW32350   0.615   1.291   1.885
10484SOL    HW132351   0.531   1.345   1.889
10484SOL    HW232352   0.660   1.292   1.974
10485SOL     OW32353   3.492   3.645   3.202
10485SOL    HW132354   3.523   3.726   3.152
10485SOL    HW232355   3.560   3.620   3.271
10486SOL     OW32356   6.476   6.277   5.154
10486SOL    HW132357   6.449   6.339   5.227
10486SOL    HW232358   6.567   6.302   5.121
10487SOL     OW32359   4.590   2.118   1.878
10487SOL    HW132360   4.683   2.123   1.916
10487SOL    HW232361   4.541   2.202   1.899
10488SOL     OW32362   0.161   2.273   5.574
10488SOL    HW132363   0.171   2.174   5.572
10488SOL    HW232364   0.231   2.313   5.634
10489SOL     OW32365   5.642   4.370   3.805
10489SOL    HW132366   5.620   4.332   3.894
10489SOL    HW232367   5.713   4.315   3.761
10490SOL     OW32368   5.889   6.492   6.280
10490SOL    HW132369   5.844   6.444   6.205
10490SOL    HW232370   5.840   6.576   6.300
10491SOL     OW32371   0.904   2.770   6.249
10491SOL    HW132372   0.804   2.770   6.247
10491SOL    HW232373   0.936   2.813   6.333
10492SOL     OW32374   4.042   0.698   0.392
10492SOL    HW132375   4.082   0.674   0.480
10492SOL    HW232376   4.053   0.796   0.377
10493SOL     OW32377   3.879   5.734   0.738
10493SOL    HW132378   3.909   5.712   0.645
10493SOL    HW232379   3.794   5.686   0.757
10494SOL     OW32380   0.844   4.341   5.766
10494SOL    HW132381   0.877   4.347   5.860
10494SOL    HW232382   0.856   4.429   5.721
10495SOL     OW32383   0.953   6.356   6.501
10495SOL    HW132384   0.860   6.352   6.464
10495SOL    HW232385   0.958   6.426   6.572
10496SOL     OW32386   6.962   3.578   5.580
10496SOL    HW132387   6.885   3.540   5.529
10496SOL    HW232388   0.011   3.600   5.517
10497SOL     OW32389   2.273   6.540   1.253
10497SOL    HW132390   2.288   6.442   1.238
10497SOL    HW232391   2.288   6.561   1.349
10498SOL     OW32392   4.292   5.647   0.523
10498SOL    HW132393   4.361   5.656   0.595
10498SOL    HW232394   4.333   5.667   0.435
10499SOL     OW32395   5.955   5.007   2.205
10499SOL    HW132396   5.952   5.033   2.108
10499SOL    HW232397   6.047   4.975   2.228
10500SOL     OW32398   6.373   4.292   6.118
10500SOL    HW132399   6.396   4.382   6.080
10500SOL    HW232400   6.274   4.284   6.125
10501SOL     OW32401   2.647   5.313   2.638
10501SOL    HW132402   2.621   5.217   2.629
10501SOL    HW232403   2.565   5.370   2.635
10502SOL     OW32404   2.868   3.605   2.519
10502SOL    HW132405   2.770   3.594   2.500
10502SOL    HW232406   2.885   3.593   2.617
10503SOL     OW32407   6.047   2.632   6.656
10503SOL    HW132408   5.958   2.586   6.647
10503SOL    HW232409   6.107   2.602   6.581
10504SOL     OW32410   1.557   2.830   6.379
10504SOL    HW132411   1.638   2.877   6.414
10504SOL    HW232412   1.575   2.732   6.373
10505SOL     OW32413   6.116   6.311   1.074
10505SOL    HW132414   6.153   6.396   1.110
10505SOL    HW232415   6.065   6.264   1.146
10506SOL     OW32416   1.157   2.535   0.833
10506SOL    HW132417   1.160   2.453   0.776
10506SOL    HW232418   1.062   2.556   0.855
10507SOL     OW32419   1.587   4.773   6.367
10507SOL    HW132420   1.586   4.872   6.353
10507SOL    HW232421   1.494   4.736   6.355
10508SOL     OW32422   1.262   5.624   4.891
10508SOL    HW132423   1.202   5.665   4.960
10508SOL    HW232424   1.270   5.686   4.813
10509SOL     OW32425   5.256   3.010   3.437
10509SOL    HW132426   5.355   2.996   3.447
10509SOL    HW232427   5.227   2.975   3.348
10510SOL     OW32428   5.090   5.819   4.345
10510SOL    HW132429   5.177   5.774   4.367
10510SOL    HW232430   5.043   5.768   4.274
10511SOL     OW32431   3.655   2.026   2.304
10511SOL    HW132432   3.677   1.933   2.275
10511SOL    HW232433   3.690   2.091   2.236
10512SOL     OW32434   4.341   0.821   4.650
10512SOL    HW132435   4.327   0.736   4.701
10512SOL    HW232436   4.260   0.842   4.595
10513SOL     OW32437   5.407   3.048   1.581
10513SOL    HW132438   5.467   3.044   1.661
10513SOL    HW232439   5.378   3.143   1.567
10514SOL     OW32440   1.035   3.091   1.397
10514SOL    HW132441   1.099   3.049   1.333
10514SOL    HW232442   0.947   3.105   1.352
10515SOL     OW32443   1.711   2.820   4.993
10515SOL    HW132444   1.707   2.898   4.931
10515SOL    HW232445   1.799   2.820   5.041
10516SOL     OW32446   3.207   2.214   1.243
10516SOL    HW132447   3.138   2.279   1.276
10516SOL    HW232448   3.239   2.159   1.320
10517SOL     OW32449   0.808   3.106   3.385
10517SOL    HW132450   0.766   3.031   3.436
10517SOL    HW232451   0.905   3.086   3.371
10518SOL     OW32452   0.669   5.477   2.723
10518SOL    HW132453   0.758   5.523   2.714
10518SOL    HW232454   0.665   5.430   2.811
10519SOL     OW32455   2.858   6.247   1.357
10519SOL    HW132456   2.929   6.177   1.362
10519SOL    HW232457   2.874   6.306   1.278
10520SOL     OW32458   0.565   1.692   5.283
10520SOL    HW132459   0.598   1.786   5.290
10520SOL    HW232460   0.533   1.674   5.191
10521SOL     OW32461   6.253   3.274   0.894
10521SOL    HW132462   6.343   3.232   0.908
10521SOL    HW232463   6.255   3.326   0.809
10522SOL     OW32464   4.958   2.436   3.897
10522SOL    HW132465   5.051   2.462   3.924
10522SOL    HW232466   4.955   2.424   3.797
10523SOL     OW32467   6.857   4.815   3.483
10523SOL    HW132468   6.814   4.868   3.557
10523SOL    HW232469   6.956   4.811   3.499
10524SOL     OW32470   6.318   6.660   4.695
10524SOL    HW132471   6.289   6.755   4.687
10524SOL    HW232472   6.417   6.654   4.678
10525SOL     OW32473   4.515   1.520   4.951
10525SOL    HW132474   4.560   1.524   4.861
10525SOL    HW232475   4.447   1.447   4.951
10526SOL     OW32476   1.288   5.192   0.588
10526SOL    HW132477   1.327   5.236   0.669
10526SOL    HW232478   1.264   5.261   0.520
10527SOL     OW32479   0.722   0.471   4.621
10527SOL    HW132480   0.703   0.389   4.568
10527SOL    HW232481   0.641   0.497   4.673
10528SOL     OW32482   1.071   4.019   5.970
10528SOL    HW132483   1.093   3.959   5.893
10528SOL    HW232484   0.971   4.022   5.982
10529SOL     OW32485   0.985   6.146   7.002
10529SOL    HW132486   0.967   6.198   6.918
10529SOL    HW232487   1.076   6.106   6.998
10530SOL     OW32488   0.126   6.564   0.632
10530SOL    HW132489   0.036   6.599   0.606
10530SOL    HW232490   0.166   6.623   0.702
10531SOL     OW32491   2.634   2.859   5.352
10531SOL    HW132492   2.730   2.878   5.335
10531SOL    HW232493   2.578   2.903   5.281
10532SOL     OW32494   5.405   6.181   6.604
10532SOL    HW132495   5.380   6.129   6.686
10532SOL    HW232496   5.476   6.247   6.628
10533SOL     OW32497   2.802   5.624   3.564
10533SOL    HW132498   2.739   5.548   3.582
10533SOL    HW232499   2.888   5.608   3.613
10534SOL     OW32500   1.174   6.118   2.388
10534SOL    HW132501   1.179   6.214   2.416
10534SOL    HW232502   1.086   6.080   2.418
10535SOL     OW32503   2.966   2.215   2.915
10535SOL    HW132504   2.937   2.229   2.821
10535SOL    HW232505   3.064   2.197   2.917
10536SOL     OW32506   5.561   1.880   4.164
10536SOL    HW132507   5.527   1.970   4.138
10536SOL    HW232508   5.635   1.853   4.102
10537SOL     OW32509   4.175   6.985   3.351
10537SOL    HW132510   4.095   6.982   3.411
10537SOL    HW232511   4.234   0.036   3.378
10538SOL     OW32512   6.704   3.359   2.729
10538SOL    HW132513   6.630   3.359   2.662
10538SOL    HW232514   6.679   3.418   2.806
10539SOL     OW32515   6.580   0.356   3.109
10539SOL    HW132516   6.484   0.380   3.122
10539SOL    HW232517   6.586   0.260   3.082
10540SOL     OW32518   2.707   3.707   6.048
10540SOL    HW132519   2.763   3.628   6.022
10540SOL    HW232520   2.707   3.774   5.974
10541SOL     OW32521   2.971   3.076   5.083
10541SOL    HW132522   2.889   3.058   5.137
10541SOL    HW232523   3.046   3.017   5.114
10542SOL     OW32524   5.182   6.848   4.111
10542SOL    HW132525   5.132   6.923   4.154
10542SOL    HW232526   5.172   6.766   4.167
10543SOL     OW32527   0.445   3.341   5.108
10543SOL    HW132528   0.400   3.302   5.027
10543SOL    HW232529   0.544   3.338   5.095
10544SOL     OW32530   1.738   0.782   3.436
10544SOL    HW132531   1.785   0.868   3.415
10544SOL    HW232532   1.664   0.768   3.371
10545SOL     OW32533   1.958   2.135   2.701
10545SOL    HW132534   1.985   2.231   2.691
10545SOL    HW232535   2.031   2.086   2.749
10546SOL     OW32536   3.197   0.042   0.507
10546SOL    HW132537   3.133   0.104   0.552
10546SOL    HW232538   3.210   0.070   0.412
10547SOL     OW32539   3.946   0.143   5.116
10547SOL    HW132540   3.964   0.150   5.018
10547SOL    HW232541   3.851   0.167   5.133
10548SOL     OW32542   0.614   4.890   4.375
10548SOL    HW132543   0.676   4.880   4.453
10548SOL    HW232544   0.530   4.838   4.393
10549SOL     OW32545   0.323   1.234   1.198
10549SOL    HW132546   0.293   1.139   1.188
10549SOL    HW232547   0.379   1.243   1.280
10550SOL     OW32548   4.082   6.187   3.551
10550SOL    HW132549   4.069   6.220   3.644
10550SOL    HW232550   4.178   6.163   3.537
10551SOL     OW32551   2.844   2.167   6.134
10551SOL    HW132552   2.936   2.206   6.144
10551SOL    HW232553   2.839   2.117   6.048
10552SOL     OW32554   3.408   0.510   4.312
10552SOL    HW132555   3.507   0.512   4.295
10552SOL    HW232556   3.391   0.523   4.409
10553SOL     OW32557   0.222   5.017   0.243
10553SOL    HW132558   0.322   5.007   0.233
10553SOL    HW232559   0.197   5.007   0.339
10554SOL     OW32560   6.059   4.972   2.885
10554SOL    HW132561   6.153   4.995   2.907
10554SOL    HW232562   6.023   4.910   2.954
10555SOL     OW32563   3.690   2.530   0.695
10555SOL    HW132564   3.596   2.501   0.712
10555SOL    HW232565   3.711   2.610   0.750
10556SOL     OW32566   1.930   1.873   3.053
10556SOL    HW132567   1.934   1.856   2.954
10556SOL    HW232568   2.009   1.927   3.081
10557SOL     OW32569   2.244   4.097   3.779
10557SOL    HW132570   2.330   4.134   3.814
10557SOL    HW232571   2.168   4.127   3.838
10558SOL     OW32572   2.491   5.571   5.869
10558SOL    HW132573   2.483   5.649   5.931
10558SOL    HW232574   2.525   5.492   5.920
10559SOL     OW32575   4.173   6.788   6.070
10559SOL    HW132576   4.226   6.704   6.082
10559SOL    HW232577   4.235   6.866   6.058
10560SOL     OW32578   5.311   6.263   1.737
10560SOL    HW132579   5.371   6.256   1.817
10560SOL    HW232580   5.278   6.357   1.728
10561SOL     OW32581   5.933   4.551   0.359
10561SOL    HW132582   5.873   4.572   0.437
10561SOL    HW232583   5.907   4.608   0.281
10562SOL     OW32584   3.575   6.348   2.218
10562SOL    HW132585   3.629   6.414   2.272
10562SOL    HW232586   3.491   6.326   2.266
10563SOL     OW32587   0.241   0.441   1.021
10563SOL    HW132588   0.245   0.528   0.971
10563SOL    HW232589   0.225   0.367   0.957
10564SOL     OW32590   5.934   5.574   4.190
10564SOL    HW132591   5.934   5.476   4.211
10564SOL    HW232592   5.891   5.623   4.266
10565SOL     OW32593   0.395   6.813   5.367
10565SOL    HW132594   0.370   6.908   5.387
10565SOL    HW232595   0.313   6.757   5.363
10566SOL     OW32596   2.777   3.230   0.019
10566SOL    HW132597   2.711   3.230   0.094
10566SOL    HW232598   2.812   3.138   0.005
10567SOL     OW32599   1.132   2.260   6.281
10567SOL    HW132600   1.092   2.326   6.218
10567SOL    HW232601   1.126   2.168   6.241
10568SOL     OW32602   5.508   2.431   5.815
10568SOL    HW132603   5.484   2.339   5.846
10568SOL    HW232604   5.555   2.425   5.727
10569SOL     OW32605   5.522   6.668   1.031
10569SOL    HW132606   5.555   6.586   0.984
10569SOL    HW232607   5.598   6.732   1.042
10570SOL     OW32608   0.857   4.951   3.922
10570SOL    HW132609   0.825   4.908   4.006
10570SOL    HW232610   0.779   4.985   3.870
10571SOL     OW32611   0.190   4.096   5.994
10571SOL    HW132612   0.265   4.057   6.047
10571SOL    HW232613   0.174   4.191   6.023
10572SOL     OW32614   5.926   4.373   0.918
10572SOL    HW132615   5.873   4.318   0.853
10572SOL    HW232616   5.865   4.406   0.990
10573SOL     OW32617   5.526   1.300   3.513
10573SOL    HW132618   5.558   1.206   3.522
10573SOL    HW232619   5.548   1.334   3.422
10574SOL     OW32620   0.186   1.761   3.628
10574SOL    HW132621   0.231   1.730   3.712
10574SOL    HW232622   0.161   1.857   3.637
10575SOL     OW32623   6.165   0.904   1.504
10575SOL    HW132624   6.255   0.878   1.468
10575SOL    HW232625   6.093   0.856   1.453
10576SOL     OW32626   2.526   4.459   4.065
10576SOL    HW132627   2.588   4.530   4.099
10576SOL    HW232628   2.566   4.369   4.082
10577SOL     OW32629   4.101   6.108   0.645
10577SOL    HW132630   4.087   6.074   0.552
10577SOL    HW232631   4.029   6.073   0.705
10578SOL     OW32632   6.612   3.021   4.182
10578SOL    HW132633   6.561   3.070   4.252
10578SOL    HW232634   6.563   3.026   4.095
10579SOL     OW32635   1.871   3.734   0.465
10579SOL    HW132636   1.856   3.812   0.405
10579SOL    HW232637   1.872   3.765   0.560
10580SOL     OW32638   6.668   6.694   6.483
10580SOL    HW132639   6.658   6.712   6.385
10580SOL    HW232640   6.626   6.768   6.535
10581SOL     OW32641   5.571   7.000   2.806
10581SOL    HW132642   5.500   0.016   2.862
10581SOL    HW232643   5.624   6.935   2.860
10582SOL     OW32644   5.601   4.339   6.670
10582SOL    HW132645   5.594   4.253   6.720
10582SOL    HW232646   5.527   4.401   6.698
10583SOL     OW32647   3.024   1.318   5.223
10583SOL    HW132648   3.007   1.415   5.203
10583SOL    HW232649   3.102   1.286   5.170
10584SOL     OW32650   0.137   7.007   5.539
10584SOL    HW132651   0.044   0.002   5.570
10584SOL    HW232652   0.180   0.065   5.505
10585SOL     OW32653   0.545   0.366   5.379
10585SOL    HW132654   0.614   0.338   5.312
10585SOL    HW232655   0.468   0.409   5.332
10586SOL     OW32656   4.346   4.698   5.184
10586SOL    HW132657   4.294   4.714   5.268
10586SOL    HW232658   4.348   4.600   5.163
10587SOL     OW32659   1.558   5.818   5.565
10587SOL    HW132660   1.581   5.829   5.469
10587SOL    HW232661   1.552   5.720   5.587
10588SOL     OW32662   1.164   4.902   4.480
10588SOL    HW132663   1.161   4.803   4.466
10588SOL    HW232664   1.259   4.933   4.474
10589SOL     OW32665   5.715   5.870   3.668
10589SOL    HW132666   5.737   5.777   3.699
10589SOL    HW232667   5.732   5.877   3.570
10590SOL     OW32668   0.752   5.637   3.126
10590SOL    HW132669   0.747   5.683   3.214
10590SOL    HW232670   0.807   5.692   3.063
10591SOL     OW32671   1.319   2.046   1.807
10591SOL    HW132672   1.235   2.093   1.833
10591SOL    HW232673   1.384   2.113   1.771
10592SOL     OW32674   6.000   2.211   5.260
10592SOL    HW132675   5.926   2.228   5.326
10592SOL    HW232676   5.993   2.116   5.227
10593SOL     OW32677   3.218   6.106   2.079
10593SOL    HW132678   3.157   6.048   2.024
10593SOL    HW232679   3.256   6.178   2.021
10594SOL     OW32680   3.053   0.288   3.799
10594SOL    HW132681   3.024   0.359   3.736
10594SOL    HW232682   3.008   0.202   3.776
10595SOL     OW32683   6.301   6.892   0.816
10595SOL    HW132684   6.271   6.797   0.810
10595SOL    HW232685   6.390   6.896   0.861
10596SOL     OW32686   5.260   2.482   6.714
10596SOL    HW132687   5.199   2.470   6.792
10596SOL    HW232688   5.302   2.573   6.719
10597SOL     OW32689   2.410   0.692   6.229
10597SOL    HW132690   2.438   0.697   6.133
10597SOL    HW232691   2.342   0.619   6.240
10598SOL     OW32692   2.523   1.851   6.117
10598SOL    HW132693   2.620   1.826   6.113
10598SOL    HW232694   2.502   1.888   6.207
10599SOL     OW32695   6.749   3.269   6.131
10599SOL    HW132696   6.797   3.356   6.122
10599SOL    HW232697   6.815   3.196   6.146
10600SOL     OW32698   2.973   1.738   1.526
10600SOL    HW132699   2.984   1.833   1.497
10600SOL    HW232700   2.879   1.709   1.509
10601SOL     OW32701   0.478   6.186   5.765
10601SOL    HW132702   0.499   6.267   5.820
10601SOL    HW232703   0.380   6.181   5.750
10602SOL     OW32704   0.440   0.328   1.169
10602SOL    HW132705   0.459   0.370   1.257
10602SOL    HW232706   0.371   0.382   1.120
10603SOL     OW32707   4.719   7.023   2.039
10603SOL    HW132708   4.718   6.999   1.941
10603SOL    HW232709   4.786   0.070   2.054
10604SOL     OW32710   5.982   6.881   4.743
10604SOL    HW132711   5.975   6.872   4.644
10604SOL    HW232712   6.078   6.875   4.771
10605SOL     OW32713   2.353   1.793   1.478
10605SOL    HW132714   2.361   1.714   1.539
10605SOL    HW232715   2.404   1.870   1.516
10606SOL     OW32716   6.138   0.847   0.803
10606SOL    HW132717   6.162   0.796   0.721
10606SOL    HW232718   6.051   0.812   0.839
10607SOL     OW32719   3.671   4.088   6.323
10607SOL    HW132720   3.629   4.014   6.375
10607SOL    HW232721   3.601   4.139   6.274
10608SOL     OW32722   5.779   3.285   3.204
10608SOL    HW132723   5.829   3.198   3.198
10608SOL    HW232724   5.699   3.281   3.144
10609SOL     OW32725   4.292   1.708   6.793
10609SOL    HW132726   4.332   1.617   6.781
10609SOL    HW232727   4.253   1.739   6.707
10610SOL     OW32728   1.100   0.694   3.927
10610SOL    HW132729   1.188   0.737   3.904
10610SOL    HW232730   1.115   0.597   3.946
10611SOL     OW32731   3.384   5.714   5.043
10611SOL    HW132732   3.287   5.690   5.036
10611SOL    HW232733   3.428   5.657   5.112
10612SOL     OW32734   5.915   1.512   3.284
10612SOL    HW132735   5.865   1.557   3.357
10612SOL    HW232736   5.854   1.498   3.206
10613SOL     OW32737   5.514   0.371   4.449
10613SOL    HW132738   5.564   0.452   4.418
10613SOL    HW232739   5.572   0.290   4.440
10614SOL     OW32740   4.504   0.720   6.458
10614SOL    HW132741   4.406   0.709   6.475
10614SOL    HW232742   4.538   0.799   6.509
10615SOL     OW32743   1.712   1.592   6.099
10615SOL    HW132744   1.798   1.633   6.070
10615SOL    HW232745   1.652   1.664   6.137
10616SOL     OW32746   2.712   6.550   6.596
10616SOL    HW132747   2.778   6.549   6.520
10616SOL    HW232748   2.688   6.644   6.618
10617SOL     OW32749   2.906   3.451   1.357
10617SOL    HW132750   2.846   3.530   1.340
10617SOL    HW232751   2.965   3.437   1.277
10618SOL     OW32752   0.535   5.342   5.419
10618SOL    HW132753   0.606   5.275   5.443
10618SOL    HW232754   0.507   5.327   5.324
10619SOL     OW32755   1.439   2.280   3.398
10619SOL    HW132756   1.456   2.357   3.460
10619SOL    HW232757   1.424   2.314   3.305
10620SOL     OW32758   2.629   0.503   0.027
10620SOL    HW132759   2.580   0.487   0.112
10620SOL    HW232760   2.571   0.553   6.989
10621SOL     OW32761   0.811   3.568   3.318
10621SOL    HW132762   0.783   3.512   3.397
10621SOL    HW232763   0.866   3.512   3.256
10622SOL     OW32764   4.524   3.061   0.364
10622SOL    HW132765   4.564   3.129   0.302
10622SOL    HW232766   4.433   3.036   0.333
10623SOL     OW32767   5.624   6.321   6.676
10623SOL    HW132768   5.547   6.384   6.682
10623SOL    HW232769   5.677   6.341   6.593
10624SOL     OW32770   0.381   2.564   5.301
10624SOL    HW132771   0.414   2.607   5.386
10624SOL    HW232772   0.428   2.476   5.289
10625SOL     OW32773   6.416   4.770   6.663
10625SOL    HW132774   6.354   4.811   6.729
10625SOL    HW232775   6.510   4.799   6.683
10626SOL     OW32776   5.260   3.487   1.153
10626SOL    HW132777   5.338   3.547   1.136
10626SOL    HW232778   5.292   3.397   1.182
10627SOL     OW32779   5.455   6.201   5.948
10627SOL    HW132780   5.505   6.198   5.861
10627SOL    HW232781   5.479   6.120   6.002
10628SOL     OW32782   4.528   0.195   1.087
10628SOL    HW132783   4.586   0.126   1.044
10628SOL    HW232784   4.567   0.286   1.071
10629SOL     OW32785   2.791   5.367   4.279
10629SOL    HW132786   2.845   5.442   4.240
10629SOL    HW232787   2.823   5.348   4.372
10630SOL     OW32788   4.101   0.243   2.755
10630SOL    HW132789   4.003   0.258   2.770
10630SOL    HW232790   4.140   0.323   2.708
10631SOL     OW32791   4.422   5.987   6.756
10631SOL    HW132792   4.448   6.081   6.734
10631SOL    HW232793   4.366   5.950   6.681
10632SOL     OW32794   4.515   5.724   3.414
10632SOL    HW132795   4.492   5.688   3.505
10632SOL    HW232796   4.485   5.659   3.344
10633SOL     OW32797   1.710   2.854   1.613
10633SOL    HW132798   1.755   2.929   1.565
10633SOL    HW232799   1.668   2.889   1.697
10634SOL     OW32800   6.898   4.336   6.893
10634SOL    HW132801   6.868   4.430   6.874
10634SOL    HW232802   6.841   4.297   6.966
10635SOL     OW32803   2.640   3.848   6.866
10635SOL    HW132804   2.606   3.857   6.959
10635SOL    HW232805   2.579   3.898   6.804
10636SOL     OW32806   6.823   2.405   6.278
10636SOL    HW132807   6.753   2.400   6.350
10636SOL    HW232808   6.914   2.399   6.319
10637SOL     OW32809   2.998   0.292   0.022
10637SOL    HW132810   3.012   0.194   0.029
10637SOL    HW232811   3.084   0.340   0.042
10638SOL     OW32812   0.058   5.161   1.821
10638SOL    HW132813   7.013   5.194   1.883
10638SOL    HW232814   0.022   5.086   1.765
10639SOL     OW32815   1.915   4.280   1.156
10639SOL    HW132816   2.001   4.271   1.206
10639SOL    HW232817   1.924   4.236   1.067
10640SOL     OW32818   4.060   6.592   3.229
10640SOL    HW132819   4.119   6.581   3.309
10640SOL    HW232820   4.086   6.675   3.180
10641SOL     OW32821   1.223   0.163   3.662
10641SOL    HW132822   1.159   0.228   3.620
10641SOL    HW232823   1.316   0.200   3.656
10642SOL     OW32824   5.488   2.321   6.571
10642SOL    HW132825   5.461   2.405   6.524
10642SOL    HW232826   5.420   2.298   6.641
10643SOL     OW32827   1.620   4.978   5.934
10643SOL    HW132828   1.687   4.942   5.868
10643SOL    HW232829   1.668   5.009   6.016
10644SOL     OW32830   0.657   2.347   3.030
10644SOL    HW132831   0.676   2.289   3.109
10644SOL    HW232832   0.592   2.302   2.969
10645SOL     OW32833   2.366   2.801   3.559
10645SOL    HW132834   2.411   2.723   3.602
10645SOL    HW232835   2.349   2.872   3.627
10646SOL     OW32836   5.232   1.366   4.174
10646SOL    HW132837   5.279   1.332   4.093
10646SOL    HW232838   5.208   1.463   4.161
10647SOL     OW32839   3.991   5.432   4.681
10647SOL    HW132840   3.998   5.338   4.649
10647SOL    HW232841   3.895   5.453   4.703
10648SOL     OW32842   5.717   5.724   5.112
10648SOL    HW132843   5.653   5.747   5.038
10648SOL    HW232844   5.808   5.709   5.073
10649SOL     OW32845   6.889   3.689   3.082
10649SOL    HW132846   6.980   3.725   3.100
10649SOL    HW232847   6.832   3.698   3.164
10650SOL     OW32848   0.046   0.617   4.151
10650SOL    HW132849   0.089   0.643   4.064
10650SOL    HW232850   6.983   0.663   4.159
10651SOL     OW32851   4.083   5.961   5.883
10651SOL    HW132852   4.035   5.879   5.911
10651SOL    HW232853   4.107   5.955   5.786
10652SOL     OW32854   1.850   6.645   6.976
10652SOL    HW132855   1.760   6.688   6.984
10652SOL    HW232856   1.920   6.716   6.968
10653SOL     OW32857   3.748   6.199   4.364
10653SOL    HW132858   3.657   6.212   4.324
10653SOL    HW232859   3.801   6.283   4.352
10654SOL     OW32860   5.699   1.640   4.808
10654SOL    HW132861   5.669   1.684   4.892
10654SOL    HW232862   5.731   1.709   4.743
10655SOL     OW32863   1.244   4.779   1.399
10655SOL    HW132864   1.282   4.789   1.491
10655SOL    HW232865   1.259   4.685   1.367
10656SOL     OW32866   6.734   1.555   1.545
10656SOL    HW132867   6.711   1.538   1.641
10656SOL    HW232868   6.725   1.470   1.493
10657SOL     OW32869   5.752   0.819   3.812
10657SOL    HW132870   5.787   0.832   3.719
10657SOL    HW232871   5.712   0.904   3.845
10658SOL     OW32872   6.525   3.714   4.932
10658SOL    HW132873   6.603   3.655   4.955
10658SOL    HW232874   6.522   3.791   4.994
10659SOL     OW32875   1.174   5.307   1.520
10659SOL    HW132876   1.205   5.218   1.488
10659SOL    HW232877   1.076   5.303   1.539
10660SOL     OW32878   6.687   3.404   5.518
10660SOL    HW132879   6.704   3.335   5.448
10660SOL    HW232880   6.653   3.360   5.601
10661SOL     OW32881   1.785   3.785   6.969
10661SOL    HW132882   1.841   3.855   7.013
10661SOL    HW232883   1.708   3.829   6.921
10662SOL     OW32884   2.662   1.358   3.012
10662SOL    HW132885   2.671   1.454   2.985
10662SOL    HW232886   2.645   1.303   2.930
10663SOL     OW32887   1.978   1.478   4.176
10663SOL    HW132888   1.896   1.427   4.204
10663SOL    HW232889   2.059   1.421   4.190
10664SOL     OW32890   1.422   5.384   4.262
10664SOL    HW132891   1.384   5.342   4.344
10664SOL    HW232892   1.421   5.484   4.272
10665SOL     OW32893   2.067   2.879   6.328
10665SOL    HW132894   2.031   2.821   6.400
10665SOL    HW232895   2.048   2.838   6.239
10666SOL     OW32896   3.828   3.579   2.182
10666SOL    HW132897   3.823   3.558   2.084
10666SOL    HW232898   3.912   3.540   2.220
10667SOL     OW32899   5.693   2.302   2.821
10667SOL    HW132900   5.736   2.299   2.911
10667SOL    HW232901   5.593   2.305   2.832
10668SOL     OW32902   3.334   2.232   5.372
10668SOL    HW132903   3.305   2.151   5.321
10668SOL    HW232904   3.305   2.314   5.323
10669SOL     OW32905   5.263   1.129   1.060
10669SOL    HW132906   5.328   1.169   0.996
10669SOL    HW232907   5.243   1.195   1.133
10670SOL     OW32908   5.270   3.963   4.326
10670SOL    HW132909   5.241   4.028   4.256
10670SOL    HW232910   5.318   4.012   4.399
10671SOL     OW32911   1.241   1.765   4.080
10671SOL    HW132912   1.142   1.768   4.070
10671SOL    HW232913   1.284   1.756   3.990
10672SOL     OW32914   5.894   3.433   1.978
10672SOL    HW132915   5.807   3.408   1.936
10672SOL    HW232916   5.952   3.352   1.985
10673SOL     OW32917   1.586   1.245   1.414
10673SOL    HW132918   1.610   1.159   1.460
10673SOL    HW232919   1.604   1.321   1.476
10674SOL     OW32920   3.763   3.336   4.609
10674SOL    HW132921   3.789   3.431   4.590
10674SOL    HW232922   3.788   3.313   4.703
10675SOL     OW32923   3.829   7.002   5.878
10675SOL    HW132924   3.816   6.978   5.974
10675SOL    HW232925   3.911   0.033   5.868
10676SOL     OW32926   1.347   6.237   5.650
10676SOL    HW132927   1.372   6.146   5.683
10676SOL    HW232928   1.404   6.306   5.694
10677SOL     OW32929   0.649   1.991   0.533
10677SOL    HW132930   0.584   2.032   0.469
10677SOL    HW232931   0.604   1.919   0.585
10678SOL     OW32932   4.276   5.536   3.503
10678SOL    HW132933   4.297   5.450   3.456
10678SOL    HW232934   4.178   5.540   3.523
10679SOL     OW32935   4.698   4.228   0.096
10679SOL    HW132936   4.753   4.309   0.076
10679SOL    HW232937   4.719   4.156   0.029
10680SOL     OW32938   3.679   1.728   3.998
10680SOL    HW132939   3.687   1.778   3.912
10680SOL    HW232940   3.601   1.763   4.050
10681SOL     OW32941   6.601   3.362   6.492
10681SOL    HW132942   6.595   3.432   6.421
10681SOL    HW232943   6.574   3.274   6.454
10682SOL     OW32944   6.190   2.957   5.447
10682SOL    HW132945   6.272   2.979   5.394
10682SOL    HW232946   6.216   2.915   5.533
10683SOL     OW32947   3.917   0.492   3.454
10683SOL    HW132948   3.935   0.401   3.416
10683SOL    HW232949   3.831   0.491   3.505
10684SOL     OW32950   5.156   4.360   1.030
10684SOL    HW132951   5.215   4.286   0.998
10684SOL    HW232952   5.125   4.340   1.123
10685SOL     OW32953   0.301   5.137   1.983
10685SOL    HW132954   0.223   5.138   1.920
10685SOL    HW232955   0.369   5.204   1.954
10686SOL     OW32956   2.158   4.196   0.399
10686SOL    HW132957   2.154   4.098   0.380
10686SOL    HW232958   2.149   4.247   0.313
10687SOL     OW32959   6.511   4.650   3.051
10687SOL    HW132960   6.609   4.638   3.069
10687SOL    HW232961   6.463   4.564   3.072
10688SOL     OW32962   5.650   1.300   2.353
10688SOL    HW132963   5.641   1.397   2.375
10688SOL    HW232964   5.642   1.288   2.254
10689SOL     OW32965   0.047   6.961   1.882
10689SOL    HW132966   0.035   6.880   1.938
10689SOL    HW232967   0.035   0.017   1.938
10690SOL     OW32968   6.553   6.006   3.259
10690SOL    HW132969   6.590   5.922   3.298
10690SOL    HW232970   6.458   6.017   3.289
10691SOL     OW32971   3.277   1.851   2.115
10691SOL    HW132972   3.210   1.925   2.110
10691SOL    HW232973   3.267   1.804   2.203
10692SOL     OW32974   2.629   0.770   5.132
10692SOL    HW132975   2.633   0.699   5.203
10692SOL    HW232976   2.713   0.767   5.078
10693SOL     OW32977   0.910   5.852   1.596
10693SOL    HW132978   0.893   5.903   1.681
10693SOL    HW232979   1.007   5.856   1.574
10694SOL     OW32980   4.734   5.873   5.927
10694SOL    HW132981   4.754   5.779   5.897
10694SOL    HW232982   4.640   5.897   5.902
10695SOL     OW32983   0.974   3.357   1.107
10695SOL    HW132984   0.971   3.453   1.080
10695SOL    HW232985   0.880   3.323   1.118
10696SOL     OW32986   6.706   4.290   5.065
10696SOL    HW132987   6.619   4.280   5.016
10696SOL    HW232988   6.715   4.215   5.130
10697SOL     OW32989   0.821   5.849   4.994
10697SOL    HW132990   0.918   5.829   5.011
10697SOL    HW232991   0.807   5.862   4.896
10698SOL     OW32992   4.869   4.376   6.809
10698SOL    HW132993   4.902   4.411   6.897
10698SOL    HW232994   4.827   4.451   6.758
10699SOL     OW32995   3.734   4.177   0.840
10699SOL    HW132996   3.646   4.208   0.877
10699SOL    HW232997   3.799   4.167   0.915
10700SOL     OW32998   5.783   6.724   0.201
10700SOL    HW132999   5.740   6.635   0.220
10700SOL    HW233000   5.881   6.712   0.190
10701SOL     OW33001   2.653   0.091   6.377
10701SOL    HW133002   2.716   0.027   6.334
10701SOL    HW233003   2.613   0.152   6.309
10702SOL     OW33004   4.835   3.115   2.834
10702SOL    HW133005   4.781   3.069   2.764
10702SOL    HW233006   4.850   3.211   2.808
10703SOL     OW33007   2.195   2.167   5.779
10703SOL    HW133008   2.203   2.191   5.876
10703SOL    HW233009   2.185   2.068   5.770
10704SOL     OW33010   6.879   5.454   2.420
10704SOL    HW133011   6.819   5.509   2.479
10704SOL    HW233012   6.930   5.389   2.477
10705SOL     OW33013   5.751   4.874   1.018
10705SOL    HW133014   5.663   4.881   0.970
10705SOL    HW233015   5.736   4.883   1.116
10706SOL     OW33016   4.236   0.103   1.964
10706SOL    HW133017   4.250   0.124   1.867
10706SOL    HW233018   4.325   0.101   2.010
10707SOL     OW33019   6.259   6.925   4.601
10707SOL    HW133020   6.240   7.005   4.657
10707SOL    HW233021   6.326   6.949   4.530
10708SOL     OW33022   5.001   1.737   2.353
10708SOL    HW133023   5.001   1.662   2.287
10708SOL    HW233024   5.067   1.718   2.425
10709SOL     OW33025   5.493   5.480   3.922
10709SOL    HW133026   5.483   5.511   3.827
10709SOL    HW233027   5.589   5.483   3.948
10710SOL     OW33028   5.563   0.724   3.171
10710SOL    HW133029   5.634   0.776   3.123
10710SOL    HW233030   5.551   0.762   3.263
10711SOL     OW33031   2.724   6.711   3.850
10711SOL    HW133032   2.632   6.681   3.826
10711SOL    HW233033   2.785   6.698   3.772
10712SOL     OW33034   4.186   0.504   2.701
10712SOL    HW133035   4.160   0.576   2.766
10712SOL    HW233036   4.277   0.524   2.665
10713SOL     OW33037   1.391   2.782   0.355
10713SOL    HW133038   1.302   2.826   0.368
10713SOL    HW233039   1.461   2.852   0.343
10714SOL     OW33040   4.234   3.154   5.270
10714SOL    HW133041   4.222   3.061   5.304
10714SOL    HW233042   4.146   3.203   5.274
10715SOL     OW33043   4.879   0.198   2.134
10715SOL    HW133044   4.819   0.187   2.213
10715SOL    HW233045   4.962   0.248   2.163
10716SOL     OW33046   6.811   2.694   3.206
10716SOL    HW133047   6.765   2.760   3.146
10716SOL    HW233048   6.749   2.620   3.228
10717SOL     OW33049   1.859   3.009   0.699
10717SOL    HW133050   1.878   2.911   0.701
10717SOL    HW233051   1.772   3.025   0.652
10718SOL     OW33052   1.348   4.664   6.358
10718SOL    HW133053   1.266   4.722   6.355
10718SOL    HW233054   1.333   4.589   6.423
10719SOL     OW33055   6.039   5.828   3.477
10719SOL    HW133056   6.037   5.758   3.549
10719SOL    HW233057   5.951   5.876   3.476
10720SOL     OW33058   5.698   5.387   4.328
10720SOL    HW133059   5.647   5.464   4.290
10720SOL    HW233060   5.686   5.307   4.270
10721SOL     OW33061   5.013   3.913   5.383
10721SOL    HW133062   4.970   3.978   5.445
10721SOL    HW233063   4.959   3.907   5.299
10722SOL     OW33064   6.189   4.019   6.971
10722SOL    HW133065   6.152   4.002   6.880
10722SOL    HW233066   6.173   3.939   0.004
10723SOL     OW33067   0.002   1.959   6.295
10723SOL    HW133068   0.086   1.982   6.345
10723SOL    HW233069   6.986   2.042   6.259
10724SOL     OW33070   0.367   6.682   6.491
10724SOL    HW133071   0.454   6.636   6.506
10724SOL    HW233072   0.298   6.644   6.553
10725SOL     OW33073   2.160   5.747   5.208
10725SOL    HW133074   2.236   5.750   5.143
10725SOL    HW233075   2.123   5.839   5.220
10726SOL     OW33076   4.187   0.226   4.114
10726SOL    HW133077   4.108   0.178   4.075
10726SOL    HW233078   4.269   0.170   4.105
10727SOL     OW33079   0.771   4.939   6.510
10727SOL    HW133080   0.738   4.850   6.542
10727SOL    HW233081   0.856   4.962   6.558
10728SOL     OW33082   1.026   5.030   0.185
10728SOL    HW133083   0.976   5.102   0.137
10728SOL    HW233084   0.990   4.941   0.158
10729SOL     OW33085   6.213   1.633   2.096
10729SOL    HW133086   6.146   1.707   2.103
10729SOL    HW233087   6.197   1.583   2.011
10730SOL     OW33088   3.286   6.983   0.903
10730SOL    HW133089   3.207   7.021   0.952
10730SOL    HW233090   3.254   6.922   0.830
10731SOL     OW33091   3.689   0.655   1.050
10731SOL    HW133092   3.702   0.754   1.042
10731SOL    HW233093   3.662   0.633   1.144
10732SOL     OW33094   0.570   4.451   5.618
10732SOL    HW133095   0.481   4.413   5.593
10732SOL    HW233096   0.641   4.383   5.599
10733SOL     OW33097   6.344   1.208   6.752
10733SOL    HW133098   6.250   1.186   6.779
10733SOL    HW233099   6.391   1.125   6.722
10734SOL     OW33100   1.458   1.736   0.655
10734SOL    HW133101   1.440   1.829   0.622
10734SOL    HW233102   1.376   1.681   0.647
10735SOL     OW33103   0.244   2.954   2.294
10735SOL    HW133104   0.260   2.892   2.371
10735SOL    HW233105   0.221   3.045   2.330
10736SOL     OW33106   2.161   0.177   3.539
10736SOL    HW133107   2.067   0.174   3.575
10736SOL    HW233108   2.163   0.133   3.449
10737SOL     OW33109   0.744   1.687   0.887
10737SOL    HW133110   0.762   1.619   0.958
10737SOL    HW233111   0.817   1.684   0.819
10738SOL     OW33112   3.384   6.032   2.776
10738SOL    HW133113   3.437   5.963   2.826
10738SOL    HW233114   3.436   6.117   2.773
10739SOL     OW33115   1.552   1.882   1.120
10739SOL    HW133116   1.619   1.933   1.065
10739SOL    HW233117   1.493   1.947   1.167
10740SOL     OW33118   6.624   4.782   5.739
10740SOL    HW133119   6.623   4.683   5.727
10740SOL    HW233120   6.702   4.820   5.690
10741SOL     OW33121   4.302   0.670   1.543
10741SOL    HW133122   4.369   0.639   1.476
10741SOL    HW233123   4.221   0.704   1.496
10742SOL     OW33124   6.603   6.848   0.877
10742SOL    HW133125   6.632   6.869   0.970
10742SOL    HW233126   6.643   6.760   0.849
10743SOL     OW33127   1.850   1.536   5.413
10743SOL    HW133128   1.755   1.508   5.428
10743SOL    HW233129   1.877   1.515   5.319
10744SOL     OW33130   3.622   1.603   0.536
10744SOL    HW133131   3.591   1.508   0.530
10744SOL    HW233132   3.574   1.649   0.610
10745SOL     OW33133   0.078   5.104   6.118
10745SOL    HW133134   0.115   5.018   6.153
10745SOL    HW233135   0.142   5.178   6.139
10746SOL     OW33136   1.076   3.835   0.068
10746SOL    HW133137   1.004   3.781   0.112
10746SOL    HW233138   1.092   3.800   7.001
10747SOL     OW33139   3.221   0.555   5.075
10747SOL    HW133140   3.222   0.566   5.174
10747SOL    HW233141   3.241   0.642   5.031
10748SOL     OW33142   5.438   0.489   1.675
10748SOL    HW133143   5.455   0.403   1.626
10748SOL    HW233144   5.342   0.515   1.665
10749SOL     OW33145   0.606   6.160   4.543
10749SOL    HW133146   0.626   6.064   4.520
10749SOL    HW233147   0.619   6.217   4.462
10750SOL     OW33148   3.528   6.748   4.809
10750SOL    HW133149   3.554   6.717   4.901
10750SOL    HW233150   3.605   6.795   4.767
10751SOL     OW33151   2.022   4.451   4.036
10751SOL    HW133152   2.037   4.497   4.124
10751SOL    HW233153   1.969   4.511   3.976
10752SOL     OW33154   6.175   4.741   5.395
10752SOL    HW133155   6.084   4.769   5.423
10752SOL    HW233156   6.205   4.664   5.451
10753SOL     OW33157   6.964   4.476   4.366
10753SOL    HW133158   0.038   4.473   4.369
10753SOL    HW233159   6.933   4.441   4.277
10754SOL     OW33160   1.276   6.950   3.172
10754SOL    HW133161   1.264   6.859   3.212
10754SOL    HW233162   1.243   7.019   3.236
10755SOL     OW33163   6.652   0.340   1.127
10755SOL    HW133164   6.557   0.314   1.140
10755SOL    HW233165   6.692   0.364   1.216
10756SOL     OW33166   6.415   5.409   5.785
10756SOL    HW133167   6.383   5.444   5.873
10756SOL    HW233168   6.396   5.311   5.778
10757SOL     OW33169   2.722   2.313   0.122
10757SOL    HW133170   2.793   2.314   0.052
10757SOL    HW233171   2.643   2.365   0.090
10758SOL     OW33172   0.564   6.267   4.007
10758SOL    HW133173   0.528   6.290   3.917
10758SOL    HW233174   0.620   6.184   4.001
10759SOL     OW33175   1.613   3.342   0.595
10759SOL    HW133176   1.606   3.244   0.579
10759SOL    HW233177   1.617   3.390   0.507
10760SOL     OW33178   5.371   1.063   3.380
10760SOL    HW133179   5.427   1.053   3.298
10760SOL    HW233180   5.370   1.158   3.409
10761SOL     OW33181   0.775   5.655   5.541
10761SOL    HW133182   0.869   5.652   5.506
10761SOL    HW233183   0.712   5.656   5.463
10762SOL     OW33184   2.983   0.843   4.844
10762SOL    HW133185   2.977   0.765   4.783
10762SOL    HW233186   2.895   0.891   4.845
10763SOL     OW33187   4.225   6.881   2.691
10763SOL    HW133188   4.187   6.795   2.727
10763SOL    HW233189   4.159   6.925   2.631
10764SOL     OW33190   5.240   2.274   5.186
10764SOL    HW133191   5.180   2.205   5.145
10764SOL    HW233192   5.282   2.328   5.114
10765SOL     OW33193   4.939   2.702   0.867
10765SOL    HW133194   4.848   2.661   0.866
10765SOL    HW233195   4.948   2.761   0.948
10766SOL     OW33196   3.968   4.642   0.755
10766SOL    HW133197   3.942   4.735   0.731
10766SOL    HW233198   3.924   4.577   0.694
10767SOL     OW33199   2.389   0.595   1.102
10767SOL    HW133200   2.322   0.654   1.147
10767SOL    HW233201   2.351   0.502   1.094
10768SOL     OW33202   5.545   5.199   1.861
10768SOL    HW133203   5.620   5.146   1.820
10768SOL    HW233204   5.458   5.159   1.833
10769SOL     OW33205   1.789   3.598   5.731
10769SOL    HW133206   1.848   3.581   5.652
10769SOL    HW233207   1.806   3.690   5.766
10770SOL     OW33208   5.094   6.497   3.784
10770SOL    HW133209   5.166   6.428   3.770
10770SOL    HW233210   5.035   6.500   3.703
10771SOL     OW33211   3.883   0.272   3.650
10771SOL    HW133212   3.956   0.319   3.700
10771SOL    HW233213   3.809   0.248   3.714
10772SOL     OW33214   6.037   6.161   4.589
10772SOL    HW133215   6.012   6.075   4.545
10772SOL    HW233216   5.955   6.216   4.604
10773SOL     OW33217   5.914   4.887   6.200
10773SOL    HW133218   5.923   4.957   6.129
10773SOL    HW233219   5.818   4.881   6.229
10774SOL     OW33220   2.004   1.157   4.963
10774SOL    HW133221   1.993   1.181   5.059
10774SOL    HW233222   2.012   1.058   4.954
10775SOL     OW33223   0.522   4.315   2.657
10775SOL    HW133224   0.622   4.309   2.648
10775SOL    HW233225   0.484   4.350   2.571
10776SOL     OW33226   0.754   0.849   6.704
10776SOL    HW133227   0.822   0.922   6.714
10776SOL    HW233228   0.738   0.831   6.607
10777SOL     OW33229   3.657   5.106   0.977
10777SOL    HW133230   3.672   5.153   0.890
10777SOL    HW233231   3.559   5.106   0.998
10778SOL     OW33232   4.918   0.264   4.113
10778SOL    HW133233   4.846   0.302   4.055
10778SOL    HW233234   5.006   0.305   4.087
10779SOL     OW33235   6.114   3.126   3.136
10779SOL    HW133236   6.100   3.163   3.228
10779SOL    HW233237   6.211   3.134   3.111
10780SOL     OW33238   1.402   0.702   4.206
10780SOL    HW133239   1.388   0.763   4.128
10780SOL    HW233240   1.500   0.698   4.227
10781SOL     OW33241   3.584   1.119   3.309
10781SOL    HW133242   3.619   1.124   3.402
10781SOL    HW233243   3.496   1.165   3.304
10782SOL     OW33244   7.020   0.756   3.649
10782SOL    HW133245   7.008   0.710   3.561
10782SOL    HW233246   6.941   0.738   3.708
10783SOL     OW33247   0.274   2.898   2.985
10783SOL    HW133248   0.236   2.889   3.077
10783SOL    HW233249   0.374   2.898   2.990
10784SOL     OW33250   3.298   1.036   4.210
10784SOL    HW133251   3.213   1.011   4.163
10784SOL    HW233252   3.342   0.954   4.246
10785SOL     OW33253   1.131   3.743   0.837
10785SOL    HW133254   1.219   3.792   0.837
10785SOL    HW233255   1.137   3.665   0.775
10786SOL     OW33256   5.961   5.242   2.461
10786SOL    HW133257   5.967   5.223   2.560
10786SOL    HW233258   5.869   5.221   2.428
10787SOL     OW33259   0.554   0.385   5.654
10787SOL    HW133260   0.591   0.294   5.672
10787SOL    HW233261   0.541   0.397   5.556
10788SOL     OW33262   0.941   3.622   1.022
10788SOL    HW133263   0.900   3.699   1.071
10788SOL    HW233264   1.021   3.655   0.971
10789SOL     OW33265   6.300   3.096   6.701
10789SOL    HW133266   6.354   3.018   6.733
10789SOL    HW233267   6.267   3.148   6.780
10790SOL     OW33268   0.863   6.580   1.687
10790SOL    HW133269   0.847   6.673   1.654
10790SOL    HW233270   0.883   6.520   1.610
10791SOL     OW33271   6.952   5.830   2.487
10791SOL    HW133272   6.917   5.743   2.453
10791SOL    HW233273   6.882   5.874   2.545
10792SOL     OW33274   3.131   2.913   5.219
10792SOL    HW133275   3.210   2.942   5.273
10792SOL    HW233276   3.059   2.881   5.280
10793SOL     OW33277   6.025   4.082   5.813
10793SOL    HW133278   6.098   4.149   5.796
10793SOL    HW233279   6.064   3.991   5.819
10794SOL     OW33280   3.984   3.686   3.974
10794SOL    HW133281   3.928   3.688   3.891
10794SOL    HW233282   4.022   3.595   3.986
10795SOL     OW33283   0.538   5.097   3.050
10795SOL    HW133284   0.604   5.045   3.104
10795SOL    HW233285   0.584   5.170   3.001
10796SOL     OW33286   6.710   6.940   5.328
10796SOL    HW133287   6.624   6.968   5.372
10796SOL    HW233288   6.728   6.844   5.348
10797SOL     OW33289   3.755   3.167   1.195
10797SOL    HW133290   3.722   3.117   1.115
10797SOL    HW233291   3.757   3.106   1.274
10798SOL     OW33292   2.375   1.587   0.809
10798SOL    HW133293   2.419   1.505   0.770
10798SOL    HW233294   2.413   1.669   0.766
10799SOL     OW33295   4.204   0.808   2.255
10799SOL    HW133296   4.250   0.882   2.306
10799SOL    HW233297   4.240   0.805   2.162
10800SOL     OW33298   0.671   6.382   6.347
10800SOL    HW133299   0.694   6.288   6.322
10800SOL    HW233300   0.687   6.442   6.269
10801SOL     OW33301   0.848   6.608   0.770
10801SOL    HW133302   0.829   6.650   0.681
10801SOL    HW233303   0.823   6.672   0.842
10802SOL     OW33304   0.175   6.624   2.750
10802SOL    HW133305   0.167   6.529   2.718
10802SOL    HW233306   0.259   6.664   2.713
10803SOL     OW33307   1.627   5.653   6.200
10803SOL    HW133308   1.551   5.641   6.263
10803SOL    HW233309   1.596   5.700   6.118
10804SOL     OW33310   6.950   2.765   3.434
10804SOL    HW133311   0.005   2.714   3.464
10804SOL    HW233312   6.925   2.736   3.341
10805SOL     OW33313   5.718   0.935   5.587
10805SOL    HW133314   5.678   0.935   5.495
10805SOL    HW233315   5.781   0.857   5.596
10806SOL     OW33316   3.729   4.957   6.751
10806SOL    HW133317   3.802   5.008   6.797
10806SOL    HW233318   3.766   4.872   6.714
10807SOL     OW33319   1.247   5.544   3.993
10807SOL    HW133320   1.317   5.571   4.057
10807SOL    HW233321   1.243   5.609   3.917
10808SOL     OW33322   0.373   2.986   6.335
10808SOL    HW133323   0.345   3.061   6.395
10808SOL    HW233324   0.473   2.981   6.333
10809SOL     OW33325   1.470   4.346   4.360
10809SOL    HW133326   1.422   4.359   4.447
10809SOL    HW233327   1.564   4.317   4.377
10810SOL     OW33328   6.647   0.128   3.538
10810SOL    HW133329   6.575   0.086   3.483
10810SOL    HW233330   6.666   0.220   3.504
10811SOL     OW33331   4.764   4.896   4.710
10811SOL    HW133332   4.774   4.897   4.810
10811SOL    HW233333   4.740   4.803   4.680
10812SOL     OW33334   6.857   3.285   6.581
10812SOL    HW133335   6.768   3.291   6.536
10812SOL    HW233336   6.893   3.192   6.574
10813SOL     OW33337   0.432   3.449   6.072
10813SOL    HW133338   0.384   3.386   6.010
10813SOL    HW233339   0.507   3.400   6.117
10814SOL     OW33340   2.350   0.257   0.356
10814SOL    HW133341   2.361   0.342   0.406
10814SOL    HW233342   2.435   0.235   0.308
10815SOL     OW33343   5.449   1.771   3.198
10815SOL    HW133344   5.393   1.823   3.133
10815SOL    HW233345   5.466   1.680   3.161
10816SOL     OW33346   3.654   2.971   2.667
10816SOL    HW133347   3.555   2.987   2.667
10816SOL    HW233348   3.680   2.922   2.750
10817SOL     OW33349   3.133   0.616   3.506
10817SOL    HW133350   3.194   0.537   3.499
10817SOL    HW233351   3.181   0.698   3.475
10818SOL     OW33352   4.699   4.894   5.562
10818SOL    HW133353   4.744   4.869   5.476
10818SOL    HW233354   4.636   4.970   5.547
10819SOL     OW33355   5.983   5.612   6.145
10819SOL    HW133356   6.033   5.529   6.171
10819SOL    HW233357   5.957   5.663   6.227
10820SOL     OW33358   0.285   5.534   5.233
10820SOL    HW133359   0.337   5.464   5.184
10820SOL    HW233360   0.190   5.504   5.243
10821SOL     OW33361   4.385   6.065   2.873
10821SOL    HW133362   4.452   6.023   2.812
10821SOL    HW233363   4.416   6.055   2.968
10822SOL     OW33364   5.563   1.963   1.110
10822SOL    HW133365   5.564   1.928   1.017
10822SOL    HW233366   5.606   1.896   1.171
10823SOL     OW33367   0.326   0.221   3.783
10823SOL    HW133368   0.347   0.276   3.864
10823SOL    HW233369   0.369   0.262   3.703
10824SOL     OW33370   0.910   1.480   2.868
10824SOL    HW133371   0.825   1.511   2.912
10824SOL    HW233372   0.888   1.436   2.781
10825SOL     OW33373   1.214   2.334   0.629
10825SOL    HW133374   1.314   2.325   0.624
10825SOL    HW233375   1.172   2.246   0.610
10826SOL     OW33376   0.906   2.221   2.843
10826SOL    HW133377   1.003   2.230   2.818
10826SOL    HW233378   0.877   2.304   2.891
10827SOL     OW33379   6.556   3.169   4.808
10827SOL    HW133380   6.603   3.217   4.881
10827SOL    HW233381   6.465   3.140   4.840
10828SOL     OW33382   6.864   3.656   0.025
10828SOL    HW133383   6.837   3.592   0.098
10828SOL    HW233384   6.944   3.621   7.003
10829SOL     OW33385   4.574   3.507   6.976
10829SOL    HW133386   4.651   3.456   6.940
10829SOL    HW233387   4.494   3.493   6.916
10830SOL     OW33388   4.825   1.454   3.756
10830SOL    HW133389   4.891   1.390   3.796
10830SOL    HW233390   4.872   1.512   3.689
10831SOL     OW33391   3.944   0.589   1.904
10831SOL    HW133392   4.035   0.623   1.881
10831SOL    HW233393   3.918   0.620   1.995
10832SOL     OW33394   6.847   3.009   6.695
10832SOL    HW133395   6.754   2.974   6.683
10832SOL    HW233396   6.910   2.958   6.636
10833SOL     OW33397   0.262   2.702   1.080
10833SOL    HW133398   0.196   2.630   1.059
10833SOL    HW233399   0.319   2.719   0.999
10834SOL     OW33400   6.116   0.955   1.169
10834SOL    HW133401   6.175   0.996   1.238
10834SOL    HW233402   6.127   1.003   1.082
10835SOL     OW33403   5.031   3.379   0.471
10835SOL    HW133404   5.091   3.459   0.458
10835SOL    HW233405   5.086   3.296   0.464
10836SOL     OW33406   1.432   0.629   2.680
10836SOL    HW133407   1.525   0.631   2.716
10836SOL    HW233408   1.427   0.568   2.601
10837SOL     OW33409   6.263   4.535   2.146
10837SOL    HW133410   6.279   4.632   2.128
10837SOL    HW233411   6.203   4.497   2.075
10838SOL     OW33412   5.609   6.522   3.683
10838SOL    HW133413   5.591   6.578   3.763
10838SOL    HW233414   5.523   6.499   3.637
10839SOL     OW33415   4.748   3.432   0.713
10839SOL    HW133416   4.698   3.420   0.799
10839SOL    HW233417   4.763   3.342   0.671
10840SOL     OW33418   3.419   0.632   1.912
10840SOL    HW133419   3.468   0.544   1.913
10840SOL    HW233420   3.460   0.694   1.979
10841SOL     OW33421   6.386   5.245   4.933
10841SOL    HW133422   6.461   5.261   4.868
10841SOL    HW233423   6.378   5.147   4.950
10842SOL     OW33424   4.207   2.857   1.695
10842SOL    HW133425   4.139   2.849   1.621
10842SOL    HW233426   4.213   2.952   1.725
10843SOL     OW33427   2.051   1.655   1.163
10843SOL    HW133428   1.993   1.574   1.160
10843SOL    HW233429   2.016   1.719   1.231
10844SOL     OW33430   0.346   5.666   4.356
10844SOL    HW133431   0.278   5.736   4.376
10844SOL    HW233432   0.426   5.680   4.413
10845SOL     OW33433   4.323   5.989   4.733
10845SOL    HW133434   4.353   6.066   4.676
10845SOL    HW233435   4.374   5.907   4.706
10846SOL     OW33436   6.005   6.563   6.769
10846SOL    HW133437   5.982   6.532   6.861
10846SOL    HW233438   6.097   6.532   6.745
10847SOL     OW33439   2.244   1.668   0.123
10847SOL    HW133440   2.167   1.652   0.184
10847SOL    HW233441   2.272   1.581   0.082
10848SOL     OW33442   0.675   4.119   1.431
10848SOL    HW133443   0.674   4.060   1.511
10848SOL    HW233444   0.697   4.065   1.350
10849SOL     OW33445   3.204   4.917   4.540
10849SOL    HW133446   3.108   4.903   4.517
10849SOL    HW233447   3.212   4.933   4.639
10850SOL     OW33448   4.010   6.034   0.010
10850SOL    HW133449   4.054   5.944   0.013
10850SOL    HW233450   4.052   6.089   6.963
10851SOL     OW33451   2.821   4.027   1.684
10851SOL    HW133452   2.850   4.122   1.671
10851SOL    HW233453   2.729   4.015   1.645
10852SOL     OW33454   2.096   1.392   0.405
10852SOL    HW133455   2.192   1.370   0.385
10852SOL    HW233456   2.083   1.398   0.503
10853SOL     OW33457   2.262   3.292   6.074
10853SOL    HW133458   2.289   3.202   6.039
10853SOL    HW233459   2.303   3.306   6.164
10854SOL     OW33460   4.455   5.348   5.253
10854SOL    HW133461   4.526   5.289   5.215
10854SOL    HW233462   4.484   5.444   5.246
10855SOL     OW33463   3.599   0.745   0.345
10855SOL    HW133464   3.514   0.797   0.341
10855SOL    HW233465   3.635   0.734   0.252
10856SOL     OW33466   6.949   0.564   6.295
10856SOL    HW133467   7.016   0.561   6.369
10856SOL    HW233468   6.935   0.471   6.261
10857SOL     OW33469   0.216   1.588   2.428
10857SOL    HW133470   0.159   1.646   2.486
10857SOL    HW233471   0.216   1.625   2.335
10858SOL     OW33472   2.026   6.330   1.264
10858SOL    HW133473   2.037   6.300   1.359
10858SOL    HW233474   2.110   6.375   1.234
10859SOL     OW33475   6.766   4.762   4.620
10859SOL    HW133476   6.723   4.852   4.632
10859SOL    HW233477   6.839   4.769   4.552
10860SOL     OW33478   6.798   3.835   3.636
10860SOL    HW133479   6.800   3.918   3.693
10860SOL    HW233480   6.820   3.755   3.692
10861SOL     OW33481   2.963   3.449   3.371
10861SOL    HW133482   2.997   3.471   3.463
10861SOL    HW233483   2.938   3.352   3.368
10862SOL     OW33484   2.124   0.832   6.065
10862SOL    HW133485   2.147   0.929   6.074
10862SOL    HW233486   2.113   0.792   6.155
10863SOL     OW33487   2.138   6.959   4.317
10863SOL    HW133488   2.094   6.878   4.278
10863SOL    HW233489   2.104   6.974   4.410
10864SOL     OW33490   3.020   6.349   1.813
10864SOL    HW133491   3.038   6.441   1.849
10864SOL    HW233492   2.945   6.353   1.747
10865SOL     OW33493   6.561   1.352   7.007
10865SOL    HW133494   6.601   1.416   0.047
10865SOL    HW233495   6.531   1.401   6.926
10866SOL     OW33496   5.190   4.701   6.875
10866SOL    HW133497   5.226   4.702   6.781
10866SOL    HW233498   5.247   4.640   6.931
10867SOL     OW33499   3.022   4.396   0.688
10867SOL    HW133500   3.072   4.470   0.732
10867SOL    HW233501   3.036   4.401   0.589
10868SOL     OW33502   5.037   1.784   3.569
10868SOL    HW133503   5.109   1.751   3.508
10868SOL    HW233504   5.057   1.756   3.663
10869NA      NA33505   6.221   2.219   5.704
10870NA      NA33506   4.352   4.809   4.951
10871NA      NA33507   1.669   3.478   1.488
10872NA      NA33508   4.999   3.675   5.436
10873NA      NA33509   4.228   2.211   4.904
10874NA      NA33510   3.717   4.540   1.622
10875NA      NA33511   6.471   5.415   5.558
10876NA      NA33512   3.537   3.375   4.619
10877NA      NA33513   4.865   6.488   6.784
10878NA      NA33514   3.510   6.655   5.574
10879NA      NA33515   6.440   5.075   2.562
10880NA      NA33516   2.533   0.704   3.936
10881NA      NA33517   3.844   5.193   1.109
10882NA      NA33518   3.660   3.595   2.382
   7.02548   7.02548   7.02548
