Generated by trjconv : CNT in water t= 155.00000
33518
    1C        C    1   2.838   2.763   4.748
    1C        C    2   2.895   2.716   4.868
    1C        C    3   2.837   2.766   4.985
    1C        C    4   2.846   2.772   4.259
    1C        C    5   2.896   2.725   4.383
    1C        C    6   2.838   2.768   4.504
    1C        C    7   3.010   2.642   4.623
    1C        C    8   2.891   2.718   4.625
    1C        C    9   3.076   2.606   4.742
    1C        C   10   3.010   2.634   4.864
    1C        C   11   3.178   2.489   4.973
    1C        C   12   3.057   2.559   4.972
    1C        C   13   2.848   2.771   3.771
    1C        C   14   2.897   2.721   3.894
    1C        C   15   2.843   2.773   4.014
    1C        C   16   3.015   2.648   4.138
    1C        C   17   2.898   2.726   4.136
    1C        C   18   3.081   2.620   4.260
    1C        C   19   3.017   2.653   4.381
    1C        C   20   3.209   2.560   4.501
    1C        C   21   3.079   2.614   4.502
    1C        C   22   3.277   2.534   4.622
    1C        C   23   3.206   2.549   4.744
    1C        C   24   3.411   2.490   4.865
    1C        C   25   3.268   2.499   4.862
    1C        C   26   3.489   2.481   4.981
    1C        C   27   2.848   2.767   3.281
    1C        C   28   2.904   2.727   3.404
    1C        C   29   2.849   2.774   3.526
    1C        C   30   3.019   2.647   3.649
    1C        C   31   2.901   2.726   3.648
    1C        C   32   3.075   2.608   3.773
    1C        C   33   3.012   2.639   3.895
    1C        C   34   3.209   2.559   4.016
    1C        C   35   3.077   2.609   4.017
    1C        C   36   3.279   2.543   4.138
    1C        C   37   3.212   2.565   4.260
    1C        C   38   3.419   2.514   4.379
    1C        C   39   3.280   2.542   4.381
    1C        C   40   3.487   2.509   4.502
    1C        C   41   3.416   2.509   4.624
    1C        C   42   3.629   2.489   4.743
    1C        C   43   3.486   2.487   4.744
    1C        C   44   3.705   2.489   4.861
    1C        C   45   3.628   2.478   4.977
    1C        C   46   2.836   2.752   2.793
    1C        C   47   2.891   2.705   2.915
    1C        C   48   2.841   2.757   3.037
    1C        C   49   3.020   2.644   3.161
    1C        C   50   2.901   2.719   3.159
    1C        C   51   3.083   2.613   3.284
    1C        C   52   3.018   2.644   3.405
    1C        C   53   3.210   2.555   3.527
    1C        C   54   3.080   2.612   3.528
    1C        C   55   3.277   2.536   3.650
    1C        C   56   3.207   2.558   3.771
    1C        C   57   3.414   2.508   3.891
    1C        C   58   3.275   2.537   3.893
    1C        C   59   3.487   2.504   4.012
    1C        C   60   3.417   2.513   4.134
    1C        C   61   3.630   2.507   4.258
    1C        C   62   3.489   2.505   4.256
    1C        C   63   3.701   2.506   4.380
    1C        C   64   3.629   2.504   4.501
    1C        C   65   3.836   2.548   4.621
    1C        C   66   3.700   2.509   4.623
    1C        C   67   3.906   2.566   4.742
    1C        C   68   3.840   2.531   4.862
    1C        C   69   4.053   2.584   4.979
    1C        C   70   3.924   2.530   4.974
    1C        C   71   2.824   2.734   2.307
    1C        C   72   2.882   2.694   2.430
    1C        C   73   2.830   2.746   2.550
    1C        C   74   3.006   2.626   2.673
    1C        C   75   2.887   2.702   2.671
    1C        C   76   3.074   2.595   2.793
    1C        C   77   3.012   2.633   2.914
    1C        C   78   3.207   2.552   3.037
    1C        C   79   3.077   2.606   3.037
    1C        C   80   3.276   2.531   3.158
    1C        C   81   3.211   2.552   3.282
    1C        C   82   3.414   2.503   3.402
    1C        C   83   3.275   2.526   3.405
    1C        C   84   3.482   2.499   3.526
    1C        C   85   3.415   2.507   3.650
    1C        C   86   3.628   2.502   3.768
    1C        C   87   3.487   2.499   3.771
    1C        C   88   3.697   2.513   3.891
    1C        C   89   3.628   2.508   4.014
    1C        C   90   3.837   2.550   4.134
    1C        C   91   3.699   2.518   4.136
    1C        C   92   3.904   2.568   4.257
    1C        C   93   3.838   2.543   4.379
    1C        C   94   4.031   2.634   4.496
    1C        C   95   3.905   2.570   4.499
    1C        C   96   4.093   2.666   4.619
    1C        C   97   4.035   2.627   4.741
    1C        C   98   4.194   2.763   4.864
    1C        C   99   4.101   2.654   4.864
    1C        C  100   4.215   2.840   4.979
    1C        C  101   2.820   2.732   2.070
    1C        C  102   2.992   2.596   2.187
    1C        C  103   2.876   2.679   2.187
    1C        C  104   3.061   2.577   2.310
    1C        C  105   2.999   2.615   2.431
    1C        C  106   3.200   2.539   2.550
    1C        C  107   3.069   2.589   2.551
    1C        C  108   3.272   2.521   2.670
    1C        C  109   3.206   2.546   2.793
    1C        C  110   3.413   2.499   2.914
    1C        C  111   3.274   2.527   2.915
    1C        C  112   3.484   2.492   3.036
    1C        C  113   3.415   2.506   3.158
    1C        C  114   3.627   2.502   3.279
    1C        C  115   3.486   2.500   3.280
    1C        C  116   3.695   2.510   3.403
    1C        C  117   3.624   2.501   3.525
    1C        C  118   3.836   2.542   3.645
    1C        C  119   3.698   2.511   3.645
    1C        C  120   3.901   2.567   3.768
    1C        C  121   3.833   2.552   3.891
    1C        C  122   4.028   2.640   4.009
    1C        C  123   3.902   2.576   4.011
    1C        C  124   4.085   2.678   4.132
    1C        C  125   4.030   2.632   4.254
    1C        C  126   4.196   2.768   4.376
    1C        C  127   4.091   2.674   4.375
    1C        C  128   4.240   2.823   4.499
    1C        C  129   4.195   2.764   4.619
    1C        C  130   4.323   2.934   4.741
    1C        C  131   4.241   2.818   4.741
    1C        C  132   4.355   3.005   4.859
    1C        C  133   4.288   2.958   4.973
    1C        C  134   3.171   2.468   2.084
    1C        C  135   3.036   2.506   2.085
    1C        C  136   3.258   2.476   2.194
    1C        C  137   3.192   2.521   2.311
    1C        C  138   3.407   2.482   2.429
    1C        C  139   3.268   2.508   2.429
    1C        C  140   3.481   2.483   2.549
    1C        C  141   3.411   2.499   2.671
    1C        C  142   3.625   2.494   2.792
    1C        C  143   3.484   2.493   2.792
    1C        C  144   3.696   2.507   2.914
    1C        C  145   3.625   2.500   3.035
    1C        C  146   3.835   2.534   3.156
    1C        C  147   3.697   2.503   3.157
    1C        C  148   3.901   2.560   3.279
    1C        C  149   3.833   2.538   3.401
    1C        C  150   4.026   2.632   3.522
    1C        C  151   3.899   2.569   3.522
    1C        C  152   4.086   2.670   3.644
    1C        C  153   4.024   2.636   3.766
    1C        C  154   4.196   2.768   3.887
    1C        C  155   4.087   2.678   3.886
    1C        C  156   4.248   2.815   4.010
    1C        C  157   4.193   2.768   4.131
    1C        C  158   4.341   2.920   4.256
    1C        C  159   4.249   2.814   4.253
    1C        C  160   4.379   2.985   4.376
    1C        C  161   4.331   2.931   4.497
    1C        C  162   4.438   3.113   4.616
    1C        C  163   4.367   2.991   4.620
    1C        C  164   4.471   3.181   4.736
    1C        C  165   4.438   3.119   4.858
    1C        C  166   4.524   3.316   4.971
    1C        C  167   4.480   3.184   4.975
    1C        C  168   3.474   2.435   2.074
    1C        C  169   3.397   2.453   2.190
    1C        C  170   3.617   2.464   2.308
    1C        C  171   3.475   2.460   2.307
    1C        C  172   3.693   2.480   2.427
    1C        C  173   3.622   2.485   2.549
    1C        C  174   3.830   2.540   2.667
    1C        C  175   3.693   2.507   2.669
    1C        C  176   3.900   2.557   2.788
    1C        C  177   3.834   2.539   2.912
    1C        C  178   4.029   2.620   3.031
    1C        C  179   3.903   2.556   3.034
    1C        C  180   4.087   2.660   3.153
    1C        C  181   4.026   2.625   3.276
    1C        C  182   4.195   2.752   3.398
    1C        C  183   4.086   2.663   3.398
    1C        C  184   4.249   2.803   3.518
    1C        C  185   4.196   2.758   3.641
    1C        C  186   4.337   2.920   3.765
    1C        C  187   4.246   2.812   3.762
    1C        C  188   4.381   2.976   3.887
    1C        C  189   4.343   2.919   4.011
    1C        C  190   4.443   3.106   4.127
    1C        C  191   4.379   2.979   4.133
    1C        C  192   4.470   3.171   4.249
    1C        C  193   4.447   3.108   4.374
    1C        C  194   4.502   3.316   4.493
    1C        C  195   4.469   3.179   4.494
    1C        C  196   4.525   3.388   4.612
    1C        C  197   4.514   3.317   4.734
    1C        C  198   4.557   3.532   4.852
    1C        C  199   4.537   3.390   4.853
    1C        C  200   4.577   3.618   4.965
    1C        C  201   3.613   2.422   2.077
    1C        C  202   3.827   2.514   2.183
    1C        C  203   3.693   2.465   2.188
    1C        C  204   3.900   2.540   2.303
    1C        C  205   3.829   2.518   2.423
    1C        C  206   4.021   2.619   2.542
    1C        C  207   3.896   2.554   2.542
    1C        C  208   4.087   2.654   2.662
    1C        C  209   4.027   2.619   2.785
    1C        C  210   4.197   2.745   2.909
    1C        C  211   4.087   2.657   2.907
    1C        C  212   4.248   2.796   3.031
    1C        C  213   4.197   2.748   3.154
    1C        C  214   4.334   2.912   3.273
    1C        C  215   4.244   2.803   3.275
    1C        C  216   4.371   2.973   3.395
    1C        C  217   4.332   2.917   3.518
    1C        C  218   4.431   3.105   3.637
    1C        C  219   4.371   2.977   3.640
    1C        C  220   4.455   3.171   3.760
    1C        C  221   4.438   3.105   3.884
    1C        C  222   4.506   3.307   4.004
    1C        C  223   4.470   3.171   4.005
    1C        C  224   4.516   3.378   4.126
    1C        C  225   4.507   3.308   4.248
    1C        C  226   4.527   3.522   4.368
    1C        C  227   4.518   3.381   4.368
    1C        C  228   4.532   3.597   4.487
    1C        C  229   4.537   3.528   4.610
    1C        C  230   4.501   3.739   4.727
    1C        C  231   4.540   3.603   4.730
    1C        C  232   4.495   3.820   4.843
    1C        C  233   4.542   3.754   4.958
    1C        C  234   4.016   2.613   2.064
    1C        C  235   3.891   2.552   2.065
    1C        C  236   4.085   2.650   2.179
    1C        C  237   4.025   2.607   2.300
    1C        C  238   4.200   2.734   2.421
    1C        C  239   4.087   2.649   2.420
    1C        C  240   4.254   2.785   2.541
    1C        C  241   4.197   2.742   2.663
    1C        C  242   4.333   2.904   2.785
    1C        C  243   4.248   2.792   2.786
    1C        C  244   4.378   2.964   2.905
    1C        C  245   4.336   2.906   3.027
    1C        C  246   4.436   3.094   3.144
    1C        C  247   4.371   2.968   3.149
    1C        C  248   4.459   3.161   3.267
    1C        C  249   4.431   3.101   3.392
    1C        C  250   4.497   3.304   3.514
    1C        C  251   4.459   3.168   3.513
    1C        C  252   4.513   3.372   3.636
    1C        C  253   4.500   3.305   3.760
    1C        C  254   4.524   3.517   3.879
    1C        C  255   4.518   3.376   3.881
    1C        C  256   4.516   3.589   4.001
    1C        C  257   4.519   3.520   4.124
    1C        C  258   4.495   3.731   4.244
    1C        C  259   4.519   3.591   4.245
    1C        C  260   4.474   3.802   4.364
    1C        C  261   4.496   3.734   4.485
    1C        C  262   4.424   3.937   4.604
    1C        C  263   4.475   3.805   4.605
    1C        C  264   4.395   4.007   4.723
    1C        C  265   4.439   3.949   4.844
    1C        C  266   4.325   4.131   4.958
    1C        C  267   4.395   4.011   4.962
    1C        C  268   4.260   2.777   2.058
    1C        C  269   4.199   2.734   2.176
    1C        C  270   4.345   2.888   2.298
    1C        C  271   4.253   2.780   2.298
    1C        C  272   4.383   2.955   2.417
    1C        C  273   4.338   2.899   2.538
    1C        C  274   4.438   3.085   2.661
    1C        C  275   4.368   2.962   2.661
    1C        C  276   4.470   3.153   2.780
    1C        C  277   4.441   3.090   2.903
    1C        C  278   4.509   3.294   3.025
    1C        C  279   4.469   3.159   3.023
    1C        C  280   4.521   3.364   3.147
    1C        C  281   4.495   3.297   3.269
    1C        C  282   4.517   3.511   3.390
    1C        C  283   4.507   3.370   3.390
    1C        C  284   4.516   3.584   3.511
    1C        C  285   4.518   3.514   3.634
    1C        C  286   4.497   3.725   3.754
    1C        C  287   4.518   3.585   3.756
    1C        C  288   4.476   3.794   3.875
    1C        C  289   4.491   3.728   3.999
    1C        C  290   4.422   3.928   4.115
    1C        C  291   4.476   3.798   4.121
    1C        C  292   4.397   3.996   4.237
    1C        C  293   4.426   3.935   4.361
    1C        C  294   4.324   4.124   4.478
    1C        C  295   4.393   4.001   4.482
    1C        C  296   4.285   4.188   4.597
    1C        C  297   4.322   4.129   4.720
    1C        C  298   4.193   4.306   4.840
    1C        C  299   4.278   4.191   4.840
    1C        C  300   4.171   4.400   4.945
    1C        C  301   4.351   2.882   2.063
    1C        C  302   4.472   3.066   2.179
    1C        C  303   4.403   2.941   2.179
    1C        C  304   4.484   3.144   2.297
    1C        C  305   4.449   3.080   2.418
    1C        C  306   4.507   3.286   2.537
    1C        C  307   4.470   3.149   2.539
    1C        C  308   4.519   3.358   2.657
    1C        C  309   4.504   3.290   2.780
    1C        C  310   4.521   3.503   2.899
    1C        C  311   4.518   3.361   2.901
    1C        C  312   4.518   3.574   3.021
    1C        C  313   4.525   3.506   3.145
    1C        C  314   4.487   3.716   3.263
    1C        C  315   4.511   3.577   3.266
    1C        C  316   4.478   3.787   3.385
    1C        C  317   4.495   3.723   3.510
    1C        C  318   4.427   3.924   3.627
    1C        C  319   4.481   3.794   3.631
    1C        C  320   4.392   3.989   3.748
    1C        C  321   4.422   3.924   3.870
    1C        C  322   4.312   4.107   3.993
    1C        C  323   4.387   3.987   3.992
    1C        C  324   4.271   4.167   4.115
    1C        C  325   4.318   4.113   4.237
    1C        C  326   4.186   4.284   4.351
    1C        C  327   4.282   4.181   4.356
    1C        C  328   4.133   4.334   4.472
    1C        C  329   4.186   4.289   4.595
    1C        C  330   4.021   4.427   4.714
    1C        C  331   4.136   4.343   4.715
    1C        C  332   3.968   4.481   4.834
    1C        C  333   4.054   4.477   4.944
    1C        C  334   4.550   3.266   2.058
    1C        C  335   4.534   3.127   2.065
    1C        C  336   4.539   3.348   2.171
    1C        C  337   4.512   3.284   2.295
    1C        C  338   4.523   3.498   2.411
    1C        C  339   4.519   3.357   2.415
    1C        C  340   4.526   3.570   2.532
    1C        C  341   4.522   3.500   2.655
    1C        C  342   4.495   3.712   2.771
    1C        C  343   4.516   3.572   2.776
    1C        C  344   4.475   3.781   2.893
    1C        C  345   4.490   3.712   3.015
    1C        C  346   4.424   3.913   3.137
    1C        C  347   4.473   3.781   3.138
    1C        C  348   4.391   3.977   3.258
    1C        C  349   4.427   3.919   3.382
    1C        C  350   4.320   4.103   3.504
    1C        C  351   4.398   3.985   3.503
    1C        C  352   4.279   4.167   3.623
    1C        C  353   4.320   4.110   3.746
    1C        C  354   4.181   4.269   3.867
    1C        C  355   4.274   4.162   3.869
    1C        C  356   4.121   4.317   3.986
    1C        C  357   4.175   4.270   4.107
    1C        C  358   4.009   4.402   4.230
    1C        C  359   4.127   4.323   4.229
    1C        C  360   3.950   4.444   4.351
    1C        C  361   4.019   4.418   4.472
    1C        C  362   3.828   4.514   4.594
    1C        C  363   3.958   4.460   4.592
    1C        C  364   3.763   4.546   4.715
    1C        C  365   3.840   4.541   4.833
    1C        C  366   3.631   4.594   4.948
    1C        C  367   3.768   4.575   4.949
    1C        C  368   4.521   3.564   2.052
    1C        C  369   4.526   3.488   2.169
    1C        C  370   4.499   3.706   2.286
    1C        C  371   4.515   3.565   2.287
    1C        C  372   4.480   3.776   2.407
    1C        C  373   4.500   3.709   2.529
    1C        C  374   4.425   3.911   2.648
    1C        C  375   4.483   3.782   2.649
    1C        C  376   4.388   3.972   2.770
    1C        C  377   4.426   3.913   2.893
    1C        C  378   4.318   4.096   3.013
    1C        C  379   4.399   3.980   3.015
    1C        C  380   4.273   4.152   3.135
    1C        C  381   4.315   4.096   3.258
    1C        C  382   4.173   4.253   3.380
    1C        C  383   4.274   4.154   3.380
    1C        C  384   4.123   4.310   3.500
    1C        C  385   4.177   4.264   3.622
    1C        C  386   4.003   4.384   3.745
    1C        C  387   4.123   4.309   3.745
    1C        C  388   3.937   4.424   3.863
    1C        C  389   4.003   4.395   3.985
    1C        C  390   3.814   4.487   4.108
    1C        C  391   3.944   4.431   4.108
    1C        C  392   3.752   4.518   4.231
    1C        C  393   3.820   4.499   4.352
    1C        C  394   3.616   4.558   4.476
    1C        C  395   3.753   4.524   4.474
    1C        C  396   3.545   4.571   4.597
    1C        C  397   3.624   4.566   4.715
    1C        C  398   3.411   4.554   4.841
    1C        C  399   3.550   4.578   4.835
    1C        C  400   3.339   4.520   4.957
    1C        C  401   4.508   3.703   2.050
    1C        C  402   4.448   3.914   2.165
    1C        C  403   4.487   3.779   2.166
    1C        C  404   4.413   3.979   2.286
    1C        C  405   4.439   3.911   2.407
    1C        C  406   4.326   4.097   2.526
    1C        C  407   4.401   3.977   2.526
    1C        C  408   4.277   4.152   2.646
    1C        C  409   4.316   4.093   2.769
    1C        C  410   4.171   4.248   2.889
    1C        C  411   4.270   4.148   2.891
    1C        C  412   4.118   4.293   3.012
    1C        C  413   4.173   4.252   3.135
    1C        C  414   4.000   4.375   3.255
    1C        C  415   4.117   4.296   3.258
    1C        C  416   3.938   4.410   3.377
    1C        C  417   4.003   4.384   3.500
    1C        C  418   3.811   4.474   3.620
    1C        C  419   3.941   4.418   3.622
    1C        C  420   3.744   4.505   3.741
    1C        C  421   3.811   4.489   3.864
    1C        C  422   3.608   4.543   3.987
    1C        C  423   3.746   4.512   3.987
    1C        C  424   3.540   4.551   4.111
    1C        C  425   3.612   4.542   4.232
    1C        C  426   3.402   4.555   4.356
    1C        C  427   3.544   4.556   4.354
    1C        C  428   3.332   4.547   4.478
    1C        C  429   3.405   4.559   4.599
    1C        C  430   3.198   4.517   4.723
    1C        C  431   3.336   4.550   4.722
    1C        C  432   3.126   4.498   4.845
    1C        C  433   3.202   4.498   4.962
    1C        C  434   4.387   4.125   2.054
    1C        C  435   4.441   3.996   2.052
    1C        C  436   4.301   4.164   2.162
    1C        C  437   4.334   4.098   2.283
    1C        C  438   4.179   4.247   2.404
    1C        C  439   4.284   4.153   2.403
    1C        C  440   4.124   4.299   2.523
    1C        C  441   4.180   4.255   2.645
    1C        C  442   4.003   4.375   2.766
    1C        C  443   4.121   4.298   2.766
    1C        C  444   3.942   4.414   2.888
    1C        C  445   4.002   4.374   3.009
    1C        C  446   3.812   4.467   3.130
    1C        C  447   3.940   4.408   3.131
    1C        C  448   3.746   4.490   3.253
    1C        C  449   3.809   4.467   3.377
    1C        C  450   3.607   4.534   3.497
    1C        C  451   3.743   4.498   3.498
    1C        C  452   3.539   4.550   3.620
    1C        C  453   3.608   4.541   3.743
    1C        C  454   3.396   4.552   3.863
    1C        C  455   3.537   4.553   3.865
    1C        C  456   3.329   4.543   3.987
    1C        C  457   3.399   4.548   4.110
    1C        C  458   3.195   4.508   4.237
    1C        C  459   3.332   4.542   4.234
    1C        C  460   3.127   4.487   4.359
    1C        C  461   3.195   4.514   4.480
    1C        C  462   3.000   4.434   4.602
    1C        C  463   3.128   4.492   4.603
    1C        C  464   2.937   4.394   4.722
    1C        C  465   2.994   4.443   4.842
    1C        C  466   2.804   4.338   4.957
    1C        C  467   2.910   4.430   4.957
    1C        C  468   4.130   4.296   2.044
    1C        C  469   4.190   4.254   2.164
    1C        C  470   4.010   4.380   2.280
    1C        C  471   4.124   4.295   2.283
    1C        C  472   3.941   4.405   2.401
    1C        C  473   4.005   4.374   2.523
    1C        C  474   3.811   4.465   2.646
    1C        C  475   3.940   4.407   2.644
    1C        C  476   3.743   4.493   2.766
    1C        C  477   3.813   4.472   2.887
    1C        C  478   3.606   4.520   3.010
    1C        C  479   3.744   4.491   3.008
    1C        C  480   3.536   4.529   3.133
    1C        C  481   3.608   4.520   3.254
    1C        C  482   3.394   4.537   3.377
    1C        C  483   3.536   4.536   3.375
    1C        C  484   3.325   4.537   3.500
    1C        C  485   3.398   4.549   3.620
    1C        C  486   3.189   4.505   3.747
    1C        C  487   3.326   4.541   3.741
    1C        C  488   3.126   4.480   3.871
    1C        C  489   3.194   4.503   3.992
    1C        C  490   3.004   4.414   4.113
    1C        C  491   3.128   4.482   4.115
    1C        C  492   2.944   4.383   4.237
    1C        C  493   2.999   4.426   4.360
    1C        C  494   2.829   4.303   4.482
    1C        C  495   2.935   4.397   4.482
    1C        C  496   2.775   4.256   4.603
    1C        C  497   2.821   4.311   4.725
    1C        C  498   2.668   4.163   4.848
    1C        C  499   2.753   4.275   4.843
    1C        C  500   2.597   4.117   4.959
    1C        C  501   4.013   4.371   2.044
    1C        C  502   3.814   4.466   2.154
    1C        C  503   3.945   4.414   2.159
    1C        C  504   3.745   4.481   2.277
    1C        C  505   3.810   4.458   2.400
    1C        C  506   3.607   4.517   2.521
    1C        C  507   3.744   4.483   2.522
    1C        C  508   3.533   4.520   2.641
    1C        C  509   3.603   4.513   2.764
    1C        C  510   3.395   4.534   2.886
    1C        C  511   3.536   4.525   2.887
    1C        C  512   3.325   4.530   3.009
    1C        C  513   3.395   4.532   3.132
    1C        C  514   3.188   4.494   3.257
    1C        C  515   3.324   4.530   3.254
    1C        C  516   3.120   4.473   3.379
    1C        C  517   3.189   4.499   3.500
    1C        C  518   3.000   4.412   3.623
    1C        C  519   3.125   4.477   3.624
    1C        C  520   2.943   4.374   3.746
    1C        C  521   3.000   4.416   3.869
    1C        C  522   2.838   4.282   3.995
    1C        C  523   2.942   4.377   3.992
    1C        C  524   2.791   4.232   4.119
    1C        C  525   2.839   4.288   4.239
    1C        C  526   2.703   4.129   4.365
    1C        C  527   2.785   4.244   4.362
    1C        C  528   2.658   4.076   4.488
    1C        C  529   2.691   4.142   4.608
    1C        C  530   2.588   3.958   4.734
    1C        C  531   2.646   4.087   4.730
    1C        C  532   2.548   3.899   4.857
    1C        C  533   2.531   3.994   4.962
    1C        C  534   3.615   4.559   2.036
    1C        C  535   3.746   4.509   2.040
    1C        C  536   3.536   4.537   2.154
    1C        C  537   3.606   4.512   2.275
    1C        C  538   3.396   4.519   2.399
    1C        C  539   3.537   4.523   2.398
    1C        C  540   3.324   4.517   2.520
    1C        C  541   3.392   4.522   2.644
    1C        C  542   3.183   4.486   2.766
    1C        C  543   3.321   4.519   2.766
    1C        C  544   3.119   4.469   2.890
    1C        C  545   3.188   4.496   3.011
    1C        C  546   2.999   4.404   3.135
    1C        C  547   3.123   4.472   3.134
    1C        C  548   2.939   4.365   3.257
    1C        C  549   2.994   4.408   3.379
    1C        C  550   2.833   4.275   3.505
    1C        C  551   2.937   4.371   3.503
    1C        C  552   2.785   4.228   3.629
    1C        C  553   2.836   4.282   3.750
    1C        C  554   2.702   4.119   3.876
    1C        C  555   2.790   4.230   3.873
    1C        C  556   2.664   4.060   3.999
    1C        C  557   2.706   4.119   4.120
    1C        C  558   2.604   3.938   4.249
    1C        C  559   2.667   4.065   4.244
    1C        C  560   2.574   3.877   4.372
    1C        C  561   2.595   3.949   4.491
    1C        C  562   2.529   3.749   4.615
    1C        C  563   2.567   3.885   4.614
    1C        C  564   2.518   3.680   4.738
    1C        C  565   2.524   3.758   4.857
    1C        C  566   2.530   3.543   4.979
    1C        C  567   2.522   3.682   4.975
    1C        C  568   3.328   4.467   2.044
    1C        C  569   3.396   4.516   2.157
    1C        C  570   3.186   4.470   2.280
    1C        C  571   3.323   4.509   2.279
    1C        C  572   3.117   4.454   2.403
    1C        C  573   3.186   4.484   2.522
    1C        C  574   2.989   4.401   2.647
    1C        C  575   3.117   4.462   2.643
    1C        C  576   2.934   4.361   2.771
    1C        C  577   2.994   4.402   2.892
    1C        C  578   2.830   4.272   3.016
    1C        C  579   2.936   4.365   3.015
    1C        C  580   2.778   4.224   3.138
    1C        C  581   2.830   4.275   3.259
    1C        C  582   2.702   4.109   3.384
    1C        C  583   2.787   4.222   3.383
    1C        C  584   2.662   4.055   3.508
    1C        C  585   2.698   4.117   3.630
    1C        C  586   2.601   3.932   3.759
    1C        C  587   2.663   4.059   3.754
    1C        C  588   2.575   3.869   3.882
    1C        C  589   2.602   3.934   4.005
    1C        C  590   2.535   3.734   4.128
    1C        C  591   2.578   3.869   4.128
    1C        C  592   2.522   3.670   4.252
    1C        C  593   2.530   3.742   4.373
    1C        C  594   2.515   3.532   4.497
    1C        C  595   2.520   3.674   4.496
    1C        C  596   2.517   3.465   4.621
    1C        C  597   2.514   3.538   4.741
    1C        C  598   2.541   3.326   4.862
    1C        C  599   2.525   3.466   4.862
    1C        C  600   2.537   3.247   4.978
    1C        C  601   3.196   4.429   2.046
    1C        C  602   2.982   4.389   2.162
    1C        C  603   3.115   4.442   2.160
    1C        C  604   2.920   4.358   2.286
    1C        C  605   2.988   4.397   2.404
    1C        C  606   2.819   4.272   2.528
    1C        C  607   2.928   4.362   2.526
    1C        C  608   2.775   4.216   2.651
    1C        C  609   2.828   4.268   2.771
    1C        C  610   2.688   4.111   2.894
    1C        C  611   2.778   4.221   2.895
    1C        C  612   2.655   4.053   3.019
    1C        C  613   2.695   4.110   3.142
    1C        C  614   2.594   3.923   3.266
    1C        C  615   2.656   4.050   3.264
    1C        C  616   2.571   3.863   3.391
    1C        C  617   2.598   3.929   3.513
    1C        C  618   2.537   3.729   3.637
    1C        C  619   2.577   3.865   3.637
    1C        C  620   2.519   3.663   3.761
    1C        C  621   2.533   3.734   3.882
    1C        C  622   2.511   3.525   4.009
    1C        C  623   2.522   3.666   4.005
    1C        C  624   2.509   3.455   4.132
    1C        C  625   2.512   3.529   4.252
    1C        C  626   2.541   3.322   4.382
    1C        C  627   2.516   3.461   4.375
    1C        C  628   2.557   3.251   4.503
    1C        C  629   2.538   3.325   4.622
    1C        C  630   2.598   3.116   4.746
    1C        C  631   2.555   3.252   4.742
    1C        C  632   2.619   3.048   4.869
    1C        C  633   2.558   3.109   4.983
    1C        C  634   2.785   4.298   2.050
    1C        C  635   2.895   4.386   2.049
    1C        C  636   2.750   4.228   2.166
    1C        C  637   2.804   4.275   2.288
    1C        C  638   2.675   4.108   2.408
    1C        C  639   2.759   4.222   2.410
    1C        C  640   2.641   4.048   2.531
    1C        C  641   2.690   4.104   2.651
    1C        C  642   2.583   3.923   2.778
    1C        C  643   2.649   4.048   2.774
    1C        C  644   2.566   3.857   2.901
    1C        C  645   2.596   3.924   3.022
    1C        C  646   2.531   3.721   3.147
    1C        C  647   2.570   3.857   3.143
    1C        C  648   2.513   3.656   3.271
    1C        C  649   2.528   3.728   3.391
    1C        C  650   2.516   3.519   3.519
    1C        C  651   2.521   3.660   3.515
    1C        C  652   2.515   3.451   3.643
    1C        C  653   2.512   3.522   3.765
    1C        C  654   2.531   3.313   3.891
    1C        C  655   2.510   3.453   3.888
    1C        C  656   2.550   3.246   4.015
    1C        C  657   2.534   3.316   4.137
    1C        C  658   2.602   3.118   4.258
    1C        C  659   2.553   3.250   4.260
    1C        C  660   2.636   3.057   4.381
    1C        C  661   2.600   3.117   4.504
    1C        C  662   2.704   2.931   4.625
    1C        C  663   2.626   3.049   4.625
    1C        C  664   2.747   2.873   4.746
    1C        C  665   2.692   2.925   4.866
    1C        C  666   2.736   2.861   4.983
    1C        C  667   2.681   4.021   2.056
    1C        C  668   2.681   4.105   2.168
    1C        C  669   2.592   3.909   2.290
    1C        C  670   2.641   4.042   2.288
    1C        C  671   2.561   3.849   2.414
    1C        C  672   2.580   3.921   2.534
    1C        C  673   2.515   3.721   2.659
    1C        C  674   2.548   3.858   2.657
    1C        C  675   2.510   3.651   2.782
    1C        C  676   2.529   3.721   2.903
    1C        C  677   2.508   3.510   3.030
    1C        C  678   2.516   3.651   3.026
    1C        C  679   2.507   3.442   3.154
    1C        C  680   2.504   3.515   3.275
    1C        C  681   2.529   3.306   3.402
    1C        C  682   2.511   3.446   3.399
    1C        C  683   2.546   3.239   3.525
    1C        C  684   2.533   3.311   3.646
    1C        C  685   2.597   3.111   3.770
    1C        C  686   2.548   3.243   3.769
    1C        C  687   2.631   3.050   3.893
    1C        C  688   2.597   3.113   4.014
    1C        C  689   2.708   2.934   4.139
    1C        C  690   2.626   3.049   4.137
    1C        C  691   2.754   2.879   4.260
    1C        C  692   2.711   2.937   4.382
    1C        C  693   2.744   2.873   4.503
    1C        C  694   2.630   3.890   2.056
    1C        C  695   2.528   3.701   2.176
    1C        C  696   2.578   3.832   2.172
    1C        C  697   2.507   3.637   2.301
    1C        C  698   2.526   3.712   2.419
    1C        C  699   2.492   3.504   2.543
    1C        C  700   2.505   3.644   2.541
    1C        C  701   2.503   3.435   2.666
    1C        C  702   2.503   3.510   2.786
    1C        C  703   2.525   3.299   2.913
    1C        C  704   2.505   3.439   2.908
    1C        C  705   2.543   3.229   3.035
    1C        C  706   2.527   3.302   3.155
    1C        C  707   2.590   3.104   3.281
    1C        C  708   2.544   3.238   3.279
    1C        C  709   2.619   3.041   3.404
    1C        C  710   2.595   3.106   3.527
    1C        C  711   2.710   2.930   3.646
    1C        C  712   2.629   3.045   3.650
    1C        C  713   2.753   2.875   3.770
    1C        C  714   2.710   2.932   3.891
    1C        C  715   2.750   2.879   4.016
    1C        C  716   2.443   3.497   2.064
    1C        C  717   2.488   3.630   2.062
    1C        C  718   2.467   3.420   2.182
    1C        C  719   2.482   3.498   2.300
    1C        C  720   2.510   3.290   2.427
    1C        C  721   2.486   3.429   2.424
    1C        C  722   2.530   3.222   2.549
    1C        C  723   2.525   3.296   2.669
    1C        C  724   2.592   3.097   2.791
    1C        C  725   2.537   3.227   2.792
    1C        C  726   2.624   3.034   2.914
    1C        C  727   2.592   3.097   3.036
    1C        C  728   2.700   2.919   3.159
    1C        C  729   2.622   3.037   3.160
    1C        C  730   2.752   2.871   3.281
    1C        C  731   2.700   2.926   3.401
    1C        C  732   2.750   2.874   3.523
    1C        C  733   2.485   3.195   2.072
    1C        C  734   2.492   3.279   2.184
    1C        C  735   2.580   3.085   2.306
    1C        C  736   2.525   3.216   2.308
    1C        C  737   2.613   3.022   2.428
    1C        C  738   2.584   3.091   2.548
    1C        C  739   2.696   2.911   2.672
    1C        C  740   2.626   3.033   2.669
    1C        C  741   2.740   2.855   2.795
    1C        C  742   2.702   2.917   2.916
    1C        C  743   2.748   2.864   3.039
    1C        C  744   2.536   3.066   2.076
    1C        C  745   2.686   2.900   2.187
    1C        C  746   2.596   3.008   2.188
    1C        C  747   2.731   2.842   2.308
    1C        C  748   2.692   2.905   2.428
    1C        C  749   2.737   2.852   2.550
    1C        C  750   2.736   2.843   2.069
    1C        C  751   3.669   2.343   1.964
    1C        O  752   3.722   2.230   1.977
    1C        O  753   3.655   2.378   1.829
    1C        C  754   4.644   3.052   2.001
    1C        O  755   4.638   3.004   1.884
    1C        O  756   4.755   3.008   2.074
    1C        C  757   4.475   4.224   1.986
    1C        O  758   4.567   4.289   2.042
    1C        O  759   4.485   4.231   1.847
    1C        C  760   3.595   4.684   1.958
    1C        O  761   3.638   4.794   2.001
    1C        O  762   3.547   4.671   1.827
    1C        C  763   2.870   4.502   1.960
    1C        O  764   2.953   4.510   1.865
    1C        O  765   2.837   4.626   2.015
    1C        C  766   2.318   3.468   1.991
    1C        O  767   2.298   3.499   1.871
    1C        O  768   2.197   3.450   2.061
    1C        C  769   4.671   3.597   5.077
    1C        O  770   4.631   3.532   5.177
    1C        O  771   4.808   3.611   5.053
    1C        C  772   4.283   4.460   5.022
    1C        O  773   4.270   4.487   5.144
    1C        O  774   4.352   4.568   4.966
    1C        C  775   4.149   2.501   5.056
    1C        O  776   4.191   2.388   5.021
    1C        O  777   4.200   2.529   5.183
    1C        C  778   2.888   4.543   5.050
    1C        O  779   2.815   4.641   5.018
    1C        O  780   2.892   4.517   5.188
    1C        C  781   2.488   3.035   5.091
    1C        O  782   2.397   2.949   5.078
    1C        O  783   2.538   3.045   5.220
    1C        C  784   2.416   3.987   5.056
    1C        O  785   2.295   4.004   5.024
    1C        O  786   2.440   3.995   5.193
    1C        C  787   2.947   2.435   1.990
    1C        O  788   2.946   2.468   1.868
    1C        O  789   2.925   2.298   2.003
    1C        C  790   3.158   2.354   5.031
    1C        O  791   3.088   2.272   4.966
    1C        O  792   3.174   2.334   5.169
    1C        H  793   4.281   3.018   5.061
    1C        H  794   4.203   2.796   5.076
    1C        H  795   4.502   3.127   5.063
    1C        H  796   4.603   3.341   5.039
    1C        H  797   4.570   3.818   5.039
    1C        H  798   4.387   3.950   5.050
    1C        H  799   4.328   4.192   5.046
    1C        H  800   4.050   4.562   5.009
    1C        H  801   3.808   4.550   5.045
    1C        H  802   3.579   4.626   5.036
    1C        H  803   3.390   4.511   5.050
    1C        H  804   3.148   4.519   5.052
    1C        H  805   3.881   2.514   5.071
    1C        H  806   3.682   2.446   5.064
    1C        H  807   2.998   2.555   5.061
    1C        H  808   3.458   2.556   5.051
    1C        H  809   2.894   2.759   5.075
    1C        H  810   2.677   2.871   5.073
    1C        H  811   2.521   3.293   5.073
    1C        H  812   2.575   3.503   5.067
    1C        H  813   2.524   3.736   5.068
    1C        H  814   2.633   4.147   5.056
    1C        H  815   2.764   4.322   5.055
    1C        H  816   2.741   2.907   1.983
    1C        H  817   2.826   2.678   1.977
    1C        H  818   3.210   2.420   1.997
    1C        H  819   3.429   2.427   1.977
    1C        H  820   3.827   2.587   1.986
    1C        H  821   4.058   2.637   1.968
    1C        H  822   4.238   2.727   1.966
    1C        H  823   4.398   2.909   1.970
    1C        H  824   4.590   3.302   1.966
    1C        H  825   4.494   3.514   1.961
    1C        H  826   4.527   3.758   1.960
    1C        H  827   3.790   4.505   1.943
    1C        H  828   4.008   4.431   1.955
    1C        H  829   4.139   4.230   1.961
    1C        H  830   4.503   3.972   1.969
    1C        H  831   2.657   3.823   1.977
    1C        H  832   2.715   4.061   1.963
    1C        H  833   2.707   4.317   1.979
    1C        H  834   3.388   4.436   1.961
    1C        H  835   3.178   4.347   1.980
    1C        H  836   2.508   3.000   1.996
    1C        H  837   2.404   3.216   2.005
    1C        H  838   2.452   3.687   1.980
    2V3OU   H29  839   2.803   3.548   1.704
    2V3OU   C27  840   2.781   3.504   1.805
    2V3OU   H27  841   2.729   3.569   1.880
    2V3OU   H28  842   2.725   3.407   1.804
    2V3OU   O11  843   2.910   3.475   1.860
    2V3OU   C15  844   2.928   3.403   1.976
    2V3OU   C13  845   3.056   3.372   2.026
    2V3OU   C14  846   3.078   3.266   2.115
    2V3OU   C16  847   2.975   3.185   2.160
    2V3OU    H6  848   2.993   3.102   2.229
    2V3OU   C12  849   3.214   3.235   2.167
    2V3OU    O2  850   3.239   3.126   2.222
    2V3OU   C10  851   3.329   3.312   2.118
    2V3OU    C8  852   3.462   3.272   2.134
    2V3OU   O10  853   3.491   3.153   2.194
    2V3OU   H26  854   3.403   3.116   2.214
    2V3OU    C6  855   3.567   3.349   2.077
    2V3OU    C5  856   3.538   3.466   2.008
    2V3OU    C4  857   3.705   3.292   2.081
    2V3OU    H4  858   3.719   3.219   2.166
    2V3OU    H5  859   3.715   3.228   1.988
    2V3OU    C2  860   3.817   3.396   2.084
    2V3OU    O6  861   3.800   3.468   2.206
    2V3OU   H21  862   3.774   3.553   2.166
    2V3OU    C3  863   3.777   3.493   1.973
    2V3OU    H2  864   3.855   3.573   1.960
    2V3OU    H3  865   3.774   3.435   1.877
    2V3OU   C25  866   3.952   3.326   2.069
    2V3OU    O7  867   4.001   3.299   1.960
    2V3OU   C26  868   4.031   3.291   2.194
    2V3OU   H22  869   4.069   3.388   2.236
    2V3OU   H23  870   4.118   3.225   2.167
    2V3OU    O8  871   3.958   3.210   2.282
    2V3OU   H24  872   3.934   3.263   2.359
    2V3OU    C1  873   3.645   3.568   1.986
    2V3OU    H1  874   3.625   3.620   1.888
    2V3OU    O3  875   3.655   3.651   2.102
    2V3OU   C19  876   3.615   3.788   2.092
    2V3OU    H9  877   3.526   3.804   2.024
    2V3OU    O4  878   3.712   3.842   2.006
    2V3OU   C20  879   3.843   3.871   2.055
    2V3OU   H10  880   3.891   3.771   2.074
    2V3OU   C24  881   3.608   3.854   2.230
    2V3OU   H16  882   3.549   3.792   2.303
    2V3OU   H17  883   3.566   3.957   2.221
    2V3OU   C23  884   3.749   3.877   2.284
    2V3OU   H15  885   3.793   3.773   2.303
    2V3OU    N1  886   3.739   3.947   2.411
    2V3OU   H19  887   3.812   3.926   2.476
    2V3OU   H20  888   3.648   3.935   2.451
    2V3OU   C21  889   3.850   3.947   2.188
    2V3OU   H11  890   3.953   3.927   2.230
    2V3OU    O5  891   3.833   4.088   2.193
    2V3OU   H18  892   3.778   4.109   2.270
    2V3OU   C22  893   3.911   3.949   1.943
    2V3OU   H12  894   3.863   4.049   1.928
    2V3OU   H13  895   3.903   3.892   1.846
    2V3OU   H14  896   4.021   3.961   1.962
    2V3OU   C11  897   3.161   3.474   2.017
    2V3OU    O1  898   3.141   3.591   1.979
    2V3OU    C9  899   3.299   3.426   2.040
    2V3OU    C7  900   3.402   3.506   1.990
    2V3OU    O9  901   3.384   3.614   1.906
    2V3OU   H25  902   3.290   3.638   1.903
    2V3OU   C17  903   2.824   3.321   2.024
    2V3OU    H7  904   2.721   3.338   1.994
    2V3OU   C18  905   2.848   3.213   2.109
    2V3OU    H8  906   2.763   3.159   2.153
    3SOL     OW  907   2.026   4.280   1.005
    3SOL    HW1  908   2.018   4.191   1.050
    3SOL    HW2  909   1.963   4.284   0.928
    4SOL     OW  910   6.783   5.403   2.077
    4SOL    HW1  911   6.691   5.439   2.059
    4SOL    HW2  912   6.820   5.445   2.160
    5SOL     OW  913   3.662   1.652   2.228
    5SOL    HW1  914   3.713   1.737   2.218
    5SOL    HW2  915   3.725   1.580   2.261
    6SOL     OW  916   3.889   0.984   2.089
    6SOL    HW1  917   3.924   1.069   2.128
    6SOL    HW2  918   3.797   0.999   2.052
    7SOL     OW  919   6.324   3.284   1.762
    7SOL    HW1  920   6.265   3.206   1.786
    7SOL    HW2  921   6.320   3.351   1.836
    8SOL     OW  922   2.563   6.919   5.134
    8SOL    HW1  923   2.569   6.966   5.046
    8SOL    HW2  924   2.590   6.981   5.207
    9SOL     OW  925   0.939   5.644   6.323
    9SOL    HW1  926   0.873   5.597   6.265
    9SOL    HW2  927   1.018   5.672   6.268
   10SOL     OW  928   1.205   4.749   5.340
   10SOL    HW1  929   1.291   4.702   5.323
   10SOL    HW2  930   1.223   4.847   5.353
   11SOL     OW  931   2.717   0.366   0.232
   11SOL    HW1  932   2.624   0.347   0.263
   11SOL    HW2  933   2.717   0.448   0.175
   12SOL     OW  934   3.850   5.978   4.201
   12SOL    HW1  935   3.798   5.894   4.192
   12SOL    HW2  936   3.812   6.034   4.275
   13SOL     OW  937   3.706   6.124   4.015
   13SOL    HW1  938   3.627   6.064   4.002
   13SOL    HW2  939   3.774   6.078   4.072
   14SOL     OW  940   4.686   5.506   6.880
   14SOL    HW1  941   4.765   5.472   6.828
   14SOL    HW2  942   4.604   5.458   6.850
   15SOL     OW  943   1.617   5.522   0.184
   15SOL    HW1  944   1.593   5.531   0.281
   15SOL    HW2  945   1.557   5.455   0.141
   16SOL     OW  946   5.679   2.116   5.840
   16SOL    HW1  947   5.631   2.105   5.927
   16SOL    HW2  948   5.718   2.029   5.812
   17SOL     OW  949   6.242   5.982   4.792
   17SOL    HW1  950   6.191   6.035   4.859
   17SOL    HW2  951   6.330   6.027   4.774
   18SOL     OW  952   2.760   0.926   6.926
   18SOL    HW1  953   2.809   1.013   6.927
   18SOL    HW2  954   2.762   0.887   6.833
   19SOL     OW  955   0.334   0.031   2.957
   19SOL    HW1  956   0.384   6.968   2.962
   19SOL    HW2  957   0.370   0.094   3.026
   20SOL     OW  958   3.337   1.835   4.184
   20SOL    HW1  959   3.268   1.889   4.136
   20SOL    HW2  960   3.405   1.802   4.118
   21SOL     OW  961   3.304   2.112   2.410
   21SOL    HW1  962   3.362   2.135   2.488
   21SOL    HW2  963   3.356   2.125   2.326
   22SOL     OW  964   2.030   0.164   6.702
   22SOL    HW1  965   2.002   0.166   6.606
   22SOL    HW2  966   1.966   0.219   6.756
   23SOL     OW  967   4.281   6.671   3.798
   23SOL    HW1  968   4.351   6.611   3.759
   23SOL    HW2  969   4.210   6.615   3.842
   24SOL     OW  970   5.266   1.668   4.045
   24SOL    HW1  971   5.233   1.589   4.098
   24SOL    HW2  972   5.219   1.750   4.076
   25SOL     OW  973   3.036   6.055   6.020
   25SOL    HW1  974   2.942   6.084   6.034
   25SOL    HW2  975   3.038   5.970   5.967
   26SOL     OW  976   6.303   1.153   1.037
   26SOL    HW1  977   6.312   1.226   0.969
   26SOL    HW2  978   6.242   1.183   1.110
   27SOL     OW  979   0.341   0.982   2.008
   27SOL    HW1  980   0.281   0.929   2.067
   27SOL    HW2  981   0.349   1.075   2.043
   28SOL     OW  982   3.972   0.719   0.049
   28SOL    HW1  983   3.916   0.787   0.095
   28SOL    HW2  984   4.065   0.721   0.087
   29SOL     OW  985   5.494   2.496   1.614
   29SOL    HW1  986   5.542   2.574   1.574
   29SOL    HW2  987   5.469   2.517   1.708
   30SOL     OW  988   3.647   6.906   5.127
   30SOL    HW1  989   3.610   6.927   5.036
   30SOL    HW2  990   3.688   6.988   5.165
   31SOL     OW  991   1.129   2.092   6.047
   31SOL    HW1  992   1.088   2.182   6.033
   31SOL    HW2  993   1.129   2.070   6.144
   32SOL     OW  994   0.623   1.452   3.097
   32SOL    HW1  995   0.599   1.544   3.128
   32SOL    HW2  996   0.578   1.385   3.156
   33SOL     OW  997   2.255   3.556   6.951
   33SOL    HW1  998   2.266   3.614   6.871
   33SOL    HW2  999   2.343   3.514   6.974
   34SOL     OW 1000   2.328   0.970   3.842
   34SOL    HW1 1001   2.318   0.970   3.743
   34SOL    HW2 1002   2.242   0.941   3.885
   35SOL     OW 1003   3.854   2.135   6.678
   35SOL    HW1 1004   3.858   2.135   6.777
   35SOL    HW2 1005   3.788   2.067   6.646
   36SOL     OW 1006   0.816   0.749   6.364
   36SOL    HW1 1007   0.757   0.669   6.360
   36SOL    HW2 1008   0.907   0.723   6.397
   37SOL     OW 1009   2.209   0.499   0.362
   37SOL    HW1 1010   2.182   0.476   0.456
   37SOL    HW2 1011   2.128   0.507   0.304
   38SOL     OW 1012   0.506   5.019   3.362
   38SOL    HW1 1013   0.433   5.066   3.413
   38SOL    HW2 1014   0.494   5.035   3.264
   39SOL     OW 1015   6.443   4.566   6.456
   39SOL    HW1 1016   6.441   4.663   6.478
   39SOL    HW2 1017   6.418   4.552   6.360
   40SOL     OW 1018   6.232   2.151   1.295
   40SOL    HW1 1019   6.222   2.085   1.220
   40SOL    HW2 1020   6.171   2.229   1.280
   41SOL     OW 1021   1.392   6.527   4.338
   41SOL    HW1 1022   1.363   6.444   4.386
   41SOL    HW2 1023   1.358   6.608   4.386
   42SOL     OW 1024   3.083   6.407   6.345
   42SOL    HW1 1025   3.042   6.485   6.393
   42SOL    HW2 1026   3.020   6.375   6.273
   43SOL     OW 1027   6.051   6.274   5.802
   43SOL    HW1 1028   5.964   6.320   5.818
   43SOL    HW2 1029   6.049   6.230   5.711
   44SOL     OW 1030   6.389   2.378   6.209
   44SOL    HW1 1031   6.349   2.361   6.119
   44SOL    HW2 1032   6.434   2.468   6.209
   45SOL     OW 1033   3.321   0.871   3.724
   45SOL    HW1 1034   3.320   0.860   3.625
   45SOL    HW2 1035   3.378   0.799   3.764
   46SOL     OW 1036   1.273   3.350   4.450
   46SOL    HW1 1037   1.210   3.427   4.439
   46SOL    HW2 1038   1.357   3.368   4.399
   47SOL     OW 1039   5.045   3.981   2.949
   47SOL    HW1 1040   5.006   4.064   2.910
   47SOL    HW2 1041   5.144   3.991   2.958
   48SOL     OW 1042   0.445   2.993   5.050
   48SOL    HW1 1043   0.517   2.929   5.022
   48SOL    HW2 1044   0.397   2.955   5.130
   49SOL     OW 1045   4.599   3.964   1.708
   49SOL    HW1 1046   4.551   4.041   1.749
   49SOL    HW2 1047   4.580   3.960   1.610
   50SOL     OW 1048   6.421   2.344   5.741
   50SOL    HW1 1049   6.376   2.326   5.654
   50SOL    HW2 1050   6.471   2.263   5.771
   51SOL     OW 1051   3.179   6.023   2.968
   51SOL    HW1 1052   3.158   5.938   2.920
   51SOL    HW2 1053   3.144   6.019   3.061
   52SOL     OW 1054   4.692   1.999   3.786
   52SOL    HW1 1055   4.678   1.990   3.885
   52SOL    HW2 1056   4.790   1.991   3.766
   53SOL     OW 1057   4.418   0.597   4.396
   53SOL    HW1 1058   4.405   0.507   4.355
   53SOL    HW2 1059   4.513   0.626   4.384
   54SOL     OW 1060   3.863   4.949   0.917
   54SOL    HW1 1061   3.855   5.019   0.988
   54SOL    HW2 1062   3.792   4.880   0.931
   55SOL     OW 1063   3.561   1.289   6.228
   55SOL    HW1 1064   3.566   1.236   6.143
   55SOL    HW2 1065   3.494   1.363   6.218
   56SOL     OW 1066   1.378   0.703   1.475
   56SOL    HW1 1067   1.340   0.794   1.490
   56SOL    HW2 1068   1.316   0.634   1.514
   57SOL     OW 1069   4.981   0.898   1.564
   57SOL    HW1 1070   5.033   0.917   1.648
   57SOL    HW2 1071   5.037   0.921   1.485
   58SOL     OW 1072   6.801   6.805   5.573
   58SOL    HW1 1073   6.873   6.764   5.517
   58SOL    HW2 1074   6.722   6.826   5.516
   59SOL     OW 1075   2.018   1.160   5.918
   59SOL    HW1 1076   1.977   1.210   5.841
   59SOL    HW2 1077   1.953   1.160   5.995
   60SOL     OW 1078   6.278   0.678   5.950
   60SOL    HW1 1079   6.299   0.713   5.859
   60SOL    HW2 1080   6.361   0.674   6.005
   61SOL     OW 1081   5.432   1.369   4.450
   61SOL    HW1 1082   5.476   1.457   4.432
   61SOL    HW2 1083   5.411   1.362   4.548
   62SOL     OW 1084   0.716   0.960   3.464
   62SOL    HW1 1085   0.629   0.921   3.434
   62SOL    HW2 1086   0.704   1.004   3.553
   63SOL     OW 1087   6.353   1.443   3.673
   63SOL    HW1 1088   6.295   1.369   3.638
   63SOL    HW2 1089   6.421   1.467   3.603
   64SOL     OW 1090   0.736   4.222   6.594
   64SOL    HW1 1091   0.754   4.148   6.530
   64SOL    HW2 1092   0.653   4.271   6.566
   65SOL     OW 1093   6.499   4.277   4.988
   65SOL    HW1 1094   6.415   4.324   5.017
   65SOL    HW2 1095   6.532   4.218   5.062
   66SOL     OW 1096   3.807   0.345   6.628
   66SOL    HW1 1097   3.791   0.407   6.551
   66SOL    HW2 1098   3.761   0.258   6.612
   67SOL     OW 1099   5.922   5.043   5.366
   67SOL    HW1 1100   5.835   5.083   5.340
   67SOL    HW2 1101   5.932   5.045   5.465
   68SOL     OW 1102   6.146   0.611   6.537
   68SOL    HW1 1103   6.174   0.517   6.558
   68SOL    HW2 1104   6.188   0.640   6.451
   69SOL     OW 1105   1.782   3.987   6.652
   69SOL    HW1 1106   1.840   3.958   6.728
   69SOL    HW2 1107   1.759   3.908   6.595
   70SOL     OW 1108   6.453   5.290   3.382
   70SOL    HW1 1109   6.504   5.376   3.389
   70SOL    HW2 1110   6.396   5.292   3.300
   71SOL     OW 1111   3.495   2.126   2.604
   71SOL    HW1 1112   3.517   2.095   2.696
   71SOL    HW2 1113   3.579   2.128   2.549
   72SOL     OW 1114   3.125   5.873   4.770
   72SOL    HW1 1115   3.168   5.942   4.828
   72SOL    HW2 1116   3.139   5.782   4.809
   73SOL     OW 1117   3.362   1.541   0.522
   73SOL    HW1 1118   3.370   1.499   0.431
   73SOL    HW2 1119   3.337   1.637   0.511
   74SOL     OW 1120   5.365   6.433   6.366
   74SOL    HW1 1121   5.382   6.374   6.444
   74SOL    HW2 1122   5.451   6.478   6.339
   75SOL     OW 1123   3.545   6.654   6.037
   75SOL    HW1 1124   3.516   6.586   5.970
   75SOL    HW2 1125   3.466   6.708   6.067
   76SOL     OW 1126   2.022   2.968   1.142
   76SOL    HW1 1127   2.107   2.944   1.189
   76SOL    HW2 1128   1.944   2.943   1.200
   77SOL     OW 1129   4.991   6.045   4.625
   77SOL    HW1 1130   5.081   6.081   4.648
   77SOL    HW2 1131   4.964   6.076   4.534
   78SOL     OW 1132   6.170   0.423   5.690
   78SOL    HW1 1133   6.174   0.388   5.596
   78SOL    HW2 1134   6.075   0.443   5.714
   79SOL     OW 1135   3.101   6.982   0.432
   79SOL    HW1 1136   3.013   6.937   0.414
   79SOL    HW2 1137   3.169   6.951   0.366
   80SOL     OW 1138   5.696   1.328   4.434
   80SOL    HW1 1139   5.599   1.306   4.442
   80SOL    HW2 1140   5.749   1.263   4.488
   81SOL     OW 1141   2.388   0.286   2.426
   81SOL    HW1 1142   2.289   0.273   2.423
   81SOL    HW2 1143   2.423   0.299   2.333
   82SOL     OW 1144   7.001   5.720   0.504
   82SOL    HW1 1145   6.981   5.646   0.569
   82SOL    HW2 1146   6.986   5.687   0.411
   83SOL     OW 1147   6.680   0.087   0.531
   83SOL    HW1 1148   6.706   0.178   0.562
   83SOL    HW2 1149   6.734   0.018   0.579
   84SOL     OW 1150   4.891   3.269   3.248
   84SOL    HW1 1151   4.858   3.186   3.294
   84SOL    HW2 1152   4.987   3.284   3.273
   85SOL     OW 1153   1.587   1.608   5.309
   85SOL    HW1 1154   1.507   1.554   5.284
   85SOL    HW2 1155   1.603   1.601   5.407
   86SOL     OW 1156   0.681   0.267   5.667
   86SOL    HW1 1157   0.712   0.360   5.687
   86SOL    HW2 1158   0.760   0.208   5.651
   87SOL     OW 1159   5.161   3.429   0.427
   87SOL    HW1 1160   5.101   3.413   0.349
   87SOL    HW2 1161   5.128   3.507   0.480
   88SOL     OW 1162   4.487   1.813   6.395
   88SOL    HW1 1163   4.511   1.853   6.483
   88SOL    HW2 1164   4.420   1.871   6.349
   89SOL     OW 1165   1.227   3.105   6.590
   89SOL    HW1 1166   1.218   3.150   6.679
   89SOL    HW2 1167   1.141   3.060   6.567
   90SOL     OW 1168   4.507   6.541   3.707
   90SOL    HW1 1169   4.528   6.490   3.791
   90SOL    HW2 1170   4.585   6.599   3.684
   91SOL     OW 1171   4.771   4.118   4.302
   91SOL    HW1 1172   4.832   4.068   4.363
   91SOL    HW2 1173   4.691   4.149   4.352
   92SOL     OW 1174   3.218   4.273   0.708
   92SOL    HW1 1175   3.197   4.232   0.797
   92SOL    HW2 1176   3.174   4.220   0.636
   93SOL     OW 1177   2.508   4.476   6.651
   93SOL    HW1 1178   2.477   4.399   6.594
   93SOL    HW2 1179   2.585   4.521   6.606
   94SOL     OW 1180   2.467   6.330   6.414
   94SOL    HW1 1181   2.508   6.275   6.487
   94SOL    HW2 1182   2.382   6.287   6.384
   95SOL     OW 1183   0.811   1.445   2.893
   95SOL    HW1 1184   0.747   1.406   2.959
   95SOL    HW2 1185   0.765   1.456   2.805
   96SOL     OW 1186   3.034   6.830   5.576
   96SOL    HW1 1187   3.068   6.809   5.484
   96SOL    HW2 1188   3.002   6.925   5.579
   97SOL     OW 1189   0.592   3.848   5.603
   97SOL    HW1 1190   0.553   3.761   5.573
   97SOL    HW2 1191   0.521   3.904   5.646
   98SOL     OW 1192   6.456   3.882   6.942
   98SOL    HW1 1193   6.367   3.854   6.978
   98SOL    HW2 1194   6.463   3.982   6.947
   99SOL     OW 1195   4.380   3.892   1.038
   99SOL    HW1 1196   4.313   3.824   1.069
   99SOL    HW2 1197   4.357   3.982   1.074
  100SOL     OW 1198   0.571   0.029   5.696
  100SOL    HW1 1199   0.471   0.028   5.687
  100SOL    HW2 1200   0.602   0.123   5.712
  101SOL     OW 1201   1.583   5.628   2.564
  101SOL    HW1 1202   1.669   5.675   2.546
  101SOL    HW2 1203   1.510   5.671   2.510
  102SOL     OW 1204   5.014   0.709   2.498
  102SOL    HW1 1205   4.929   0.666   2.528
  102SOL    HW2 1206   5.042   0.671   2.410
  103SOL     OW 1207   3.832   0.878   2.371
  103SOL    HW1 1208   3.860   0.905   2.279
  103SOL    HW2 1209   3.734   0.858   2.372
  104SOL     OW 1210   0.474   5.136   2.687
  104SOL    HW1 1211   0.402   5.205   2.683
  104SOL    HW2 1212   0.543   5.164   2.754
  105SOL     OW 1213   6.313   1.901   6.153
  105SOL    HW1 1214   6.342   1.806   6.142
  105SOL    HW2 1215   6.242   1.907   6.223
  106SOL     OW 1216   3.238   6.274   5.143
  106SOL    HW1 1217   3.324   6.230   5.169
  106SOL    HW2 1218   3.247   6.312   5.051
  107SOL     OW 1219   1.862   2.104   2.078
  107SOL    HW1 1220   1.850   2.164   1.999
  107SOL    HW2 1221   1.955   2.067   2.077
  108SOL     OW 1222   4.102   4.753   6.394
  108SOL    HW1 1223   4.104   4.836   6.450
  108SOL    HW2 1224   4.061   4.679   6.446
  109SOL     OW 1225   0.658   1.475   1.244
  109SOL    HW1 1226   0.717   1.405   1.204
  109SOL    HW2 1227   0.665   1.559   1.191
  110SOL     OW 1228   3.756   6.485   5.460
  110SOL    HW1 1229   3.707   6.549   5.401
  110SOL    HW2 1230   3.694   6.412   5.489
  111SOL     OW 1231   3.125   0.589   5.427
  111SOL    HW1 1232   3.029   0.562   5.417
  111SOL    HW2 1233   3.174   0.574   5.341
  112SOL     OW 1234   5.980   6.349   6.310
  112SOL    HW1 1235   5.896   6.357   6.255
  112SOL    HW2 1236   6.054   6.315   6.252
  113SOL     OW 1237   6.744   5.211   3.243
  113SOL    HW1 1238   6.715   5.173   3.331
  113SOL    HW2 1239   6.667   5.208   3.179
  114SOL     OW 1240   0.764   0.376   1.224
  114SOL    HW1 1241   0.723   0.313   1.290
  114SOL    HW2 1242   0.692   0.430   1.181
  115SOL     OW 1243   3.712   1.490   4.214
  115SOL    HW1 1244   3.731   1.408   4.268
  115SOL    HW2 1245   3.614   1.494   4.192
  116SOL     OW 1246   6.319   5.111   2.202
  116SOL    HW1 1247   6.412   5.147   2.208
  116SOL    HW2 1248   6.255   5.186   2.185
  117SOL     OW 1249   1.180   1.443   6.478
  117SOL    HW1 1250   1.210   1.430   6.384
  117SOL    HW2 1251   1.090   1.487   6.479
  118SOL     OW 1252   1.201   1.349   2.442
  118SOL    HW1 1253   1.300   1.356   2.434
  118SOL    HW2 1254   1.159   1.424   2.390
  119SOL     OW 1255   1.492   2.179   6.042
  119SOL    HW1 1256   1.508   2.118   5.964
  119SOL    HW2 1257   1.453   2.127   6.118
  120SOL     OW 1258   6.685   6.878   0.373
  120SOL    HW1 1259   6.646   6.901   0.285
  120SOL    HW2 1260   6.700   6.962   0.426
  121SOL     OW 1261   2.600   4.109   6.899
  121SOL    HW1 1262   2.528   4.178   6.906
  121SOL    HW2 1263   2.652   4.106   6.984
  122SOL     OW 1264   1.685   4.502   6.250
  122SOL    HW1 1265   1.779   4.534   6.256
  122SOL    HW2 1266   1.654   4.471   6.340
  123SOL     OW 1267   0.599   2.571   1.691
  123SOL    HW1 1268   0.525   2.570   1.625
  123SOL    HW2 1269   0.686   2.551   1.645
  124SOL     OW 1270   5.458   3.014   0.137
  124SOL    HW1 1271   5.459   3.095   0.080
  124SOL    HW2 1272   5.507   3.032   0.222
  125SOL     OW 1273   2.282   1.825   1.987
  125SOL    HW1 1274   2.278   1.747   2.049
  125SOL    HW2 1275   2.363   1.817   1.928
  126SOL     OW 1276   2.293   4.404   1.061
  126SOL    HW1 1277   2.304   4.471   0.988
  126SOL    HW2 1278   2.203   4.361   1.053
  127SOL     OW 1279   0.122   5.412   6.265
  127SOL    HW1 1280   0.115   5.367   6.354
  127SOL    HW2 1281   0.132   5.343   6.194
  128SOL     OW 1282   4.422   2.472   1.530
  128SOL    HW1 1283   4.329   2.442   1.552
  128SOL    HW2 1284   4.471   2.398   1.486
  129SOL     OW 1285   4.309   3.790   5.907
  129SOL    HW1 1286   4.360   3.841   5.976
  129SOL    HW2 1287   4.301   3.845   5.824
  130SOL     OW 1288   0.487   1.171   4.148
  130SOL    HW1 1289   0.562   1.142   4.089
  130SOL    HW2 1290   0.456   1.094   4.203
  131SOL     OW 1291   5.779   1.359   2.176
  131SOL    HW1 1292   5.723   1.435   2.141
  131SOL    HW2 1293   5.722   1.299   2.232
  132SOL     OW 1294   2.472   2.964   0.908
  132SOL    HW1 1295   2.379   2.927   0.906
  132SOL    HW2 1296   2.516   2.938   0.994
  133SOL     OW 1297   5.245   6.179   3.995
  133SOL    HW1 1298   5.185   6.109   4.035
  133SOL    HW2 1299   5.269   6.245   4.065
  134SOL     OW 1300   5.971   1.523   2.276
  134SOL    HW1 1301   5.896   1.473   2.233
  134SOL    HW2 1302   5.969   1.505   2.375
  135SOL     OW 1303   5.987   3.228   1.562
  135SOL    HW1 1304   5.958   3.322   1.547
  135SOL    HW2 1305   6.040   3.222   1.646
  136SOL     OW 1306   3.856   3.960   6.586
  136SOL    HW1 1307   3.848   3.862   6.569
  136SOL    HW2 1308   3.796   4.009   6.522
  137SOL     OW 1309   4.958   0.743   5.010
  137SOL    HW1 1310   5.021   0.674   5.044
  137SOL    HW2 1311   4.909   0.708   4.931
  138SOL     OW 1312   0.538   4.014   3.675
  138SOL    HW1 1313   0.496   3.928   3.647
  138SOL    HW2 1314   0.547   4.016   3.775
  139SOL     OW 1315   2.664   5.881   5.256
  139SOL    HW1 1316   2.607   5.963   5.266
  139SOL    HW2 1317   2.625   5.821   5.187
  140SOL     OW 1318   0.498   5.987   3.255
  140SOL    HW1 1319   0.473   6.022   3.346
  140SOL    HW2 1320   0.431   5.918   3.227
  141SOL     OW 1321   6.009   3.286   5.368
  141SOL    HW1 1322   5.968   3.200   5.337
  141SOL    HW2 1323   5.962   3.317   5.451
  142SOL     OW 1324   1.860   4.796   0.595
  142SOL    HW1 1325   1.870   4.871   0.661
  142SOL    HW2 1326   1.932   4.803   0.527
  143SOL     OW 1327   5.640   4.181   1.600
  143SOL    HW1 1328   5.709   4.121   1.559
  143SOL    HW2 1329   5.635   4.163   1.698
  144SOL     OW 1330   1.303   6.612   6.805
  144SOL    HW1 1331   1.376   6.566   6.855
  144SOL    HW2 1332   1.303   6.709   6.827
  145SOL     OW 1333   0.658   5.130   0.204
  145SOL    HW1 1334   0.588   5.112   0.273
  145SOL    HW2 1335   0.690   5.224   0.213
  146SOL     OW 1336   4.971   0.267   6.108
  146SOL    HW1 1337   4.920   0.282   6.023
  146SOL    HW2 1338   5.068   0.289   6.092
  147SOL     OW 1339   5.888   2.796   6.619
  147SOL    HW1 1340   5.800   2.824   6.579
  147SOL    HW2 1341   5.872   2.756   6.709
  148SOL     OW 1342   0.275   4.707   6.591
  148SOL    HW1 1343   0.203   4.735   6.527
  148SOL    HW2 1344   0.305   4.786   6.644
  149SOL     OW 1345   2.871   1.789   4.411
  149SOL    HW1 1346   2.857   1.777   4.510
  149SOL    HW2 1347   2.787   1.823   4.369
  150SOL     OW 1348   5.294   5.074   6.609
  150SOL    HW1 1349   5.345   5.016   6.546
  150SOL    HW2 1350   5.198   5.076   6.583
  151SOL     OW 1351   3.464   2.155   1.165
  151SOL    HW1 1352   3.546   2.191   1.121
  151SOL    HW2 1353   3.490   2.106   1.249
  152SOL     OW 1354   1.652   1.688   3.880
  152SOL    HW1 1355   1.570   1.739   3.907
  152SOL    HW2 1356   1.684   1.720   3.791
  153SOL     OW 1357   2.747   0.123   1.659
  153SOL    HW1 1358   2.771   0.219   1.644
  153SOL    HW2 1359   2.796   0.067   1.593
  154SOL     OW 1360   0.576   2.719   2.994
  154SOL    HW1 1361   0.559   2.790   3.062
  154SOL    HW2 1362   0.661   2.740   2.946
  155SOL     OW 1363   0.302   0.900   3.215
  155SOL    HW1 1364   0.361   0.839   3.161
  155SOL    HW2 1365   0.215   0.854   3.234
  156SOL     OW 1366   6.986   2.008   1.219
  156SOL    HW1 1367   7.005   1.912   1.197
  156SOL    HW2 1368   6.915   2.043   1.157
  157SOL     OW 1369   6.081   3.433   1.886
  157SOL    HW1 1370   6.026   3.505   1.927
  157SOL    HW2 1371   6.160   3.472   1.839
  158SOL     OW 1372   2.977   6.983   2.201
  158SOL    HW1 1373   2.958   0.001   2.290
  158SOL    HW2 1374   2.933   0.012   2.129
  159SOL     OW 1375   4.433   4.418   1.523
  159SOL    HW1 1376   4.393   4.356   1.590
  159SOL    HW2 1377   4.493   4.483   1.570
  160SOL     OW 1378   6.702   5.220   0.192
  160SOL    HW1 1379   6.653   5.251   0.274
  160SOL    HW2 1380   6.642   5.224   0.113
  161SOL     OW 1381   1.561   5.480   4.803
  161SOL    HW1 1382   1.539   5.486   4.705
  161SOL    HW2 1383   1.573   5.384   4.828
  162SOL     OW 1384   4.011   6.596   0.378
  162SOL    HW1 1385   4.049   6.634   0.294
  162SOL    HW2 1386   4.069   6.521   0.410
  163SOL     OW 1387   5.135   5.597   1.336
  163SOL    HW1 1388   5.038   5.585   1.314
  163SOL    HW2 1389   5.188   5.601   1.251
  164SOL     OW 1390   6.626   4.533   1.015
  164SOL    HW1 1391   6.719   4.515   1.046
  164SOL    HW2 1392   6.615   4.632   0.999
  165SOL     OW 1393   5.487   3.165   0.703
  165SOL    HW1 1394   5.423   3.236   0.675
  165SOL    HW2 1395   5.563   3.206   0.753
  166SOL     OW 1396   0.505   4.899   3.623
  166SOL    HW1 1397   0.499   4.928   3.527
  166SOL    HW2 1398   0.591   4.850   3.637
  167SOL     OW 1399   5.940   2.378   0.579
  167SOL    HW1 1400   5.870   2.404   0.646
  167SOL    HW2 1401   5.907   2.301   0.525
  168SOL     OW 1402   2.724   3.520   0.896
  168SOL    HW1 1403   2.642   3.514   0.839
  168SOL    HW2 1404   2.710   3.587   0.968
  169SOL     OW 1405   4.087   0.404   2.439
  169SOL    HW1 1406   4.101   0.406   2.340
  169SOL    HW2 1407   4.122   0.488   2.480
  170SOL     OW 1408   0.385   1.744   3.503
  170SOL    HW1 1409   0.477   1.704   3.498
  170SOL    HW2 1410   0.392   1.844   3.501
  171SOL     OW 1411   3.953   4.279   0.346
  171SOL    HW1 1412   4.026   4.243   0.288
  171SOL    HW2 1413   3.935   4.375   0.323
  172SOL     OW 1414   6.544   1.759   4.388
  172SOL    HW1 1415   6.612   1.828   4.413
  172SOL    HW2 1416   6.520   1.705   4.469
  173SOL     OW 1417   6.658   1.439   4.106
  173SOL    HW1 1418   6.687   1.524   4.150
  173SOL    HW2 1419   6.590   1.460   4.036
  174SOL     OW 1420   2.893   5.312   4.142
  174SOL    HW1 1421   2.964   5.311   4.213
  174SOL    HW2 1422   2.854   5.221   4.132
  175SOL     OW 1423   2.005   6.955   2.124
  175SOL    HW1 1424   2.021   6.866   2.081
  175SOL    HW2 1425   1.946   6.944   2.204
  176SOL     OW 1426   0.859   4.042   1.357
  176SOL    HW1 1427   0.927   3.973   1.331
  176SOL    HW2 1428   0.876   4.127   1.306
  177SOL     OW 1429   5.738   3.044   2.530
  177SOL    HW1 1430   5.650   3.020   2.488
  177SOL    HW2 1431   5.726   3.122   2.590
  178SOL     OW 1432   4.105   2.855   6.272
  178SOL    HW1 1433   4.039   2.879   6.201
  178SOL    HW2 1434   4.123   2.936   6.329
  179SOL     OW 1435   2.592   1.752   6.043
  179SOL    HW1 1436   2.592   1.659   6.005
  179SOL    HW2 1437   2.630   1.815   5.976
  180SOL     OW 1438   1.462   6.929   6.284
  180SOL    HW1 1439   1.429   6.840   6.253
  180SOL    HW2 1440   1.537   6.916   6.349
  181SOL     OW 1441   3.373   1.697   6.778
  181SOL    HW1 1442   3.401   1.636   6.703
  181SOL    HW2 1443   3.408   1.662   6.865
  182SOL     OW 1444   3.873   2.186   4.369
  182SOL    HW1 1445   3.774   2.181   4.360
  182SOL    HW2 1446   3.914   2.208   4.281
  183SOL     OW 1447   3.345   1.838   3.533
  183SOL    HW1 1448   3.438   1.859   3.564
  183SOL    HW2 1449   3.349   1.784   3.449
  184SOL     OW 1450   1.515   6.226   4.104
  184SOL    HW1 1451   1.424   6.234   4.064
  184SOL    HW2 1452   1.559   6.316   4.106
  185SOL     OW 1453   0.694   2.576   6.522
  185SOL    HW1 1454   0.695   2.539   6.615
  185SOL    HW2 1455   0.719   2.505   6.457
  186SOL     OW 1456   6.458   1.260   3.238
  186SOL    HW1 1457   6.392   1.329   3.267
  186SOL    HW2 1458   6.471   1.265   3.139
  187SOL     OW 1459   5.044   0.571   3.558
  187SOL    HW1 1460   4.988   0.548   3.637
  187SOL    HW2 1461   5.138   0.589   3.588
  188SOL     OW 1462   6.072   1.919   2.481
  188SOL    HW1 1463   6.128   2.001   2.490
  188SOL    HW2 1464   6.008   1.914   2.558
  189SOL     OW 1465   2.043   5.603   2.835
  189SOL    HW1 1466   2.071   5.668   2.765
  189SOL    HW2 1467   2.087   5.627   2.922
  190SOL     OW 1468   3.993   1.604   4.708
  190SOL    HW1 1469   4.068   1.566   4.655
  190SOL    HW2 1470   3.907   1.559   4.681
  191SOL     OW 1471   5.503   6.009   5.655
  191SOL    HW1 1472   5.457   5.995   5.743
  191SOL    HW2 1473   5.435   6.010   5.582
  192SOL     OW 1474   0.140   5.684   1.754
  192SOL    HW1 1475   0.179   5.776   1.749
  192SOL    HW2 1476   0.059   5.680   1.695
  193SOL     OW 1477   4.491   2.691   5.507
  193SOL    HW1 1478   4.473   2.684   5.605
  193SOL    HW2 1479   4.407   2.716   5.459
  194SOL     OW 1480   3.604   1.034   2.710
  194SOL    HW1 1481   3.587   1.105   2.779
  194SOL    HW2 1482   3.702   1.016   2.705
  195SOL     OW 1483   1.894   6.522   4.210
  195SOL    HW1 1484   1.886   6.424   4.193
  195SOL    HW2 1485   1.892   6.539   4.308
  196SOL     OW 1486   2.674   1.381   6.889
  196SOL    HW1 1487   2.611   1.393   6.966
  196SOL    HW2 1488   2.696   1.471   6.850
  197SOL     OW 1489   2.234   1.032   6.949
  197SOL    HW1 1490   2.249   0.996   6.857
  197SOL    HW2 1491   2.156   1.095   6.949
  198SOL     OW 1492   4.754   1.127   3.193
  198SOL    HW1 1493   4.666   1.158   3.229
  198SOL    HW2 1494   4.761   1.152   3.096
  199SOL     OW 1495   0.903   2.063   4.110
  199SOL    HW1 1496   0.926   2.037   4.016
  199SOL    HW2 1497   0.911   2.163   4.119
  200SOL     OW 1498   1.262   3.525   0.776
  200SOL    HW1 1499   1.276   3.567   0.866
  200SOL    HW2 1500   1.164   3.519   0.758
  201SOL     OW 1501   0.469   6.405   5.395
  201SOL    HW1 1502   0.443   6.369   5.485
  201SOL    HW2 1503   0.564   6.381   5.376
  202SOL     OW 1504   3.909   1.690   6.465
  202SOL    HW1 1505   3.843   1.708   6.392
  202SOL    HW2 1506   3.989   1.749   6.454
  203SOL     OW 1507   5.905   2.154   5.179
  203SOL    HW1 1508   5.873   2.061   5.161
  203SOL    HW2 1509   5.875   2.214   5.105
  204SOL     OW 1510   0.810   6.823   4.191
  204SOL    HW1 1511   0.892   6.878   4.201
  204SOL    HW2 1512   0.835   6.730   4.162
  205SOL     OW 1513   2.075   2.642   2.830
  205SOL    HW1 1514   2.010   2.591   2.774
  205SOL    HW2 1515   2.062   2.620   2.926
  206SOL     OW 1516   1.062   3.383   1.249
  206SOL    HW1 1517   1.052   3.320   1.171
  206SOL    HW2 1518   1.157   3.413   1.256
  207SOL     OW 1519   5.787   0.213   3.513
  207SOL    HW1 1520   5.870   0.245   3.559
  207SOL    HW2 1521   5.745   0.289   3.463
  208SOL     OW 1522   0.421   4.009   5.747
  208SOL    HW1 1523   0.433   3.977   5.842
  208SOL    HW2 1524   0.378   4.099   5.748
  209SOL     OW 1525   6.518   4.541   2.878
  209SOL    HW1 1526   6.435   4.486   2.871
  209SOL    HW2 1527   6.544   4.551   2.974
  210SOL     OW 1528   4.382   1.922   0.823
  210SOL    HW1 1529   4.295   1.936   0.870
  210SOL    HW2 1530   4.396   1.995   0.756
  211SOL     OW 1531   1.067   6.792   2.466
  211SOL    HW1 1532   1.067   6.731   2.545
  211SOL    HW2 1533   1.135   6.864   2.480
  212SOL     OW 1534   1.380   3.972   2.705
  212SOL    HW1 1535   1.334   3.887   2.681
  212SOL    HW2 1536   1.428   3.961   2.792
  213SOL     OW 1537   1.621   5.821   1.039
  213SOL    HW1 1538   1.685   5.897   1.050
  213SOL    HW2 1539   1.662   5.737   1.074
  214SOL     OW 1540   3.510   5.190   2.964
  214SOL    HW1 1541   3.551   5.151   2.881
  214SOL    HW2 1542   3.518   5.290   2.961
  215SOL     OW 1543   2.752   4.388   1.145
  215SOL    HW1 1544   2.684   4.458   1.124
  215SOL    HW2 1545   2.728   4.343   1.231
  216SOL     OW 1546   0.949   6.105   3.192
  216SOL    HW1 1547   1.004   6.042   3.138
  216SOL    HW2 1548   0.862   6.123   3.145
  217SOL     OW 1549   1.098   2.284   4.938
  217SOL    HW1 1550   1.079   2.274   5.036
  217SOL    HW2 1551   1.159   2.211   4.908
  218SOL     OW 1552   0.374   2.771   4.834
  218SOL    HW1 1553   0.325   2.833   4.772
  218SOL    HW2 1554   0.371   2.678   4.798
  219SOL     OW 1555   4.489   0.583   0.733
  219SOL    HW1 1556   4.588   0.586   0.726
  219SOL    HW2 1557   4.458   0.649   0.802
  220SOL     OW 1558   2.707   0.323   0.621
  220SOL    HW1 1559   2.803   0.338   0.643
  220SOL    HW2 1560   2.676   0.394   0.557
  221SOL     OW 1561   6.073   4.107   1.101
  221SOL    HW1 1562   6.019   4.107   1.185
  221SOL    HW2 1563   6.014   4.089   1.023
  222SOL     OW 1564   1.730   4.438   5.955
  222SOL    HW1 1565   1.713   4.440   6.054
  222SOL    HW2 1566   1.676   4.510   5.911
  223SOL     OW 1567   6.692   2.831   5.360
  223SOL    HW1 1568   6.601   2.790   5.355
  223SOL    HW2 1569   6.714   2.873   5.271
  224SOL     OW 1570   3.356   1.036   0.121
  224SOL    HW1 1571   3.280   0.998   0.068
  224SOL    HW2 1572   3.374   1.130   0.092
  225SOL     OW 1573   4.301   3.932   6.363
  225SOL    HW1 1574   4.351   4.002   6.312
  225SOL    HW2 1575   4.362   3.857   6.388
  226SOL     OW 1576   0.883   1.175   5.959
  226SOL    HW1 1577   0.812   1.228   6.004
  226SOL    HW2 1578   0.872   1.078   5.980
  227SOL     OW 1579   2.335   4.387   2.548
  227SOL    HW1 1580   2.317   4.438   2.465
  227SOL    HW2 1581   2.319   4.289   2.532
  228SOL     OW 1582   2.005   0.612   2.743
  228SOL    HW1 1583   2.031   0.619   2.839
  228SOL    HW2 1584   1.908   0.589   2.736
  229SOL     OW 1585   5.355   5.725   5.988
  229SOL    HW1 1586   5.349   5.807   5.931
  229SOL    HW2 1587   5.275   5.666   5.971
  230SOL     OW 1588   4.509   5.596   4.384
  230SOL    HW1 1589   4.500   5.546   4.298
  230SOL    HW2 1590   4.603   5.591   4.416
  231SOL     OW 1591   6.141   1.207   6.165
  231SOL    HW1 1592   6.170   1.192   6.260
  231SOL    HW2 1593   6.173   1.131   6.108
  232SOL     OW 1594   0.387   3.244   6.324
  232SOL    HW1 1595   0.380   3.224   6.226
  232SOL    HW2 1596   0.338   3.173   6.376
  233SOL     OW 1597   4.274   1.488   3.337
  233SOL    HW1 1598   4.361   1.476   3.290
  233SOL    HW2 1599   4.226   1.567   3.300
  234SOL     OW 1600   6.118   1.070   6.858
  234SOL    HW1 1601   6.213   1.052   6.881
  234SOL    HW2 1602   6.058   1.029   6.927
  235SOL     OW 1603   4.830   3.091   2.340
  235SOL    HW1 1604   4.793   3.010   2.385
  235SOL    HW2 1605   4.803   3.090   2.244
  236SOL     OW 1606   4.881   3.005   6.824
  236SOL    HW1 1607   4.802   2.968   6.775
  236SOL    HW2 1608   4.966   2.972   6.782
  237SOL     OW 1609   0.257   4.248   1.586
  237SOL    HW1 1610   0.241   4.318   1.655
  237SOL    HW2 1611   0.243   4.157   1.625
  238SOL     OW 1612   6.111   1.765   0.076
  238SOL    HW1 1613   6.107   1.766   7.000
  238SOL    HW2 1614   6.176   1.696   0.107
  239SOL     OW 1615   0.971   4.521   0.322
  239SOL    HW1 1616   0.968   4.562   0.231
  239SOL    HW2 1617   0.884   4.476   0.342
  240SOL     OW 1618   0.847   3.174   3.455
  240SOL    HW1 1619   0.877   3.264   3.486
  240SOL    HW2 1620   0.803   3.126   3.531
  241SOL     OW 1621   2.987   2.140   4.778
  241SOL    HW1 1622   2.890   2.138   4.804
  241SOL    HW2 1623   3.037   2.198   4.842
  242SOL     OW 1624   3.051   3.359   3.896
  242SOL    HW1 1625   2.956   3.389   3.898
  242SOL    HW2 1626   3.110   3.436   3.870
  243SOL     OW 1627   4.384   1.743   0.327
  243SOL    HW1 1628   4.448   1.798   0.379
  243SOL    HW2 1629   4.433   1.689   0.259
  244SOL     OW 1630   6.016   4.025   5.439
  244SOL    HW1 1631   6.006   4.067   5.349
  244SOL    HW2 1632   5.932   3.977   5.463
  245SOL     OW 1633   4.382   2.180   3.501
  245SOL    HW1 1634   4.422   2.252   3.445
  245SOL    HW2 1635   4.287   2.203   3.522
  246SOL     OW 1636   4.925   1.940   4.033
  246SOL    HW1 1637   4.898   1.844   4.039
  246SOL    HW2 1638   4.999   1.950   3.967
  247SOL     OW 1639   2.727   1.376   0.478
  247SOL    HW1 1640   2.714   1.475   0.473
  247SOL    HW2 1641   2.824   1.355   0.472
  248SOL     OW 1642   2.628   1.292   3.188
  248SOL    HW1 1643   2.615   1.300   3.089
  248SOL    HW2 1644   2.726   1.282   3.208
  249SOL     OW 1645   5.213   6.710   5.741
  249SOL    HW1 1646   5.260   6.784   5.694
  249SOL    HW2 1647   5.279   6.656   5.792
  250SOL     OW 1648   4.653   3.341   0.739
  250SOL    HW1 1649   4.575   3.383   0.694
  250SOL    HW2 1650   4.639   3.242   0.744
  251SOL     OW 1651   4.468   3.402   5.315
  251SOL    HW1 1652   4.389   3.460   5.297
  251SOL    HW2 1653   4.548   3.439   5.268
  252SOL     OW 1654   6.868   6.363   4.854
  252SOL    HW1 1655   6.897   6.411   4.937
  252SOL    HW2 1656   6.898   6.414   4.773
  253SOL     OW 1657   3.566   5.357   6.847
  253SOL    HW1 1658   3.496   5.330   6.781
  253SOL    HW2 1659   3.533   5.341   6.940
  254SOL     OW 1660   6.307   2.516   3.628
  254SOL    HW1 1661   6.379   2.498   3.695
  254SOL    HW2 1662   6.342   2.502   3.536
  255SOL     OW 1663   2.265   4.672   5.780
  255SOL    HW1 1664   2.252   4.578   5.748
  255SOL    HW2 1665   2.245   4.735   5.705
  256SOL     OW 1666   5.660   3.435   5.951
  256SOL    HW1 1667   5.630   3.468   6.041
  256SOL    HW2 1668   5.689   3.512   5.895
  257SOL     OW 1669   5.339   0.554   3.586
  257SOL    HW1 1670   5.391   0.626   3.541
  257SOL    HW2 1671   5.388   0.523   3.667
  258SOL     OW 1672   2.484   4.210   5.355
  258SOL    HW1 1673   2.491   4.308   5.338
  258SOL    HW2 1674   2.452   4.165   5.271
  259SOL     OW 1675   6.020   0.317   2.429
  259SOL    HW1 1676   5.981   0.230   2.401
  259SOL    HW2 1677   6.015   0.382   2.353
  260SOL     OW 1678   4.324   5.800   2.980
  260SOL    HW1 1679   4.262   5.812   3.057
  260SOL    HW2 1680   4.418   5.814   3.010
  261SOL     OW 1681   5.744   3.578   0.949
  261SOL    HW1 1682   5.664   3.603   0.895
  261SOL    HW2 1683   5.819   3.643   0.931
  262SOL     OW 1684   1.109   4.228   0.337
  262SOL    HW1 1685   1.148   4.194   0.423
  262SOL    HW2 1686   1.026   4.279   0.357
  263SOL     OW 1687   1.966   0.420   4.514
  263SOL    HW1 1688   2.048   0.472   4.540
  263SOL    HW2 1689   1.885   0.463   4.554
  264SOL     OW 1690   6.369   2.434   0.037
  264SOL    HW1 1691   6.303   2.463   6.992
  264SOL    HW2 1692   6.459   2.422   7.019
  265SOL     OW 1693   5.366   6.399   2.990
  265SOL    HW1 1694   5.268   6.377   2.996
  265SOL    HW2 1695   5.399   6.378   2.898
  266SOL     OW 1696   4.632   3.004   5.906
  266SOL    HW1 1697   4.580   3.083   5.938
  266SOL    HW2 1698   4.632   3.002   5.806
  267SOL     OW 1699   0.643   1.626   5.958
  267SOL    HW1 1700   0.589   1.710   5.961
  267SOL    HW2 1701   0.709   1.631   5.883
  268SOL     OW 1702   3.004   0.992   6.525
  268SOL    HW1 1703   3.055   1.038   6.598
  268SOL    HW2 1704   2.958   1.061   6.468
  269SOL     OW 1705   2.101   3.929   0.922
  269SOL    HW1 1706   2.100   3.840   0.877
  269SOL    HW2 1707   2.180   3.934   0.984
  270SOL     OW 1708   1.059   6.439   0.900
  270SOL    HW1 1709   0.994   6.392   0.841
  270SOL    HW2 1710   1.070   6.387   0.985
  271SOL     OW 1711   6.748   1.584   6.270
  271SOL    HW1 1712   6.788   1.492   6.275
  271SOL    HW2 1713   6.800   1.647   6.328
  272SOL     OW 1714   3.776   6.245   3.790
  272SOL    HW1 1715   3.759   6.187   3.870
  272SOL    HW2 1716   3.688   6.274   3.752
  273SOL     OW 1717   2.360   4.771   4.532
  273SOL    HW1 1718   2.405   4.791   4.445
  273SOL    HW2 1719   2.405   4.694   4.576
  274SOL     OW 1720   3.975   1.516   3.456
  274SOL    HW1 1721   3.904   1.505   3.526
  274SOL    HW2 1722   4.055   1.560   3.496
  275SOL     OW 1723   6.396   5.591   3.285
  275SOL    HW1 1724   6.473   5.650   3.260
  275SOL    HW2 1725   6.311   5.644   3.282
  276SOL     OW 1726   6.760   6.816   3.639
  276SOL    HW1 1727   6.726   6.844   3.550
  276SOL    HW2 1728   6.691   6.759   3.685
  277SOL     OW 1729   1.758   4.047   0.540
  277SOL    HW1 1730   1.840   4.000   0.574
  277SOL    HW2 1731   1.679   4.022   0.597
  278SOL     OW 1732   0.290   3.629   1.855
  278SOL    HW1 1733   0.330   3.719   1.872
  278SOL    HW2 1734   0.199   3.625   1.897
  279SOL     OW 1735   5.548   3.093   4.491
  279SOL    HW1 1736   5.613   3.045   4.549
  279SOL    HW2 1737   5.550   3.191   4.512
  280SOL     OW 1738   2.652   5.469   2.364
  280SOL    HW1 1739   2.612   5.475   2.455
  280SOL    HW2 1740   2.584   5.498   2.296
  281SOL     OW 1741   2.559   4.726   1.590
  281SOL    HW1 1742   2.556   4.820   1.556
  281SOL    HW2 1743   2.606   4.725   1.679
  282SOL     OW 1744   3.264   1.618   5.697
  282SOL    HW1 1745   3.294   1.596   5.604
  282SOL    HW2 1746   3.231   1.712   5.701
  283SOL     OW 1747   6.263   2.649   6.682
  283SOL    HW1 1748   6.342   2.688   6.635
  283SOL    HW2 1749   6.213   2.722   6.730
  284SOL     OW 1750   1.610   3.370   4.001
  284SOL    HW1 1751   1.664   3.319   3.934
  284SOL    HW2 1752   1.517   3.383   3.966
  285SOL     OW 1753   5.076   4.912   4.326
  285SOL    HW1 1754   5.154   4.850   4.324
  285SOL    HW2 1755   5.107   5.003   4.353
  286SOL     OW 1756   3.457   4.984   6.854
  286SOL    HW1 1757   3.548   5.008   6.887
  286SOL    HW2 1758   3.387   5.029   6.909
  287SOL     OW 1759   1.148   3.206   0.811
  287SOL    HW1 1760   1.188   3.145   0.742
  287SOL    HW2 1761   1.220   3.239   0.872
  288SOL     OW 1762   3.786   1.617   6.722
  288SOL    HW1 1763   3.768   1.692   6.786
  288SOL    HW2 1764   3.834   1.653   6.642
  289SOL     OW 1765   2.214   4.373   5.364
  289SOL    HW1 1766   2.297   4.416   5.327
  289SOL    HW2 1767   2.230   4.275   5.376
  290SOL     OW 1768   6.235   2.138   4.853
  290SOL    HW1 1769   6.137   2.132   4.833
  290SOL    HW2 1770   6.259   2.071   4.923
  291SOL     OW 1771   0.759   1.637   4.123
  291SOL    HW1 1772   0.757   1.682   4.212
  291SOL    HW2 1773   0.698   1.558   4.124
  292SOL     OW 1774   2.456   1.793   3.097
  292SOL    HW1 1775   2.450   1.860   3.171
  292SOL    HW2 1776   2.551   1.783   3.068
  293SOL     OW 1777   4.448   5.653   2.726
  293SOL    HW1 1778   4.402   5.685   2.809
  293SOL    HW2 1779   4.397   5.683   2.645
  294SOL     OW 1780   6.551   6.132   6.754
  294SOL    HW1 1781   6.453   6.138   6.772
  294SOL    HW2 1782   6.573   6.181   6.669
  295SOL     OW 1783   3.663   1.383   3.154
  295SOL    HW1 1784   3.659   1.388   3.054
  295SOL    HW2 1785   3.631   1.293   3.184
  296SOL     OW 1786   3.457   1.364   2.722
  296SOL    HW1 1787   3.359   1.379   2.734
  296SOL    HW2 1788   3.498   1.339   2.809
  297SOL     OW 1789   2.383   4.338   4.097
  297SOL    HW1 1790   2.325   4.260   4.117
  297SOL    HW2 1791   2.357   4.377   4.009
  298SOL     OW 1792   4.526   6.108   1.840
  298SOL    HW1 1793   4.561   6.042   1.907
  298SOL    HW2 1794   4.551   6.079   1.748
  299SOL     OW 1795   5.220   3.748   5.229
  299SOL    HW1 1796   5.269   3.672   5.271
  299SOL    HW2 1797   5.126   3.751   5.263
  300SOL     OW 1798   6.610   0.612   2.188
  300SOL    HW1 1799   6.590   0.568   2.100
  300SOL    HW2 1800   6.562   0.700   2.193
  301SOL     OW 1801   5.419   3.894   0.606
  301SOL    HW1 1802   5.351   3.861   0.671
  301SOL    HW2 1803   5.480   3.818   0.581
  302SOL     OW 1804   1.491   0.021   3.111
  302SOL    HW1 1805   1.435   6.976   3.065
  302SOL    HW2 1806   1.453   0.039   3.202
  303SOL     OW 1807   5.215   0.362   1.831
  303SOL    HW1 1808   5.295   0.303   1.822
  303SOL    HW2 1809   5.164   0.363   1.745
  304SOL     OW 1810   2.106   0.143   3.707
  304SOL    HW1 1811   2.097   0.119   3.804
  304SOL    HW2 1812   2.202   0.143   3.681
  305SOL     OW 1813   0.446   3.527   6.384
  305SOL    HW1 1814   0.509   3.540   6.461
  305SOL    HW2 1815   0.424   3.430   6.375
  306SOL     OW 1816   1.562   1.450   3.702
  306SOL    HW1 1817   1.583   1.508   3.623
  306SOL    HW2 1818   1.533   1.508   3.778
  307SOL     OW 1819   5.120   6.226   1.460
  307SOL    HW1 1820   5.158   6.153   1.516
  307SOL    HW2 1821   5.049   6.189   1.400
  308SOL     OW 1822   6.882   4.702   4.519
  308SOL    HW1 1823   6.802   4.738   4.472
  308SOL    HW2 1824   6.965   4.733   4.473
  309SOL     OW 1825   3.722   4.380   5.256
  309SOL    HW1 1826   3.815   4.363   5.289
  309SOL    HW2 1827   3.697   4.309   5.190
  310SOL     OW 1828   5.890   6.958   5.716
  310SOL    HW1 1829   5.798   6.995   5.723
  310SOL    HW2 1830   5.945   7.014   5.655
  311SOL     OW 1831   6.680   5.018   2.029
  311SOL    HW1 1832   6.682   4.944   2.097
  311SOL    HW2 1833   6.655   5.103   2.074
  312SOL     OW 1834   4.827   1.580   5.403
  312SOL    HW1 1835   4.849   1.594   5.500
  312SOL    HW2 1836   4.821   1.668   5.357
  313SOL     OW 1837   2.794   4.043   1.448
  313SOL    HW1 1838   2.766   4.139   1.445
  313SOL    HW2 1839   2.773   4.006   1.538
  314SOL     OW 1840   3.297   5.695   0.663
  314SOL    HW1 1841   3.231   5.626   0.632
  314SOL    HW2 1842   3.379   5.650   0.696
  315SOL     OW 1843   0.538   2.234   3.363
  315SOL    HW1 1844   0.551   2.235   3.264
  315SOL    HW2 1845   0.541   2.327   3.399
  316SOL     OW 1846   2.415   2.719   4.720
  316SOL    HW1 1847   2.361   2.774   4.784
  316SOL    HW2 1848   2.429   2.771   4.636
  317SOL     OW 1849   0.600   1.636   6.417
  317SOL    HW1 1850   0.650   1.570   6.473
  317SOL    HW2 1851   0.663   1.682   6.355
  318SOL     OW 1852   1.163   5.189   1.140
  318SOL    HW1 1853   1.097   5.219   1.071
  318SOL    HW2 1854   1.209   5.268   1.179
  319SOL     OW 1855   0.875   0.230   2.040
  319SOL    HW1 1856   0.974   0.222   2.036
  319SOL    HW2 1857   0.849   0.289   2.117
  320SOL     OW 1858   5.824   2.538   0.049
  320SOL    HW1 1859   5.741   2.505   0.094
  320SOL    HW2 1860   5.904   2.516   0.105
  321SOL     OW 1861   2.331   1.847   2.366
  321SOL    HW1 1862   2.378   1.791   2.434
  321SOL    HW2 1863   2.269   1.910   2.412
  322SOL     OW 1864   3.362   2.878   4.280
  322SOL    HW1 1865   3.442   2.856   4.336
  322SOL    HW2 1866   3.295   2.804   4.287
  323SOL     OW 1867   0.754   4.492   0.055
  323SOL    HW1 1868   0.680   4.554   0.082
  323SOL    HW2 1869   0.731   4.398   0.082
  324SOL     OW 1870   0.972   2.769   4.429
  324SOL    HW1 1871   0.932   2.808   4.512
  324SOL    HW2 1872   0.920   2.688   4.402
  325SOL     OW 1873   2.380   3.167   1.291
  325SOL    HW1 1874   2.347   3.195   1.381
  325SOL    HW2 1875   2.340   3.079   1.266
  326SOL     OW 1876   1.541   5.847   6.770
  326SOL    HW1 1877   1.543   5.761   6.822
  326SOL    HW2 1878   1.586   5.919   6.823
  327SOL     OW 1879   0.320   4.523   4.318
  327SOL    HW1 1880   0.354   4.614   4.341
  327SOL    HW2 1881   0.375   4.485   4.244
  328SOL     OW 1882   3.560   5.193   2.487
  328SOL    HW1 1883   3.583   5.211   2.583
  328SOL    HW2 1884   3.538   5.279   2.442
  329SOL     OW 1885   3.472   3.866   3.568
  329SOL    HW1 1886   3.451   3.953   3.524
  329SOL    HW2 1887   3.521   3.808   3.504
  330SOL     OW 1888   2.857   6.626   1.943
  330SOL    HW1 1889   2.788   6.555   1.946
  330SOL    HW2 1890   2.834   6.699   2.008
  331SOL     OW 1891   4.865   5.313   6.236
  331SOL    HW1 1892   4.938   5.333   6.301
  331SOL    HW2 1893   4.904   5.288   6.148
  332SOL     OW 1894   3.599   2.109   3.844
  332SOL    HW1 1895   3.500   2.101   3.849
  332SOL    HW2 1896   3.638   2.102   3.935
  333SOL     OW 1897   4.017   0.095   6.372
  333SOL    HW1 1898   4.064   0.062   6.290
  333SOL    HW2 1899   4.072   0.076   6.453
  334SOL     OW 1900   3.172   6.778   2.206
  334SOL    HW1 1901   3.126   6.866   2.206
  334SOL    HW2 1902   3.122   6.714   2.266
  335SOL     OW 1903   3.631   5.818   3.714
  335SOL    HW1 1904   3.586   5.838   3.801
  335SOL    HW2 1905   3.725   5.851   3.717
  336SOL     OW 1906   2.121   1.162   3.505
  336SOL    HW1 1907   2.129   1.245   3.560
  336SOL    HW2 1908   2.072   1.182   3.420
  337SOL     OW 1909   6.930   3.132   1.196
  337SOL    HW1 1910   6.961   3.054   1.251
  337SOL    HW2 1911   6.879   3.099   1.117
  338SOL     OW 1912   2.860   3.016   1.721
  338SOL    HW1 1913   2.939   2.967   1.756
  338SOL    HW2 1914   2.879   3.048   1.628
  339SOL     OW 1915   3.653   0.319   3.005
  339SOL    HW1 1916   3.614   0.328   3.096
  339SOL    HW2 1917   3.747   0.353   3.006
  340SOL     OW 1918   5.398   4.228   4.720
  340SOL    HW1 1919   5.365   4.312   4.678
  340SOL    HW2 1920   5.490   4.207   4.686
  341SOL     OW 1921   5.576   6.098   4.174
  341SOL    HW1 1922   5.562   6.194   4.196
  341SOL    HW2 1923   5.671   6.073   4.192
  342SOL     OW 1924   5.783   4.125   7.014
  342SOL    HW1 1925   5.725   4.044   7.008
  342SOL    HW2 1926   5.867   4.102   0.039
  343SOL     OW 1927   2.935   6.694   1.573
  343SOL    HW1 1928   3.019   6.743   1.594
  343SOL    HW2 1929   2.934   6.671   1.475
  344SOL     OW 1930   2.334   5.132   0.872
  344SOL    HW1 1931   2.328   5.171   0.780
  344SOL    HW2 1932   2.427   5.099   0.888
  345SOL     OW 1933   0.106   0.698   5.623
  345SOL    HW1 1934   0.030   0.636   5.641
  345SOL    HW2 1935   0.188   0.645   5.603
  346SOL     OW 1936   1.498   0.773   2.674
  346SOL    HW1 1937   1.422   0.715   2.644
  346SOL    HW2 1938   1.462   0.852   2.723
  347SOL     OW 1939   5.705   0.402   6.629
  347SOL    HW1 1940   5.736   0.448   6.546
  347SOL    HW2 1941   5.686   0.306   6.609
  348SOL     OW 1942   4.069   5.066   1.567
  348SOL    HW1 1943   4.008   4.987   1.565
  348SOL    HW2 1944   4.067   5.112   1.478
  349SOL     OW 1945   0.353   4.621   2.020
  349SOL    HW1 1946   0.356   4.621   2.120
  349SOL    HW2 1947   0.307   4.704   1.988
  350SOL     OW 1948   4.075   3.627   1.541
  350SOL    HW1 1949   4.156   3.679   1.568
  350SOL    HW2 1950   4.098   3.530   1.533
  351SOL     OW 1951   2.710   1.729   0.804
  351SOL    HW1 1952   2.767   1.714   0.885
  351SOL    HW2 1953   2.676   1.823   0.805
  352SOL     OW 1954   3.541   0.791   4.842
  352SOL    HW1 1955   3.581   0.882   4.852
  352SOL    HW2 1956   3.500   0.783   4.751
  353SOL     OW 1957   2.089   6.539   0.202
  353SOL    HW1 1958   2.068   6.618   0.145
  353SOL    HW2 1959   2.180   6.550   0.242
  354SOL     OW 1960   4.012   2.230   1.021
  354SOL    HW1 1961   3.935   2.281   1.060
  354SOL    HW2 1962   4.098   2.276   1.044
  355SOL     OW 1963   6.762   2.996   2.639
  355SOL    HW1 1964   6.696   2.940   2.589
  355SOL    HW2 1965   6.832   2.937   2.680
  356SOL     OW 1966   4.611   5.160   5.089
  356SOL    HW1 1967   4.612   5.080   5.030
  356SOL    HW2 1968   4.620   5.243   5.033
  357SOL     OW 1969   0.255   5.748   5.909
  357SOL    HW1 1970   0.181   5.716   5.850
  357SOL    HW2 1971   0.306   5.670   5.944
  358SOL     OW 1972   6.376   0.155   1.200
  358SOL    HW1 1973   6.286   0.173   1.240
  358SOL    HW2 1974   6.437   0.232   1.218
  359SOL     OW 1975   1.573   2.624   2.565
  359SOL    HW1 1976   1.561   2.586   2.657
  359SOL    HW2 1977   1.487   2.617   2.515
  360SOL     OW 1978   3.319   6.504   6.202
  360SOL    HW1 1979   3.410   6.463   6.198
  360SOL    HW2 1980   3.253   6.437   6.234
  361SOL     OW 1981   5.700   5.439   3.060
  361SOL    HW1 1982   5.732   5.358   3.012
  361SOL    HW2 1983   5.601   5.432   3.074
  362SOL     OW 1984   3.115   4.083   0.541
  362SOL    HW1 1985   3.044   4.118   0.481
  362SOL    HW2 1986   3.105   3.983   0.549
  363SOL     OW 1987   3.753   4.979   4.124
  363SOL    HW1 1988   3.705   4.959   4.038
  363SOL    HW2 1989   3.835   4.923   4.130
  364SOL     OW 1990   0.575   5.512   5.792
  364SOL    HW1 1991   0.586   5.488   5.696
  364SOL    HW2 1992   0.650   5.572   5.821
  365SOL     OW 1993   4.983   5.858   2.857
  365SOL    HW1 1994   4.986   5.920   2.779
  365SOL    HW2 1995   5.001   5.909   2.941
  366SOL     OW 1996   5.975   1.273   6.738
  366SOL    HW1 1997   6.033   1.202   6.778
  366SOL    HW2 1998   5.904   1.299   6.803
  367SOL     OW 1999   4.980   3.082   0.540
  367SOL    HW1 2000   4.884   3.055   0.546
  367SOL    HW2 2001   5.032   3.011   0.491
  368SOL     OW 2002   1.353   4.883   4.765
  368SOL    HW1 2003   1.397   4.802   4.805
  368SOL    HW2 2004   1.254   4.871   4.768
  369SOL     OW 2005   6.084   4.306   1.643
  369SOL    HW1 2006   6.023   4.282   1.718
  369SOL    HW2 2007   6.179   4.294   1.671
  370SOL     OW 2008   2.478   0.587   5.473
  370SOL    HW1 2009   2.495   0.572   5.570
  370SOL    HW2 2010   2.553   0.640   5.434
  371SOL     OW 2011   2.362   3.687   6.709
  371SOL    HW1 2012   2.390   3.596   6.679
  371SOL    HW2 2013   2.380   3.754   6.637
  372SOL     OW 2014   0.068   0.351   4.966
  372SOL    HW1 2015   0.050   0.394   4.877
  372SOL    HW2 2016   7.005   0.327   5.009
  373SOL     OW 2017   0.140   6.400   6.641
  373SOL    HW1 2018   0.117   6.487   6.598
  373SOL    HW2 2019   0.078   6.382   6.717
  374SOL     OW 2020   4.032   0.159   2.679
  374SOL    HW1 2021   3.987   0.238   2.638
  374SOL    HW2 2022   3.964   0.105   2.729
  375SOL     OW 2023   6.722   4.762   4.283
  375SOL    HW1 2024   6.779   4.695   4.235
  375SOL    HW2 2025   6.628   4.728   4.287
  376SOL     OW 2026   1.683   2.973   3.984
  376SOL    HW1 2027   1.657   3.012   3.896
  376SOL    HW2 2028   1.752   3.031   4.028
  377SOL     OW 2029   5.333   2.147   2.768
  377SOL    HW1 2030   5.430   2.170   2.775
  377SOL    HW2 2031   5.289   2.167   2.856
  378SOL     OW 2032   4.239   3.348   5.487
  378SOL    HW1 2033   4.242   3.248   5.481
  378SOL    HW2 2034   4.144   3.378   5.498
  379SOL     OW 2035   6.152   3.524   0.921
  379SOL    HW1 2036   6.229   3.462   0.906
  379SOL    HW2 2037   6.087   3.515   0.845
  380SOL     OW 2038   1.362   1.926   1.074
  380SOL    HW1 2039   1.289   1.928   1.005
  380SOL    HW2 2040   1.376   1.832   1.105
  381SOL     OW 2041   2.407   4.845   1.889
  381SOL    HW1 2042   2.494   4.894   1.899
  381SOL    HW2 2043   2.419   4.768   1.827
  382SOL     OW 2044   3.291   6.219   0.640
  382SOL    HW1 2045   3.223   6.238   0.569
  382SOL    HW2 2046   3.309   6.121   0.644
  383SOL     OW 2047   6.488   2.735   6.571
  383SOL    HW1 2048   6.567   2.675   6.568
  383SOL    HW2 2049   6.512   2.821   6.616
  384SOL     OW 2050   0.602   5.450   5.533
  384SOL    HW1 2051   0.664   5.425   5.459
  384SOL    HW2 2052   0.531   5.512   5.498
  385SOL     OW 2053   4.773   6.187   0.546
  385SOL    HW1 2054   4.694   6.180   0.485
  385SOL    HW2 2055   4.845   6.240   0.501
  386SOL     OW 2056   3.802   6.673   5.099
  386SOL    HW1 2057   3.868   6.681   5.173
  386SOL    HW2 2058   3.728   6.738   5.113
  387SOL     OW 2059   6.948   0.149   4.244
  387SOL    HW1 2060   0.022   0.143   4.222
  387SOL    HW2 2061   6.916   0.061   4.278
  388SOL     OW 2062   6.952   2.859   5.415
  388SOL    HW1 2063   6.861   2.818   5.420
  388SOL    HW2 2064   6.943   2.958   5.406
  389SOL     OW 2065   4.274   4.280   1.690
  389SOL    HW1 2066   4.221   4.197   1.678
  389SOL    HW2 2067   4.347   4.265   1.756
  390SOL     OW 2068   3.801   1.225   0.595
  390SOL    HW1 2069   3.867   1.274   0.538
  390SOL    HW2 2070   3.740   1.290   0.640
  391SOL     OW 2071   2.578   3.918   6.077
  391SOL    HW1 2072   2.547   3.921   5.982
  391SOL    HW2 2073   2.561   3.827   6.115
  392SOL     OW 2074   1.199   4.103   2.501
  392SOL    HW1 2075   1.195   4.178   2.434
  392SOL    HW2 2076   1.156   4.132   2.586
  393SOL     OW 2077   0.805   4.626   1.053
  393SOL    HW1 2078   0.706   4.628   1.064
  393SOL    HW2 2079   0.848   4.616   1.143
  394SOL     OW 2080   6.855   2.611   6.932
  394SOL    HW1 2081   6.813   2.653   7.012
  394SOL    HW2 2082   6.944   2.654   6.915
  395SOL     OW 2083   4.722   4.301   1.736
  395SOL    HW1 2084   4.626   4.280   1.754
  395SOL    HW2 2085   4.767   4.327   1.821
  396SOL     OW 2086   3.232   2.103   2.120
  396SOL    HW1 2087   3.224   2.109   2.020
  396SOL    HW2 2088   3.144   2.124   2.162
  397SOL     OW 2089   4.546   1.068   5.175
  397SOL    HW1 2090   4.498   1.038   5.092
  397SOL    HW2 2091   4.644   1.053   5.164
  398SOL     OW 2092   1.361   0.277   4.493
  398SOL    HW1 2093   1.297   0.215   4.539
  398SOL    HW2 2094   1.328   0.297   4.401
  399SOL     OW 2095   5.301   5.226   3.951
  399SOL    HW1 2096   5.217   5.189   3.990
  399SOL    HW2 2097   5.284   5.257   3.857
  400SOL     OW 2098   6.135   0.630   4.478
  400SOL    HW1 2099   6.085   0.570   4.416
  400SOL    HW2 2100   6.231   0.633   4.452
  401SOL     OW 2101   6.410   0.058   5.565
  401SOL    HW1 2102   6.463   0.102   5.638
  401SOL    HW2 2103   6.421   0.109   5.480
  402SOL     OW 2104   6.133   0.130   2.733
  402SOL    HW1 2105   6.054   0.098   2.680
  402SOL    HW2 2106   6.208   0.064   2.724
  403SOL     OW 2107   2.822   0.662   6.437
  403SOL    HW1 2108   2.783   0.588   6.382
  403SOL    HW2 2109   2.786   0.656   6.530
  404SOL     OW 2110   3.658   6.165   5.854
  404SOL    HW1 2111   3.602   6.094   5.896
  404SOL    HW2 2112   3.717   6.207   5.923
  405SOL     OW 2113   1.838   3.930   3.882
  405SOL    HW1 2114   1.756   3.972   3.844
  405SOL    HW2 2115   1.832   3.830   3.876
  406SOL     OW 2116   0.907   5.395   5.771
  406SOL    HW1 2117   0.873   5.425   5.681
  406SOL    HW2 2118   0.901   5.295   5.776
  407SOL     OW 2119   1.170   3.179   4.039
  407SOL    HW1 2120   1.106   3.111   4.074
  407SOL    HW2 2121   1.264   3.147   4.051
  408SOL     OW 2122   3.423   1.544   3.146
  408SOL    HW1 2123   3.347   1.533   3.083
  408SOL    HW2 2124   3.508   1.511   3.104
  409SOL     OW 2125   1.290   4.181   2.883
  409SOL    HW1 2126   1.363   4.227   2.831
  409SOL    HW2 2127   1.237   4.124   2.822
  410SOL     OW 2128   1.524   2.482   1.185
  410SOL    HW1 2129   1.431   2.467   1.152
  410SOL    HW2 2130   1.585   2.415   1.144
  411SOL     OW 2131   0.233   2.018   1.667
  411SOL    HW1 2132   0.216   1.946   1.735
  411SOL    HW2 2133   0.242   2.106   1.714
  412SOL     OW 2134   2.726   4.968   2.913
  412SOL    HW1 2135   2.632   4.942   2.892
  412SOL    HW2 2136   2.728   5.065   2.940
  413SOL     OW 2137   4.069   4.936   2.462
  413SOL    HW1 2138   4.064   4.881   2.379
  413SOL    HW2 2139   4.058   4.877   2.542
  414SOL     OW 2140   2.677   6.840   4.015
  414SOL    HW1 2141   2.725   6.889   3.942
  414SOL    HW2 2142   2.713   6.869   4.104
  415SOL     OW 2143   6.489   0.693   0.770
  415SOL    HW1 2144   6.449   0.661   0.684
  415SOL    HW2 2145   6.450   0.782   0.794
  416SOL     OW 2146   5.258   3.612   4.942
  416SOL    HW1 2147   5.179   3.617   5.004
  416SOL    HW2 2148   5.341   3.638   4.991
  417SOL     OW 2149   3.461   2.605   6.693
  417SOL    HW1 2150   3.451   2.505   6.697
  417SOL    HW2 2151   3.558   2.628   6.682
  418SOL     OW 2152   3.641   6.701   4.402
  418SOL    HW1 2153   3.611   6.661   4.315
  418SOL    HW2 2154   3.642   6.800   4.395
  419SOL     OW 2155   0.898   6.992   1.907
  419SOL    HW1 2156   0.870   0.064   1.901
  419SOL    HW2 2157   0.979   6.984   1.965
  420SOL     OW 2158   5.739   0.436   6.346
  420SOL    HW1 2159   5.755   0.338   6.332
  420SOL    HW2 2160   5.825   0.485   6.330
  421SOL     OW 2161   5.213   4.276   3.880
  421SOL    HW1 2162   5.144   4.212   3.844
  421SOL    HW2 2163   5.204   4.283   3.979
  422SOL     OW 2164   5.276   2.721   1.391
  422SOL    HW1 2165   5.252   2.795   1.328
  422SOL    HW2 2166   5.346   2.663   1.350
  423SOL     OW 2167   2.887   1.265   6.359
  423SOL    HW1 2168   2.964   1.271   6.295
  423SOL    HW2 2169   2.801   1.276   6.309
  424SOL     OW 2170   1.574   4.614   3.164
  424SOL    HW1 2171   1.484   4.631   3.202
  424SOL    HW2 2172   1.569   4.541   3.096
  425SOL     OW 2173   3.522   0.716   5.411
  425SOL    HW1 2174   3.478   0.729   5.500
  425SOL    HW2 2175   3.619   0.699   5.423
  426SOL     OW 2176   2.605   2.465   4.689
  426SOL    HW1 2177   2.617   2.563   4.708
  426SOL    HW2 2178   2.569   2.419   4.770
  427SOL     OW 2179   4.242   1.730   3.192
  427SOL    HW1 2180   4.312   1.683   3.138
  427SOL    HW2 2181   4.286   1.800   3.248
  428SOL     OW 2182   2.685   1.179   4.923
  428SOL    HW1 2183   2.679   1.140   4.831
  428SOL    HW2 2184   2.647   1.272   4.921
  429SOL     OW 2185   1.105   6.183   3.624
  429SOL    HW1 2186   1.071   6.116   3.558
  429SOL    HW2 2187   1.202   6.166   3.642
  430SOL     OW 2188   1.877   6.783   3.581
  430SOL    HW1 2189   1.873   6.850   3.655
  430SOL    HW2 2190   1.920   6.699   3.615
  431SOL     OW 2191   2.452   2.225   1.797
  431SOL    HW1 2192   2.360   2.259   1.776
  431SOL    HW2 2193   2.499   2.203   1.712
  432SOL     OW 2194   4.235   1.934   1.532
  432SOL    HW1 2195   4.168   1.978   1.591
  432SOL    HW2 2196   4.281   2.003   1.476
  433SOL     OW 2197   2.251   6.754   6.623
  433SOL    HW1 2198   2.184   6.821   6.592
  433SOL    HW2 2199   2.258   6.756   6.723
  434SOL     OW 2200   4.514   6.429   3.944
  434SOL    HW1 2201   4.561   6.456   4.028
  434SOL    HW2 2202   4.457   6.349   3.962
  435SOL     OW 2203   3.164   1.610   6.368
  435SOL    HW1 2204   3.212   1.691   6.402
  435SOL    HW2 2205   3.149   1.547   6.444
  436SOL     OW 2206   4.163   7.005   3.381
  436SOL    HW1 2207   4.247   0.035   3.385
  436SOL    HW2 2208   4.183   6.910   3.404
  437SOL     OW 2209   0.499   0.113   4.293
  437SOL    HW1 2210   0.449   0.165   4.362
  437SOL    HW2 2211   0.471   0.144   4.202
  438SOL     OW 2212   1.035   4.567   2.738
  438SOL    HW1 2213   1.106   4.557   2.808
  438SOL    HW2 2214   1.036   4.488   2.677
  439SOL     OW 2215   5.573   0.739   3.096
  439SOL    HW1 2216   5.561   0.814   3.031
  439SOL    HW2 2217   5.581   0.653   3.046
  440SOL     OW 2218   4.332   0.936   6.911
  440SOL    HW1 2219   4.410   0.924   6.850
  440SOL    HW2 2220   4.248   0.939   6.857
  441SOL     OW 2221   0.171   4.577   2.532
  441SOL    HW1 2222   0.083   4.565   2.488
  441SOL    HW2 2223   0.171   4.662   2.585
  442SOL     OW 2224   5.525   3.602   5.576
  442SOL    HW1 2225   5.468   3.627   5.498
  442SOL    HW2 2226   5.507   3.507   5.602
  443SOL     OW 2227   4.736   4.098   3.084
  443SOL    HW1 2228   4.819   4.151   3.103
  443SOL    HW2 2229   4.762   4.007   3.051
  444SOL     OW 2230   4.458   1.139   1.219
  444SOL    HW1 2231   4.422   1.219   1.172
  444SOL    HW2 2232   4.406   1.123   1.303
  445SOL     OW 2233   1.943   5.007   2.379
  445SOL    HW1 2234   1.988   4.942   2.317
  445SOL    HW2 2235   1.876   4.958   2.435
  446SOL     OW 2236   5.819   6.671   2.330
  446SOL    HW1 2237   5.860   6.718   2.408
  446SOL    HW2 2238   5.732   6.714   2.307
  447SOL     OW 2239   5.908   3.761   6.796
  447SOL    HW1 2240   5.883   3.788   6.889
  447SOL    HW2 2241   5.975   3.686   6.800
  448SOL     OW 2242   2.801   0.746   3.209
  448SOL    HW1 2243   2.727   0.699   3.161
  448SOL    HW2 2244   2.889   0.715   3.172
  449SOL     OW 2245   1.921   2.573   4.537
  449SOL    HW1 2246   1.930   2.579   4.437
  449SOL    HW2 2247   1.951   2.659   4.579
  450SOL     OW 2248   0.720   4.007   3.321
  450SOL    HW1 2249   0.788   4.003   3.249
  450SOL    HW2 2250   0.744   4.079   3.386
  451SOL     OW 2251   0.868   2.439   2.973
  451SOL    HW1 2252   0.807   2.392   2.910
  451SOL    HW2 2253   0.815   2.478   3.048
  452SOL     OW 2254   4.254   6.761   3.470
  452SOL    HW1 2255   4.248   6.666   3.441
  452SOL    HW2 2256   4.231   6.768   3.567
  453SOL     OW 2257   4.074   0.125   0.173
  453SOL    HW1 2258   4.080   0.144   0.075
  453SOL    HW2 2259   3.978   0.108   0.197
  454SOL     OW 2260   0.099   4.492   6.396
  454SOL    HW1 2261   0.023   4.427   6.395
  454SOL    HW2 2262   0.068   4.580   6.429
  455SOL     OW 2263   6.570   4.791   5.973
  455SOL    HW1 2264   6.591   4.815   6.068
  455SOL    HW2 2265   6.656   4.784   5.921
  456SOL     OW 2266   2.606   1.249   2.933
  456SOL    HW1 2267   2.506   1.257   2.936
  456SOL    HW2 2268   2.644   1.325   2.880
  457SOL     OW 2269   2.307   6.718   6.139
  457SOL    HW1 2270   2.398   6.692   6.107
  457SOL    HW2 2271   2.313   6.801   6.195
  458SOL     OW 2272   2.012   1.798   3.035
  458SOL    HW1 2273   2.105   1.770   3.012
  458SOL    HW2 2274   2.012   1.847   3.122
  459SOL     OW 2275   2.628   0.025   4.916
  459SOL    HW1 2276   2.593   7.007   4.832
  459SOL    HW2 2277   2.585   0.115   4.930
  460SOL     OW 2278   1.227   1.564   4.875
  460SOL    HW1 2279   1.172   1.604   4.802
  460SOL    HW2 2280   1.315   1.533   4.837
  461SOL     OW 2281   1.066   4.961   5.687
  461SOL    HW1 2282   1.096   5.022   5.760
  461SOL    HW2 2283   1.105   4.992   5.600
  462SOL     OW 2284   3.068   4.000   4.524
  462SOL    HW1 2285   3.034   3.922   4.472
  462SOL    HW2 2286   3.036   3.995   4.618
  463SOL     OW 2287   6.029   6.583   2.121
  463SOL    HW1 2288   6.033   6.490   2.084
  463SOL    HW2 2289   5.952   6.590   2.185
  464SOL     OW 2290   3.498   6.051   6.610
  464SOL    HW1 2291   3.535   6.115   6.542
  464SOL    HW2 2292   3.561   5.974   6.621
  465SOL     OW 2293   1.748   2.598   0.382
  465SOL    HW1 2294   1.724   2.507   0.416
  465SOL    HW2 2295   1.797   2.589   0.295
  466SOL     OW 2296   3.729   5.752   4.763
  466SOL    HW1 2297   3.673   5.786   4.687
  466SOL    HW2 2298   3.707   5.656   4.780
  467SOL     OW 2299   6.601   0.953   2.376
  467SOL    HW1 2300   6.535   0.997   2.438
  467SOL    HW2 2301   6.688   0.941   2.424
  468SOL     OW 2302   4.003   6.693   6.731
  468SOL    HW1 2303   4.084   6.668   6.678
  468SOL    HW2 2304   4.028   6.761   6.800
  469SOL     OW 2305   2.636   5.194   5.876
  469SOL    HW1 2306   2.735   5.182   5.874
  469SOL    HW2 2307   2.612   5.260   5.947
  470SOL     OW 2308   2.426   5.186   2.918
  470SOL    HW1 2309   2.373   5.142   2.845
  470SOL    HW2 2310   2.515   5.214   2.882
  471SOL     OW 2311   2.844   2.343   4.222
  471SOL    HW1 2312   2.781   2.374   4.151
  471SOL    HW2 2313   2.801   2.353   4.312
  472SOL     OW 2314   6.321   4.258   6.045
  472SOL    HW1 2315   6.371   4.180   6.081
  472SOL    HW2 2316   6.328   4.260   5.946
  473SOL     OW 2317   6.732   2.142   2.533
  473SOL    HW1 2318   6.677   2.208   2.483
  473SOL    HW2 2319   6.825   2.140   2.496
  474SOL     OW 2320   5.306   5.918   4.558
  474SOL    HW1 2321   5.400   5.901   4.587
  474SOL    HW2 2322   5.249   5.840   4.583
  475SOL     OW 2323   6.049   1.258   1.163
  475SOL    HW1 2324   6.024   1.293   1.073
  475SOL    HW2 2325   6.034   1.159   1.166
  476SOL     OW 2326   0.672   4.364   1.645
  476SOL    HW1 2327   0.759   4.321   1.617
  476SOL    HW2 2328   0.670   4.459   1.613
  477SOL     OW 2329   1.558   4.640   3.956
  477SOL    HW1 2330   1.609   4.564   3.996
  477SOL    HW2 2331   1.620   4.700   3.906
  478SOL     OW 2332   4.585   5.893   2.013
  478SOL    HW1 2333   4.509   5.894   2.078
  478SOL    HW2 2334   4.574   5.817   1.949
  479SOL     OW 2335   4.019   3.938   4.034
  479SOL    HW1 2336   3.943   3.900   4.087
  479SOL    HW2 2337   4.070   4.003   4.091
  480SOL     OW 2338   1.950   0.041   2.747
  480SOL    HW1 2339   1.998   0.077   2.827
  480SOL    HW2 2340   1.966   0.101   2.669
  481SOL     OW 2341   0.425   0.018   0.905
  481SOL    HW1 2342   0.463   0.003   0.996
  481SOL    HW2 2343   0.486   0.076   0.852
  482SOL     OW 2344   5.021   4.883   1.630
  482SOL    HW1 2345   5.014   4.789   1.597
  482SOL    HW2 2346   5.089   4.932   1.575
  483SOL     OW 2347   5.951   2.075   3.285
  483SOL    HW1 2348   5.945   2.162   3.235
  483SOL    HW2 2349   6.014   2.086   3.362
  484SOL     OW 2350   2.220   4.134   4.116
  484SOL    HW1 2351   2.258   4.088   4.036
  484SOL    HW2 2352   2.120   4.126   4.114
  485SOL     OW 2353   5.427   3.161   2.193
  485SOL    HW1 2354   5.330   3.135   2.189
  485SOL    HW2 2355   5.474   3.126   2.112
  486SOL     OW 2356   6.217   6.453   6.137
  486SOL    HW1 2357   6.221   6.397   6.055
  486SOL    HW2 2358   6.299   6.510   6.143
  487SOL     OW 2359   6.951   6.480   4.613
  487SOL    HW1 2360   6.865   6.465   4.564
  487SOL    HW2 2361   7.004   6.551   4.566
  488SOL     OW 2362   1.526   6.309   3.698
  488SOL    HW1 2363   1.468   6.228   3.712
  488SOL    HW2 2364   1.621   6.286   3.718
  489SOL     OW 2365   0.082   6.040   6.242
  489SOL    HW1 2366   0.019   6.007   6.171
  489SOL    HW2 2367   0.052   6.006   6.331
  490SOL     OW 2368   1.401   4.896   5.676
  490SOL    HW1 2369   1.344   4.827   5.720
  490SOL    HW2 2370   1.474   4.852   5.624
  491SOL     OW 2371   0.476   2.765   1.444
  491SOL    HW1 2372   0.447   2.680   1.488
  491SOL    HW2 2373   0.481   2.838   1.512
  492SOL     OW 2374   1.492   2.010   5.807
  492SOL    HW1 2375   1.403   2.048   5.780
  492SOL    HW2 2376   1.510   1.927   5.754
  493SOL     OW 2377   2.510   5.971   4.826
  493SOL    HW1 2378   2.496   5.890   4.769
  493SOL    HW2 2379   2.608   5.986   4.841
  494SOL     OW 2380   2.325   6.637   5.307
  494SOL    HW1 2381   2.258   6.656   5.236
  494SOL    HW2 2382   2.282   6.644   5.397
  495SOL     OW 2383   3.538   5.562   5.803
  495SOL    HW1 2384   3.540   5.661   5.793
  495SOL    HW2 2385   3.531   5.519   5.713
  496SOL     OW 2386   4.868   1.571   2.682
  496SOL    HW1 2387   4.942   1.515   2.719
  496SOL    HW2 2388   4.809   1.602   2.756
  497SOL     OW 2389   3.309   0.895   6.705
  497SOL    HW1 2390   3.233   0.933   6.758
  497SOL    HW2 2391   3.395   0.940   6.734
  498SOL     OW 2392   0.377   5.631   1.892
  498SOL    HW1 2393   0.396   5.726   1.917
  498SOL    HW2 2394   0.300   5.628   1.829
  499SOL     OW 2395   3.436   5.975   0.274
  499SOL    HW1 2396   3.415   6.064   0.232
  499SOL    HW2 2397   3.383   5.965   0.358
  500SOL     OW 2398   5.842   2.193   0.112
  500SOL    HW1 2399   5.795   2.126   0.055
  500SOL    HW2 2400   5.781   2.271   0.128
  501SOL     OW 2401   1.191   0.097   2.933
  501SOL    HW1 2402   1.166   0.066   3.024
  501SOL    HW2 2403   1.235   0.022   2.883
  502SOL     OW 2404   2.061   5.068   6.763
  502SOL    HW1 2405   2.008   5.144   6.724
  502SOL    HW2 2406   2.005   4.985   6.762
  503SOL     OW 2407   3.477   5.283   0.075
  503SOL    HW1 2408   3.406   5.228   0.032
  503SOL    HW2 2409   3.512   5.235   0.156
  504SOL     OW 2410   5.784   6.530   1.825
  504SOL    HW1 2411   5.811   6.595   1.754
  504SOL    HW2 2412   5.800   6.437   1.793
  505SOL     OW 2413   5.216   6.841   5.255
  505SOL    HW1 2414   5.291   6.903   5.229
  505SOL    HW2 2415   5.166   6.813   5.173
  506SOL     OW 2416   4.073   5.344   2.697
  506SOL    HW1 2417   4.131   5.325   2.618
  506SOL    HW2 2418   3.997   5.280   2.698
  507SOL     OW 2419   3.502   0.896   1.224
  507SOL    HW1 2420   3.467   0.807   1.253
  507SOL    HW2 2421   3.583   0.884   1.167
  508SOL     OW 2422   0.100   4.757   4.375
  508SOL    HW1 2423   0.198   4.743   4.358
  508SOL    HW2 2424   0.052   4.767   4.288
  509SOL     OW 2425   4.863   6.271   6.381
  509SOL    HW1 2426   4.863   6.322   6.467
  509SOL    HW2 2427   4.906   6.327   6.309
  510SOL     OW 2428   6.792   4.465   0.000
  510SOL    HW1 2429   6.694   4.482   0.011
  510SOL    HW2 2430   6.807   4.395   6.954
  511SOL     OW 2431   1.160   1.949   0.673
  511SOL    HW1 2432   1.092   2.023   0.673
  511SOL    HW2 2433   1.219   1.958   0.592
  512SOL     OW 2434   6.572   2.337   6.452
  512SOL    HW1 2435   6.619   2.410   6.401
  512SOL    HW2 2436   6.494   2.305   6.399
  513SOL     OW 2437   5.169   0.231   2.897
  513SOL    HW1 2438   5.128   0.144   2.872
  513SOL    HW2 2439   5.241   0.216   2.966
  514SOL     OW 2440   6.274   6.793   4.280
  514SOL    HW1 2441   6.301   6.867   4.218
  514SOL    HW2 2442   6.263   6.829   4.373
  515SOL     OW 2443   3.500   6.768   6.694
  515SOL    HW1 2444   3.492   6.756   6.595
  515SOL    HW2 2445   3.448   6.696   6.741
  516SOL     OW 2446   2.209   5.450   1.410
  516SOL    HW1 2447   2.247   5.517   1.345
  516SOL    HW2 2448   2.273   5.438   1.486
  517SOL     OW 2449   3.172   4.933   2.335
  517SOL    HW1 2450   3.262   4.930   2.380
  517SOL    HW2 2451   3.169   4.865   2.262
  518SOL     OW 2452   2.119   3.284   3.539
  518SOL    HW1 2453   2.186   3.211   3.526
  518SOL    HW2 2454   2.099   3.295   3.636
  519SOL     OW 2455   0.437   6.907   3.385
  519SOL    HW1 2456   0.412   6.810   3.389
  519SOL    HW2 2457   0.536   6.917   3.381
  520SOL     OW 2458   1.519   3.005   0.382
  520SOL    HW1 2459   1.601   3.059   0.364
  520SOL    HW2 2460   1.534   2.946   0.461
  521SOL     OW 2461   5.649   4.962   5.530
  521SOL    HW1 2462   5.630   4.875   5.484
  521SOL    HW2 2463   5.682   5.029   5.464
  522SOL     OW 2464   4.387   3.728   1.326
  522SOL    HW1 2465   4.469   3.721   1.382
  522SOL    HW2 2466   4.348   3.820   1.336
  523SOL     OW 2467   0.646   6.440   1.703
  523SOL    HW1 2468   0.727   6.385   1.720
  523SOL    HW2 2469   0.655   6.487   1.615
  524SOL     OW 2470   6.732   2.264   2.006
  524SOL    HW1 2471   6.756   2.361   2.010
  524SOL    HW2 2472   6.721   2.237   1.910
  525SOL     OW 2473   1.411   3.956   6.573
  525SOL    HW1 2474   1.327   3.935   6.522
  525SOL    HW2 2475   1.488   3.963   6.510
  526SOL     OW 2476   3.123   7.021   4.596
  526SOL    HW1 2477   3.049   0.045   4.643
  526SOL    HW2 2478   3.108   6.922   4.602
  527SOL     OW 2479   0.969   2.056   0.368
  527SOL    HW1 2480   0.919   2.038   0.283
  527SOL    HW2 2481   0.920   2.014   0.445
  528SOL     OW 2482   6.772   2.981   4.156
  528SOL    HW1 2483   6.696   3.000   4.219
  528SOL    HW2 2484   6.850   2.945   4.207
  529SOL     OW 2485   2.048   0.347   5.767
  529SOL    HW1 2486   1.996   0.262   5.771
  529SOL    HW2 2487   2.114   0.342   5.692
  530SOL     OW 2488   3.499   3.604   1.011
  530SOL    HW1 2489   3.401   3.588   0.996
  530SOL    HW2 2490   3.516   3.615   1.109
  531SOL     OW 2491   2.005   0.709   2.358
  531SOL    HW1 2492   2.047   0.653   2.287
  531SOL    HW2 2493   2.064   0.787   2.379
  532SOL     OW 2494   2.973   2.619   0.434
  532SOL    HW1 2495   3.046   2.568   0.388
  532SOL    HW2 2496   2.912   2.555   0.480
  533SOL     OW 2497   4.058   0.224   3.704
  533SOL    HW1 2498   4.009   0.149   3.749
  533SOL    HW2 2499   4.010   0.249   3.619
  534SOL     OW 2500   0.808   5.517   1.299
  534SOL    HW1 2501   0.747   5.579   1.250
  534SOL    HW2 2502   0.866   5.468   1.234
  535SOL     OW 2503   5.212   3.782   3.110
  535SOL    HW1 2504   5.203   3.832   3.196
  535SOL    HW2 2505   5.140   3.713   3.103
  536SOL     OW 2506   6.476   6.128   3.043
  536SOL    HW1 2507   6.553   6.191   3.050
  536SOL    HW2 2508   6.410   6.149   3.115
  537SOL     OW 2509   3.067   0.917   4.272
  537SOL    HW1 2510   3.131   0.912   4.349
  537SOL    HW2 2511   3.105   0.870   4.193
  538SOL     OW 2512   2.139   5.042   5.516
  538SOL    HW1 2513   2.068   5.089   5.465
  538SOL    HW2 2514   2.137   5.071   5.612
  539SOL     OW 2515   0.792   6.199   0.394
  539SOL    HW1 2516   0.769   6.293   0.420
  539SOL    HW2 2517   0.722   6.137   0.430
  540SOL     OW 2518   1.317   0.398   3.722
  540SOL    HW1 2519   1.254   0.475   3.716
  540SOL    HW2 2520   1.399   0.426   3.771
  541SOL     OW 2521   4.073   6.296   4.625
  541SOL    HW1 2522   4.064   6.222   4.692
  541SOL    HW2 2523   4.109   6.259   4.540
  542SOL     OW 2524   2.722   6.621   6.753
  542SOL    HW1 2525   2.714   6.577   6.664
  542SOL    HW2 2526   2.762   6.557   6.819
  543SOL     OW 2527   5.156   2.749   4.287
  543SOL    HW1 2528   5.082   2.815   4.300
  543SOL    HW2 2529   5.234   2.794   4.245
  544SOL     OW 2530   0.642   4.642   0.455
  544SOL    HW1 2531   0.589   4.724   0.474
  544SOL    HW2 2532   0.674   4.601   0.540
  545SOL     OW 2533   5.209   1.091   1.636
  545SOL    HW1 2534   5.199   1.085   1.537
  545SOL    HW2 2535   5.149   1.163   1.671
  546SOL     OW 2536   0.327   4.282   2.413
  546SOL    HW1 2537   0.291   4.271   2.505
  546SOL    HW2 2538   0.386   4.205   2.390
  547SOL     OW 2539   4.419   1.221   6.920
  547SOL    HW1 2540   4.501   1.228   6.976
  547SOL    HW2 2541   4.397   1.124   6.906
  548SOL     OW 2542   3.707   2.950   0.013
  548SOL    HW1 2543   3.670   2.955   6.944
  548SOL    HW2 2544   3.681   2.863   0.055
  549SOL     OW 2545   6.430   2.052   0.459
  549SOL    HW1 2546   6.476   2.108   0.389
  549SOL    HW2 2547   6.497   2.023   0.527
  550SOL     OW 2548   0.056   4.546   2.908
  550SOL    HW1 2549   0.133   4.502   2.863
  550SOL    HW2 2550   0.086   4.587   2.994
  551SOL     OW 2551   6.866   0.779   0.305
  551SOL    HW1 2552   6.828   0.864   0.270
  551SOL    HW2 2553   6.838   0.766   0.401
  552SOL     OW 2554   5.629   5.753   5.631
  552SOL    HW1 2555   5.551   5.696   5.608
  552SOL    HW2 2556   5.601   5.849   5.630
  553SOL     OW 2557   3.194   1.426   5.874
  553SOL    HW1 2558   3.219   1.501   5.813
  553SOL    HW2 2559   3.230   1.340   5.837
  554SOL     OW 2560   5.898   5.903   0.642
  554SOL    HW1 2561   5.867   5.830   0.581
  554SOL    HW2 2562   5.820   5.940   0.692
  555SOL     OW 2563   2.392   5.384   5.431
  555SOL    HW1 2564   2.458   5.437   5.378
  555SOL    HW2 2565   2.438   5.304   5.470
  556SOL     OW 2566   4.648   1.999   4.070
  556SOL    HW1 2567   4.588   1.920   4.082
  556SOL    HW2 2568   4.739   1.978   4.105
  557SOL     OW 2569   6.908   5.025   5.742
  557SOL    HW1 2570   6.880   5.055   5.651
  557SOL    HW2 2571   7.001   5.057   5.761
  558SOL     OW 2572   3.647   3.387   2.649
  558SOL    HW1 2573   3.625   3.410   2.744
  558SOL    HW2 2574   3.589   3.312   2.619
  559SOL     OW 2575   6.289   6.368   5.509
  559SOL    HW1 2576   6.308   6.355   5.412
  559SOL    HW2 2577   6.191   6.389   5.521
  560SOL     OW 2578   6.480   3.003   2.889
  560SOL    HW1 2579   6.392   2.994   2.935
  560SOL    HW2 2580   6.528   2.914   2.891
  561SOL     OW 2581   0.330   3.114   6.086
  561SOL    HW1 2582   0.391   3.046   6.046
  561SOL    HW2 2583   0.245   3.070   6.115
  562SOL     OW 2584   4.503   0.286   5.571
  562SOL    HW1 2585   4.502   0.331   5.660
  562SOL    HW2 2586   4.434   0.214   5.569
  563SOL     OW 2587   1.452   1.789   4.389
  563SOL    HW1 2588   1.464   1.877   4.435
  563SOL    HW2 2589   1.484   1.796   4.295
  564SOL     OW 2590   0.400   1.558   5.850
  564SOL    HW1 2591   0.413   1.590   5.756
  564SOL    HW2 2592   0.489   1.548   5.894
  565SOL     OW 2593   3.440   3.000   3.511
  565SOL    HW1 2594   3.354   2.971   3.553
  565SOL    HW2 2595   3.421   3.067   3.440
  566SOL     OW 2596   3.508   5.500   2.946
  566SOL    HW1 2597   3.430   5.490   3.008
  566SOL    HW2 2598   3.534   5.597   2.941
  567SOL     OW 2599   2.362   2.530   6.681
  567SOL    HW1 2600   2.353   2.623   6.645
  567SOL    HW2 2601   2.455   2.497   6.664
  568SOL     OW 2602   6.252   6.958   0.541
  568SOL    HW1 2603   6.173   6.935   0.484
  568SOL    HW2 2604   6.258   6.894   0.617
  569SOL     OW 2605   0.391   2.379   0.301
  569SOL    HW1 2606   0.429   2.298   0.257
  569SOL    HW2 2607   0.439   2.460   0.269
  570SOL     OW 2608   2.710   0.424   6.391
  570SOL    HW1 2609   2.625   0.415   6.443
  570SOL    HW2 2610   2.780   0.364   6.431
  571SOL     OW 2611   2.756   4.745   2.748
  571SOL    HW1 2612   2.792   4.760   2.840
  571SOL    HW2 2613   2.661   4.776   2.744
  572SOL     OW 2614   1.885   6.254   4.231
  572SOL    HW1 2615   1.966   6.238   4.289
  572SOL    HW2 2616   1.912   6.248   4.135
  573SOL     OW 2617   6.086   2.341   5.667
  573SOL    HW1 2618   6.128   2.255   5.697
  573SOL    HW2 2619   5.994   2.348   5.706
  574SOL     OW 2620   2.764   1.649   5.184
  574SOL    HW1 2621   2.669   1.649   5.212
  574SOL    HW2 2622   2.787   1.736   5.140
  575SOL     OW 2623   3.423   3.354   0.206
  575SOL    HW1 2624   3.443   3.264   0.244
  575SOL    HW2 2625   3.418   3.421   0.279
  576SOL     OW 2626   2.101   3.516   3.049
  576SOL    HW1 2627   2.121   3.439   3.109
  576SOL    HW2 2628   2.004   3.538   3.053
  577SOL     OW 2629   1.337   1.641   2.279
  577SOL    HW1 2630   1.241   1.615   2.285
  577SOL    HW2 2631   1.364   1.649   2.183
  578SOL     OW 2632   1.892   5.086   0.094
  578SOL    HW1 2633   1.858   4.997   0.065
  578SOL    HW2 2634   1.992   5.084   0.099
  579SOL     OW 2635   2.631   4.637   2.480
  579SOL    HW1 2636   2.715   4.673   2.521
  579SOL    HW2 2637   2.643   4.629   2.381
  580SOL     OW 2638   4.226   5.679   4.931
  580SOL    HW1 2639   4.300   5.739   4.902
  580SOL    HW2 2640   4.138   5.715   4.898
  581SOL     OW 2641   1.013   2.966   3.863
  581SOL    HW1 2642   1.090   2.911   3.831
  581SOL    HW2 2643   0.962   2.915   3.932
  582SOL     OW 2644   5.634   5.236   3.300
  582SOL    HW1 2645   5.724   5.228   3.256
  582SOL    HW2 2646   5.591   5.322   3.272
  583SOL     OW 2647   3.216   5.102   6.206
  583SOL    HW1 2648   3.256   5.149   6.285
  583SOL    HW2 2649   3.230   5.157   6.124
  584SOL     OW 2650   3.719   0.090   6.548
  584SOL    HW1 2651   3.695   0.004   6.593
  584SOL    HW2 2652   3.722   0.076   6.449
  585SOL     OW 2653   2.179   6.594   1.503
  585SOL    HW1 2654   2.194   6.646   1.419
  585SOL    HW2 2655   2.147   6.656   1.575
  586SOL     OW 2656   4.422   0.301   1.636
  586SOL    HW1 2657   4.411   0.263   1.728
  586SOL    HW2 2658   4.510   0.271   1.599
  587SOL     OW 2659   5.312   2.290   1.966
  587SOL    HW1 2660   5.375   2.228   2.011
  587SOL    HW2 2661   5.218   2.273   1.998
  588SOL     OW 2662   1.287   5.553   1.417
  588SOL    HW1 2663   1.313   5.491   1.343
  588SOL    HW2 2664   1.360   5.620   1.432
  589SOL     OW 2665   3.461   5.804   1.572
  589SOL    HW1 2666   3.534   5.738   1.554
  589SOL    HW2 2667   3.475   5.847   1.661
  590SOL     OW 2668   5.927   1.236   0.765
  590SOL    HW1 2669   6.021   1.204   0.757
  590SOL    HW2 2670   5.924   1.320   0.819
  591SOL     OW 2671   3.991   5.142   4.472
  591SOL    HW1 2672   3.999   5.150   4.373
  591SOL    HW2 2673   3.955   5.052   4.496
  592SOL     OW 2674   4.905   1.290   4.370
  592SOL    HW1 2675   4.910   1.307   4.271
  592SOL    HW2 2676   4.976   1.341   4.417
  593SOL     OW 2677   3.847   2.017   5.652
  593SOL    HW1 2678   3.754   2.008   5.615
  593SOL    HW2 2679   3.850   2.094   5.715
  594SOL     OW 2680   5.667   1.782   1.492
  594SOL    HW1 2681   5.723   1.778   1.575
  594SOL    HW2 2682   5.708   1.845   1.427
  595SOL     OW 2683   5.204   5.973   2.500
  595SOL    HW1 2684   5.216   5.894   2.440
  595SOL    HW2 2685   5.291   6.020   2.512
  596SOL     OW 2686   6.966   3.812   4.015
  596SOL    HW1 2687   6.889   3.749   4.003
  596SOL    HW2 2688   0.014   3.767   4.068
  597SOL     OW 2689   3.071   6.591   6.010
  597SOL    HW1 2690   3.140   6.646   6.056
  597SOL    HW2 2691   3.109   6.552   5.926
  598SOL     OW 2692   3.039   3.904   4.925
  598SOL    HW1 2693   3.083   3.815   4.938
  598SOL    HW2 2694   2.956   3.909   4.980
  599SOL     OW 2695   1.407   5.875   1.795
  599SOL    HW1 2696   1.491   5.921   1.765
  599SOL    HW2 2697   1.348   5.941   1.840
  600SOL     OW 2698   6.982   4.202   4.785
  600SOL    HW1 2699   7.003   4.108   4.814
  600SOL    HW2 2700   7.006   4.266   4.858
  601SOL     OW 2701   0.977   0.996   4.897
  601SOL    HW1 2702   1.039   0.922   4.874
  601SOL    HW2 2703   1.023   1.084   4.882
  602SOL     OW 2704   2.505   6.318   4.966
  602SOL    HW1 2705   2.469   6.373   4.891
  602SOL    HW2 2706   2.517   6.224   4.935
  603SOL     OW 2707   1.509   1.113   4.938
  603SOL    HW1 2708   1.489   1.018   4.916
  603SOL    HW2 2709   1.568   1.152   4.867
  604SOL     OW 2710   0.058   2.328   2.031
  604SOL    HW1 2711   7.012   2.382   2.079
  604SOL    HW2 2712   0.014   2.260   1.973
  605SOL     OW 2713   0.127   4.354   1.927
  605SOL    HW1 2714   0.135   4.326   2.023
  605SOL    HW2 2715   0.219   4.370   1.890
  606SOL     OW 2716   3.974   0.035   4.970
  606SOL    HW1 2717   3.940   6.980   4.920
  606SOL    HW2 2718   4.070   0.020   4.995
  607SOL     OW 2719   1.502   5.055   6.089
  607SOL    HW1 2720   1.416   5.005   6.100
  607SOL    HW2 2721   1.500   5.104   6.002
  608SOL     OW 2722   4.183   0.079   6.153
  608SOL    HW1 2723   4.156   0.157   6.097
  608SOL    HW2 2724   4.277   0.052   6.130
  609SOL     OW 2725   3.894   2.228   1.500
  609SOL    HW1 2726   3.884   2.283   1.583
  609SOL    HW2 2727   3.804   2.200   1.467
  610SOL     OW 2728   4.723   2.496   0.236
  610SOL    HW1 2729   4.707   2.595   0.237
  610SOL    HW2 2730   4.797   2.475   0.301
  611SOL     OW 2731   4.094   0.104   2.116
  611SOL    HW1 2732   4.052   0.015   2.097
  611SOL    HW2 2733   4.025   0.176   2.107
  612SOL     OW 2734   4.018   4.881   5.894
  612SOL    HW1 2735   3.944   4.925   5.944
  612SOL    HW2 2736   4.105   4.925   5.917
  613SOL     OW 2737   5.268   5.684   4.961
  613SOL    HW1 2738   5.333   5.638   4.900
  613SOL    HW2 2739   5.202   5.735   4.906
  614SOL     OW 2740   4.891   5.636   5.342
  614SOL    HW1 2741   4.822   5.646   5.270
  614SOL    HW2 2742   4.971   5.690   5.318
  615SOL     OW 2743   0.122   4.247   0.597
  615SOL    HW1 2744   0.108   4.279   0.690
  615SOL    HW2 2745   0.089   4.153   0.589
  616SOL     OW 2746   6.380   2.806   3.292
  616SOL    HW1 2747   6.330   2.782   3.375
  616SOL    HW2 2748   6.467   2.756   3.290
  617SOL     OW 2749   2.320   5.604   6.374
  617SOL    HW1 2750   2.267   5.596   6.290
  617SOL    HW2 2751   2.371   5.520   6.390
  618SOL     OW 2752   1.637   1.508   1.660
  618SOL    HW1 2753   1.728   1.510   1.617
  618SOL    HW2 2754   1.567   1.511   1.590
  619SOL     OW 2755   1.695   2.233   6.360
  619SOL    HW1 2756   1.598   2.213   6.352
  619SOL    HW2 2757   1.725   2.217   6.454
  620SOL     OW 2758   4.661   2.811   0.621
  620SOL    HW1 2759   4.677   2.768   0.710
  620SOL    HW2 2760   4.639   2.907   0.635
  621SOL     OW 2761   6.216   5.144   0.183
  621SOL    HW1 2762   6.134   5.180   0.137
  621SOL    HW2 2763   6.296   5.164   0.127
  622SOL     OW 2764   2.009   1.451   0.320
  622SOL    HW1 2765   1.996   1.514   0.244
  622SOL    HW2 2766   2.098   1.405   0.311
  623SOL     OW 2767   0.983   4.974   6.361
  623SOL    HW1 2768   0.899   5.029   6.365
  623SOL    HW2 2769   1.000   4.934   6.451
  624SOL     OW 2770   0.450   2.500   2.564
  624SOL    HW1 2771   0.522   2.547   2.513
  624SOL    HW2 2772   0.480   2.407   2.585
  625SOL     OW 2773   3.093   1.930   2.405
  625SOL    HW1 2774   3.115   1.881   2.489
  625SOL    HW2 2775   3.172   1.982   2.374
  626SOL     OW 2776   2.287   6.406   3.243
  626SOL    HW1 2777   2.360   6.457   3.288
  626SOL    HW2 2778   2.317   6.378   3.152
  627SOL     OW 2779   5.484   0.991   0.512
  627SOL    HW1 2780   5.504   0.948   0.600
  627SOL    HW2 2781   5.389   0.972   0.487
  628SOL     OW 2782   4.818   4.889   4.432
  628SOL    HW1 2783   4.907   4.916   4.396
  628SOL    HW2 2784   4.814   4.789   4.440
  629SOL     OW 2785   0.567   0.206   1.618
  629SOL    HW1 2786   0.571   0.118   1.664
  629SOL    HW2 2787   0.582   0.280   1.684
  630SOL     OW 2788   4.632   1.500   1.845
  630SOL    HW1 2789   4.604   1.486   1.750
  630SOL    HW2 2790   4.624   1.414   1.896
  631SOL     OW 2791   2.676   6.887   5.629
  631SOL    HW1 2792   2.647   6.976   5.594
  631SOL    HW2 2793   2.603   6.846   5.683
  632SOL     OW 2794   2.434   0.672   0.364
  632SOL    HW1 2795   2.398   0.765   0.361
  632SOL    HW2 2796   2.361   0.608   0.338
  633SOL     OW 2797   3.323   6.225   0.903
  633SOL    HW1 2798   3.247   6.208   0.966
  633SOL    HW2 2799   3.288   6.233   0.810
  634SOL     OW 2800   4.315   5.339   1.277
  634SOL    HW1 2801   4.272   5.376   1.195
  634SOL    HW2 2802   4.302   5.401   1.353
  635SOL     OW 2803   3.268   0.462   3.036
  635SOL    HW1 2804   3.337   0.489   2.968
  635SOL    HW2 2805   3.191   0.418   2.990
  636SOL     OW 2806   5.112   5.285   6.688
  636SOL    HW1 2807   5.205   5.290   6.726
  636SOL    HW2 2808   5.077   5.192   6.700
  637SOL     OW 2809   4.777   4.780   1.761
  637SOL    HW1 2810   4.833   4.851   1.720
  637SOL    HW2 2811   4.682   4.811   1.765
  638SOL     OW 2812   4.809   1.313   1.769
  638SOL    HW1 2813   4.755   1.391   1.801
  638SOL    HW2 2814   4.749   1.244   1.730
  639SOL     OW 2815   4.175   4.532   1.722
  639SOL    HW1 2816   4.154   4.578   1.636
  639SOL    HW2 2817   4.206   4.439   1.703
  640SOL     OW 2818   2.230   3.933   5.544
  640SOL    HW1 2819   2.238   4.026   5.580
  640SOL    HW2 2820   2.191   3.936   5.452
  641SOL     OW 2821   0.719   5.955   4.895
  641SOL    HW1 2822   0.817   5.973   4.904
  641SOL    HW2 2823   0.686   5.909   4.978
  642SOL     OW 2824   0.311   4.952   5.019
  642SOL    HW1 2825   0.303   5.001   4.932
  642SOL    HW2 2826   0.235   4.887   5.027
  643SOL     OW 2827   6.599   5.796   5.669
  643SOL    HW1 2828   6.573   5.839   5.583
  643SOL    HW2 2829   6.574   5.856   5.745
  644SOL     OW 2830   1.220   6.280   2.958
  644SOL    HW1 2831   1.226   6.249   3.053
  644SOL    HW2 2832   1.297   6.340   2.938
  645SOL     OW 2833   4.592   2.556   4.467
  645SOL    HW1 2834   4.639   2.590   4.385
  645SOL    HW2 2835   4.519   2.493   4.439
  646SOL     OW 2836   1.434   1.173   3.834
  646SOL    HW1 2837   1.461   1.203   3.742
  646SOL    HW2 2838   1.426   1.253   3.894
  647SOL     OW 2839   6.439   2.755   0.034
  647SOL    HW1 2840   6.486   2.790   6.976
  647SOL    HW2 2841   6.363   2.816   0.056
  648SOL     OW 2842   5.776   3.471   2.410
  648SOL    HW1 2843   5.693   3.485   2.356
  648SOL    HW2 2844   5.856   3.500   2.357
  649SOL     OW 2845   3.959   4.251   0.968
  649SOL    HW1 2846   3.935   4.239   1.064
  649SOL    HW2 2847   3.877   4.238   0.911
  650SOL     OW 2848   4.759   4.647   0.626
  650SOL    HW1 2849   4.765   4.740   0.663
  650SOL    HW2 2850   4.671   4.635   0.581
  651SOL     OW 2851   0.440   6.401   1.175
  651SOL    HW1 2852   0.535   6.429   1.178
  651SOL    HW2 2853   0.381   6.479   1.195
  652SOL     OW 2854   4.404   0.046   2.890
  652SOL    HW1 2855   4.387   0.058   2.792
  652SOL    HW2 2856   4.387   6.975   2.915
  653SOL     OW 2857   3.364   5.210   4.141
  653SOL    HW1 2858   3.336   5.201   4.237
  653SOL    HW2 2859   3.358   5.122   4.096
  654SOL     OW 2860   6.674   5.531   6.745
  654SOL    HW1 2861   6.719   5.518   6.833
  654SOL    HW2 2862   6.726   5.597   6.691
  655SOL     OW 2863   0.782   0.200   1.441
  655SOL    HW1 2864   0.705   0.213   1.505
  655SOL    HW2 2865   0.868   0.205   1.491
  656SOL     OW 2866   2.361   6.661   2.215
  656SOL    HW1 2867   2.452   6.684   2.252
  656SOL    HW2 2868   2.368   6.578   2.159
  657SOL     OW 2869   2.856   1.475   0.769
  657SOL    HW1 2870   2.794   1.548   0.740
  657SOL    HW2 2871   2.889   1.425   0.689
  658SOL     OW 2872   3.061   3.756   6.938
  658SOL    HW1 2873   3.058   3.670   6.887
  658SOL    HW2 2874   3.142   3.808   6.911
  659SOL     OW 2875   2.278   0.070   6.872
  659SOL    HW1 2876   2.200   0.121   6.835
  659SOL    HW2 2877   2.354   0.074   6.808
  660SOL     OW 2878   4.000   5.864   2.186
  660SOL    HW1 2879   4.017   5.860   2.088
  660SOL    HW2 2880   3.935   5.938   2.206
  661SOL     OW 2881   4.612   5.584   3.004
  661SOL    HW1 2882   4.558   5.666   2.983
  661SOL    HW2 2883   4.710   5.605   2.995
  662SOL     OW 2884   3.487   1.155   5.986
  662SOL    HW1 2885   3.400   1.132   6.032
  662SOL    HW2 2886   3.471   1.226   5.918
  663SOL     OW 2887   1.984   4.517   4.911
  663SOL    HW1 2888   2.037   4.433   4.903
  663SOL    HW2 2889   1.949   4.544   4.822
  664SOL     OW 2890   0.408   6.307   6.707
  664SOL    HW1 2891   0.326   6.351   6.671
  664SOL    HW2 2892   0.469   6.284   6.631
  665SOL     OW 2893   3.174   5.660   3.734
  665SOL    HW1 2894   3.079   5.681   3.759
  665SOL    HW2 2895   3.176   5.574   3.682
  666SOL     OW 2896   3.986   0.992   2.570
  666SOL    HW1 2897   3.929   0.950   2.500
  666SOL    HW2 2898   3.956   0.962   2.661
  667SOL     OW 2899   0.735   5.177   1.825
  667SOL    HW1 2900   0.766   5.272   1.827
  667SOL    HW2 2901   0.655   5.170   1.765
  668SOL     OW 2902   5.559   4.633   6.085
  668SOL    HW1 2903   5.623   4.597   6.152
  668SOL    HW2 2904   5.514   4.715   6.122
  669SOL     OW 2905   5.828   1.182   2.531
  669SOL    HW1 2906   5.739   1.188   2.576
  669SOL    HW2 2907   5.826   1.110   2.462
  670SOL     OW 2908   1.938   1.810   3.713
  670SOL    HW1 2909   2.029   1.809   3.672
  670SOL    HW2 2910   1.895   1.720   3.701
  671SOL     OW 2911   2.659   6.392   1.423
  671SOL    HW1 2912   2.594   6.436   1.361
  671SOL    HW2 2913   2.667   6.445   1.507
  672SOL     OW 2914   0.590   5.623   2.256
  672SOL    HW1 2915   0.607   5.525   2.241
  672SOL    HW2 2916   0.634   5.676   2.183
  673SOL     OW 2917   5.504   6.807   1.010
  673SOL    HW1 2918   5.429   6.774   0.953
  673SOL    HW2 2919   5.567   6.862   0.955
  674SOL     OW 2920   6.606   1.565   5.062
  674SOL    HW1 2921   6.675   1.541   4.993
  674SOL    HW2 2922   6.642   1.637   5.122
  675SOL     OW 2923   5.833   2.436   1.987
  675SOL    HW1 2924   5.743   2.393   1.990
  675SOL    HW2 2925   5.863   2.456   2.080
  676SOL     OW 2926   2.570   4.635   4.929
  676SOL    HW1 2927   2.519   4.571   4.987
  676SOL    HW2 2928   2.666   4.635   4.957
  677SOL     OW 2929   4.716   0.607   1.396
  677SOL    HW1 2930   4.623   0.635   1.421
  677SOL    HW2 2931   4.779   0.632   1.470
  678SOL     OW 2932   2.710   4.632   5.339
  678SOL    HW1 2933   2.737   4.610   5.432
  678SOL    HW2 2934   2.781   4.599   5.276
  679SOL     OW 2935   5.738   1.809   4.538
  679SOL    HW1 2936   5.834   1.815   4.511
  679SOL    HW2 2937   5.686   1.761   4.466
  680SOL     OW 2938   5.476   6.676   4.297
  680SOL    HW1 2939   5.384   6.714   4.296
  680SOL    HW2 2940   5.542   6.746   4.270
  681SOL     OW 2941   5.098   6.222   2.268
  681SOL    HW1 2942   5.172   6.167   2.229
  681SOL    HW2 2943   5.026   6.234   2.200
  682SOL     OW 2944   0.419   0.991   2.360
  682SOL    HW1 2945   0.454   0.899   2.376
  682SOL    HW2 2946   0.488   1.045   2.311
  683SOL     OW 2947   4.291   3.342   1.298
  683SOL    HW1 2948   4.250   3.377   1.382
  683SOL    HW2 2949   4.357   3.409   1.263
  684SOL     OW 2950   6.485   0.553   6.589
  684SOL    HW1 2951   6.481   0.485   6.662
  684SOL    HW2 2952   6.521   0.511   6.506
  685SOL     OW 2953   3.462   1.189   3.544
  685SOL    HW1 2954   3.474   1.141   3.631
  685SOL    HW2 2955   3.374   1.237   3.545
  686SOL     OW 2956   4.324   1.288   3.847
  686SOL    HW1 2957   4.303   1.322   3.939
  686SOL    HW2 2958   4.343   1.366   3.787
  687SOL     OW 2959   0.956   1.700   3.927
  687SOL    HW1 2960   0.887   1.651   3.981
  687SOL    HW2 2961   0.924   1.709   3.833
  688SOL     OW 2962   0.288   1.159   6.229
  688SOL    HW1 2963   0.266   1.249   6.266
  688SOL    HW2 2964   0.278   1.160   6.129
  689SOL     OW 2965   0.953   4.959   5.208
  689SOL    HW1 2966   0.958   4.957   5.308
  689SOL    HW2 2967   0.862   4.989   5.179
  690SOL     OW 2968   6.421   3.269   2.836
  690SOL    HW1 2969   6.462   3.182   2.864
  690SOL    HW2 2970   6.345   3.251   2.774
  691SOL     OW 2971   3.880   1.414   6.923
  691SOL    HW1 2972   3.909   1.465   7.004
  691SOL    HW2 2973   3.832   1.475   6.861
  692SOL     OW 2974   3.029   1.124   5.671
  692SOL    HW1 2975   3.029   1.060   5.594
  692SOL    HW2 2976   2.991   1.212   5.641
  693SOL     OW 2977   4.756   5.554   3.368
  693SOL    HW1 2978   4.668   5.546   3.415
  693SOL    HW2 2979   4.766   5.646   3.331
  694SOL     OW 2980   3.795   6.280   4.647
  694SOL    HW1 2981   3.732   6.357   4.638
  694SOL    HW2 2982   3.888   6.315   4.655
  695SOL     OW 2983   3.160   6.217   4.274
  695SOL    HW1 2984   3.173   6.165   4.189
  695SOL    HW2 2985   3.234   6.283   4.284
  696SOL     OW 2986   5.295   4.211   3.188
  696SOL    HW1 2987   5.276   4.204   3.091
  696SOL    HW2 2988   5.360   4.286   3.204
  697SOL     OW 2989   0.935   4.244   1.557
  697SOL    HW1 2990   0.933   4.334   1.514
  697SOL    HW2 2991   0.960   4.175   1.490
  698SOL     OW 2992   5.056   6.605   1.254
  698SOL    HW1 2993   5.136   6.659   1.228
  698SOL    HW2 2994   4.993   6.600   1.176
  699SOL     OW 2995   2.376   2.940   6.959
  699SOL    HW1 2996   2.279   2.917   6.971
  699SOL    HW2 2997   2.397   2.947   6.861
  700SOL     OW 2998   3.344   7.018   2.235
  700SOL    HW1 2999   3.302   0.080   2.262
  700SOL    HW2 3000   3.298   6.981   2.154
  701SOL     OW 3001   6.225   4.615   0.721
  701SOL    HW1 3002   6.127   4.634   0.729
  701SOL    HW2 3003   6.254   4.558   0.798
  702SOL     OW 3004   2.676   0.717   4.497
  702SOL    HW1 3005   2.595   0.705   4.441
  702SOL    HW2 3006   2.650   0.755   4.586
  703SOL     OW 3007   3.034   3.219   5.455
  703SOL    HW1 3008   3.126   3.249   5.432
  703SOL    HW2 3009   3.006   3.146   5.393
  704SOL     OW 3010   1.211   2.814   6.493
  704SOL    HW1 3011   1.151   2.857   6.425
  704SOL    HW2 3012   1.167   2.818   6.583
  705SOL     OW 3013   6.449   6.205   4.306
  705SOL    HW1 3014   6.460   6.305   4.308
  705SOL    HW2 3015   6.377   6.178   4.370
  706SOL     OW 3016   4.224   1.125   5.650
  706SOL    HW1 3017   4.137   1.173   5.666
  706SOL    HW2 3018   4.215   1.068   5.569
  707SOL     OW 3019   4.093   5.522   3.254
  707SOL    HW1 3020   4.010   5.506   3.307
  707SOL    HW2 3021   4.173   5.512   3.314
  708SOL     OW 3022   3.082   1.078   3.314
  708SOL    HW1 3023   3.090   1.175   3.337
  708SOL    HW2 3024   2.986   1.056   3.298
  709SOL     OW 3025   1.721   6.689   1.661
  709SOL    HW1 3026   1.634   6.737   1.672
  709SOL    HW2 3027   1.795   6.745   1.699
  710SOL     OW 3028   4.744   2.709   1.518
  710SOL    HW1 3029   4.840   2.682   1.532
  710SOL    HW2 3030   4.739   2.806   1.497
  711SOL     OW 3031   0.006   2.904   5.664
  711SOL    HW1 3032   0.043   2.877   5.575
  711SOL    HW2 3033   6.930   2.910   5.659
  712SOL     OW 3034   4.343   3.098   1.157
  712SOL    HW1 3035   4.332   3.189   1.197
  712SOL    HW2 3036   4.330   3.104   1.058
  713SOL     OW 3037   4.273   2.719   5.323
  713SOL    HW1 3038   4.191   2.776   5.329
  713SOL    HW2 3039   4.253   2.635   5.273
  714SOL     OW 3040   6.115   4.767   3.460
  714SOL    HW1 3041   6.211   4.761   3.434
  714SOL    HW2 3042   6.094   4.696   3.527
  715SOL     OW 3043   6.516   5.057   5.841
  715SOL    HW1 3044   6.489   4.989   5.909
  715SOL    HW2 3045   6.562   5.011   5.765
  716SOL     OW 3046   2.097   0.957   2.449
  716SOL    HW1 3047   2.051   0.945   2.537
  716SOL    HW2 3048   2.050   1.027   2.396
  717SOL     OW 3049   6.009   4.594   3.980
  717SOL    HW1 3050   6.029   4.502   3.945
  717SOL    HW2 3051   5.941   4.589   4.053
  718SOL     OW 3052   4.674   2.071   4.459
  718SOL    HW1 3053   4.738   2.148   4.464
  718SOL    HW2 3054   4.598   2.087   4.523
  719SOL     OW 3055   6.585   0.512   2.658
  719SOL    HW1 3056   6.633   0.492   2.743
  719SOL    HW2 3057   6.651   0.532   2.585
  720SOL     OW 3058   1.764   0.482   6.004
  720SOL    HW1 3059   1.809   0.478   5.915
  720SOL    HW2 3060   1.706   0.564   6.009
  721SOL     OW 3061   0.693   2.216   2.239
  721SOL    HW1 3062   0.777   2.222   2.185
  721SOL    HW2 3063   0.622   2.271   2.195
  722SOL     OW 3064   4.502   0.352   6.436
  722SOL    HW1 3065   4.412   0.351   6.393
  722SOL    HW2 3066   4.544   0.441   6.424
  723SOL     OW 3067   2.586   5.967   3.622
  723SOL    HW1 3068   2.606   6.004   3.531
  723SOL    HW2 3069   2.493   5.930   3.624
  724SOL     OW 3070   0.801   0.936   3.183
  724SOL    HW1 3071   0.781   0.950   3.280
  724SOL    HW2 3072   0.786   0.839   3.159
  725SOL     OW 3073   2.481   4.447   2.097
  725SOL    HW1 3074   2.520   4.361   2.130
  725SOL    HW2 3075   2.530   4.524   2.138
  726SOL     OW 3076   2.523   5.189   0.621
  726SOL    HW1 3077   2.567   5.207   0.532
  726SOL    HW2 3078   2.442   5.247   0.630
  727SOL     OW 3079   4.674   5.264   6.528
  727SOL    HW1 3080   4.749   5.327   6.505
  727SOL    HW2 3081   4.617   5.251   6.447
  728SOL     OW 3082   6.688   3.371   4.842
  728SOL    HW1 3083   6.690   3.459   4.889
  728SOL    HW2 3084   6.781   3.343   4.819
  729SOL     OW 3085   0.168   2.931   1.095
  729SOL    HW1 3086   0.085   2.886   1.129
  729SOL    HW2 3087   0.207   2.877   1.021
  730SOL     OW 3088   5.153   0.410   3.343
  730SOL    HW1 3089   5.202   0.435   3.427
  730SOL    HW2 3090   5.056   0.430   3.353
  731SOL     OW 3091   4.666   4.148   6.450
  731SOL    HW1 3092   4.645   4.059   6.408
  731SOL    HW2 3093   4.737   4.136   6.519
  732SOL     OW 3094   5.293   1.868   2.632
  732SOL    HW1 3095   5.344   1.846   2.715
  732SOL    HW2 3096   5.266   1.964   2.634
  733SOL     OW 3097   5.813   6.759   3.834
  733SOL    HW1 3098   5.786   6.854   3.818
  733SOL    HW2 3099   5.739   6.711   3.880
  734SOL     OW 3100   6.648   4.698   2.703
  734SOL    HW1 3101   6.608   4.648   2.780
  734SOL    HW2 3102   6.742   4.725   2.726
  735SOL     OW 3103   5.827   0.768   1.878
  735SOL    HW1 3104   5.847   0.739   1.785
  735SOL    HW2 3105   5.891   0.839   1.906
  736SOL     OW 3106   1.486   1.409   3.986
  736SOL    HW1 3107   1.423   1.444   4.055
  736SOL    HW2 3108   1.574   1.455   3.994
  737SOL     OW 3109   5.681   1.487   5.715
  737SOL    HW1 3110   5.697   1.532   5.803
  737SOL    HW2 3111   5.584   1.462   5.708
  738SOL     OW 3112   2.617   3.937   1.257
  738SOL    HW1 3113   2.595   3.845   1.290
  738SOL    HW2 3114   2.675   3.983   1.324
  739SOL     OW 3115   3.232   6.811   5.175
  739SOL    HW1 3116   3.250   6.908   5.192
  739SOL    HW2 3117   3.316   6.758   5.191
  740SOL     OW 3118   5.596   2.143   2.907
  740SOL    HW1 3119   5.663   2.120   2.978
  740SOL    HW2 3120   5.593   2.243   2.895
  741SOL     OW 3121   2.086   0.693   4.793
  741SOL    HW1 3122   2.143   0.666   4.716
  741SOL    HW2 3123   2.047   0.783   4.776
  742SOL     OW 3124   1.537   6.221   0.604
  742SOL    HW1 3125   1.586   6.189   0.522
  742SOL    HW2 3126   1.549   6.320   0.613
  743SOL     OW 3127   0.656   6.250   3.802
  743SOL    HW1 3128   0.756   6.244   3.810
  743SOL    HW2 3129   0.627   6.344   3.824
  744SOL     OW 3130   6.696   1.569   0.742
  744SOL    HW1 3131   6.691   1.655   0.691
  744SOL    HW2 3132   6.699   1.493   0.678
  745SOL     OW 3133   2.099   5.722   4.818
  745SOL    HW1 3134   2.067   5.771   4.899
  745SOL    HW2 3135   2.040   5.642   4.802
  746SOL     OW 3136   5.395   4.036   4.953
  746SOL    HW1 3137   5.308   4.000   4.988
  746SOL    HW2 3138   5.378   4.087   4.869
  747SOL     OW 3139   5.435   5.183   3.461
  747SOL    HW1 3140   5.505   5.173   3.390
  747SOL    HW2 3141   5.352   5.136   3.433
  748SOL     OW 3142   5.017   5.172   2.674
  748SOL    HW1 3143   5.011   5.238   2.599
  748SOL    HW2 3144   5.017   5.079   2.636
  749SOL     OW 3145   4.854   3.522   3.379
  749SOL    HW1 3146   4.850   3.429   3.344
  749SOL    HW2 3147   4.846   3.520   3.479
  750SOL     OW 3148   2.487   1.256   1.383
  750SOL    HW1 3149   2.508   1.332   1.444
  750SOL    HW2 3150   2.546   1.179   1.403
  751SOL     OW 3151   5.111   2.289   0.628
  751SOL    HW1 3152   5.210   2.302   0.627
  751SOL    HW2 3153   5.084   2.238   0.546
  752SOL     OW 3154   3.364   2.289   5.599
  752SOL    HW1 3155   3.340   2.215   5.662
  752SOL    HW2 3156   3.462   2.304   5.602
  753SOL     OW 3157   3.461   3.563   5.289
  753SOL    HW1 3158   3.499   3.474   5.312
  753SOL    HW2 3159   3.512   3.603   5.212
  754SOL     OW 3160   6.167   0.933   6.355
  754SOL    HW1 3161   6.152   0.926   6.454
  754SOL    HW2 3162   6.089   0.891   6.307
  755SOL     OW 3163   2.951   4.351   5.362
  755SOL    HW1 3164   2.981   4.401   5.443
  755SOL    HW2 3165   2.930   4.415   5.288
  756SOL     OW 3166   2.644   4.999   0.041
  756SOL    HW1 3167   2.582   4.968   6.992
  756SOL    HW2 3168   2.698   4.921   0.074
  757SOL     OW 3169   2.155   6.728   2.433
  757SOL    HW1 3170   2.235   6.700   2.380
  757SOL    HW2 3171   2.076   6.674   2.404
  758SOL     OW 3172   4.243   1.287   3.538
  758SOL    HW1 3173   4.252   1.367   3.478
  758SOL    HW2 3174   4.301   1.299   3.618
  759SOL     OW 3175   6.925   2.955   3.452
  759SOL    HW1 3176   6.998   2.927   3.514
  759SOL    HW2 3177   6.963   2.974   3.362
  760SOL     OW 3178   6.827   6.491   3.818
  760SOL    HW1 3179   6.848   6.475   3.915
  760SOL    HW2 3180   6.745   6.548   3.811
  761SOL     OW 3181   5.356   3.951   5.413
  761SOL    HW1 3182   5.325   3.870   5.362
  761SOL    HW2 3183   5.353   3.932   5.511
  762SOL     OW 3184   3.090   6.297   5.884
  762SOL    HW1 3185   3.015   6.363   5.883
  762SOL    HW2 3186   3.065   6.220   5.943
  763SOL     OW 3187   5.482   0.500   6.769
  763SOL    HW1 3188   5.499   0.594   6.739
  763SOL    HW2 3189   5.534   0.437   6.712
  764SOL     OW 3190   5.648   1.033   5.753
  764SOL    HW1 3191   5.701   0.949   5.755
  764SOL    HW2 3192   5.552   1.013   5.771
  765SOL     OW 3193   0.962   6.871   0.792
  765SOL    HW1 3194   0.954   6.965   0.824
  765SOL    HW2 3195   0.964   6.809   0.870
  766SOL     OW 3196   2.317   2.226   4.983
  766SOL    HW1 3197   2.410   2.259   4.971
  766SOL    HW2 3198   2.318   2.126   4.992
  767SOL     OW 3199   0.030   6.982   3.911
  767SOL    HW1 3200   0.059   6.912   3.846
  767SOL    HW2 3201   0.038   6.947   4.004
  768SOL     OW 3202   2.163   6.129   2.484
  768SOL    HW1 3203   2.185   6.203   2.420
  768SOL    HW2 3204   2.191   6.155   2.576
  769SOL     OW 3205   3.567   1.759   5.467
  769SOL    HW1 3206   3.567   1.858   5.475
  769SOL    HW2 3207   3.621   1.731   5.388
  770SOL     OW 3208   1.981   5.165   4.479
  770SOL    HW1 3209   2.008   5.137   4.571
  770SOL    HW2 3210   1.959   5.083   4.425
  771SOL     OW 3211   1.178   5.096   3.445
  771SOL    HW1 3212   1.230   5.023   3.490
  771SOL    HW2 3213   1.208   5.184   3.481
  772SOL     OW 3214   5.519   4.837   6.988
  772SOL    HW1 3215   5.484   4.811   6.898
  772SOL    HW2 3216   5.443   4.847   0.028
  773SOL     OW 3217   1.210   3.495   3.622
  773SOL    HW1 3218   1.220   3.594   3.626
  773SOL    HW2 3219   1.248   3.455   3.705
  774SOL     OW 3220   2.333   1.792   4.037
  774SOL    HW1 3221   2.390   1.828   4.111
  774SOL    HW2 3222   2.237   1.814   4.054
  775SOL     OW 3223   2.111   3.838   3.960
  775SOL    HW1 3224   2.106   3.825   4.059
  775SOL    HW2 3225   2.085   3.932   3.937
  776SOL     OW 3226   0.744   6.673   6.244
  776SOL    HW1 3227   0.809   6.674   6.320
  776SOL    HW2 3228   0.736   6.766   6.206
  777SOL     OW 3229   1.806   3.912   0.100
  777SOL    HW1 3230   1.764   3.903   0.191
  777SOL    HW2 3231   1.736   3.942   0.034
  778SOL     OW 3232   3.578   6.835   1.645
  778SOL    HW1 3233   3.559   6.819   1.741
  778SOL    HW2 3234   3.530   6.917   1.614
  779SOL     OW 3235   0.599   2.758   2.182
  779SOL    HW1 3236   0.614   2.719   2.092
  779SOL    HW2 3237   0.677   2.814   2.209
  780SOL     OW 3238   1.558   1.990   4.576
  780SOL    HW1 3239   1.522   1.956   4.663
  780SOL    HW2 3240   1.653   1.961   4.566
  781SOL     OW 3241   0.452   4.852   0.427
  781SOL    HW1 3242   0.447   4.768   0.373
  781SOL    HW2 3243   0.362   4.874   0.463
  782SOL     OW 3244   1.686   3.912   5.561
  782SOL    HW1 3245   1.699   3.835   5.498
  782SOL    HW2 3246   1.611   3.892   5.624
  783SOL     OW 3247   5.421   4.686   6.425
  783SOL    HW1 3248   5.520   4.686   6.411
  783SOL    HW2 3249   5.397   4.618   6.495
  784SOL     OW 3250   2.943   5.914   1.901
  784SOL    HW1 3251   3.023   5.889   1.955
  784SOL    HW2 3252   2.864   5.924   1.961
  785SOL     OW 3253   1.379   0.070   4.053
  785SOL    HW1 3254   1.324   0.052   3.972
  785SOL    HW2 3255   1.336   0.143   4.107
  786SOL     OW 3256   6.466   1.029   3.712
  786SOL    HW1 3257   6.471   1.006   3.615
  786SOL    HW2 3258   6.547   1.082   3.738
  787SOL     OW 3259   2.186   0.630   6.951
  787SOL    HW1 3260   2.193   0.670   0.019
  787SOL    HW2 3261   2.094   0.646   6.915
  788SOL     OW 3262   3.965   3.069   1.525
  788SOL    HW1 3263   3.962   3.136   1.599
  788SOL    HW2 3264   3.892   3.002   1.537
  789SOL     OW 3265   4.470   5.367   1.898
  789SOL    HW1 3266   4.491   5.303   1.971
  789SOL    HW2 3267   4.555   5.402   1.858
  790SOL     OW 3268   0.993   3.051   1.853
  790SOL    HW1 3269   0.948   2.975   1.899
  790SOL    HW2 3270   0.947   3.137   1.877
  791SOL     OW 3271   2.835   5.501   5.233
  791SOL    HW1 3272   2.857   5.572   5.166
  791SOL    HW2 3273   2.891   5.420   5.216
  792SOL     OW 3274   0.679   1.212   0.481
  792SOL    HW1 3275   0.666   1.123   0.437
  792SOL    HW2 3276   0.749   1.204   0.552
  793SOL     OW 3277   4.311   5.667   3.640
  793SOL    HW1 3278   4.245   5.725   3.686
  793SOL    HW2 3279   4.339   5.711   3.554
  794SOL     OW 3280   2.900   3.646   3.773
  794SOL    HW1 3281   2.883   3.645   3.675
  794SOL    HW2 3282   2.921   3.739   3.803
  795SOL     OW 3283   3.517   0.903   6.213
  795SOL    HW1 3284   3.569   0.861   6.287
  795SOL    HW2 3285   3.577   0.916   6.133
  796SOL     OW 3286   1.480   2.979   6.601
  796SOL    HW1 3287   1.395   3.029   6.588
  796SOL    HW2 3288   1.557   3.036   6.572
  797SOL     OW 3289   4.715   0.091   1.022
  797SOL    HW1 3290   4.630   0.065   1.068
  797SOL    HW2 3291   4.702   0.089   0.923
  798SOL     OW 3292   3.076   6.181   1.531
  798SOL    HW1 3293   3.176   6.183   1.527
  798SOL    HW2 3294   3.044   6.088   1.510
  799SOL     OW 3295   1.134   2.049   6.688
  799SOL    HW1 3296   1.127   2.147   6.706
  799SOL    HW2 3297   1.042   2.012   6.672
  800SOL     OW 3298   6.154   1.220   1.927
  800SOL    HW1 3299   6.108   1.308   1.921
  800SOL    HW2 3300   6.196   1.198   1.839
  801SOL     OW 3301   2.069   5.701   5.574
  801SOL    HW1 3302   2.129   5.633   5.534
  801SOL    HW2 3303   2.120   5.757   5.639
  802SOL     OW 3304   5.425   2.026   6.766
  802SOL    HW1 3305   5.426   1.933   6.730
  802SOL    HW2 3306   5.334   2.048   6.801
  803SOL     OW 3307   2.631   0.839   5.642
  803SOL    HW1 3308   2.559   0.904   5.616
  803SOL    HW2 3309   2.590   0.748   5.656
  804SOL     OW 3310   6.112   0.463   1.790
  804SOL    HW1 3311   6.080   0.483   1.883
  804SOL    HW2 3312   6.034   0.445   1.731
  805SOL     OW 3313   2.777   0.973   3.557
  805SOL    HW1 3314   2.782   1.064   3.515
  805SOL    HW2 3315   2.734   0.980   3.647
  806SOL     OW 3316   0.857   0.179   5.272
  806SOL    HW1 3317   0.920   0.256   5.285
  806SOL    HW2 3318   0.865   0.147   5.177
  807SOL     OW 3319   0.890   6.300   5.047
  807SOL    HW1 3320   0.797   6.296   5.012
  807SOL    HW2 3321   0.889   6.295   5.147
  808SOL     OW 3322   6.079   2.912   0.329
  808SOL    HW1 3323   5.999   2.967   0.304
  808SOL    HW2 3324   6.051   2.816   0.338
  809SOL     OW 3325   0.533   5.005   7.014
  809SOL    HW1 3326   0.598   5.044   0.054
  809SOL    HW2 3327   0.450   5.062   7.011
  810SOL     OW 3328   2.721   3.319   0.372
  810SOL    HW1 3329   2.770   3.375   0.305
  810SOL    HW2 3330   2.626   3.305   0.341
  811SOL     OW 3331   5.310   4.996   5.197
  811SOL    HW1 3332   5.222   5.044   5.193
  811SOL    HW2 3333   5.384   5.064   5.199
  812SOL     OW 3334   1.053   2.093   2.394
  812SOL    HW1 3335   1.008   2.004   2.409
  812SOL    HW2 3336   1.152   2.080   2.390
  813SOL     OW 3337   2.026   1.350   4.615
  813SOL    HW1 3338   2.091   1.427   4.610
  813SOL    HW2 3339   2.035   1.306   4.705
  814SOL     OW 3340   6.796   5.685   2.956
  814SOL    HW1 3341   6.801   5.784   2.968
  814SOL    HW2 3342   6.810   5.640   3.043
  815SOL     OW 3343   5.070   2.221   3.643
  815SOL    HW1 3344   5.115   2.140   3.682
  815SOL    HW2 3345   5.128   2.301   3.657
  816SOL     OW 3346   4.701   4.008   0.238
  816SOL    HW1 3347   4.669   3.924   0.283
  816SOL    HW2 3348   4.788   4.036   0.278
  817SOL     OW 3349   1.023   5.519   1.030
  817SOL    HW1 3350   0.946   5.581   1.018
  817SOL    HW2 3351   1.013   5.441   0.969
  818SOL     OW 3352   5.944   2.718   3.426
  818SOL    HW1 3353   5.940   2.704   3.327
  818SOL    HW2 3354   5.886   2.651   3.472
  819SOL     OW 3355   5.957   2.097   1.487
  819SOL    HW1 3356   6.004   2.167   1.435
  819SOL    HW2 3357   5.913   2.138   1.567
  820SOL     OW 3358   2.492   2.041   4.396
  820SOL    HW1 3359   2.583   2.052   4.435
  820SOL    HW2 3360   2.486   1.952   4.351
  821SOL     OW 3361   5.837   4.184   4.809
  821SOL    HW1 3362   5.936   4.175   4.823
  821SOL    HW2 3363   5.792   4.097   4.830
  822SOL     OW 3364   0.756   4.277   3.445
  822SOL    HW1 3365   0.691   4.331   3.392
  822SOL    HW2 3366   0.715   4.250   3.532
  823SOL     OW 3367   1.047   3.714   5.851
  823SOL    HW1 3368   1.007   3.681   5.936
  823SOL    HW2 3369   0.984   3.695   5.775
  824SOL     OW 3370   5.597   1.009   5.006
  824SOL    HW1 3371   5.620   1.101   5.038
  824SOL    HW2 3372   5.657   0.942   5.051
  825SOL     OW 3373   6.072   6.106   0.766
  825SOL    HW1 3374   6.139   6.139   0.700
  825SOL    HW2 3375   6.005   6.047   0.720
  826SOL     OW 3376   3.880   1.173   6.039
  826SOL    HW1 3377   3.848   1.237   6.109
  826SOL    HW2 3378   3.938   1.220   5.973
  827SOL     OW 3379   3.333   3.902   4.457
  827SOL    HW1 3380   3.245   3.946   4.475
  827SOL    HW2 3381   3.343   3.823   4.517
  828SOL     OW 3382   6.266   5.302   4.296
  828SOL    HW1 3383   6.315   5.250   4.226
  828SOL    HW2 3384   6.298   5.397   4.296
  829SOL     OW 3385   3.583   2.891   2.568
  829SOL    HW1 3386   3.680   2.888   2.589
  829SOL    HW2 3387   3.569   2.937   2.480
  830SOL     OW 3388   6.174   4.680   6.665
  830SOL    HW1 3389   6.268   4.711   6.683
  830SOL    HW2 3390   6.137   4.729   6.586
  831SOL     OW 3391   5.346   5.833   1.214
  831SOL    HW1 3392   5.435   5.880   1.218
  831SOL    HW2 3393   5.293   5.857   1.295
  832SOL     OW 3394   3.832   1.381   5.189
  832SOL    HW1 3395   3.735   1.403   5.182
  832SOL    HW2 3396   3.862   1.334   5.106
  833SOL     OW 3397   1.194   3.917   6.320
  833SOL    HW1 3398   1.143   3.999   6.345
  833SOL    HW2 3399   1.201   3.912   6.220
  834SOL     OW 3400   4.514   3.442   6.745
  834SOL    HW1 3401   4.433   3.469   6.796
  834SOL    HW2 3402   4.577   3.519   6.738
  835SOL     OW 3403   1.277   0.303   4.222
  835SOL    HW1 3404   1.207   0.333   4.159
  835SOL    HW2 3405   1.349   0.373   4.229
  836SOL     OW 3406   3.580   2.070   5.521
  836SOL    HW1 3407   3.498   2.063   5.579
  836SOL    HW2 3408   3.603   2.166   5.508
  837SOL     OW 3409   1.505   0.504   1.324
  837SOL    HW1 3410   1.478   0.587   1.374
  837SOL    HW2 3411   1.426   0.442   1.319
  838SOL     OW 3412   2.362   5.652   4.034
  838SOL    HW1 3413   2.371   5.651   3.935
  838SOL    HW2 3414   2.421   5.723   4.073
  839SOL     OW 3415   2.192   1.126   0.853
  839SOL    HW1 3416   2.134   1.165   0.782
  839SOL    HW2 3417   2.282   1.170   0.851
  840SOL     OW 3418   6.045   5.426   6.925
  840SOL    HW1 3419   6.069   5.334   6.896
  840SOL    HW2 3420   5.954   5.449   6.891
  841SOL     OW 3421   4.227   5.447   5.817
  841SOL    HW1 3422   4.137   5.403   5.815
  841SOL    HW2 3423   4.283   5.412   5.741
  842SOL     OW 3424   3.086   6.980   6.710
  842SOL    HW1 3425   3.127   0.027   6.766
  842SOL    HW2 3426   3.019   6.929   6.764
  843SOL     OW 3427   1.578   1.858   1.419
  843SOL    HW1 3428   1.555   1.859   1.516
  843SOL    HW2 3429   1.641   1.932   1.398
  844SOL     OW 3430   0.727   6.818   1.622
  844SOL    HW1 3431   0.679   6.895   1.663
  844SOL    HW2 3432   0.826   6.835   1.625
  845SOL     OW 3433   3.938   1.661   2.769
  845SOL    HW1 3434   4.031   1.676   2.735
  845SOL    HW2 3435   3.896   1.586   2.718
  846SOL     OW 3436   2.882   1.328   6.637
  846SOL    HW1 3437   2.863   1.304   6.542
  846SOL    HW2 3438   2.839   1.261   6.698
  847SOL     OW 3439   2.494   3.402   1.689
  847SOL    HW1 3440   2.406   3.417   1.733
  847SOL    HW2 3441   2.526   3.309   1.708
  848SOL     OW 3442   6.089   6.964   6.044
  848SOL    HW1 3443   6.004   6.912   6.038
  848SOL    HW2 3444   6.145   6.947   5.962
  849SOL     OW 3445   5.610   3.597   6.990
  849SOL    HW1 3446   5.564   3.541   0.036
  849SOL    HW2 3447   5.549   3.609   6.912
  850SOL     OW 3448   6.258   0.658   4.991
  850SOL    HW1 3449   6.302   0.634   4.905
  850SOL    HW2 3450   6.215   0.576   5.030
  851SOL     OW 3451   6.381   3.059   6.850
  851SOL    HW1 3452   6.360   3.157   6.855
  851SOL    HW2 3453   6.319   3.015   6.785
  852SOL     OW 3454   6.845   4.075   1.061
  852SOL    HW1 3455   6.827   4.121   0.974
  852SOL    HW2 3456   6.929   4.021   1.053
  853SOL     OW 3457   1.977   4.461   0.375
  853SOL    HW1 3458   1.995   4.480   0.472
  853SOL    HW2 3459   1.911   4.387   0.367
  854SOL     OW 3460   6.093   6.530   0.008
  854SOL    HW1 3461   6.000   6.499   7.014
  854SOL    HW2 3462   6.113   6.521   0.106
  855SOL     OW 3463   6.974   0.619   0.111
  855SOL    HW1 3464   6.922   0.683   0.168
  855SOL    HW2 3465   6.960   0.642   0.014
  856SOL     OW 3466   1.997   6.628   6.502
  856SOL    HW1 3467   1.933   6.655   6.429
  856SOL    HW2 3468   2.078   6.585   6.461
  857SOL     OW 3469   0.200   4.482   3.201
  857SOL    HW1 3470   0.283   4.429   3.181
  857SOL    HW2 3471   0.224   4.563   3.254
  858SOL     OW 3472   3.728   3.719   0.597
  858SOL    HW1 3473   3.729   3.817   0.618
  858SOL    HW2 3474   3.745   3.706   0.499
  859SOL     OW 3475   4.690   6.238   5.302
  859SOL    HW1 3476   4.671   6.318   5.358
  859SOL    HW2 3477   4.658   6.156   5.349
  860SOL     OW 3478   5.361   2.901   5.571
  860SOL    HW1 3479   5.360   2.965   5.648
  860SOL    HW2 3480   5.269   2.895   5.533
  861SOL     OW 3481   2.032   5.495   3.120
  861SOL    HW1 3482   1.951   5.455   3.077
  861SOL    HW2 3483   2.022   5.595   3.122
  862SOL     OW 3484   1.750   4.315   3.872
  862SOL    HW1 3485   1.734   4.369   3.790
  862SOL    HW2 3486   1.847   4.314   3.894
  863SOL     OW 3487   6.680   0.055   5.680
  863SOL    HW1 3488   6.747   0.001   5.629
  863SOL    HW2 3489   6.715   0.072   5.773
  864SOL     OW 3490   4.386   6.878   5.698
  864SOL    HW1 3491   4.374   6.940   5.776
  864SOL    HW2 3492   4.471   6.903   5.649
  865SOL     OW 3493   2.302   5.878   4.966
  865SOL    HW1 3494   2.381   5.912   4.916
  865SOL    HW2 3495   2.232   5.847   4.902
  866SOL     OW 3496   2.667   7.003   0.829
  866SOL    HW1 3497   2.714   7.011   0.917
  866SOL    HW2 3498   2.608   6.923   0.830
  867SOL     OW 3499   6.104   2.164   0.753
  867SOL    HW1 3500   6.139   2.185   0.845
  867SOL    HW2 3501   6.155   2.217   0.685
  868SOL     OW 3502   0.742   1.994   2.406
  868SOL    HW1 3503   0.789   1.937   2.338
  868SOL    HW2 3504   0.734   2.087   2.371
  869SOL     OW 3505   0.088   4.015   3.803
  869SOL    HW1 3506   0.044   3.941   3.855
  869SOL    HW2 3507   0.030   4.039   3.726
  870SOL     OW 3508   3.270   5.069   1.855
  870SOL    HW1 3509   3.344   5.100   1.915
  870SOL    HW2 3510   3.277   4.970   1.842
  871SOL     OW 3511   4.790   1.835   4.397
  871SOL    HW1 3512   4.752   1.802   4.311
  871SOL    HW2 3513   4.746   1.922   4.422
  872SOL     OW 3514   6.840   2.185   4.781
  872SOL    HW1 3515   6.903   2.108   4.792
  872SOL    HW2 3516   6.753   2.151   4.744
  873SOL     OW 3517   4.775   6.667   6.112
  873SOL    HW1 3518   4.809   6.679   6.018
  873SOL    HW2 3519   4.837   6.608   6.163
  874SOL     OW 3520   6.228   4.359   6.584
  874SOL    HW1 3521   6.281   4.431   6.540
  874SOL    HW2 3522   6.276   4.271   6.574
  875SOL     OW 3523   5.668   5.316   1.118
  875SOL    HW1 3524   5.676   5.299   1.216
  875SOL    HW2 3525   5.671   5.230   1.068
  876SOL     OW 3526   0.548   5.433   1.997
  876SOL    HW1 3527   0.640   5.464   1.975
  876SOL    HW2 3528   0.481   5.497   1.959
  877SOL     OW 3529   2.945   4.858   6.866
  877SOL    HW1 3530   2.893   4.791   6.921
  877SOL    HW2 3531   2.888   4.889   6.790
  878SOL     OW 3532   4.358   6.685   4.476
  878SOL    HW1 3533   4.278   6.712   4.531
  878SOL    HW2 3534   4.440   6.689   4.533
  879SOL     OW 3535   3.905   0.411   1.594
  879SOL    HW1 3536   3.842   0.481   1.561
  879SOL    HW2 3537   3.996   0.426   1.555
  880SOL     OW 3538   3.401   4.119   3.868
  880SOL    HW1 3539   3.448   4.167   3.794
  880SOL    HW2 3540   3.435   4.025   3.874
  881SOL     OW 3541   4.453   2.457   5.116
  881SOL    HW1 3542   4.482   2.497   5.029
  881SOL    HW2 3543   4.358   2.482   5.135
  882SOL     OW 3544   0.846   3.420   4.692
  882SOL    HW1 3545   0.816   3.508   4.655
  882SOL    HW2 3546   0.931   3.433   4.743
  883SOL     OW 3547   2.928   0.671   2.576
  883SOL    HW1 3548   2.845   0.723   2.554
  883SOL    HW2 3549   3.002   0.699   2.517
  884SOL     OW 3550   5.093   2.873   5.507
  884SOL    HW1 3551   5.059   2.790   5.552
  884SOL    HW2 3552   5.064   2.874   5.412
  885SOL     OW 3553   2.983   1.038   5.905
  885SOL    HW1 3554   3.017   1.104   5.839
  885SOL    HW2 3555   2.903   0.990   5.868
  886SOL     OW 3556   3.427   0.565   0.115
  886SOL    HW1 3557   3.450   0.482   0.166
  886SOL    HW2 3558   3.510   0.603   0.074
  887SOL     OW 3559   3.953   6.929   4.216
  887SOL    HW1 3560   3.962   6.879   4.302
  887SOL    HW2 3561   3.856   6.938   4.192
  888SOL     OW 3562   0.652   6.335   2.853
  888SOL    HW1 3563   0.685   6.429   2.847
  888SOL    HW2 3564   0.637   6.299   2.761
  889SOL     OW 3565   0.768   3.915   0.712
  889SOL    HW1 3566   0.809   3.839   0.763
  889SOL    HW2 3567   0.782   3.901   0.614
  890SOL     OW 3568   1.881   4.962   3.897
  890SOL    HW1 3569   1.848   4.982   3.989
  890SOL    HW2 3570   1.908   5.048   3.852
  891SOL     OW 3571   5.555   5.629   0.504
  891SOL    HW1 3572   5.553   5.722   0.466
  891SOL    HW2 3573   5.495   5.624   0.584
  892SOL     OW 3574   2.728   3.983   5.648
  892SOL    HW1 3575   2.738   4.078   5.619
  892SOL    HW2 3576   2.673   3.933   5.581
  893SOL     OW 3577   2.674   6.946   2.890
  893SOL    HW1 3578   2.702   0.008   2.934
  893SOL    HW2 3579   2.672   6.873   2.958
  894SOL     OW 3580   0.980   3.270   1.503
  894SOL    HW1 3581   1.036   3.337   1.456
  894SOL    HW2 3582   0.893   3.312   1.530
  895SOL     OW 3583   0.549   4.252   2.988
  895SOL    HW1 3584   0.554   4.290   3.080
  895SOL    HW2 3585   0.533   4.154   2.993
  896SOL     OW 3586   5.915   5.079   0.601
  896SOL    HW1 3587   5.927   5.177   0.581
  896SOL    HW2 3588   5.893   5.030   0.516
  897SOL     OW 3589   4.622   1.345   0.039
  897SOL    HW1 3590   4.701   1.356   7.002
  897SOL    HW2 3591   4.653   1.314   0.129
  898SOL     OW 3592   3.446   6.068   2.603
  898SOL    HW1 3593   3.460   5.998   2.534
  898SOL    HW2 3594   3.356   6.110   2.589
  899SOL     OW 3595   0.148   6.115   6.582
  899SOL    HW1 3596   0.220   6.095   6.517
  899SOL    HW2 3597   0.126   6.213   6.579
  900SOL     OW 3598   6.245   6.723   0.244
  900SOL    HW1 3599   6.185   6.794   0.282
  900SOL    HW2 3600   6.313   6.766   0.184
  901SOL     OW 3601   2.422   1.015   2.990
  901SOL    HW1 3602   2.323   1.027   2.984
  901SOL    HW2 3603   2.465   1.101   3.019
  902SOL     OW 3604   6.972   2.938   0.629
  902SOL    HW1 3605   6.972   2.994   0.711
  902SOL    HW2 3606   6.957   2.842   0.653
  903SOL     OW 3607   6.728   2.181   6.634
  903SOL    HW1 3608   6.730   2.169   6.733
  903SOL    HW2 3609   6.642   2.226   6.609
  904SOL     OW 3610   2.655   2.076   3.401
  904SOL    HW1 3611   2.607   2.037   3.323
  904SOL    HW2 3612   2.713   2.152   3.370
  905SOL     OW 3613   4.771   2.069   7.008
  905SOL    HW1 3614   4.759   2.168   7.003
  905SOL    HW2 3615   4.723   2.033   0.065
  906SOL     OW 3616   0.239   2.159   5.734
  906SOL    HW1 3617   0.284   2.225   5.674
  906SOL    HW2 3618   0.141   2.158   5.716
  907SOL     OW 3619   5.209   3.577   0.176
  907SOL    HW1 3620   5.154   3.657   0.199
  907SOL    HW2 3621   5.150   3.499   0.159
  908SOL     OW 3622   2.403   5.021   2.632
  908SOL    HW1 3623   2.461   5.001   2.553
  908SOL    HW2 3624   2.315   5.057   2.602
  909SOL     OW 3625   4.314   5.633   0.763
  909SOL    HW1 3626   4.242   5.565   0.778
  909SOL    HW2 3627   4.403   5.592   0.783
  910SOL     OW 3628   3.158   2.938   1.311
  910SOL    HW1 3629   3.241   2.882   1.303
  910SOL    HW2 3630   3.087   2.886   1.358
  911SOL     OW 3631   1.182   6.116   6.738
  911SOL    HW1 3632   1.179   6.207   6.698
  911SOL    HW2 3633   1.116   6.110   6.813
  912SOL     OW 3634   5.574   2.417   2.876
  912SOL    HW1 3635   5.653   2.479   2.877
  912SOL    HW2 3636   5.490   2.470   2.875
  913SOL     OW 3637   4.616   5.885   2.923
  913SOL    HW1 3638   4.545   5.948   2.893
  913SOL    HW2 3639   4.678   5.933   2.986
  914SOL     OW 3640   1.767   0.412   6.356
  914SOL    HW1 3641   1.772   0.393   6.258
  914SOL    HW2 3642   1.805   0.334   6.407
  915SOL     OW 3643   6.011   4.422   6.364
  915SOL    HW1 3644   6.004   4.421   6.464
  915SOL    HW2 3645   6.049   4.335   6.332
  916SOL     OW 3646   1.616   2.726   1.882
  916SOL    HW1 3647   1.590   2.823   1.884
  916SOL    HW2 3648   1.540   2.671   1.917
  917SOL     OW 3649   6.960   6.290   0.789
  917SOL    HW1 3650   7.020   6.301   0.710
  917SOL    HW2 3651   6.869   6.324   0.766
  918SOL     OW 3652   2.616   0.090   0.528
  918SOL    HW1 3653   2.646   0.180   0.559
  918SOL    HW2 3654   2.669   0.019   0.575
  919SOL     OW 3655   5.118   1.270   2.981
  919SOL    HW1 3656   5.091   1.174   2.985
  919SOL    HW2 3657   5.217   1.277   2.998
  920SOL     OW 3658   1.995   4.719   1.660
  920SOL    HW1 3659   2.077   4.768   1.690
  920SOL    HW2 3660   2.015   4.622   1.650
  921SOL     OW 3661   4.906   5.636   4.526
  921SOL    HW1 3662   4.907   5.586   4.440
  921SOL    HW2 3663   4.834   5.601   4.585
  922SOL     OW 3664   3.604   3.634   4.405
  922SOL    HW1 3665   3.625   3.638   4.308
  922SOL    HW2 3666   3.522   3.578   4.420
  923SOL     OW 3667   2.335   2.867   5.995
  923SOL    HW1 3668   2.328   2.768   5.979
  923SOL    HW2 3669   2.327   2.915   5.908
  924SOL     OW 3670   6.198   3.836   2.195
  924SOL    HW1 3671   6.106   3.873   2.210
  924SOL    HW2 3672   6.220   3.772   2.268
  925SOL     OW 3673   6.664   2.372   0.171
  925SOL    HW1 3674   6.603   2.433   0.222
  925SOL    HW2 3675   6.749   2.419   0.150
  926SOL     OW 3676   7.011   1.711   1.017
  926SOL    HW1 3677   7.007   1.665   1.105
  926SOL    HW2 3678   6.923   1.756   0.999
  927SOL     OW 3679   5.877   3.938   3.667
  927SOL    HW1 3680   5.783   3.911   3.689
  927SOL    HW2 3681   5.910   4.003   3.734
  928SOL     OW 3682   2.736   6.371   0.447
  928SOL    HW1 3683   2.743   6.321   0.361
  928SOL    HW2 3684   2.658   6.336   0.499
  929SOL     OW 3685   6.786   1.048   0.150
  929SOL    HW1 3686   6.728   1.125   0.178
  929SOL    HW2 3687   6.745   1.002   0.071
  930SOL     OW 3688   4.283   5.566   6.348
  930SOL    HW1 3689   4.314   5.588   6.256
  930SOL    HW2 3690   4.302   5.470   6.368
  931SOL     OW 3691   6.459   2.235   3.778
  931SOL    HW1 3692   6.483   2.323   3.820
  931SOL    HW2 3693   6.373   2.202   3.816
  932SOL     OW 3694   3.588   1.481   3.886
  932SOL    HW1 3695   3.520   1.478   3.813
  932SOL    HW2 3696   3.583   1.397   3.940
  933SOL     OW 3697   1.447   4.663   2.818
  933SOL    HW1 3698   1.504   4.743   2.833
  933SOL    HW2 3699   1.441   4.645   2.719
  934SOL     OW 3700   2.362   6.074   6.205
  934SOL    HW1 3701   2.389   5.999   6.265
  934SOL    HW2 3702   2.304   6.138   6.255
  935SOL     OW 3703   5.210   3.981   3.318
  935SOL    HW1 3704   5.266   4.052   3.276
  935SOL    HW2 3705   5.135   4.024   3.369
  936SOL     OW 3706   1.314   0.084   6.074
  936SOL    HW1 3707   1.343   0.016   6.141
  936SOL    HW2 3708   1.338   0.052   5.982
  937SOL     OW 3709   4.536   1.250   5.616
  937SOL    HW1 3710   4.545   1.293   5.526
  937SOL    HW2 3711   4.450   1.278   5.658
  938SOL     OW 3712   6.998   6.114   4.014
  938SOL    HW1 3713   6.989   6.014   4.010
  938SOL    HW2 3714   7.008   6.142   4.110
  939SOL     OW 3715   6.650   6.872   4.765
  939SOL    HW1 3716   6.656   6.810   4.843
  939SOL    HW2 3717   6.603   6.956   4.793
  940SOL     OW 3718   1.059   4.823   0.976
  940SOL    HW1 3719   1.118   4.761   0.924
  940SOL    HW2 3720   0.965   4.790   0.973
  941SOL     OW 3721   4.720   0.235   6.596
  941SOL    HW1 3722   4.812   0.264   6.570
  941SOL    HW2 3723   4.653   0.285   6.541
  942SOL     OW 3724   6.674   6.196   1.306
  942SOL    HW1 3725   6.680   6.120   1.241
  942SOL    HW2 3726   6.760   6.248   1.302
  943SOL     OW 3727   2.953   5.236   2.716
  943SOL    HW1 3728   2.988   5.145   2.695
  943SOL    HW2 3729   2.949   5.290   2.632
  944SOL     OW 3730   0.363   5.991   4.548
  944SOL    HW1 3731   0.392   6.079   4.585
  944SOL    HW2 3732   0.430   5.958   4.482
  945SOL     OW 3733   0.734   5.332   5.337
  945SOL    HW1 3734   0.683   5.406   5.292
  945SOL    HW2 3735   0.795   5.288   5.270
  946SOL     OW 3736   5.004   4.454   4.498
  946SOL    HW1 3737   4.993   4.412   4.408
  946SOL    HW2 3738   5.100   4.478   4.512
  947SOL     OW 3739   4.128   3.246   3.694
  947SOL    HW1 3740   4.034   3.280   3.687
  947SOL    HW2 3741   4.130   3.165   3.752
  948SOL     OW 3742   5.142   1.193   2.581
  948SOL    HW1 3743   5.086   1.110   2.586
  948SOL    HW2 3744   5.125   1.238   2.493
  949SOL     OW 3745   2.904   6.778   0.357
  949SOL    HW1 3746   2.935   6.683   0.354
  949SOL    HW2 3747   2.870   6.800   0.448
  950SOL     OW 3748   6.393   5.805   1.836
  950SOL    HW1 3749   6.311   5.749   1.839
  950SOL    HW2 3750   6.396   5.865   1.916
  951SOL     OW 3751   1.632   0.197   3.593
  951SOL    HW1 3752   1.612   0.166   3.686
  951SOL    HW2 3753   1.731   0.200   3.579
  952SOL     OW 3754   4.290   1.953   2.601
  952SOL    HW1 3755   4.215   2.009   2.636
  952SOL    HW2 3756   4.332   1.999   2.523
  953SOL     OW 3757   6.877   6.083   4.864
  953SOL    HW1 3758   6.848   6.023   4.790
  953SOL    HW2 3759   6.870   6.179   4.835
  954SOL     OW 3760   4.610   5.537   2.362
  954SOL    HW1 3761   4.644   5.472   2.431
  954SOL    HW2 3762   4.660   5.524   2.277
  955SOL     OW 3763   1.618   4.355   0.149
  955SOL    HW1 3764   1.676   4.307   0.215
  955SOL    HW2 3765   1.575   4.434   0.193
  956SOL     OW 3766   0.368   0.952   0.987
  956SOL    HW1 3767   0.309   1.033   0.989
  956SOL    HW2 3768   0.427   0.956   0.907
  957SOL     OW 3769   6.359   1.292   2.135
  957SOL    HW1 3770   6.281   1.283   2.073
  957SOL    HW2 3771   6.327   1.318   2.226
  958SOL     OW 3772   4.923   6.633   2.103
  958SOL    HW1 3773   4.940   6.570   2.179
  958SOL    HW2 3774   4.864   6.708   2.134
  959SOL     OW 3775   3.399   6.631   4.584
  959SOL    HW1 3776   3.368   6.717   4.543
  959SOL    HW2 3777   3.342   6.556   4.550
  960SOL     OW 3778   0.775   0.587   0.944
  960SOL    HW1 3779   0.793   0.665   1.004
  960SOL    HW2 3780   0.722   0.617   0.865
  961SOL     OW 3781   3.041   6.631   3.214
  961SOL    HW1 3782   3.137   6.654   3.229
  961SOL    HW2 3783   2.998   6.703   3.160
  962SOL     OW 3784   6.328   6.786   4.954
  962SOL    HW1 3785   6.312   6.714   4.886
  962SOL    HW2 3786   6.387   6.750   5.027
  963SOL     OW 3787   4.682   1.875   1.311
  963SOL    HW1 3788   4.701   1.906   1.404
  963SOL    HW2 3789   4.602   1.815   1.312
  964SOL     OW 3790   4.964   4.637   5.007
  964SOL    HW1 3791   4.931   4.719   5.054
  964SOL    HW2 3792   4.891   4.601   4.948
  965SOL     OW 3793   5.352   2.216   2.419
  965SOL    HW1 3794   5.377   2.151   2.347
  965SOL    HW2 3795   5.396   2.189   2.505
  966SOL     OW 3796   5.139   1.995   3.888
  966SOL    HW1 3797   5.222   2.000   3.943
  966SOL    HW2 3798   5.140   1.910   3.834
  967SOL     OW 3799   4.180   4.600   6.147
  967SOL    HW1 3800   4.151   4.505   6.144
  967SOL    HW2 3801   4.165   4.637   6.239
  968SOL     OW 3802   3.411   0.187   1.985
  968SOL    HW1 3803   3.444   0.201   1.892
  968SOL    HW2 3804   3.415   0.273   2.035
  969SOL     OW 3805   3.523   5.094   6.162
  969SOL    HW1 3806   3.545   5.158   6.089
  969SOL    HW2 3807   3.470   5.018   6.125
  970SOL     OW 3808   6.249   0.735   5.307
  970SOL    HW1 3809   6.277   0.645   5.273
  970SOL    HW2 3810   6.152   0.733   5.331
  971SOL     OW 3811   6.768   4.371   2.784
  971SOL    HW1 3812   6.673   4.396   2.763
  971SOL    HW2 3813   6.803   4.430   2.856
  972SOL     OW 3814   6.597   2.670   0.951
  972SOL    HW1 3815   6.535   2.683   0.874
  972SOL    HW2 3816   6.592   2.575   0.983
  973SOL     OW 3817   0.481   4.452   5.860
  973SOL    HW1 3818   0.562   4.494   5.901
  973SOL    HW2 3819   0.508   4.399   5.780
  974SOL     OW 3820   0.375   4.807   3.850
  974SOL    HW1 3821   0.413   4.863   3.776
  974SOL    HW2 3822   0.385   4.711   3.827
  975SOL     OW 3823   2.093   6.786   1.739
  975SOL    HW1 3824   2.011   6.842   1.734
  975SOL    HW2 3825   2.174   6.844   1.728
  976SOL     OW 3826   6.357   4.375   1.825
  976SOL    HW1 3827   6.360   4.303   1.755
  976SOL    HW2 3828   6.400   4.341   1.909
  977SOL     OW 3829   1.067   1.552   2.327
  977SOL    HW1 3830   1.025   1.585   2.412
  977SOL    HW2 3831   0.996   1.540   2.258
  978SOL     OW 3832   5.782   2.069   1.830
  978SOL    HW1 3833   5.746   2.125   1.756
  978SOL    HW2 3834   5.882   2.064   1.822
  979SOL     OW 3835   0.062   3.151   6.340
  979SOL    HW1 3836   0.075   3.110   6.430
  979SOL    HW2 3837   0.047   3.249   6.350
  980SOL     OW 3838   4.095   1.256   4.700
  980SOL    HW1 3839   4.052   1.197   4.632
  980SOL    HW2 3840   4.119   1.344   4.658
  981SOL     OW 3841   6.880   0.023   4.828
  981SOL    HW1 3842   6.962   0.006   4.773
  981SOL    HW2 3843   6.800   7.012   4.781
  982SOL     OW 3844   0.530   1.868   5.299
  982SOL    HW1 3845   0.625   1.862   5.330
  982SOL    HW2 3846   0.479   1.930   5.359
  983SOL     OW 3847   6.780   3.654   3.164
  983SOL    HW1 3848   6.778   3.595   3.083
  983SOL    HW2 3849   6.689   3.654   3.207
  984SOL     OW 3850   1.881   2.181   3.109
  984SOL    HW1 3851   1.879   2.100   3.051
  984SOL    HW2 3852   1.838   2.257   3.060
  985SOL     OW 3853   5.986   3.588   3.784
  985SOL    HW1 3854   6.006   3.667   3.726
  985SOL    HW2 3855   5.923   3.616   3.857
  986SOL     OW 3856   4.710   4.216   1.480
  986SOL    HW1 3857   4.714   4.239   1.577
  986SOL    HW2 3858   4.660   4.130   1.468
  987SOL     OW 3859   5.653   5.937   3.489
  987SOL    HW1 3860   5.599   5.864   3.446
  987SOL    HW2 3861   5.591   6.010   3.519
  988SOL     OW 3862   3.657   3.866   1.680
  988SOL    HW1 3863   3.642   3.943   1.742
  988SOL    HW2 3864   3.572   3.814   1.670
  989SOL     OW 3865   7.018   2.536   0.431
  989SOL    HW1 3866   0.022   2.455   0.482
  989SOL    HW2 3867   6.942   2.580   0.479
  990SOL     OW 3868   3.391   0.877   2.910
  990SOL    HW1 3869   3.423   0.961   2.865
  990SOL    HW2 3870   3.426   0.798   2.861
  991SOL     OW 3871   6.474   4.099   3.956
  991SOL    HW1 3872   6.542   4.156   4.002
  991SOL    HW2 3873   6.486   4.003   3.983
  992SOL     OW 3874   1.111   2.845   1.240
  992SOL    HW1 3875   1.102   2.784   1.318
  992SOL    HW2 3876   1.042   2.917   1.245
  993SOL     OW 3877   1.175   4.191   1.355
  993SOL    HW1 3878   1.085   4.189   1.312
  993SOL    HW2 3879   1.245   4.174   1.286
  994SOL     OW 3880   3.938   6.386   1.441
  994SOL    HW1 3881   3.846   6.372   1.478
  994SOL    HW2 3882   4.002   6.396   1.517
  995SOL     OW 3883   4.997   3.573   5.792
  995SOL    HW1 3884   5.053   3.497   5.759
  995SOL    HW2 3885   4.904   3.541   5.811
  996SOL     OW 3886   4.316   6.229   5.783
  996SOL    HW1 3887   4.256   6.189   5.714
  996SOL    HW2 3888   4.402   6.178   5.785
  997SOL     OW 3889   1.660   6.798   3.436
  997SOL    HW1 3890   1.623   6.714   3.476
  997SOL    HW2 3891   1.755   6.809   3.463
  998SOL     OW 3892   6.331   0.173   6.351
  998SOL    HW1 3893   6.257   0.109   6.374
  998SOL    HW2 3894   6.413   0.150   6.404
  999SOL     OW 3895   4.745   3.240   1.376
  999SOL    HW1 3896   4.824   3.286   1.418
  999SOL    HW2 3897   4.662   3.291   1.395
 1000SOL     OW 3898   3.994   1.380   1.081
 1000SOL    HW1 3899   3.925   1.447   1.052
 1000SOL    HW2 3900   4.038   1.341   1.001
 1001SOL     OW 3901   2.561   6.524   1.924
 1001SOL    HW1 3902   2.469   6.554   1.898
 1001SOL    HW2 3903   2.557   6.474   2.010
 1002SOL     OW 3904   4.923   2.401   1.997
 1002SOL    HW1 3905   4.981   2.477   1.969
 1002SOL    HW2 3906   4.918   2.334   1.923
 1003SOL     OW 3907   1.533   5.975   2.750
 1003SOL    HW1 3908   1.576   5.953   2.663
 1003SOL    HW2 3909   1.441   6.010   2.735
 1004SOL     OW 3910   6.741   1.327   3.045
 1004SOL    HW1 3911   6.732   1.321   2.945
 1004SOL    HW2 3912   6.671   1.388   3.081
 1005SOL     OW 3913   1.759   4.407   4.278
 1005SOL    HW1 3914   1.836   4.425   4.216
 1005SOL    HW2 3915   1.678   4.383   4.225
 1006SOL     OW 3916   2.092   4.151   0.490
 1006SOL    HW1 3917   2.068   4.106   0.404
 1006SOL    HW2 3918   2.044   4.106   0.565
 1007SOL     OW 3919   4.596   1.674   6.901
 1007SOL    HW1 3920   4.540   1.597   6.869
 1007SOL    HW2 3921   4.692   1.649   6.897
 1008SOL     OW 3922   0.814   4.555   4.964
 1008SOL    HW1 3923   0.908   4.530   4.986
 1008SOL    HW2 3924   0.813   4.605   4.877
 1009SOL     OW 3925   6.052   4.826   5.196
 1009SOL    HW1 3926   6.002   4.896   5.246
 1009SOL    HW2 3927   6.143   4.860   5.171
 1010SOL     OW 3928   2.058   2.922   1.761
 1010SOL    HW1 3929   2.026   3.014   1.785
 1010SOL    HW2 3930   2.052   2.908   1.662
 1011SOL     OW 3931   1.028   5.299   2.648
 1011SOL    HW1 3932   0.991   5.209   2.674
 1011SOL    HW2 3933   0.973   5.371   2.690
 1012SOL     OW 3934   6.245   0.069   2.323
 1012SOL    HW1 3935   6.326   0.122   2.298
 1012SOL    HW2 3936   6.273   7.008   2.368
 1013SOL     OW 3937   6.779   0.962   6.275
 1013SOL    HW1 3938   6.779   1.057   6.244
 1013SOL    HW2 3939   6.722   0.953   6.357
 1014SOL     OW 3940   1.312   4.782   3.888
 1014SOL    HW1 3941   1.396   4.729   3.905
 1014SOL    HW2 3942   1.325   4.839   3.807
 1015SOL     OW 3943   2.880   0.199   6.443
 1015SOL    HW1 3944   2.921   0.203   6.351
 1015SOL    HW2 3945   2.852   0.105   6.462
 1016SOL     OW 3946   5.048   4.092   1.330
 1016SOL    HW1 3947   5.026   4.160   1.400
 1016SOL    HW2 3948   5.005   4.005   1.352
 1017SOL     OW 3949   2.298   1.434   1.876
 1017SOL    HW1 3950   2.316   1.517   1.823
 1017SOL    HW2 3951   2.373   1.369   1.863
 1018SOL     OW 3952   0.078   4.613   3.520
 1018SOL    HW1 3953   0.053   4.545   3.451
 1018SOL    HW2 3954   0.141   4.680   3.480
 1019SOL     OW 3955   6.638   5.227   0.715
 1019SOL    HW1 3956   6.718   5.252   0.770
 1019SOL    HW2 3957   6.632   5.128   0.708
 1020SOL     OW 3958   0.038   0.576   1.741
 1020SOL    HW1 3959   0.063   0.646   1.674
 1020SOL    HW2 3960   6.977   0.603   1.787
 1021SOL     OW 3961   6.368   5.993   2.036
 1021SOL    HW1 3962   6.459   5.987   2.078
 1021SOL    HW2 3963   6.303   5.941   2.092
 1022SOL     OW 3964   2.735   6.127   6.096
 1022SOL    HW1 3965   2.690   6.186   6.163
 1022SOL    HW2 3966   2.725   6.168   6.005
 1023SOL     OW 3967   6.827   0.965   2.576
 1023SOL    HW1 3968   6.903   1.017   2.615
 1023SOL    HW2 3969   6.776   0.920   2.649
 1024SOL     OW 3970   0.841   1.154   4.706
 1024SOL    HW1 3971   0.864   1.089   4.779
 1024SOL    HW2 3972   0.760   1.123   4.658
 1025SOL     OW 3973   5.109   3.432   6.648
 1025SOL    HW1 3974   5.151   3.512   6.604
 1025SOL    HW2 3975   5.045   3.463   6.718
 1026SOL     OW 3976   3.167   2.356   1.731
 1026SOL    HW1 3977   3.220   2.288   1.783
 1026SOL    HW2 3978   3.087   2.384   1.784
 1027SOL     OW 3979   1.387   6.243   1.682
 1027SOL    HW1 3980   1.462   6.186   1.650
 1027SOL    HW2 3981   1.310   6.186   1.708
 1028SOL     OW 3982   1.211   6.211   3.216
 1028SOL    HW1 3983   1.277   6.138   3.233
 1028SOL    HW2 3984   1.120   6.180   3.241
 1029SOL     OW 3985   1.248   2.114   5.768
 1029SOL    HW1 3986   1.248   2.120   5.867
 1029SOL    HW2 3987   1.155   2.122   5.733
 1030SOL     OW 3988   3.236   3.169   1.846
 1030SOL    HW1 3989   3.202   3.255   1.808
 1030SOL    HW2 3990   3.188   3.092   1.802
 1031SOL     OW 3991   3.632   3.291   1.671
 1031SOL    HW1 3992   3.587   3.214   1.717
 1031SOL    HW2 3993   3.563   3.358   1.643
 1032SOL     OW 3994   2.207   1.282   5.579
 1032SOL    HW1 3995   2.133   1.223   5.549
 1032SOL    HW2 3996   2.279   1.227   5.622
 1033SOL     OW 3997   1.408   5.940   2.253
 1033SOL    HW1 3998   1.316   5.962   2.220
 1033SOL    HW2 3999   1.475   5.961   2.181
 1034SOL     OW 4000   3.264   6.394   4.491
 1034SOL    HW1 4001   3.169   6.418   4.510
 1034SOL    HW2 4002   3.284   6.304   4.531
 1035SOL     OW 4003   0.623   2.339   5.852
 1035SOL    HW1 4004   0.681   2.410   5.891
 1035SOL    HW2 4005   0.674   2.253   5.844
 1036SOL     OW 4006   4.926   1.470   1.308
 1036SOL    HW1 4007   4.952   1.514   1.394
 1036SOL    HW2 4008   4.827   1.481   1.294
 1037SOL     OW 4009   1.960   2.364   2.715
 1037SOL    HW1 4010   2.026   2.415   2.660
 1037SOL    HW2 4011   1.890   2.326   2.655
 1038SOL     OW 4012   1.981   0.736   6.753
 1038SOL    HW1 4013   1.888   0.708   6.776
 1038SOL    HW2 4014   1.978   0.825   6.707
 1039SOL     OW 4015   3.203   2.967   3.675
 1039SOL    HW1 4016   3.231   2.959   3.771
 1039SOL    HW2 4017   3.125   3.029   3.668
 1040SOL     OW 4018   5.250   0.887   3.259
 1040SOL    HW1 4019   5.170   0.947   3.248
 1040SOL    HW2 4020   5.251   0.818   3.187
 1041SOL     OW 4021   6.547   6.547   4.646
 1041SOL    HW1 4022   6.509   6.603   4.573
 1041SOL    HW2 4023   6.608   6.478   4.607
 1042SOL     OW 4024   4.660   5.140   2.318
 1042SOL    HW1 4025   4.680   5.063   2.378
 1042SOL    HW2 4026   4.648   5.223   2.373
 1043SOL     OW 4027   3.203   1.411   3.315
 1043SOL    HW1 4028   3.256   1.488   3.279
 1043SOL    HW2 4029   3.176   1.351   3.239
 1044SOL     OW 4030   6.025   5.253   1.428
 1044SOL    HW1 4031   6.000   5.343   1.393
 1044SOL    HW2 4032   5.942   5.199   1.443
 1045SOL     OW 4033   2.372   0.105   3.627
 1045SOL    HW1 4034   2.427   0.083   3.547
 1045SOL    HW2 4035   2.431   0.115   3.707
 1046SOL     OW 4036   2.668   1.043   1.450
 1046SOL    HW1 4037   2.736   1.100   1.496
 1046SOL    HW2 4038   2.707   1.006   1.366
 1047SOL     OW 4039   3.572   6.379   3.696
 1047SOL    HW1 4040   3.549   6.469   3.660
 1047SOL    HW2 4041   3.489   6.334   3.729
 1048SOL     OW 4042   2.466   6.193   1.969
 1048SOL    HW1 4043   2.465   6.094   1.987
 1048SOL    HW2 4044   2.455   6.243   2.054
 1049SOL     OW 4045   4.228   0.029   4.485
 1049SOL    HW1 4046   4.178   0.116   4.489
 1049SOL    HW2 4047   4.176   6.983   4.535
 1050SOL     OW 4048   3.905   5.066   3.235
 1050SOL    HW1 4049   3.835   5.133   3.210
 1050SOL    HW2 4050   3.871   5.009   3.310
 1051SOL     OW 4051   6.897   6.701   0.427
 1051SOL    HW1 4052   6.852   6.614   0.449
 1051SOL    HW2 4053   6.828   6.773   0.417
 1052SOL     OW 4054   4.074   0.253   5.995
 1052SOL    HW1 4055   3.986   0.293   5.967
 1052SOL    HW2 4056   4.135   0.247   5.917
 1053SOL     OW 4057   5.413   3.671   2.035
 1053SOL    HW1 4058   5.416   3.682   1.936
 1053SOL    HW2 4059   5.321   3.689   2.068
 1054SOL     OW 4060   3.060   3.822   0.659
 1054SOL    HW1 4061   3.039   3.725   0.647
 1054SOL    HW2 4062   3.156   3.834   0.682
 1055SOL     OW 4063   5.295   5.717   6.683
 1055SOL    HW1 4064   5.311   5.635   6.738
 1055SOL    HW2 4065   5.221   5.770   6.724
 1056SOL     OW 4066   1.956   3.888   0.636
 1056SOL    HW1 4067   1.992   3.825   0.567
 1056SOL    HW2 4068   1.929   3.836   0.717
 1057SOL     OW 4069   3.379   1.413   1.917
 1057SOL    HW1 4070   3.389   1.324   1.874
 1057SOL    HW2 4071   3.421   1.411   2.008
 1058SOL     OW 4072   3.858   2.167   2.848
 1058SOL    HW1 4073   3.823   2.135   2.936
 1058SOL    HW2 4074   3.854   2.267   2.845
 1059SOL     OW 4075   1.972   6.392   1.750
 1059SOL    HW1 4076   1.958   6.400   1.849
 1059SOL    HW2 4077   1.902   6.443   1.702
 1060SOL     OW 4078   0.233   5.627   4.263
 1060SOL    HW1 4079   0.155   5.584   4.217
 1060SOL    HW2 4080   0.224   5.614   4.362
 1061SOL     OW 4081   6.346   4.365   6.902
 1061SOL    HW1 4082   6.408   4.305   6.850
 1061SOL    HW2 4083   6.286   4.413   6.838
 1062SOL     OW 4084   3.986   6.400   4.980
 1062SOL    HW1 4085   3.933   6.448   5.049
 1062SOL    HW2 4086   3.995   6.457   4.898
 1063SOL     OW 4087   0.809   6.879   6.051
 1063SOL    HW1 4088   0.908   6.864   6.045
 1063SOL    HW2 4089   0.762   6.812   5.994
 1064SOL     OW 4090   0.835   4.794   1.354
 1064SOL    HW1 4091   0.877   4.845   1.429
 1064SOL    HW2 4092   0.794   4.858   1.289
 1065SOL     OW 4093   3.788   0.975   3.740
 1065SOL    HW1 4094   3.840   1.000   3.659
 1065SOL    HW2 4095   3.740   0.889   3.725
 1066SOL     OW 4096   4.925   6.851   2.533
 1066SOL    HW1 4097   5.020   6.877   2.521
 1066SOL    HW2 4098   4.911   6.759   2.498
 1067SOL     OW 4099   2.649   1.149   0.149
 1067SOL    HW1 4100   2.567   1.196   0.181
 1067SOL    HW2 4101   2.624   1.070   0.094
 1068SOL     OW 4102   6.350   3.820   1.047
 1068SOL    HW1 4103   6.414   3.896   1.036
 1068SOL    HW2 4104   6.261   3.846   1.009
 1069SOL     OW 4105   5.752   4.674   0.570
 1069SOL    HW1 4106   5.800   4.588   0.552
 1069SOL    HW2 4107   5.682   4.688   0.499
 1070SOL     OW 4108   1.991   0.191   2.517
 1070SOL    HW1 4109   1.895   0.212   2.500
 1070SOL    HW2 4110   2.048   0.257   2.468
 1071SOL     OW 4111   0.126   2.060   4.893
 1071SOL    HW1 4112   0.146   2.001   4.815
 1071SOL    HW2 4113   0.189   2.039   4.968
 1072SOL     OW 4114   2.315   0.650   1.473
 1072SOL    HW1 4115   2.380   0.582   1.510
 1072SOL    HW2 4116   2.263   0.690   1.548
 1073SOL     OW 4117   5.402   1.739   3.229
 1073SOL    HW1 4118   5.367   1.824   3.268
 1073SOL    HW2 4119   5.363   1.726   3.138
 1074SOL     OW 4120   2.993   5.161   2.290
 1074SOL    HW1 4121   3.056   5.088   2.314
 1074SOL    HW2 4122   2.948   5.138   2.203
 1075SOL     OW 4123   5.636   1.645   4.746
 1075SOL    HW1 4124   5.543   1.667   4.776
 1075SOL    HW2 4125   5.654   1.691   4.659
 1076SOL     OW 4126   2.194   4.064   5.281
 1076SOL    HW1 4127   2.276   4.045   5.227
 1076SOL    HW2 4128   2.113   4.050   5.224
 1077SOL     OW 4129   0.146   0.743   0.317
 1077SOL    HW1 4130   0.064   0.728   0.262
 1077SOL    HW2 4131   0.225   0.754   0.256
 1078SOL     OW 4132   6.576   6.642   3.789
 1078SOL    HW1 4133   6.514   6.676   3.860
 1078SOL    HW2 4134   6.523   6.604   3.713
 1079SOL     OW 4135   1.250   5.287   2.826
 1079SOL    HW1 4136   1.332   5.326   2.784
 1079SOL    HW2 4137   1.170   5.313   2.772
 1080SOL     OW 4138   2.270   5.896   5.222
 1080SOL    HW1 4139   2.255   5.926   5.128
 1080SOL    HW2 4140   2.222   5.809   5.237
 1081SOL     OW 4141   6.872   5.851   4.628
 1081SOL    HW1 4142   6.833   5.768   4.666
 1081SOL    HW2 4143   6.953   5.828   4.574
 1082SOL     OW 4144   6.067   0.953   5.631
 1082SOL    HW1 4145   6.146   0.892   5.632
 1082SOL    HW2 4146   6.063   1.006   5.715
 1083SOL     OW 4147   5.074   4.386   0.339
 1083SOL    HW1 4148   5.007   4.313   0.324
 1083SOL    HW2 4149   5.128   4.398   0.256
 1084SOL     OW 4150   6.365   0.107   6.829
 1084SOL    HW1 4151   6.377   0.177   6.899
 1084SOL    HW2 4152   6.290   0.047   6.855
 1085SOL     OW 4153   1.647   3.403   4.529
 1085SOL    HW1 4154   1.637   3.424   4.431
 1085SOL    HW2 4155   1.709   3.468   4.571
 1086SOL     OW 4156   6.354   4.504   6.195
 1086SOL    HW1 4157   6.447   4.538   6.178
 1086SOL    HW2 4158   6.345   4.411   6.161
 1087SOL     OW 4159   1.183   1.067   5.192
 1087SOL    HW1 4160   1.138   1.001   5.132
 1087SOL    HW2 4161   1.151   1.159   5.170
 1088SOL     OW 4162   0.438   5.400   3.906
 1088SOL    HW1 4163   0.431   5.300   3.909
 1088SOL    HW2 4164   0.525   5.426   3.865
 1089SOL     OW 4165   0.133   5.280   4.912
 1089SOL    HW1 4166   0.216   5.277   4.967
 1089SOL    HW2 4167   0.155   5.307   4.819
 1090SOL     OW 4168   5.816   1.905   4.265
 1090SOL    HW1 4169   5.878   1.963   4.318
 1090SOL    HW2 4170   5.735   1.884   4.321
 1091SOL     OW 4171   2.052   3.406   3.789
 1091SOL    HW1 4172   2.108   3.399   3.871
 1091SOL    HW2 4173   2.049   3.501   3.758
 1092SOL     OW 4174   0.917   5.172   1.267
 1092SOL    HW1 4175   1.013   5.155   1.244
 1092SOL    HW2 4176   0.901   5.149   1.363
 1093SOL     OW 4177   2.458   6.803   1.216
 1093SOL    HW1 4178   2.546   6.805   1.167
 1093SOL    HW2 4179   2.463   6.864   1.295
 1094SOL     OW 4180   0.765   6.583   2.802
 1094SOL    HW1 4181   0.836   6.627   2.856
 1094SOL    HW2 4182   0.702   6.652   2.766
 1095SOL     OW 4183   0.208   2.410   6.349
 1095SOL    HW1 4184   0.253   2.415   6.260
 1095SOL    HW2 4185   0.226   2.494   6.400
 1096SOL     OW 4186   2.809   5.732   0.781
 1096SOL    HW1 4187   2.818   5.730   0.682
 1096SOL    HW2 4188   2.858   5.655   0.821
 1097SOL     OW 4189   2.075   5.522   3.779
 1097SOL    HW1 4190   2.043   5.484   3.866
 1097SOL    HW2 4191   2.113   5.449   3.723
 1098SOL     OW 4192   6.001   4.183   6.615
 1098SOL    HW1 4193   6.090   4.221   6.591
 1098SOL    HW2 4194   5.949   4.166   6.532
 1099SOL     OW 4195   4.361   1.503   5.975
 1099SOL    HW1 4196   4.300   1.433   6.012
 1099SOL    HW2 4197   4.394   1.561   6.049
 1100SOL     OW 4198   3.894   1.244   3.832
 1100SOL    HW1 4199   3.806   1.204   3.858
 1100SOL    HW2 4200   3.907   1.236   3.733
 1101SOL     OW 4201   5.501   3.634   5.073
 1101SOL    HW1 4202   5.525   3.544   5.037
 1101SOL    HW2 4203   5.580   3.672   5.121
 1102SOL     OW 4204   2.410   0.906   4.445
 1102SOL    HW1 4205   2.336   0.910   4.512
 1102SOL    HW2 4206   2.428   0.998   4.410
 1103SOL     OW 4207   2.802   1.705   6.961
 1103SOL    HW1 4208   2.794   1.650   6.878
 1103SOL    HW2 4209   2.831   1.798   6.937
 1104SOL     OW 4210   1.082   4.128   3.494
 1104SOL    HW1 4211   1.135   4.161   3.416
 1104SOL    HW2 4212   1.033   4.204   3.536
 1105SOL     OW 4213   5.473   2.119   5.333
 1105SOL    HW1 4214   5.388   2.093   5.288
 1105SOL    HW2 4215   5.475   2.082   5.426
 1106SOL     OW 4216   0.884   1.697   0.430
 1106SOL    HW1 4217   0.977   1.693   0.393
 1106SOL    HW2 4218   0.839   1.609   0.416
 1107SOL     OW 4219   1.321   0.102   6.431
 1107SOL    HW1 4220   1.356   0.053   6.351
 1107SOL    HW2 4221   1.281   0.189   6.402
 1108SOL     OW 4222   3.421   6.384   4.260
 1108SOL    HW1 4223   3.371   6.388   4.346
 1108SOL    HW2 4224   3.491   6.313   4.265
 1109SOL     OW 4225   5.950   1.569   3.620
 1109SOL    HW1 4226   5.934   1.608   3.529
 1109SOL    HW2 4227   5.966   1.471   3.612
 1110SOL     OW 4228   3.438   1.185   2.956
 1110SOL    HW1 4229   3.339   1.185   2.970
 1110SOL    HW2 4230   3.483   1.157   3.041
 1111SOL     OW 4231   4.671   4.296   6.216
 1111SOL    HW1 4232   4.581   4.264   6.187
 1111SOL    HW2 4233   4.699   4.247   6.298
 1112SOL     OW 4234   6.418   6.863   3.155
 1112SOL    HW1 4235   6.466   6.775   3.156
 1112SOL    HW2 4236   6.331   6.854   3.107
 1113SOL     OW 4237   6.447   3.797   2.509
 1113SOL    HW1 4238   6.488   3.725   2.565
 1113SOL    HW2 4239   6.370   3.760   2.457
 1114SOL     OW 4240   3.775   2.560   6.081
 1114SOL    HW1 4241   3.815   2.648   6.054
 1114SOL    HW2 4242   3.848   2.496   6.106
 1115SOL     OW 4243   3.538   4.404   5.602
 1115SOL    HW1 4244   3.638   4.403   5.603
 1115SOL    HW2 4245   3.503   4.323   5.649
 1116SOL     OW 4246   5.176   0.948   0.186
 1116SOL    HW1 4247   5.095   0.916   0.138
 1116SOL    HW2 4248   5.223   1.017   0.131
 1117SOL     OW 4249   1.293   2.582   1.325
 1117SOL    HW1 4250   1.205   2.543   1.298
 1117SOL    HW2 4251   1.278   2.670   1.371
 1118SOL     OW 4252   2.807   5.963   6.567
 1118SOL    HW1 4253   2.875   5.993   6.634
 1118SOL    HW2 4254   2.833   5.994   6.476
 1119SOL     OW 4255   4.277   4.637   2.918
 1119SOL    HW1 4256   4.192   4.667   2.961
 1119SOL    HW2 4257   4.344   4.615   2.989
 1120SOL     OW 4258   6.366   5.712   1.225
 1120SOL    HW1 4259   6.270   5.739   1.231
 1120SOL    HW2 4260   6.392   5.664   1.310
 1121SOL     OW 4261   0.825   5.537   4.318
 1121SOL    HW1 4262   0.754   5.471   4.340
 1121SOL    HW2 4263   0.915   5.498   4.340
 1122SOL     OW 4264   5.566   3.086   1.922
 1122SOL    HW1 4265   5.642   3.152   1.924
 1122SOL    HW2 4266   5.592   3.007   1.868
 1123SOL     OW 4267   4.436   2.132   2.958
 1123SOL    HW1 4268   4.450   2.136   3.057
 1123SOL    HW2 4269   4.351   2.179   2.934
 1124SOL     OW 4270   1.478   2.962   4.954
 1124SOL    HW1 4271   1.432   3.043   4.919
 1124SOL    HW2 4272   1.409   2.897   4.988
 1125SOL     OW 4273   1.862   3.678   4.956
 1125SOL    HW1 4274   1.938   3.727   4.999
 1125SOL    HW2 4275   1.810   3.741   4.897
 1126SOL     OW 4276   4.296   5.680   5.631
 1126SOL    HW1 4277   4.295   5.693   5.532
 1126SOL    HW2 4278   4.244   5.598   5.655
 1127SOL     OW 4279   5.197   6.281   3.750
 1127SOL    HW1 4280   5.227   6.197   3.704
 1127SOL    HW2 4281   5.176   6.260   3.846
 1128SOL     OW 4282   6.083   0.621   3.670
 1128SOL    HW1 4283   6.175   0.649   3.696
 1128SOL    HW2 4284   6.021   0.699   3.678
 1129SOL     OW 4285   1.764   6.761   0.900
 1129SOL    HW1 4286   1.837   6.771   0.832
 1129SOL    HW2 4287   1.707   6.682   0.876
 1130SOL     OW 4288   1.821   5.429   2.441
 1130SOL    HW1 4289   1.825   5.332   2.417
 1130SOL    HW2 4290   1.764   5.441   2.522
 1131SOL     OW 4291   1.424   6.943   3.698
 1131SOL    HW1 4292   1.447   6.880   3.772
 1131SOL    HW2 4293   1.425   0.013   3.732
 1132SOL     OW 4294   4.740   0.891   2.472
 1132SOL    HW1 4295   4.820   0.941   2.506
 1132SOL    HW2 4296   4.756   0.793   2.480
 1133SOL     OW 4297   1.606   0.295   5.171
 1133SOL    HW1 4298   1.580   0.212   5.122
 1133SOL    HW2 4299   1.587   0.283   5.269
 1134SOL     OW 4300   4.797   6.873   2.170
 1134SOL    HW1 4301   4.866   6.943   2.154
 1134SOL    HW2 4302   4.709   6.917   2.190
 1135SOL     OW 4303   2.568   6.508   4.094
 1135SOL    HW1 4304   2.549   6.530   4.190
 1135SOL    HW2 4305   2.662   6.474   4.086
 1136SOL     OW 4306   2.993   6.469   2.803
 1136SOL    HW1 4307   3.081   6.440   2.764
 1136SOL    HW2 4308   2.963   6.401   2.870
 1137SOL     OW 4309   0.497   6.456   6.914
 1137SOL    HW1 4310   0.466   6.401   6.991
 1137SOL    HW2 4311   0.453   6.425   6.830
 1138SOL     OW 4312   1.633   3.272   5.517
 1138SOL    HW1 4313   1.619   3.199   5.449
 1138SOL    HW2 4314   1.728   3.270   5.548
 1139SOL     OW 4315   2.380   4.859   4.279
 1139SOL    HW1 4316   2.339   4.949   4.264
 1139SOL    HW2 4317   2.356   4.799   4.203
 1140SOL     OW 4318   1.891   1.485   1.463
 1140SOL    HW1 4319   1.848   1.509   1.376
 1140SOL    HW2 4320   1.934   1.395   1.454
 1141SOL     OW 4321   5.996   5.254   6.013
 1141SOL    HW1 4322   5.905   5.238   6.051
 1141SOL    HW2 4323   6.045   5.318   6.071
 1142SOL     OW 4324   2.547   0.101   3.832
 1142SOL    HW1 4325   2.615   0.166   3.797
 1142SOL    HW2 4326   2.562   0.086   3.929
 1143SOL     OW 4327   1.206   3.627   1.931
 1143SOL    HW1 4328   1.157   3.664   2.010
 1143SOL    HW2 4329   1.157   3.652   1.847
 1144SOL     OW 4330   5.239   4.215   2.916
 1144SOL    HW1 4331   5.303   4.236   2.842
 1144SOL    HW2 4332   5.153   4.264   2.901
 1145SOL     OW 4333   1.371   2.528   0.877
 1145SOL    HW1 4334   1.318   2.448   0.847
 1145SOL    HW2 4335   1.329   2.565   0.960
 1146SOL     OW 4336   0.705   1.871   1.506
 1146SOL    HW1 4337   0.632   1.923   1.464
 1146SOL    HW2 4338   0.763   1.830   1.435
 1147SOL     OW 4339   3.086   5.683   1.250
 1147SOL    HW1 4340   3.136   5.630   1.319
 1147SOL    HW2 4341   2.992   5.649   1.244
 1148SOL     OW 4342   4.271   6.385   2.121
 1148SOL    HW1 4343   4.345   6.371   2.055
 1148SOL    HW2 4344   4.183   6.368   2.075
 1149SOL     OW 4345   6.296   2.871   1.855
 1149SOL    HW1 4346   6.257   2.947   1.907
 1149SOL    HW2 4347   6.344   2.810   1.918
 1150SOL     OW 4348   1.012   4.597   0.068
 1150SOL    HW1 4349   0.934   4.541   0.040
 1150SOL    HW2 4350   1.087   4.585   0.002
 1151SOL     OW 4351   6.457   5.293   3.928
 1151SOL    HW1 4352   6.423   5.239   4.005
 1151SOL    HW2 4353   6.392   5.366   3.907
 1152SOL     OW 4354   4.666   0.575   0.249
 1152SOL    HW1 4355   4.715   0.543   0.331
 1152SOL    HW2 4356   4.598   0.507   0.222
 1153SOL     OW 4357   0.126   0.174   1.157
 1153SOL    HW1 4358   0.160   0.094   1.107
 1153SOL    HW2 4359   0.191   0.249   1.148
 1154SOL     OW 4360   1.265   3.561   2.270
 1154SOL    HW1 4361   1.258   3.469   2.308
 1154SOL    HW2 4362   1.359   3.580   2.243
 1155SOL     OW 4363   2.135   6.216   4.804
 1155SOL    HW1 4364   2.178   6.131   4.775
 1155SOL    HW2 4365   2.130   6.279   4.726
 1156SOL     OW 4366   4.346   1.638   4.828
 1156SOL    HW1 4367   4.441   1.670   4.837
 1156SOL    HW2 4368   4.283   1.713   4.847
 1157SOL     OW 4369   4.210   0.386   5.248
 1157SOL    HW1 4370   4.301   0.352   5.272
 1157SOL    HW2 4371   4.190   0.469   5.299
 1158SOL     OW 4372   5.043   6.066   4.222
 1158SOL    HW1 4373   5.006   6.073   4.129
 1158SOL    HW2 4374   5.030   5.972   4.255
 1159SOL     OW 4375   6.409   6.491   3.077
 1159SOL    HW1 4376   6.414   6.416   3.012
 1159SOL    HW2 4377   6.500   6.511   3.112
 1160SOL     OW 4378   4.243   6.680   1.367
 1160SOL    HW1 4379   4.180   6.738   1.418
 1160SOL    HW2 4380   4.231   6.696   1.269
 1161SOL     OW 4381   6.732   5.156   5.945
 1161SOL    HW1 4382   6.633   5.145   5.931
 1161SOL    HW2 4383   6.780   5.129   5.861
 1162SOL     OW 4384   1.955   2.694   5.840
 1162SOL    HW1 4385   1.951   2.793   5.847
 1162SOL    HW2 4386   2.049   2.665   5.825
 1163SOL     OW 4387   5.989   4.021   1.938
 1163SOL    HW1 4388   6.026   4.056   2.025
 1163SOL    HW2 4389   5.907   3.967   1.957
 1164SOL     OW 4390   5.353   2.615   4.510
 1164SOL    HW1 4391   5.317   2.591   4.600
 1164SOL    HW2 4392   5.280   2.654   4.454
 1165SOL     OW 4393   4.577   6.230   3.444
 1165SOL    HW1 4394   4.528   6.312   3.475
 1165SOL    HW2 4395   4.620   6.249   3.356
 1166SOL     OW 4396   1.689   6.311   6.806
 1166SOL    HW1 4397   1.771   6.292   6.860
 1166SOL    HW2 4398   1.698   6.401   6.763
 1167SOL     OW 4399   4.830   4.003   1.904
 1167SOL    HW1 4400   4.819   4.096   1.939
 1167SOL    HW2 4401   4.748   3.975   1.855
 1168SOL     OW 4402   5.869   2.337   2.407
 1168SOL    HW1 4403   5.837   2.431   2.419
 1168SOL    HW2 4404   5.874   2.315   2.310
 1169SOL     OW 4405   6.136   1.462   5.862
 1169SOL    HW1 4406   6.218   1.420   5.824
 1169SOL    HW2 4407   6.062   1.396   5.865
 1170SOL     OW 4408   4.674   0.048   2.772
 1170SOL    HW1 4409   4.740   0.117   2.741
 1170SOL    HW2 4410   4.594   0.094   2.812
 1171SOL     OW 4411   2.152   0.056   0.553
 1171SOL    HW1 4412   2.150   0.095   0.645
 1171SOL    HW2 4413   2.131   6.982   0.558
 1172SOL     OW 4414   5.318   3.178   0.381
 1172SOL    HW1 4415   5.265   3.167   0.297
 1172SOL    HW2 4416   5.257   3.208   0.455
 1173SOL     OW 4417   2.154   0.821   1.023
 1173SOL    HW1 4418   2.118   0.828   1.116
 1173SOL    HW2 4419   2.222   0.893   1.008
 1174SOL     OW 4420   3.780   3.619   1.626
 1174SOL    HW1 4421   3.739   3.709   1.634
 1174SOL    HW2 4422   3.861   3.614   1.685
 1175SOL     OW 4423   4.266   2.984   5.720
 1175SOL    HW1 4424   4.169   3.009   5.714
 1175SOL    HW2 4425   4.275   2.898   5.770
 1176SOL     OW 4426   4.463   3.177   6.025
 1176SOL    HW1 4427   4.482   3.267   6.063
 1176SOL    HW2 4428   4.458   3.110   6.099
 1177SOL     OW 4429   6.247   3.195   5.488
 1177SOL    HW1 4430   6.281   3.173   5.397
 1177SOL    HW2 4431   6.150   3.217   5.483
 1178SOL     OW 4432   2.678   3.617   0.471
 1178SOL    HW1 4433   2.604   3.589   0.410
 1178SOL    HW2 4434   2.673   3.563   0.555
 1179SOL     OW 4435   1.974   5.828   0.168
 1179SOL    HW1 4436   1.943   5.795   0.256
 1179SOL    HW2 4437   1.936   5.919   0.150
 1180SOL     OW 4438   3.153   5.866   2.535
 1180SOL    HW1 4439   3.197   5.846   2.622
 1180SOL    HW2 4440   3.092   5.790   2.511
 1181SOL     OW 4441   0.357   5.677   6.560
 1181SOL    HW1 4442   0.320   5.686   6.467
 1181SOL    HW2 4443   0.283   5.655   6.623
 1182SOL     OW 4444   4.125   5.809   3.186
 1182SOL    HW1 4445   4.083   5.730   3.231
 1182SOL    HW2 4446   4.053   5.870   3.152
 1183SOL     OW 4447   2.031   4.503   0.630
 1183SOL    HW1 4448   2.004   4.580   0.688
 1183SOL    HW2 4449   1.995   4.418   0.670
 1184SOL     OW 4450   0.629   0.239   4.668
 1184SOL    HW1 4451   0.723   0.204   4.667
 1184SOL    HW2 4452   0.627   0.327   4.620
 1185SOL     OW 4453   0.523   0.924   0.019
 1185SOL    HW1 4454   0.441   0.870   0.041
 1185SOL    HW2 4455   0.548   0.910   6.947
 1186SOL     OW 4456   4.777   5.491   4.756
 1186SOL    HW1 4457   4.844   5.519   4.824
 1186SOL    HW2 4458   4.773   5.391   4.751
 1187SOL     OW 4459   6.549   6.655   0.123
 1187SOL    HW1 4460   6.509   6.747   0.129
 1187SOL    HW2 4461   6.565   6.619   0.215
 1188SOL     OW 4462   3.441   6.088   5.223
 1188SOL    HW1 4463   3.522   6.048   5.265
 1188SOL    HW2 4464   3.370   6.101   5.292
 1189SOL     OW 4465   6.887   3.222   2.900
 1189SOL    HW1 4466   6.840   3.219   2.988
 1189SOL    HW2 4467   6.822   3.204   2.826
 1190SOL     OW 4468   2.517   6.598   3.304
 1190SOL    HW1 4469   2.569   6.667   3.253
 1190SOL    HW2 4470   2.569   6.571   3.385
 1191SOL     OW 4471   4.421   4.773   3.608
 1191SOL    HW1 4472   4.409   4.867   3.577
 1191SOL    HW2 4473   4.406   4.769   3.707
 1192SOL     OW 4474   3.725   5.268   3.152
 1192SOL    HW1 4475   3.773   5.356   3.146
 1192SOL    HW2 4476   3.696   5.240   3.060
 1193SOL     OW 4477   6.093   3.966   4.390
 1193SOL    HW1 4478   6.165   3.901   4.416
 1193SOL    HW2 4479   6.118   4.058   4.421
 1194SOL     OW 4480   5.426   6.535   1.603
 1194SOL    HW1 4481   5.333   6.569   1.589
 1194SOL    HW2 4482   5.492   6.604   1.574
 1195SOL     OW 4483   6.035   4.257   1.371
 1195SOL    HW1 4484   6.114   4.238   1.313
 1195SOL    HW2 4485   6.062   4.251   1.467
 1196SOL     OW 4486   7.003   6.118   2.760
 1196SOL    HW1 4487   6.994   6.127   2.860
 1196SOL    HW2 4488   6.917   6.142   2.716
 1197SOL     OW 4489   3.605   0.764   6.449
 1197SOL    HW1 4490   3.520   0.729   6.488
 1197SOL    HW2 4491   3.675   0.770   6.520
 1198SOL     OW 4492   1.213   2.975   1.992
 1198SOL    HW1 4493   1.124   2.975   1.947
 1198SOL    HW2 4494   1.220   3.055   2.052
 1199SOL     OW 4495   4.486   4.794   1.857
 1199SOL    HW1 4496   4.469   4.860   1.930
 1199SOL    HW2 4497   4.494   4.703   1.896
 1200SOL     OW 4498   3.275   3.818   3.172
 1200SOL    HW1 4499   3.232   3.741   3.124
 1200SOL    HW2 4500   3.221   3.901   3.156
 1201SOL     OW 4501   1.236   1.161   4.177
 1201SOL    HW1 4502   1.333   1.142   4.161
 1201SOL    HW2 4503   1.220   1.176   4.274
 1202SOL     OW 4504   0.959   5.835   6.531
 1202SOL    HW1 4505   0.933   5.782   6.451
 1202SOL    HW2 4506   1.035   5.896   6.506
 1203SOL     OW 4507   5.842   6.019   6.783
 1203SOL    HW1 4508   5.817   6.096   6.724
 1203SOL    HW2 4509   5.765   5.995   6.842
 1204SOL     OW 4510   2.533   0.173   1.101
 1204SOL    HW1 4511   2.584   0.087   1.101
 1204SOL    HW2 4512   2.523   0.207   1.008
 1205SOL     OW 4513   5.560   3.794   1.395
 1205SOL    HW1 4514   5.472   3.819   1.354
 1205SOL    HW2 4515   5.550   3.785   1.494
 1206SOL     OW 4516   3.212   2.861   5.189
 1206SOL    HW1 4517   3.209   2.767   5.224
 1206SOL    HW2 4518   3.278   2.867   5.115
 1207SOL     OW 4519   1.671   7.001   1.039
 1207SOL    HW1 4520   1.708   6.914   1.004
 1207SOL    HW2 4521   1.736   0.050   1.020
 1208SOL     OW 4522   3.108   3.733   0.350
 1208SOL    HW1 4523   3.168   3.808   0.378
 1208SOL    HW2 4524   3.087   3.676   0.430
 1209SOL     OW 4525   3.820   0.739   5.312
 1209SOL    HW1 4526   3.893   0.788   5.265
 1209SOL    HW2 4527   3.776   0.676   5.248
 1210SOL     OW 4528   2.618   0.393   3.071
 1210SOL    HW1 4529   2.623   0.422   3.167
 1210SOL    HW2 4530   2.656   0.464   3.012
 1211SOL     OW 4531   1.660   3.519   1.393
 1211SOL    HW1 4532   1.663   3.441   1.331
 1211SOL    HW2 4533   1.602   3.591   1.354
 1212SOL     OW 4534   6.985   0.611   6.407
 1212SOL    HW1 4535   6.917   0.615   6.480
 1212SOL    HW2 4536   0.013   0.525   6.414
 1213SOL     OW 4537   6.541   2.494   0.488
 1213SOL    HW1 4538   6.534   2.533   0.396
 1213SOL    HW2 4539   6.449   2.485   0.527
 1214SOL     OW 4540   6.831   2.997   0.227
 1214SOL    HW1 4541   6.903   3.064   0.206
 1214SOL    HW2 4542   6.783   3.026   0.310
 1215SOL     OW 4543   1.489   3.668   4.157
 1215SOL    HW1 4544   1.575   3.708   4.188
 1215SOL    HW2 4545   1.492   3.654   4.058
 1216SOL     OW 4546   4.720   0.832   0.547
 1216SOL    HW1 4547   4.768   0.826   0.460
 1216SOL    HW2 4548   4.721   0.926   0.580
 1217SOL     OW 4549   1.358   5.110   0.928
 1217SOL    HW1 4550   1.322   5.123   1.020
 1217SOL    HW2 4551   1.422   5.033   0.929
 1218SOL     OW 4552   1.752   4.910   4.573
 1218SOL    HW1 4553   1.830   4.884   4.516
 1218SOL    HW2 4554   1.784   4.938   4.663
 1219SOL     OW 4555   5.462   5.444   2.179
 1219SOL    HW1 4556   5.517   5.360   2.175
 1219SOL    HW2 4557   5.508   5.511   2.238
 1220SOL     OW 4558   0.744   5.523   3.434
 1220SOL    HW1 4559   0.728   5.549   3.529
 1220SOL    HW2 4560   0.735   5.423   3.424
 1221SOL     OW 4561   5.001   3.138   5.586
 1221SOL    HW1 4562   5.021   3.191   5.504
 1221SOL    HW2 4563   5.049   3.050   5.581
 1222SOL     OW 4564   5.824   6.674   6.720
 1222SOL    HW1 4565   5.760   6.598   6.721
 1222SOL    HW2 4566   5.914   6.641   6.690
 1223SOL     OW 4567   3.843   0.316   0.824
 1223SOL    HW1 4568   3.846   0.336   0.922
 1223SOL    HW2 4569   3.749   0.295   0.797
 1224SOL     OW 4570   2.238   6.355   0.516
 1224SOL    HW1 4571   2.145   6.360   0.478
 1224SOL    HW2 4572   2.234   6.318   0.608
 1225SOL     OW 4573   3.540   4.475   6.243
 1225SOL    HW1 4574   3.629   4.516   6.223
 1225SOL    HW2 4575   3.468   4.534   6.208
 1226SOL     OW 4576   2.698   4.736   0.975
 1226SOL    HW1 4577   2.654   4.704   1.059
 1226SOL    HW2 4578   2.695   4.663   0.906
 1227SOL     OW 4579   6.984   3.461   6.439
 1227SOL    HW1 4580   0.036   3.514   6.402
 1227SOL    HW2 4581   6.900   3.484   6.390
 1228SOL     OW 4582   3.977   3.103   6.332
 1228SOL    HW1 4583   3.941   3.147   6.250
 1228SOL    HW2 4584   4.015   3.172   6.393
 1229SOL     OW 4585   3.782   4.952   6.094
 1229SOL    HW1 4586   3.713   4.908   6.152
 1229SOL    HW2 4587   3.862   4.975   6.149
 1230SOL     OW 4588   4.198   0.899   4.432
 1230SOL    HW1 4589   4.203   0.817   4.489
 1230SOL    HW2 4590   4.288   0.943   4.430
 1231SOL     OW 4591   1.014   3.785   5.251
 1231SOL    HW1 4592   0.984   3.763   5.344
 1231SOL    HW2 4593   1.036   3.883   5.246
 1232SOL     OW 4594   1.152   1.909   5.250
 1232SOL    HW1 4595   1.084   1.936   5.181
 1232SOL    HW2 4596   1.236   1.961   5.236
 1233SOL     OW 4597   1.911   3.199   4.913
 1233SOL    HW1 4598   1.831   3.161   4.959
 1233SOL    HW2 4599   1.947   3.275   4.967
 1234SOL     OW 4600   6.452   4.182   4.346
 1234SOL    HW1 4601   6.523   4.126   4.303
 1234SOL    HW2 4602   6.481   4.211   4.437
 1235SOL     OW 4603   6.986   6.034   2.338
 1235SOL    HW1 4604   0.040   6.035   2.401
 1235SOL    HW2 4605   6.989   5.951   2.283
 1236SOL     OW 4606   5.635   1.249   6.478
 1236SOL    HW1 4607   5.615   1.300   6.561
 1236SOL    HW2 4608   5.563   1.266   6.410
 1237SOL     OW 4609   2.352   5.247   6.560
 1237SOL    HW1 4610   2.341   5.174   6.492
 1237SOL    HW2 4611   2.400   5.211   6.640
 1238SOL     OW 4612   2.073   1.155   1.126
 1238SOL    HW1 4613   2.138   1.214   1.174
 1238SOL    HW2 4614   2.108   1.134   1.034
 1239SOL     OW 4615   6.625   6.271   6.532
 1239SOL    HW1 4616   6.619   6.369   6.549
 1239SOL    HW2 4617   6.583   6.250   6.444
 1240SOL     OW 4618   5.828   6.011   1.986
 1240SOL    HW1 4619   5.916   6.042   1.949
 1240SOL    HW2 4620   5.759   6.082   1.971
 1241SOL     OW 4621   6.262   3.178   4.183
 1241SOL    HW1 4622   6.267   3.224   4.272
 1241SOL    HW2 4623   6.174   3.198   4.140
 1242SOL     OW 4624   1.705   3.612   0.276
 1242SOL    HW1 4625   1.747   3.577   0.191
 1242SOL    HW2 4626   1.724   3.710   0.284
 1243SOL     OW 4627   1.530   6.091   5.597
 1243SOL    HW1 4628   1.498   6.124   5.686
 1243SOL    HW2 4629   1.611   6.034   5.611
 1244SOL     OW 4630   0.277   6.634   3.058
 1244SOL    HW1 4631   0.362   6.609   3.104
 1244SOL    HW2 4632   0.298   6.675   2.969
 1245SOL     OW 4633   4.043   3.853   6.281
 1245SOL    HW1 4634   4.142   3.864   6.283
 1245SOL    HW2 4635   4.001   3.942   6.264
 1246SOL     OW 4636   2.294   6.920   2.123
 1246SOL    HW1 4637   2.206   6.943   2.082
 1246SOL    HW2 4638   2.289   6.830   2.167
 1247SOL     OW 4639   2.794   0.245   6.691
 1247SOL    HW1 4640   2.833   0.226   6.601
 1247SOL    HW2 4641   2.736   0.168   6.719
 1248SOL     OW 4642   1.469   6.774   3.891
 1248SOL    HW1 4643   1.404   6.753   3.963
 1248SOL    HW2 4644   1.560   6.785   3.930
 1249SOL     OW 4645   5.494   3.026   2.440
 1249SOL    HW1 4646   5.461   3.094   2.374
 1249SOL    HW2 4647   5.475   2.934   2.405
 1250SOL     OW 4648   0.924   4.403   4.556
 1250SOL    HW1 4649   0.957   4.452   4.476
 1250SOL    HW2 4650   0.840   4.446   4.590
 1251SOL     OW 4651   4.373   0.243   4.820
 1251SOL    HW1 4652   4.285   0.245   4.868
 1251SOL    HW2 4653   4.409   0.150   4.821
 1252SOL     OW 4654   3.552   3.838   5.992
 1252SOL    HW1 4655   3.571   3.869   5.899
 1252SOL    HW2 4656   3.522   3.743   5.990
 1253SOL     OW 4657   3.879   5.727   1.733
 1253SOL    HW1 4658   3.879   5.806   1.794
 1253SOL    HW2 4659   3.936   5.655   1.772
 1254SOL     OW 4660   6.353   2.597   2.497
 1254SOL    HW1 4661   6.283   2.647   2.445
 1254SOL    HW2 4662   6.319   2.506   2.521
 1255SOL     OW 4663   6.399   0.931   4.975
 1255SOL    HW1 4664   6.314   0.879   4.964
 1255SOL    HW2 4665   6.381   1.028   4.953
 1256SOL     OW 4666   6.902   0.102   2.944
 1256SOL    HW1 4667   6.833   0.126   3.013
 1256SOL    HW2 4668   6.985   0.072   2.990
 1257SOL     OW 4669   0.327   0.327   3.278
 1257SOL    HW1 4670   0.359   0.418   3.303
 1257SOL    HW2 4671   0.233   0.334   3.243
 1258SOL     OW 4672   0.987   5.654   3.368
 1258SOL    HW1 4673   0.912   5.591   3.389
 1258SOL    HW2 4674   0.960   5.747   3.391
 1259SOL     OW 4675   3.752   1.600   4.946
 1259SOL    HW1 4676   3.840   1.573   4.906
 1259SOL    HW2 4677   3.716   1.679   4.896
 1260SOL     OW 4678   0.947   1.602   0.035
 1260SOL    HW1 4679   0.850   1.580   0.049
 1260SOL    HW2 4680   1.003   1.529   0.074
 1261SOL     OW 4681   6.999   5.488   0.242
 1261SOL    HW1 4682   0.033   5.427   0.188
 1261SOL    HW2 4683   7.009   5.582   0.210
 1262SOL     OW 4684   5.584   5.647   2.317
 1262SOL    HW1 4685   5.634   5.612   2.396
 1262SOL    HW2 4686   5.621   5.735   2.290
 1263SOL     OW 4687   0.693   1.634   2.292
 1263SOL    HW1 4688   0.726   1.723   2.323
 1263SOL    HW2 4689   0.618   1.647   2.226
 1264SOL     OW 4690   0.874   3.758   5.498
 1264SOL    HW1 4691   0.779   3.729   5.493
 1264SOL    HW2 4692   0.884   3.830   5.567
 1265SOL     OW 4693   6.310   5.622   4.455
 1265SOL    HW1 4694   6.350   5.577   4.535
 1265SOL    HW2 4695   6.382   5.638   4.387
 1266SOL     OW 4696   0.774   0.723   4.573
 1266SOL    HW1 4697   0.798   0.664   4.650
 1266SOL    HW2 4698   0.762   0.817   4.606
 1267SOL     OW 4699   4.939   0.375   1.976
 1267SOL    HW1 4700   5.025   0.397   1.929
 1267SOL    HW2 4701   4.951   0.388   2.074
 1268SOL     OW 4702   4.330   2.424   5.584
 1268SOL    HW1 4703   4.249   2.462   5.541
 1268SOL    HW2 4704   4.412   2.467   5.546
 1269SOL     OW 4705   5.062   2.492   4.215
 1269SOL    HW1 4706   5.031   2.514   4.123
 1269SOL    HW2 4707   5.099   2.574   4.259
 1270SOL     OW 4708   2.217   4.731   2.772
 1270SOL    HW1 4709   2.166   4.796   2.715
 1270SOL    HW2 4710   2.185   4.638   2.754
 1271SOL     OW 4711   1.807   0.987   1.076
 1271SOL    HW1 4712   1.901   1.019   1.080
 1271SOL    HW2 4713   1.792   0.919   1.148
 1272SOL     OW 4714   6.398   3.677   6.585
 1272SOL    HW1 4715   6.375   3.774   6.593
 1272SOL    HW2 4716   6.492   3.663   6.616
 1273SOL     OW 4717   1.365   4.511   4.613
 1273SOL    HW1 4718   1.396   4.418   4.599
 1273SOL    HW2 4719   1.443   4.570   4.634
 1274SOL     OW 4720   0.485   4.765   1.778
 1274SOL    HW1 4721   0.445   4.857   1.773
 1274SOL    HW2 4722   0.433   4.702   1.721
 1275SOL     OW 4723   3.180   0.778   4.068
 1275SOL    HW1 4724   3.161   0.718   3.990
 1275SOL    HW2 4725   3.198   0.871   4.034
 1276SOL     OW 4726   5.641   4.714   3.847
 1276SOL    HW1 4727   5.544   4.720   3.869
 1276SOL    HW2 4728   5.694   4.705   3.932
 1277SOL     OW 4729   0.665   5.788   0.119
 1277SOL    HW1 4730   0.759   5.779   0.153
 1277SOL    HW2 4731   0.625   5.698   0.106
 1278SOL     OW 4732   1.679   6.843   3.165
 1278SOL    HW1 4733   1.653   6.823   3.260
 1278SOL    HW2 4734   1.625   6.920   3.132
 1279SOL     OW 4735   2.866   3.919   6.186
 1279SOL    HW1 4736   2.916   3.990   6.235
 1279SOL    HW2 4737   2.783   3.958   6.145
 1280SOL     OW 4738   3.669   1.015   3.991
 1280SOL    HW1 4739   3.686   0.934   3.935
 1280SOL    HW2 4740   3.740   1.022   4.061
 1281SOL     OW 4741   3.487   6.004   3.574
 1281SOL    HW1 4742   3.560   5.950   3.615
 1281SOL    HW2 4743   3.524   6.091   3.541
 1282SOL     OW 4744   6.475   2.957   0.850
 1282SOL    HW1 4745   6.462   3.012   0.767
 1282SOL    HW2 4746   6.504   2.865   0.824
 1283SOL     OW 4747   6.274   4.036   5.030
 1283SOL    HW1 4748   6.224   4.086   5.100
 1283SOL    HW2 4749   6.215   3.967   4.989
 1284SOL     OW 4750   3.783   1.336   0.863
 1284SOL    HW1 4751   3.850   1.308   0.794
 1284SOL    HW2 4752   3.785   1.271   0.939
 1285SOL     OW 4753   3.342   1.498   4.912
 1285SOL    HW1 4754   3.322   1.505   4.814
 1285SOL    HW2 4755   3.283   1.561   4.963
 1286SOL     OW 4756   4.930   2.970   1.677
 1286SOL    HW1 4757   4.953   2.960   1.580
 1286SOL    HW2 4758   4.849   3.027   1.686
 1287SOL     OW 4759   5.754   4.828   4.824
 1287SOL    HW1 4760   5.683   4.762   4.798
 1287SOL    HW2 4761   5.829   4.780   4.871
 1288SOL     OW 4762   4.707   4.569   6.555
 1288SOL    HW1 4763   4.726   4.663   6.585
 1288SOL    HW2 4764   4.651   4.571   6.472
 1289SOL     OW 4765   6.712   0.703   1.557
 1289SOL    HW1 4766   6.627   0.754   1.572
 1289SOL    HW2 4767   6.751   0.728   1.468
 1290SOL     OW 4768   1.646   0.889   0.293
 1290SOL    HW1 4769   1.677   0.880   0.388
 1290SOL    HW2 4770   1.548   0.868   0.288
 1291SOL     OW 4771   6.624   5.054   3.873
 1291SOL    HW1 4772   6.657   5.063   3.967
 1291SOL    HW2 4773   6.577   5.138   3.846
 1292SOL     OW 4774   0.138   5.507   2.991
 1292SOL    HW1 4775   0.056   5.463   2.954
 1292SOL    HW2 4776   0.161   5.467   3.080
 1293SOL     OW 4777   2.129   1.678   6.721
 1293SOL    HW1 4778   2.218   1.699   6.762
 1293SOL    HW2 4779   2.143   1.633   6.633
 1294SOL     OW 4780   1.926   4.689   6.287
 1294SOL    HW1 4781   2.008   4.709   6.340
 1294SOL    HW2 4782   1.947   4.697   6.189
 1295SOL     OW 4783   0.433   3.341   0.786
 1295SOL    HW1 4784   0.457   3.437   0.770
 1295SOL    HW2 4785   0.507   3.282   0.757
 1296SOL     OW 4786   5.119   0.061   5.787
 1296SOL    HW1 4787   5.107   0.076   5.689
 1296SOL    HW2 4788   5.198   0.000   5.802
 1297SOL     OW 4789   0.821   6.876   2.776
 1297SOL    HW1 4790   0.902   6.871   2.717
 1297SOL    HW2 4791   0.848   6.897   2.869
 1298SOL     OW 4792   5.288   5.993   2.850
 1298SOL    HW1 4793   5.366   5.931   2.848
 1298SOL    HW2 4794   5.308   6.073   2.794
 1299SOL     OW 4795   2.147   3.171   4.360
 1299SOL    HW1 4796   2.201   3.094   4.327
 1299SOL    HW2 4797   2.145   3.170   4.460
 1300SOL     OW 4798   2.028   3.658   0.796
 1300SOL    HW1 4799   2.119   3.617   0.792
 1300SOL    HW2 4800   1.965   3.605   0.738
 1301SOL     OW 4801   0.722   0.761   1.559
 1301SOL    HW1 4802   0.711   0.668   1.595
 1301SOL    HW2 4803   0.760   0.820   1.630
 1302SOL     OW 4804   5.521   0.702   5.695
 1302SOL    HW1 4805   5.483   0.761   5.766
 1302SOL    HW2 4806   5.615   0.728   5.675
 1303SOL     OW 4807   3.900   6.525   1.837
 1303SOL    HW1 4808   3.912   6.609   1.889
 1303SOL    HW2 4809   3.900   6.545   1.739
 1304SOL     OW 4810   1.110   1.507   1.013
 1304SOL    HW1 4811   1.069   1.432   0.962
 1304SOL    HW2 4812   1.209   1.507   1.000
 1305SOL     OW 4813   5.213   4.362   6.244
 1305SOL    HW1 4814   5.212   4.425   6.321
 1305SOL    HW2 4815   5.265   4.281   6.268
 1306SOL     OW 4816   0.970   6.044   4.945
 1306SOL    HW1 4817   0.968   6.061   4.847
 1306SOL    HW2 4818   0.944   6.127   4.995
 1307SOL     OW 4819   1.857   3.141   4.142
 1307SOL    HW1 4820   1.939   3.191   4.114
 1307SOL    HW2 4821   1.847   3.145   4.241
 1308SOL     OW 4822   6.518   5.925   6.537
 1308SOL    HW1 4823   6.578   5.981   6.593
 1308SOL    HW2 4824   6.428   5.919   6.581
 1309SOL     OW 4825   5.109   4.968   6.095
 1309SOL    HW1 4826   5.104   4.928   6.003
 1309SOL    HW2 4827   5.192   4.937   6.140
 1310SOL     OW 4828   0.919   3.784   4.004
 1310SOL    HW1 4829   1.008   3.827   4.013
 1310SOL    HW2 4830   0.930   3.692   3.965
 1311SOL     OW 4831   6.254   5.920   6.975
 1311SOL    HW1 4832   6.238   5.969   0.037
 1311SOL    HW2 4833   6.241   5.822   6.989
 1312SOL     OW 4834   1.039   1.071   5.647
 1312SOL    HW1 4835   0.940   1.075   5.635
 1312SOL    HW2 4836   1.061   1.006   5.720
 1313SOL     OW 4837   6.042   5.369   3.254
 1313SOL    HW1 4838   5.998   5.282   3.231
 1313SOL    HW2 4839   6.066   5.369   3.351
 1314SOL     OW 4840   2.784   1.666   4.667
 1314SOL    HW1 4841   2.694   1.710   4.662
 1314SOL    HW2 4842   2.845   1.721   4.723
 1315SOL     OW 4843   6.854   0.636   3.805
 1315SOL    HW1 4844   6.792   0.714   3.791
 1315SOL    HW2 4845   6.860   0.615   3.903
 1316SOL     OW 4846   3.979   0.063   5.500
 1316SOL    HW1 4847   3.889   0.025   5.517
 1316SOL    HW2 4848   3.977   0.118   5.416
 1317SOL     OW 4849   2.162   4.450   5.628
 1317SOL    HW1 4850   2.155   4.435   5.529
 1317SOL    HW2 4851   2.070   4.451   5.667
 1318SOL     OW 4852   2.135   2.817   6.943
 1318SOL    HW1 4853   2.113   2.786   0.012
 1318SOL    HW2 4854   2.051   2.820   6.888
 1319SOL     OW 4855   0.073   6.097   0.408
 1319SOL    HW1 4856   0.003   6.162   0.379
 1319SOL    HW2 4857   0.105   6.044   0.329
 1320SOL     OW 4858   3.023   2.783   6.488
 1320SOL    HW1 4859   2.950   2.733   6.535
 1320SOL    HW2 4860   3.107   2.729   6.490
 1321SOL     OW 4861   5.036   1.987   0.006
 1321SOL    HW1 4862   5.073   2.040   6.954
 1321SOL    HW2 4863   4.937   2.001   0.012
 1322SOL     OW 4864   3.277   1.196   5.747
 1322SOL    HW1 4865   3.331   1.210   5.664
 1322SOL    HW2 4866   3.186   1.164   5.722
 1323SOL     OW 4867   3.331   0.019   0.593
 1323SOL    HW1 4868   3.234   7.023   0.576
 1323SOL    HW2 4869   3.379   6.958   0.615
 1324SOL     OW 4870   1.304   3.856   0.583
 1324SOL    HW1 4871   1.213   3.824   0.556
 1324SOL    HW2 4872   1.359   3.778   0.612
 1325SOL     OW 4873   2.932   5.996   5.663
 1325SOL    HW1 4874   3.031   6.008   5.653
 1325SOL    HW2 4875   2.891   5.985   5.572
 1326SOL     OW 4876   4.708   4.285   4.931
 1326SOL    HW1 4877   4.741   4.192   4.946
 1326SOL    HW2 4878   4.754   4.324   4.852
 1327SOL     OW 4879   0.541   6.988   1.159
 1327SOL    HW1 4880   0.638   6.995   1.180
 1327SOL    HW2 4881   0.488   0.005   1.234
 1328SOL     OW 4882   1.226   3.376   6.028
 1328SOL    HW1 4883   1.219   3.289   6.076
 1328SOL    HW2 4884   1.136   3.421   6.026
 1329SOL     OW 4885   0.681   1.597   2.678
 1329SOL    HW1 4886   0.672   1.696   2.664
 1329SOL    HW2 4887   0.592   1.559   2.703
 1330SOL     OW 4888   0.222   1.888   1.071
 1330SOL    HW1 4889   0.150   1.825   1.044
 1330SOL    HW2 4890   0.310   1.840   1.071
 1331SOL     OW 4891   4.796   1.887   2.572
 1331SOL    HW1 4892   4.776   1.791   2.555
 1331SOL    HW2 4893   4.720   1.929   2.621
 1332SOL     OW 4894   1.769   0.325   0.552
 1332SOL    HW1 4895   1.721   0.281   0.628
 1332SOL    HW2 4896   1.727   0.414   0.533
 1333SOL     OW 4897   3.413   4.040   3.321
 1333SOL    HW1 4898   3.405   4.107   3.246
 1333SOL    HW2 4899   3.466   3.962   3.290
 1334SOL     OW 4900   6.969   1.771   3.202
 1334SOL    HW1 4901   0.023   1.729   3.156
 1334SOL    HW2 4902   6.908   1.811   3.133
 1335SOL     OW 4903   1.749   3.231   1.510
 1335SOL    HW1 4904   1.778   3.302   1.574
 1335SOL    HW2 4905   1.829   3.177   1.481
 1336SOL     OW 4906   3.879   0.945   5.570
 1336SOL    HW1 4907   3.803   0.977   5.626
 1336SOL    HW2 4908   3.850   0.938   5.475
 1337SOL     OW 4909   6.747   1.029   2.962
 1337SOL    HW1 4910   6.758   1.127   2.949
 1337SOL    HW2 4911   6.793   1.001   3.046
 1338SOL     OW 4912   6.070   3.686   4.055
 1338SOL    HW1 4913   6.046   3.592   4.032
 1338SOL    HW2 4914   6.089   3.737   3.971
 1339SOL     OW 4915   0.282   0.475   0.049
 1339SOL    HW1 4916   0.273   0.390   0.101
 1339SOL    HW2 4917   0.276   0.454   6.975
 1340SOL     OW 4918   4.919   1.776   2.077
 1340SOL    HW1 4919   4.910   1.874   2.095
 1340SOL    HW2 4920   4.916   1.760   1.978
 1341SOL     OW 4921   4.607   6.809   0.416
 1341SOL    HW1 4922   4.551   6.891   0.426
 1341SOL    HW2 4923   4.558   6.730   0.452
 1342SOL     OW 4924   2.991   5.568   0.930
 1342SOL    HW1 4925   2.937   5.503   0.983
 1342SOL    HW2 4926   3.083   5.573   0.967
 1343SOL     OW 4927   5.603   5.104   2.771
 1343SOL    HW1 4928   5.520   5.066   2.730
 1343SOL    HW2 4929   5.683   5.055   2.735
 1344SOL     OW 4930   0.592   6.483   4.398
 1344SOL    HW1 4931   0.578   6.384   4.401
 1344SOL    HW2 4932   0.519   6.525   4.345
 1345SOL     OW 4933   0.621   4.804   2.113
 1345SOL    HW1 4934   0.620   4.738   2.037
 1345SOL    HW2 4935   0.678   4.882   2.088
 1346SOL     OW 4936   2.144   5.390   5.744
 1346SOL    HW1 4937   2.095   5.441   5.815
 1346SOL    HW2 4938   2.099   5.301   5.731
 1347SOL     OW 4939   1.605   0.378   5.679
 1347SOL    HW1 4940   1.690   0.430   5.689
 1347SOL    HW2 4941   1.536   0.415   5.741
 1348SOL     OW 4942   0.392   5.596   5.425
 1348SOL    HW1 4943   0.370   5.681   5.472
 1348SOL    HW2 4944   0.337   5.521   5.463
 1349SOL     OW 4945   5.391   3.042   3.915
 1349SOL    HW1 4946   5.393   2.944   3.895
 1349SOL    HW2 4947   5.473   3.086   3.879
 1350SOL     OW 4948   3.667   4.323   0.485
 1350SOL    HW1 4949   3.724   4.252   0.442
 1350SOL    HW2 4950   3.631   4.383   0.414
 1351SOL     OW 4951   5.950   2.022   3.889
 1351SOL    HW1 4952   5.976   1.926   3.898
 1351SOL    HW2 4953   5.903   2.036   3.802
 1352SOL     OW 4954   0.155   0.251   2.024
 1352SOL    HW1 4955   0.173   0.344   1.993
 1352SOL    HW2 4956   0.062   0.225   1.999
 1353SOL     OW 4957   0.667   1.988   1.038
 1353SOL    HW1 4958   0.585   2.045   1.030
 1353SOL    HW2 4959   0.646   1.908   1.094
 1354SOL     OW 4960   6.728   4.159   2.071
 1354SOL    HW1 4961   6.736   4.255   2.099
 1354SOL    HW2 4962   6.799   4.106   2.118
 1355SOL     OW 4963   5.902   3.450   4.072
 1355SOL    HW1 4964   5.884   3.358   4.037
 1355SOL    HW2 4965   5.834   3.514   4.036
 1356SOL     OW 4966   3.730   3.064   2.370
 1356SOL    HW1 4967   3.660   3.134   2.384
 1356SOL    HW2 4968   3.821   3.107   2.373
 1357SOL     OW 4969   6.651   3.434   6.104
 1357SOL    HW1 4970   6.571   3.487   6.076
 1357SOL    HW2 4971   6.701   3.484   6.175
 1358SOL     OW 4972   6.727   0.187   0.171
 1358SOL    HW1 4973   6.650   0.251   0.180
 1358SOL    HW2 4974   6.697   0.106   0.121
 1359SOL     OW 4975   6.230   4.586   1.263
 1359SOL    HW1 4976   6.316   4.580   1.314
 1359SOL    HW2 4977   6.195   4.679   1.269
 1360SOL     OW 4978   3.692   3.308   0.404
 1360SOL    HW1 4979   3.653   3.218   0.386
 1360SOL    HW2 4980   3.634   3.358   0.468
 1361SOL     OW 4981   0.094   4.776   5.040
 1361SOL    HW1 4982   0.088   4.764   4.941
 1361SOL    HW2 4983   0.079   4.688   5.085
 1362SOL     OW 4984   4.006   3.262   2.773
 1362SOL    HW1 4985   3.981   3.275   2.677
 1362SOL    HW2 4986   4.005   3.165   2.796
 1363SOL     OW 4987   0.012   5.518   5.130
 1363SOL    HW1 4988   6.967   5.543   5.199
 1363SOL    HW2 4989   6.996   5.449   5.069
 1364SOL     OW 4990   4.114   4.636   6.757
 1364SOL    HW1 4991   4.124   4.542   6.724
 1364SOL    HW2 4992   4.019   4.665   6.748
 1365SOL     OW 4993   0.889   4.259   6.139
 1365SOL    HW1 4994   0.818   4.276   6.207
 1365SOL    HW2 4995   0.940   4.176   6.164
 1366SOL     OW 4996   1.744   0.441   5.024
 1366SOL    HW1 4997   1.736   0.540   5.039
 1366SOL    HW2 4998   1.676   0.394   5.080
 1367SOL     OW 4999   1.487   1.673   2.812
 1367SOL    HW1 5000   1.446   1.664   2.722
 1367SOL    HW2 5001   1.430   1.625   2.879
 1368SOL     OW 5002   5.654   6.857   4.169
 1368SOL    HW1 5003   5.709   6.774   4.158
 1368SOL    HW2 5004   5.594   6.868   4.090
 1369SOL     OW 5005   0.753   6.418   3.197
 1369SOL    HW1 5006   0.759   6.362   3.114
 1369SOL    HW2 5007   0.839   6.468   3.209
 1370SOL     OW 5008   3.294   0.316   1.550
 1370SOL    HW1 5009   3.318   0.412   1.541
 1370SOL    HW2 5010   3.215   0.308   1.611
 1371SOL     OW 5011   4.145   0.742   5.881
 1371SOL    HW1 5012   4.126   0.673   5.950
 1371SOL    HW2 5013   4.086   0.726   5.801
 1372SOL     OW 5014   2.528   2.169   1.530
 1372SOL    HW1 5015   2.533   2.256   1.481
 1372SOL    HW2 5016   2.458   2.112   1.487
 1373SOL     OW 5017   0.351   5.069   1.059
 1373SOL    HW1 5018   0.394   5.080   1.149
 1373SOL    HW2 5019   0.266   5.016   1.069
 1374SOL     OW 5020   4.099   2.291   1.337
 1374SOL    HW1 5021   4.017   2.274   1.392
 1374SOL    HW2 5022   4.098   2.385   1.304
 1375SOL     OW 5023   0.122   4.876   6.093
 1375SOL    HW1 5024   0.138   4.879   5.995
 1375SOL    HW2 5025   0.208   4.856   6.140
 1376SOL     OW 5026   4.894   2.976   3.614
 1376SOL    HW1 5027   4.893   3.013   3.707
 1376SOL    HW2 5028   4.987   2.946   3.591
 1377SOL     OW 5029   0.384   4.972   5.281
 1377SOL    HW1 5030   0.332   4.894   5.316
 1377SOL    HW2 5031   0.360   4.987   5.185
 1378SOL     OW 5032   1.096   2.515   6.927
 1378SOL    HW1 5033   1.195   2.519   6.917
 1378SOL    HW2 5034   1.054   2.582   6.866
 1379SOL     OW 5035   3.429   6.353   2.969
 1379SOL    HW1 5036   3.347   6.308   2.934
 1379SOL    HW2 5037   3.491   6.371   2.892
 1380SOL     OW 5038   6.324   6.948   2.738
 1380SOL    HW1 5039   6.414   6.940   2.695
 1380SOL    HW2 5040   6.321   6.892   2.820
 1381SOL     OW 5041   6.092   2.533   0.199
 1381SOL    HW1 5042   6.116   2.534   0.102
 1381SOL    HW2 5043   6.148   2.465   0.246
 1382SOL     OW 5044   5.456   5.125   6.259
 1382SOL    HW1 5045   5.387   5.192   6.232
 1382SOL    HW2 5046   5.541   5.172   6.285
 1383SOL     OW 5047   1.304   0.502   0.270
 1383SOL    HW1 5048   1.346   0.497   0.361
 1383SOL    HW2 5049   1.275   0.596   0.252
 1384SOL     OW 5050   4.180   1.259   2.948
 1384SOL    HW1 5051   4.127   1.210   3.017
 1384SOL    HW2 5052   4.180   1.357   2.970
 1385SOL     OW 5053   6.504   2.727   2.800
 1385SOL    HW1 5054   6.510   2.778   2.714
 1385SOL    HW2 5055   6.408   2.704   2.819
 1386SOL     OW 5056   2.211   2.967   4.588
 1386SOL    HW1 5057   2.226   2.884   4.533
 1386SOL    HW2 5058   2.237   2.949   4.683
 1387SOL     OW 5059   3.408   0.556   4.935
 1387SOL    HW1 5060   3.412   0.566   5.034
 1387SOL    HW2 5061   3.463   0.628   4.891
 1388SOL     OW 5062   6.436   0.895   4.016
 1388SOL    HW1 5063   6.404   0.981   3.976
 1388SOL    HW2 5064   6.516   0.913   4.074
 1389SOL     OW 5065   5.996   0.029   4.807
 1389SOL    HW1 5066   5.962   0.024   4.713
 1389SOL    HW2 5067   6.096   0.025   4.806
 1390SOL     OW 5068   4.136   1.500   1.690
 1390SOL    HW1 5069   4.134   1.422   1.753
 1390SOL    HW2 5070   4.195   1.572   1.728
 1391SOL     OW 5071   5.801   0.669   4.572
 1391SOL    HW1 5072   5.866   0.743   4.557
 1391SOL    HW2 5073   5.713   0.707   4.600
 1392SOL     OW 5074   5.047   5.868   6.490
 1392SOL    HW1 5075   5.070   5.853   6.586
 1392SOL    HW2 5076   5.057   5.782   6.439
 1393SOL     OW 5077   6.799   1.227   6.139
 1393SOL    HW1 5078   6.853   1.255   6.060
 1393SOL    HW2 5079   6.833   1.275   6.221
 1394SOL     OW 5080   4.443   6.916   3.834
 1394SOL    HW1 5081   4.399   6.826   3.825
 1394SOL    HW2 5082   4.433   6.948   3.928
 1395SOL     OW 5083   1.948   4.851   2.794
 1395SOL    HW1 5084   1.937   4.754   2.815
 1395SOL    HW2 5085   2.018   4.890   2.854
 1396SOL     OW 5086   2.462   1.201   4.358
 1396SOL    HW1 5087   2.455   1.244   4.268
 1396SOL    HW2 5088   2.468   1.271   4.429
 1397SOL     OW 5089   0.614   5.259   4.142
 1397SOL    HW1 5090   0.569   5.309   4.216
 1397SOL    HW2 5091   0.550   5.191   4.105
 1398SOL     OW 5092   0.720   1.707   1.143
 1398SOL    HW1 5093   0.763   1.694   1.054
 1398SOL    HW2 5094   0.788   1.741   1.209
 1399SOL     OW 5095   3.923   0.351   0.330
 1399SOL    HW1 5096   3.970   0.281   0.384
 1399SOL    HW2 5097   3.834   0.317   0.302
 1400SOL     OW 5098   6.334   0.307   4.120
 1400SOL    HW1 5099   6.253   0.303   4.062
 1400SOL    HW2 5100   6.368   0.215   4.137
 1401SOL     OW 5101   5.637   0.248   3.071
 1401SOL    HW1 5102   5.706   0.232   3.001
 1401SOL    HW2 5103   5.578   0.324   3.044
 1402SOL     OW 5104   5.851   3.696   1.683
 1402SOL    HW1 5105   5.896   3.611   1.655
 1402SOL    HW2 5106   5.907   3.774   1.656
 1403SOL     OW 5107   3.407   2.963   0.087
 1403SOL    HW1 5108   3.437   2.868   0.075
 1403SOL    HW2 5109   3.314   2.973   0.051
 1404SOL     OW 5110   4.471   0.005   1.140
 1404SOL    HW1 5111   4.482   6.940   1.184
 1404SOL    HW2 5112   4.434   0.070   1.207
 1405SOL     OW 5113   2.288   2.886   1.247
 1405SOL    HW1 5114   2.364   2.837   1.290
 1405SOL    HW2 5115   2.288   2.868   1.148
 1406SOL     OW 5116   2.952   3.290   1.146
 1406SOL    HW1 5117   3.008   3.212   1.118
 1406SOL    HW2 5118   2.982   3.322   1.236
 1407SOL     OW 5119   0.483   3.016   0.920
 1407SOL    HW1 5120   0.446   2.929   0.951
 1407SOL    HW2 5121   0.486   3.017   0.820
 1408SOL     OW 5122   6.000   5.903   6.560
 1408SOL    HW1 5123   5.921   5.944   6.606
 1408SOL    HW2 5124   5.979   5.807   6.540
 1409SOL     OW 5125   6.655   1.646   5.677
 1409SOL    HW1 5126   6.715   1.631   5.756
 1409SOL    HW2 5127   6.559   1.637   5.705
 1410SOL     OW 5128   3.596   2.215   6.321
 1410SOL    HW1 5129   3.600   2.279   6.243
 1410SOL    HW2 5130   3.643   2.131   6.296
 1411SOL     OW 5131   3.951   5.765   0.607
 1411SOL    HW1 5132   3.880   5.813   0.557
 1411SOL    HW2 5133   3.945   5.667   0.588
 1412SOL     OW 5134   1.907   2.899   0.734
 1412SOL    HW1 5135   1.881   2.858   0.821
 1412SOL    HW2 5136   1.921   2.827   0.666
 1413SOL     OW 5137   1.652   1.788   4.957
 1413SOL    HW1 5138   1.694   1.768   4.869
 1413SOL    HW2 5139   1.723   1.808   5.025
 1414SOL     OW 5140   1.076   3.758   2.145
 1414SOL    HW1 5141   1.163   3.737   2.190
 1414SOL    HW2 5142   1.010   3.787   2.214
 1415SOL     OW 5143   1.902   2.044   4.054
 1415SOL    HW1 5144   1.932   2.090   3.970
 1415SOL    HW2 5145   1.839   2.103   4.104
 1416SOL     OW 5146   4.300   0.055   5.536
 1416SOL    HW1 5147   4.279   7.011   5.606
 1416SOL    HW2 5148   4.214   0.088   5.495
 1417SOL     OW 5149   4.000   3.051   5.663
 1417SOL    HW1 5150   3.913   3.099   5.664
 1417SOL    HW2 5151   3.983   2.952   5.660
 1418SOL     OW 5152   3.482   4.447   6.512
 1418SOL    HW1 5153   3.503   4.446   6.415
 1418SOL    HW2 5154   3.459   4.540   6.541
 1419SOL     OW 5155   2.095   4.667   3.355
 1419SOL    HW1 5156   2.004   4.645   3.388
 1419SOL    HW2 5157   2.092   4.681   3.256
 1420SOL     OW 5158   3.537   5.849   3.097
 1420SOL    HW1 5159   3.491   5.903   3.026
 1420SOL    HW2 5160   3.595   5.908   3.152
 1421SOL     OW 5161   1.661   5.464   5.601
 1421SOL    HW1 5162   1.716   5.451   5.684
 1421SOL    HW2 5163   1.583   5.403   5.603
 1422SOL     OW 5164   2.478   3.633   5.682
 1422SOL    HW1 5165   2.512   3.692   5.609
 1422SOL    HW2 5166   2.404   3.576   5.648
 1423SOL     OW 5167   4.354   0.991   5.007
 1423SOL    HW1 5168   4.262   1.011   4.971
 1423SOL    HW2 5169   4.365   0.892   5.015
 1424SOL     OW 5170   5.606   2.620   6.619
 1424SOL    HW1 5171   5.666   2.642   6.696
 1424SOL    HW2 5172   5.519   2.585   6.655
 1425SOL     OW 5173   4.392   6.461   3.462
 1425SOL    HW1 5174   4.292   6.465   3.460
 1425SOL    HW2 5175   4.425   6.491   3.551
 1426SOL     OW 5176   3.065   2.515   6.966
 1426SOL    HW1 5177   3.025   2.537   6.877
 1426SOL    HW2 5178   2.991   2.506   0.010
 1427SOL     OW 5179   1.774   1.296   3.753
 1427SOL    HW1 5180   1.697   1.360   3.752
 1427SOL    HW2 5181   1.740   1.204   3.731
 1428SOL     OW 5182   0.148   3.771   3.694
 1428SOL    HW1 5183   0.108   3.861   3.713
 1428SOL    HW2 5184   0.076   3.702   3.693
 1429SOL     OW 5185   5.781   0.728   0.713
 1429SOL    HW1 5186   5.781   0.677   0.627
 1429SOL    HW2 5187   5.688   0.760   0.732
 1430SOL     OW 5188   1.927   3.761   3.284
 1430SOL    HW1 5189   2.003   3.787   3.343
 1430SOL    HW2 5190   1.958   3.755   3.190
 1431SOL     OW 5191   1.775   1.631   5.830
 1431SOL    HW1 5192   1.746   1.671   5.917
 1431SOL    HW2 5193   1.874   1.645   5.818
 1432SOL     OW 5194   2.938   1.729   2.248
 1432SOL    HW1 5195   2.993   1.707   2.168
 1432SOL    HW2 5196   2.998   1.758   2.323
 1433SOL     OW 5197   3.005   6.855   4.333
 1433SOL    HW1 5198   3.027   6.948   4.304
 1433SOL    HW2 5199   3.040   6.790   4.266
 1434SOL     OW 5200   0.342   3.250   0.161
 1434SOL    HW1 5201   0.335   3.151   0.150
 1434SOL    HW2 5202   0.323   3.295   0.073
 1435SOL     OW 5203   1.128   0.123   4.857
 1435SOL    HW1 5204   1.157   0.062   4.784
 1435SOL    HW2 5205   1.114   0.071   4.941
 1436SOL     OW 5206   5.746   1.809   0.829
 1436SOL    HW1 5207   5.815   1.877   0.852
 1436SOL    HW2 5208   5.711   1.767   0.912
 1437SOL     OW 5209   4.639   0.311   6.011
 1437SOL    HW1 5210   4.730   0.304   5.971
 1437SOL    HW2 5211   4.620   0.229   6.065
 1438SOL     OW 5212   2.315   0.424   1.845
 1438SOL    HW1 5213   2.317   0.515   1.805
 1438SOL    HW2 5214   2.394   0.411   1.905
 1439SOL     OW 5215   0.077   5.018   0.272
 1439SOL    HW1 5216   0.138   4.944   0.243
 1439SOL    HW2 5217   0.009   4.982   0.335
 1440SOL     OW 5218   3.077   3.215   3.632
 1440SOL    HW1 5219   3.107   3.275   3.557
 1440SOL    HW2 5220   3.069   3.268   3.716
 1441SOL     OW 5221   6.633   2.833   3.651
 1441SOL    HW1 5222   6.687   2.914   3.625
 1441SOL    HW2 5223   6.592   2.847   3.741
 1442SOL     OW 5224   5.019   4.613   0.473
 1442SOL    HW1 5225   5.044   4.539   0.411
 1442SOL    HW2 5226   4.919   4.625   0.472
 1443SOL     OW 5227   0.798   2.267   3.474
 1443SOL    HW1 5228   0.828   2.353   3.433
 1443SOL    HW2 5229   0.706   2.246   3.443
 1444SOL     OW 5230   4.402   0.852   3.545
 1444SOL    HW1 5231   4.381   0.934   3.491
 1444SOL    HW2 5232   4.376   0.867   3.640
 1445SOL     OW 5233   6.591   2.667   1.786
 1445SOL    HW1 5234   6.506   2.670   1.838
 1445SOL    HW2 5235   6.571   2.681   1.689
 1446SOL     OW 5236   3.767   1.174   1.087
 1446SOL    HW1 5237   3.725   1.092   1.127
 1446SOL    HW2 5238   3.865   1.175   1.108
 1447SOL     OW 5239   6.337   1.132   4.599
 1447SOL    HW1 5240   6.385   1.208   4.645
 1447SOL    HW2 5241   6.263   1.100   4.658
 1448SOL     OW 5242   5.301   0.853   6.594
 1448SOL    HW1 5243   5.262   0.930   6.543
 1448SOL    HW2 5244   5.267   0.767   6.555
 1449SOL     OW 5245   5.043   5.979   0.940
 1449SOL    HW1 5246   4.982   6.058   0.948
 1449SOL    HW2 5247   4.989   5.895   0.943
 1450SOL     OW 5248   5.486   2.861   2.959
 1450SOL    HW1 5249   5.479   2.867   3.059
 1450SOL    HW2 5250   5.397   2.833   2.922
 1451SOL     OW 5251   1.646   6.278   2.788
 1451SOL    HW1 5252   1.558   6.318   2.811
 1451SOL    HW2 5253   1.633   6.194   2.736
 1452SOL     OW 5254   4.776   1.099   5.583
 1452SOL    HW1 5255   4.799   1.075   5.488
 1452SOL    HW2 5256   4.685   1.139   5.586
 1453SOL     OW 5257   5.521   4.614   5.086
 1453SOL    HW1 5258   5.487   4.546   5.150
 1453SOL    HW2 5259   5.538   4.700   5.135
 1454SOL     OW 5260   4.663   3.691   1.392
 1454SOL    HW1 5261   4.755   3.656   1.406
 1454SOL    HW2 5262   4.664   3.760   1.320
 1455SOL     OW 5263   1.642   2.150   1.673
 1455SOL    HW1 5264   1.715   2.200   1.720
 1455SOL    HW2 5265   1.556   2.200   1.681
 1456SOL     OW 5266   6.121   6.582   4.209
 1456SOL    HW1 5267   6.103   6.601   4.112
 1456SOL    HW2 5268   6.180   6.653   4.246
 1457SOL     OW 5269   1.734   0.532   3.264
 1457SOL    HW1 5270   1.695   0.458   3.209
 1457SOL    HW2 5271   1.708   0.520   3.359
 1458SOL     OW 5272   5.780   5.770   6.269
 1458SOL    HW1 5273   5.809   5.732   6.357
 1458SOL    HW2 5274   5.775   5.696   6.201
 1459SOL     OW 5275   2.224   6.177   6.730
 1459SOL    HW1 5276   2.129   6.172   6.759
 1459SOL    HW2 5277   2.261   6.268   6.750
 1460SOL     OW 5278   1.224   0.238   6.868
 1460SOL    HW1 5279   1.264   0.314   6.919
 1460SOL    HW2 5280   1.144   0.203   6.918
 1461SOL     OW 5281   5.434   4.684   2.159
 1461SOL    HW1 5282   5.485   4.601   2.138
 1461SOL    HW2 5283   5.356   4.662   2.216
 1462SOL     OW 5284   5.748   1.295   6.898
 1462SOL    HW1 5285   5.734   1.202   6.933
 1462SOL    HW2 5286   5.703   1.361   6.958
 1463SOL     OW 5287   0.805   0.977   5.148
 1463SOL    HW1 5288   0.756   1.053   5.105
 1463SOL    HW2 5289   0.865   0.934   5.081
 1464SOL     OW 5290   0.222   6.549   0.881
 1464SOL    HW1 5291   0.198   6.452   0.879
 1464SOL    HW2 5292   0.278   6.569   0.961
 1465SOL     OW 5293   0.120   6.985   4.749
 1465SOL    HW1 5294   0.194   0.006   4.800
 1465SOL    HW2 5295   0.133   6.886   4.752
 1466SOL     OW 5296   5.714   4.873   3.197
 1466SOL    HW1 5297   5.776   4.889   3.274
 1466SOL    HW2 5298   5.622   4.900   3.221
 1467SOL     OW 5299   0.680   1.964   3.025
 1467SOL    HW1 5300   0.665   2.052   3.071
 1467SOL    HW2 5301   0.741   1.978   2.947
 1468SOL     OW 5302   5.365   5.912   3.303
 1468SOL    HW1 5303   5.304   5.985   3.271
 1468SOL    HW2 5304   5.435   5.895   3.234
 1469SOL     OW 5305   0.871   1.449   2.136
 1469SOL    HW1 5306   0.845   1.367   2.187
 1469SOL    HW2 5307   0.800   1.518   2.146
 1470SOL     OW 5308   0.876   1.138   2.731
 1470SOL    HW1 5309   0.851   1.150   2.827
 1470SOL    HW2 5310   0.970   1.169   2.717
 1471SOL     OW 5311   0.723   0.224   0.024
 1471SOL    HW1 5312   0.659   0.158   0.065
 1471SOL    HW2 5313   0.683   0.315   0.027
 1472SOL     OW 5314   4.863   0.282   5.852
 1472SOL    HW1 5315   4.875   0.380   5.838
 1472SOL    HW2 5316   4.833   0.240   5.766
 1473SOL     OW 5317   6.183   3.861   3.314
 1473SOL    HW1 5318   6.182   3.804   3.232
 1473SOL    HW2 5319   6.273   3.904   3.323
 1474SOL     OW 5320   4.854   5.513   4.266
 1474SOL    HW1 5321   4.802   5.432   4.292
 1474SOL    HW2 5322   4.905   5.495   4.182
 1475SOL     OW 5323   0.057   1.152   3.208
 1475SOL    HW1 5324   7.016   1.077   3.197
 1475SOL    HW2 5325   0.130   1.143   3.141
 1476SOL     OW 5326   0.131   1.938   1.991
 1476SOL    HW1 5327   0.184   1.965   2.071
 1476SOL    HW2 5328   0.068   2.012   1.966
 1477SOL     OW 5329   2.868   5.936   4.745
 1477SOL    HW1 5330   2.966   5.922   4.752
 1477SOL    HW2 5331   2.847   5.984   4.660
 1478SOL     OW 5332   6.308   4.338   0.455
 1478SOL    HW1 5333   6.284   4.431   0.425
 1478SOL    HW2 5334   6.373   4.299   0.390
 1479SOL     OW 5335   1.795   4.862   0.302
 1479SOL    HW1 5336   1.741   4.870   0.218
 1479SOL    HW2 5337   1.779   4.942   0.359
 1480SOL     OW 5338   2.616   0.980   0.404
 1480SOL    HW1 5339   2.644   1.076   0.403
 1480SOL    HW2 5340   2.669   0.929   0.337
 1481SOL     OW 5341   5.634   2.326   6.162
 1481SOL    HW1 5342   5.693   2.345   6.084
 1481SOL    HW2 5343   5.657   2.388   6.237
 1482SOL     OW 5344   6.231   0.334   6.576
 1482SOL    HW1 5345   6.169   0.257   6.589
 1482SOL    HW2 5346   6.323   0.300   6.554
 1483SOL     OW 5347   6.023   1.950   0.359
 1483SOL    HW1 5348   6.084   1.886   0.405
 1483SOL    HW2 5349   6.016   1.926   0.262
 1484SOL     OW 5350   6.546   5.442   2.947
 1484SOL    HW1 5351   6.485   5.510   2.908
 1484SOL    HW2 5352   6.493   5.375   2.999
 1485SOL     OW 5353   5.239   2.442   3.674
 1485SOL    HW1 5354   5.209   2.479   3.762
 1485SOL    HW2 5355   5.268   2.518   3.614
 1486SOL     OW 5356   4.497   2.194   2.505
 1486SOL    HW1 5357   4.534   2.140   2.430
 1486SOL    HW2 5358   4.546   2.174   2.590
 1487SOL     OW 5359   6.516   1.078   5.438
 1487SOL    HW1 5360   6.500   1.014   5.362
 1487SOL    HW2 5361   6.430   1.122   5.464
 1488SOL     OW 5362   4.645   1.737   2.776
 1488SOL    HW1 5363   4.640   1.669   2.849
 1488SOL    HW2 5364   4.643   1.829   2.816
 1489SOL     OW 5365   3.527   5.579   5.018
 1489SOL    HW1 5366   3.591   5.579   5.094
 1489SOL    HW2 5367   3.523   5.487   4.978
 1490SOL     OW 5368   1.319   2.583   0.594
 1490SOL    HW1 5369   1.350   2.550   0.682
 1490SOL    HW2 5370   1.388   2.644   0.555
 1491SOL     OW 5371   6.662   2.826   3.967
 1491SOL    HW1 5372   6.576   2.874   3.979
 1491SOL    HW2 5373   6.734   2.873   4.018
 1492SOL     OW 5374   5.124   2.069   1.465
 1492SOL    HW1 5375   5.176   2.127   1.528
 1492SOL    HW2 5376   5.029   2.101   1.462
 1493SOL     OW 5377   5.125   0.087   5.529
 1493SOL    HW1 5378   5.114   0.169   5.474
 1493SOL    HW2 5379   5.053   0.021   5.506
 1494SOL     OW 5380   4.118   2.412   6.047
 1494SOL    HW1 5381   4.157   2.472   6.117
 1494SOL    HW2 5382   4.189   2.351   6.012
 1495SOL     OW 5383   1.511   3.149   2.616
 1495SOL    HW1 5384   1.524   3.228   2.557
 1495SOL    HW2 5385   1.496   3.180   2.710
 1496SOL     OW 5386   0.568   6.892   2.681
 1496SOL    HW1 5387   0.660   6.870   2.712
 1496SOL    HW2 5388   0.549   6.989   2.697
 1497SOL     OW 5389   6.358   5.230   4.561
 1497SOL    HW1 5390   6.300   5.177   4.623
 1497SOL    HW2 5391   6.318   5.232   4.470
 1498SOL     OW 5392   2.237   5.813   0.122
 1498SOL    HW1 5393   2.285   5.860   0.196
 1498SOL    HW2 5394   2.139   5.830   0.130
 1499SOL     OW 5395   1.396   3.758   5.381
 1499SOL    HW1 5396   1.492   3.756   5.353
 1499SOL    HW2 5397   1.357   3.667   5.373
 1500SOL     OW 5398   4.971   6.462   0.018
 1500SOL    HW1 5399   4.998   6.390   6.978
 1500SOL    HW2 5400   4.872   6.460   0.031
 1501SOL     OW 5401   3.970   6.931   6.063
 1501SOL    HW1 5402   3.961   6.884   6.151
 1501SOL    HW2 5403   4.048   6.995   6.068
 1502SOL     OW 5404   6.499   6.544   0.350
 1502SOL    HW1 5405   6.444   6.470   0.312
 1502SOL    HW2 5406   6.454   6.579   0.432
 1503SOL     OW 5407   3.366   2.888   6.312
 1503SOL    HW1 5408   3.323   2.927   6.394
 1503SOL    HW2 5409   3.435   2.952   6.278
 1504SOL     OW 5410   3.375   6.308   4.879
 1504SOL    HW1 5411   3.469   6.273   4.877
 1504SOL    HW2 5412   3.328   6.282   4.794
 1505SOL     OW 5413   5.882   5.644   6.506
 1505SOL    HW1 5414   5.912   5.584   6.432
 1505SOL    HW2 5415   5.815   5.597   6.564
 1506SOL     OW 5416   0.709   6.218   4.626
 1506SOL    HW1 5417   0.628   6.196   4.679
 1506SOL    HW2 5418   0.763   6.134   4.611
 1507SOL     OW 5419   1.833   1.403   5.329
 1507SOL    HW1 5420   1.900   1.332   5.310
 1507SOL    HW2 5421   1.783   1.425   5.245
 1508SOL     OW 5422   4.996   7.019   0.791
 1508SOL    HW1 5423   4.958   6.951   0.729
 1508SOL    HW2 5424   5.080   6.983   0.833
 1509SOL     OW 5425   4.611   3.155   0.369
 1509SOL    HW1 5426   4.663   3.203   0.440
 1509SOL    HW2 5427   4.515   3.183   0.375
 1510SOL     OW 5428   6.566   1.838   3.754
 1510SOL    HW1 5429   6.573   1.815   3.657
 1510SOL    HW2 5430   6.656   1.861   3.790
 1511SOL     OW 5431   2.843   3.062   0.641
 1511SOL    HW1 5432   2.880   2.992   0.579
 1511SOL    HW2 5433   2.869   3.042   0.735
 1512SOL     OW 5434   0.106   0.964   1.807
 1512SOL    HW1 5435   0.058   0.898   1.749
 1512SOL    HW2 5436   0.202   0.968   1.781
 1513SOL     OW 5437   3.417   0.866   3.415
 1513SOL    HW1 5438   3.505   0.913   3.420
 1513SOL    HW2 5439   3.371   0.890   3.330
 1514SOL     OW 5440   6.091   1.793   4.652
 1514SOL    HW1 5441   6.099   1.757   4.559
 1514SOL    HW2 5442   6.042   1.727   4.709
 1515SOL     OW 5443   0.066   4.677   4.774
 1515SOL    HW1 5444   0.057   4.764   4.727
 1515SOL    HW2 5445   0.039   4.602   4.714
 1516SOL     OW 5446   0.266   1.745   0.824
 1516SOL    HW1 5447   0.279   1.655   0.783
 1516SOL    HW2 5448   0.314   1.750   0.911
 1517SOL     OW 5449   4.596   5.703   3.655
 1517SOL    HW1 5450   4.536   5.641   3.603
 1517SOL    HW2 5451   4.659   5.649   3.711
 1518SOL     OW 5452   0.106   3.910   1.054
 1518SOL    HW1 5453   0.157   3.879   0.974
 1518SOL    HW2 5454   0.152   3.989   1.094
 1519SOL     OW 5455   6.035   4.057   0.111
 1519SOL    HW1 5456   6.093   4.137   0.100
 1519SOL    HW2 5457   6.083   3.975   0.079
 1520SOL     OW 5458   1.801   3.618   2.919
 1520SOL    HW1 5459   1.770   3.587   2.829
 1520SOL    HW2 5460   1.847   3.706   2.911
 1521SOL     OW 5461   2.615   3.864   6.653
 1521SOL    HW1 5462   2.701   3.849   6.701
 1521SOL    HW2 5463   2.613   3.957   6.616
 1522SOL     OW 5464   5.840   1.634   6.830
 1522SOL    HW1 5465   5.759   1.577   6.840
 1522SOL    HW2 5466   5.922   1.576   6.828
 1523SOL     OW 5467   6.656   2.681   1.498
 1523SOL    HW1 5468   6.656   2.735   1.414
 1523SOL    HW2 5469   6.750   2.670   1.531
 1524SOL     OW 5470   6.962   0.834   2.029
 1524SOL    HW1 5471   0.006   0.904   2.006
 1524SOL    HW2 5472   6.992   0.784   2.111
 1525SOL     OW 5473   4.847   1.964   6.427
 1525SOL    HW1 5474   4.785   1.910   6.371
 1525SOL    HW2 5475   4.839   1.935   6.523
 1526SOL     OW 5476   6.783   2.870   1.793
 1526SOL    HW1 5477   6.741   2.929   1.862
 1526SOL    HW2 5478   6.724   2.791   1.776
 1527SOL     OW 5479   3.372   2.056   5.721
 1527SOL    HW1 5480   3.285   2.006   5.718
 1527SOL    HW2 5481   3.402   2.064   5.816
 1528SOL     OW 5482   4.750   6.095   3.598
 1528SOL    HW1 5483   4.705   6.037   3.666
 1528SOL    HW2 5484   4.681   6.141   3.543
 1529SOL     OW 5485   3.439   0.298   5.725
 1529SOL    HW1 5486   3.364   0.358   5.697
 1529SOL    HW2 5487   3.503   0.349   5.782
 1530SOL     OW 5488   3.575   6.591   2.251
 1530SOL    HW1 5489   3.595   6.495   2.233
 1530SOL    HW2 5490   3.541   6.634   2.168
 1531SOL     OW 5491   6.259   7.015   4.820
 1531SOL    HW1 5492   6.331   0.023   4.758
 1531SOL    HW2 5493   6.288   6.930   4.864
 1532SOL     OW 5494   3.279   2.199   5.355
 1532SOL    HW1 5495   3.298   2.262   5.431
 1532SOL    HW2 5496   3.246   2.252   5.277
 1533SOL     OW 5497   6.193   2.952   6.647
 1533SOL    HW1 5498   6.142   3.036   6.665
 1533SOL    HW2 5499   6.257   2.967   6.571
 1534SOL     OW 5500   0.386   6.213   1.626
 1534SOL    HW1 5501   0.303   6.268   1.636
 1534SOL    HW2 5502   0.362   6.116   1.632
 1535SOL     OW 5503   4.469   4.606   4.208
 1535SOL    HW1 5504   4.405   4.678   4.181
 1535SOL    HW2 5505   4.474   4.601   4.308
 1536SOL     OW 5506   2.917   5.729   5.111
 1536SOL    HW1 5507   2.894   5.825   5.129
 1536SOL    HW2 5508   3.012   5.712   5.137
 1537SOL     OW 5509   1.880   5.540   4.810
 1537SOL    HW1 5510   1.789   5.503   4.790
 1537SOL    HW2 5511   1.943   5.465   4.830
 1538SOL     OW 5512   2.271   5.409   6.931
 1538SOL    HW1 5513   2.289   5.313   6.908
 1538SOL    HW2 5514   2.179   5.433   6.903
 1539SOL     OW 5515   3.488   4.420   1.701
 1539SOL    HW1 5516   3.571   4.370   1.680
 1539SOL    HW2 5517   3.511   4.505   1.749
 1540SOL     OW 5518   0.841   0.676   5.038
 1540SOL    HW1 5519   0.922   0.696   5.093
 1540SOL    HW2 5520   0.813   0.581   5.053
 1541SOL     OW 5521   4.978   2.428   1.115
 1541SOL    HW1 5522   4.947   2.461   1.204
 1541SOL    HW2 5523   4.906   2.374   1.073
 1542SOL     OW 5524   0.990   6.881   1.681
 1542SOL    HW1 5525   1.037   6.913   1.599
 1542SOL    HW2 5526   0.980   6.956   1.746
 1543SOL     OW 5527   3.473   3.839   3.915
 1543SOL    HW1 5528   3.385   3.791   3.918
 1543SOL    HW2 5529   3.537   3.795   3.978
 1544SOL     OW 5530   3.126   4.081   2.743
 1544SOL    HW1 5531   3.057   4.105   2.811
 1544SOL    HW2 5532   3.169   4.165   2.709
 1545SOL     OW 5533   5.419   0.237   4.949
 1545SOL    HW1 5534   5.395   0.305   4.880
 1545SOL    HW2 5535   5.508   0.260   4.989
 1546SOL     OW 5536   6.473   6.147   5.882
 1546SOL    HW1 5537   6.449   6.093   5.963
 1546SOL    HW2 5538   6.406   6.220   5.870
 1547SOL     OW 5539   2.907   5.926   1.633
 1547SOL    HW1 5540   2.912   5.912   1.732
 1547SOL    HW2 5541   3.000   5.923   1.595
 1548SOL     OW 5542   4.879   4.079   4.952
 1548SOL    HW1 5543   4.909   3.983   4.947
 1548SOL    HW2 5544   4.959   4.138   4.963
 1549SOL     OW 5545   6.717   2.393   1.346
 1549SOL    HW1 5546   6.724   2.475   1.404
 1549SOL    HW2 5547   6.648   2.331   1.384
 1550SOL     OW 5548   1.972   5.721   4.398
 1550SOL    HW1 5549   2.002   5.816   4.391
 1550SOL    HW2 5550   1.906   5.711   4.472
 1551SOL     OW 5551   1.949   2.668   0.578
 1551SOL    HW1 5552   2.046   2.658   0.556
 1551SOL    HW2 5553   1.893   2.634   0.501
 1552SOL     OW 5554   1.167   0.970   0.933
 1552SOL    HW1 5555   1.099   0.929   0.872
 1552SOL    HW2 5556   1.218   0.898   0.980
 1553SOL     OW 5557   5.968   1.660   6.127
 1553SOL    HW1 5558   6.065   1.663   6.151
 1553SOL    HW2 5559   5.923   1.590   6.184
 1554SOL     OW 5560   3.926   1.878   1.856
 1554SOL    HW1 5561   3.841   1.930   1.859
 1554SOL    HW2 5562   3.991   1.922   1.794
 1555SOL     OW 5563   3.528   1.642   5.722
 1555SOL    HW1 5564   3.428   1.642   5.722
 1555SOL    HW2 5565   3.561   1.661   5.629
 1556SOL     OW 5566   3.974   0.893   0.788
 1556SOL    HW1 5567   3.886   0.935   0.765
 1556SOL    HW2 5568   3.998   0.827   0.716
 1557SOL     OW 5569   1.813   1.803   1.086
 1557SOL    HW1 5570   1.908   1.802   1.056
 1557SOL    HW2 5571   1.803   1.744   1.166
 1558SOL     OW 5572   6.365   3.350   5.859
 1558SOL    HW1 5573   6.277   3.389   5.831
 1558SOL    HW2 5574   6.423   3.422   5.897
 1559SOL     OW 5575   1.855   4.661   3.137
 1559SOL    HW1 5576   1.765   4.625   3.162
 1559SOL    HW2 5577   1.920   4.585   3.128
 1560SOL     OW 5578   3.789   1.154   1.403
 1560SOL    HW1 5579   3.741   1.174   1.488
 1560SOL    HW2 5580   3.841   1.235   1.374
 1561SOL     OW 5581   5.924   5.760   1.690
 1561SOL    HW1 5582   5.827   5.770   1.670
 1561SOL    HW2 5583   5.975   5.747   1.605
 1562SOL     OW 5584   3.619   6.492   1.955
 1562SOL    HW1 5585   3.540   6.545   1.922
 1562SOL    HW2 5586   3.703   6.529   1.914
 1563SOL     OW 5587   3.973   2.229   4.112
 1563SOL    HW1 5588   3.980   2.223   4.012
 1563SOL    HW2 5589   4.065   2.234   4.151
 1564SOL     OW 5590   1.570   2.224   2.366
 1564SOL    HW1 5591   1.663   2.202   2.394
 1564SOL    HW2 5592   1.564   2.321   2.343
 1565SOL     OW 5593   3.668   0.740   4.167
 1565SOL    HW1 5594   3.675   0.640   4.164
 1565SOL    HW2 5595   3.740   0.780   4.110
 1566SOL     OW 5596   4.654   4.436   2.800
 1566SOL    HW1 5597   4.653   4.362   2.733
 1566SOL    HW2 5598   4.569   4.488   2.794
 1567SOL     OW 5599   5.134   6.405   5.259
 1567SOL    HW1 5600   5.098   6.478   5.318
 1567SOL    HW2 5601   5.230   6.389   5.283
 1568SOL     OW 5602   2.534   6.200   2.918
 1568SOL    HW1 5603   2.502   6.289   2.951
 1568SOL    HW2 5604   2.482   6.175   2.836
 1569SOL     OW 5605   2.426   6.822   3.756
 1569SOL    HW1 5606   2.468   6.902   3.798
 1569SOL    HW2 5607   2.336   6.847   3.719
 1570SOL     OW 5608   3.461   6.817   0.069
 1570SOL    HW1 5609   3.469   6.724   0.035
 1570SOL    HW2 5610   3.411   6.873   0.001
 1571SOL     OW 5611   0.937   2.560   3.963
 1571SOL    HW1 5612   0.955   2.482   3.902
 1571SOL    HW2 5613   1.024   2.598   3.995
 1572SOL     OW 5614   1.686   4.630   1.915
 1572SOL    HW1 5615   1.707   4.727   1.908
 1572SOL    HW2 5616   1.605   4.609   1.862
 1573SOL     OW 5617   5.095   5.051   0.872
 1573SOL    HW1 5618   5.063   5.139   0.909
 1573SOL    HW2 5619   5.083   4.980   0.940
 1574SOL     OW 5620   0.026   3.680   2.548
 1574SOL    HW1 5621   0.117   3.716   2.572
 1574SOL    HW2 5622   7.014   3.731   2.470
 1575SOL     OW 5623   0.513   0.893   0.602
 1575SOL    HW1 5624   0.415   0.872   0.596
 1575SOL    HW2 5625   0.547   0.920   0.512
 1576SOL     OW 5626   0.394   6.456   2.230
 1576SOL    HW1 5627   0.341   6.528   2.276
 1576SOL    HW2 5628   0.466   6.498   2.175
 1577SOL     OW 5629   4.428   0.057   5.851
 1577SOL    HW1 5630   4.464   0.063   5.944
 1577SOL    HW2 5631   4.371   0.137   5.832
 1578SOL     OW 5632   5.419   0.782   0.188
 1578SOL    HW1 5633   5.378   0.737   0.108
 1578SOL    HW2 5634   5.359   0.855   0.219
 1579SOL     OW 5635   1.758   2.879   1.609
 1579SOL    HW1 5636   1.820   2.863   1.533
 1579SOL    HW2 5637   1.672   2.832   1.593
 1580SOL     OW 5638   3.781   3.995   3.202
 1580SOL    HW1 5639   3.784   3.994   3.102
 1580SOL    HW2 5640   3.695   3.957   3.234
 1581SOL     OW 5641   0.104   4.367   6.087
 1581SOL    HW1 5642   0.161   4.419   6.023
 1581SOL    HW2 5643   0.081   4.278   6.047
 1582SOL     OW 5644   4.830   6.453   5.766
 1582SOL    HW1 5645   4.827   6.392   5.845
 1582SOL    HW2 5646   4.913   6.435   5.713
 1583SOL     OW 5647   1.216   5.856   5.545
 1583SOL    HW1 5648   1.247   5.845   5.451
 1583SOL    HW2 5649   1.291   5.833   5.607
 1584SOL     OW 5650   0.695   4.992   6.514
 1584SOL    HW1 5651   0.595   4.986   6.513
 1584SOL    HW2 5652   0.724   5.080   6.478
 1585SOL     OW 5653   3.952   0.138   3.049
 1585SOL    HW1 5654   3.901   0.131   3.135
 1585SOL    HW2 5655   3.911   0.075   2.982
 1586SOL     OW 5656   2.949   5.735   4.206
 1586SOL    HW1 5657   2.946   5.690   4.296
 1586SOL    HW2 5658   2.922   5.831   4.217
 1587SOL     OW 5659   2.267   6.160   5.930
 1587SOL    HW1 5660   2.270   6.117   6.021
 1587SOL    HW2 5661   2.346   6.132   5.877
 1588SOL     OW 5662   5.890   0.027   2.625
 1588SOL    HW1 5663   5.794   7.022   2.621
 1588SOL    HW2 5664   5.929   0.025   2.533
 1589SOL     OW 5665   6.567   4.307   3.422
 1589SOL    HW1 5666   6.664   4.294   3.405
 1589SOL    HW2 5667   6.550   4.311   3.520
 1590SOL     OW 5668   6.880   1.334   3.297
 1590SOL    HW1 5669   6.946   1.260   3.282
 1590SOL    HW2 5670   6.797   1.315   3.245
 1591SOL     OW 5671   0.787   6.166   2.019
 1591SOL    HW1 5672   0.753   6.076   1.993
 1591SOL    HW2 5673   0.774   6.180   2.117
 1592SOL     OW 5674   1.026   3.856   0.131
 1592SOL    HW1 5675   0.975   3.879   0.048
 1592SOL    HW2 5676   0.962   3.845   0.207
 1593SOL     OW 5677   1.204   0.691   6.920
 1593SOL    HW1 5678   1.301   0.717   6.916
 1593SOL    HW2 5679   1.151   0.768   6.955
 1594SOL     OW 5680   6.569   0.262   1.714
 1594SOL    HW1 5681   6.581   0.184   1.652
 1594SOL    HW2 5682   6.544   0.230   1.805
 1595SOL     OW 5683   0.870   4.190   6.869
 1595SOL    HW1 5684   0.858   4.223   6.775
 1595SOL    HW2 5685   0.936   4.248   6.916
 1596SOL     OW 5686   5.993   4.329   1.998
 1596SOL    HW1 5687   5.958   4.247   2.044
 1596SOL    HW2 5688   5.959   4.410   2.045
 1597SOL     OW 5689   3.335   6.505   0.516
 1597SOL    HW1 5690   3.313   6.500   0.613
 1597SOL    HW2 5691   3.252   6.528   0.464
 1598SOL     OW 5692   1.549   5.337   6.744
 1598SOL    HW1 5693   1.610   5.288   6.682
 1598SOL    HW2 5694   1.512   5.273   6.811
 1599SOL     OW 5695   4.142   4.786   3.972
 1599SOL    HW1 5696   4.236   4.817   3.958
 1599SOL    HW2 5697   4.133   4.691   3.941
 1600SOL     OW 5698   3.512   6.992   2.595
 1600SOL    HW1 5699   3.546   0.023   2.518
 1600SOL    HW2 5700   3.451   6.921   2.561
 1601SOL     OW 5701   5.546   6.373   4.274
 1601SOL    HW1 5702   5.542   6.472   4.259
 1601SOL    HW2 5703   5.610   6.354   4.348
 1602SOL     OW 5704   4.316   5.108   3.774
 1602SOL    HW1 5705   4.370   5.106   3.690
 1602SOL    HW2 5706   4.221   5.086   3.753
 1603SOL     OW 5707   2.922   5.673   3.806
 1603SOL    HW1 5708   2.878   5.651   3.894
 1603SOL    HW2 5709   2.851   5.689   3.737
 1604SOL     OW 5710   3.856   4.923   2.085
 1604SOL    HW1 5711   3.800   4.846   2.053
 1604SOL    HW2 5712   3.797   4.989   2.132
 1605SOL     OW 5713   4.632   4.971   1.430
 1605SOL    HW1 5714   4.591   4.880   1.438
 1605SOL    HW2 5715   4.720   4.965   1.384
 1606SOL     OW 5716   4.043   6.135   5.012
 1606SOL    HW1 5717   4.043   6.233   5.031
 1606SOL    HW2 5718   3.954   6.097   5.038
 1607SOL     OW 5719   4.902   5.638   2.992
 1607SOL    HW1 5720   4.915   5.712   2.926
 1607SOL    HW2 5721   4.855   5.674   3.073
 1608SOL     OW 5722   6.326   0.378   2.805
 1608SOL    HW1 5723   6.340   0.475   2.824
 1608SOL    HW2 5724   6.304   0.367   2.708
 1609SOL     OW 5725   3.160   6.548   1.103
 1609SOL    HW1 5726   3.102   6.467   1.102
 1609SOL    HW2 5727   3.195   6.563   1.196
 1610SOL     OW 5728   4.905   0.371   0.142
 1610SOL    HW1 5729   4.973   0.310   0.101
 1610SOL    HW2 5730   4.951   0.454   0.175
 1611SOL     OW 5731   0.932   3.833   1.077
 1611SOL    HW1 5732   0.926   3.744   1.122
 1611SOL    HW2 5733   0.969   3.821   0.985
 1612SOL     OW 5734   3.656   6.426   1.464
 1612SOL    HW1 5735   3.604   6.350   1.502
 1612SOL    HW2 5736   3.647   6.428   1.365
 1613SOL     OW 5737   0.023   5.567   2.528
 1613SOL    HW1 5738   0.007   5.541   2.623
 1613SOL    HW2 5739   7.015   5.661   2.513
 1614SOL     OW 5740   6.134   2.665   6.272
 1614SOL    HW1 5741   6.114   2.757   6.306
 1614SOL    HW2 5742   6.228   2.640   6.296
 1615SOL     OW 5743   0.806   5.191   6.344
 1615SOL    HW1 5744   0.821   5.272   6.401
 1615SOL    HW2 5745   0.817   5.216   6.248
 1616SOL     OW 5746   2.367   1.539   4.862
 1616SOL    HW1 5747   2.340   1.599   4.938
 1616SOL    HW2 5748   2.402   1.453   4.899
 1617SOL     OW 5749   5.149   6.332   3.450
 1617SOL    HW1 5750   5.157   6.311   3.548
 1617SOL    HW2 5751   5.059   6.301   3.417
 1618SOL     OW 5752   2.802   6.047   3.122
 1618SOL    HW1 5753   2.769   5.957   3.094
 1618SOL    HW2 5754   2.896   6.040   3.155
 1619SOL     OW 5755   1.040   5.007   0.012
 1619SOL    HW1 5756   1.037   5.076   0.085
 1619SOL    HW2 5757   0.990   4.925   0.042
 1620SOL     OW 5758   3.684   5.150   0.687
 1620SOL    HW1 5759   3.669   5.222   0.619
 1620SOL    HW2 5760   3.703   5.064   0.639
 1621SOL     OW 5761   5.753   6.673   0.884
 1621SOL    HW1 5762   5.720   6.767   0.897
 1621SOL    HW2 5763   5.753   6.626   0.972
 1622SOL     OW 5764   0.667   3.871   4.873
 1622SOL    HW1 5765   0.721   3.828   4.946
 1622SOL    HW2 5766   0.575   3.891   4.907
 1623SOL     OW 5767   0.513   2.041   4.671
 1623SOL    HW1 5768   0.437   2.095   4.634
 1623SOL    HW2 5769   0.599   2.071   4.630
 1624SOL     OW 5770   4.362   0.769   0.938
 1624SOL    HW1 5771   4.348   0.841   0.871
 1624SOL    HW2 5772   4.414   0.805   1.015
 1625SOL     OW 5773   1.968   4.845   1.037
 1625SOL    HW1 5774   2.063   4.849   1.065
 1625SOL    HW2 5775   1.943   4.930   0.991
 1626SOL     OW 5776   3.337   2.124   1.471
 1626SOL    HW1 5777   3.412   2.061   1.454
 1626SOL    HW2 5778   3.250   2.081   1.446
 1627SOL     OW 5779   4.334   2.296   3.819
 1627SOL    HW1 5780   4.402   2.351   3.868
 1627SOL    HW2 5781   4.361   2.286   3.724
 1628SOL     OW 5782   5.580   6.229   6.307
 1628SOL    HW1 5783   5.506   6.202   6.369
 1628SOL    HW2 5784   5.653   6.162   6.312
 1629SOL     OW 5785   2.707   1.464   2.824
 1629SOL    HW1 5786   2.642   1.466   2.748
 1629SOL    HW2 5787   2.801   1.472   2.788
 1630SOL     OW 5788   0.667   4.219   0.032
 1630SOL    HW1 5789   0.710   4.228   6.967
 1630SOL    HW2 5790   0.647   4.123   0.051
 1631SOL     OW 5791   0.783   3.457   0.410
 1631SOL    HW1 5792   0.770   3.409   0.323
 1631SOL    HW2 5793   0.876   3.494   0.414
 1632SOL     OW 5794   6.541   4.427   2.570
 1632SOL    HW1 5795   6.561   4.506   2.627
 1632SOL    HW2 5796   6.614   4.414   2.503
 1633SOL     OW 5797   4.852   3.579   3.638
 1633SOL    HW1 5798   4.852   3.664   3.585
 1633SOL    HW2 5799   4.878   3.599   3.732
 1634SOL     OW 5800   4.932   0.542   4.809
 1634SOL    HW1 5801   4.958   0.479   4.882
 1634SOL    HW2 5802   4.884   0.491   4.737
 1635SOL     OW 5803   3.336   5.251   4.719
 1635SOL    HW1 5804   3.411   5.237   4.655
 1635SOL    HW2 5805   3.304   5.162   4.753
 1636SOL     OW 5806   5.210   5.805   1.491
 1636SOL    HW1 5807   5.285   5.762   1.541
 1636SOL    HW2 5808   5.166   5.737   1.432
 1637SOL     OW 5809   0.215   0.002   2.295
 1637SOL    HW1 5810   0.206   7.021   2.196
 1637SOL    HW2 5811   0.294   0.057   2.319
 1638SOL     OW 5812   6.923   3.210   1.755
 1638SOL    HW1 5813   6.958   3.297   1.721
 1638SOL    HW2 5814   6.883   3.223   1.846
 1639SOL     OW 5815   5.520   3.717   2.332
 1639SOL    HW1 5816   5.422   3.731   2.323
 1639SOL    HW2 5817   5.549   3.643   2.271
 1640SOL     OW 5818   6.330   0.623   0.564
 1640SOL    HW1 5819   6.312   0.675   0.481
 1640SOL    HW2 5820   6.243   0.600   0.608
 1641SOL     OW 5821   6.829   2.112   2.798
 1641SOL    HW1 5822   6.891   2.189   2.791
 1641SOL    HW2 5823   6.784   2.097   2.710
 1642SOL     OW 5824   5.128   2.359   5.703
 1642SOL    HW1 5825   5.152   2.437   5.762
 1642SOL    HW2 5826   5.036   2.372   5.667
 1643SOL     OW 5827   3.456   5.482   4.212
 1643SOL    HW1 5828   3.488   5.388   4.204
 1643SOL    HW2 5829   3.383   5.498   4.145
 1644SOL     OW 5830   6.284   3.067   0.348
 1644SOL    HW1 5831   6.361   3.016   0.308
 1644SOL    HW2 5832   6.215   3.002   0.380
 1645SOL     OW 5833   2.404   1.118   5.653
 1645SOL    HW1 5834   2.493   1.156   5.629
 1645SOL    HW2 5835   2.409   1.074   5.743
 1646SOL     OW 5836   1.053   5.658   0.709
 1646SOL    HW1 5837   0.999   5.729   0.665
 1646SOL    HW2 5838   1.024   5.568   0.675
 1647SOL     OW 5839   6.241   2.799   4.410
 1647SOL    HW1 5840   6.182   2.841   4.479
 1647SOL    HW2 5841   6.190   2.790   4.324
 1648SOL     OW 5842   5.664   6.398   0.785
 1648SOL    HW1 5843   5.637   6.477   0.841
 1648SOL    HW2 5844   5.588   6.334   0.778
 1649SOL     OW 5845   3.026   0.541   3.676
 1649SOL    HW1 5846   2.963   0.550   3.599
 1649SOL    HW2 5847   3.114   0.580   3.652
 1650SOL     OW 5848   2.840   5.672   0.000
 1650SOL    HW1 5849   2.759   5.632   6.981
 1650SOL    HW2 5850   2.865   5.757   6.977
 1651SOL     OW 5851   0.912   2.910   4.118
 1651SOL    HW1 5852   0.992   2.924   4.176
 1651SOL    HW2 5853   0.855   2.992   4.120
 1652SOL     OW 5854   1.005   2.963   1.561
 1652SOL    HW1 5855   0.996   3.055   1.523
 1652SOL    HW2 5856   0.991   2.966   1.660
 1653SOL     OW 5857   0.221   5.115   2.960
 1653SOL    HW1 5858   0.145   5.152   3.013
 1653SOL    HW2 5859   0.249   5.183   2.891
 1654SOL     OW 5860   0.491   3.242   2.229
 1654SOL    HW1 5861   0.471   3.183   2.307
 1654SOL    HW2 5862   0.436   3.213   2.150
 1655SOL     OW 5863   6.352   0.687   4.722
 1655SOL    HW1 5864   6.348   0.762   4.657
 1655SOL    HW2 5865   6.446   0.653   4.728
 1656SOL     OW 5866   2.383   5.536   4.303
 1656SOL    HW1 5867   2.307   5.475   4.322
 1656SOL    HW2 5868   2.369   5.581   4.214
 1657SOL     OW 5869   0.242   0.049   5.779
 1657SOL    HW1 5870   0.159   0.096   5.748
 1657SOL    HW2 5871   0.246   6.982   5.739
 1658SOL     OW 5872   6.975   0.031   0.291
 1658SOL    HW1 5873   6.951   0.126   0.270
 1658SOL    HW2 5874   0.007   0.028   0.374
 1659SOL     OW 5875   4.238   6.592   6.632
 1659SOL    HW1 5876   4.295   6.512   6.650
 1659SOL    HW2 5877   4.297   6.668   6.602
 1660SOL     OW 5878   1.498   6.797   2.072
 1660SOL    HW1 5879   1.571   6.865   2.071
 1660SOL    HW2 5880   1.481   6.763   1.980
 1661SOL     OW 5881   3.869   5.278   2.874
 1661SOL    HW1 5882   3.950   5.294   2.931
 1661SOL    HW2 5883   3.861   5.179   2.857
 1662SOL     OW 5884   6.945   1.382   5.329
 1662SOL    HW1 5885   6.919   1.336   5.414
 1662SOL    HW2 5886   6.967   1.313   5.259
 1663SOL     OW 5887   4.488   4.376   0.923
 1663SOL    HW1 5888   4.579   4.408   0.897
 1663SOL    HW2 5889   4.421   4.411   0.858
 1664SOL     OW 5890   0.534   0.069   4.861
 1664SOL    HW1 5891   0.557   0.128   4.784
 1664SOL    HW2 5892   0.436   0.075   4.880
 1665SOL     OW 5893   1.957   3.677   1.136
 1665SOL    HW1 5894   2.019   3.608   1.173
 1665SOL    HW2 5895   2.001   3.727   1.062
 1666SOL     OW 5896   5.475   0.519   6.305
 1666SOL    HW1 5897   5.449   0.554   6.215
 1666SOL    HW2 5898   5.574   0.514   6.311
 1667SOL     OW 5899   0.709   6.404   1.076
 1667SOL    HW1 5900   0.776   6.396   1.150
 1667SOL    HW2 5901   0.696   6.500   1.053
 1668SOL     OW 5902   4.984   4.217   3.615
 1668SOL    HW1 5903   4.988   4.196   3.713
 1668SOL    HW2 5904   4.894   4.191   3.579
 1669SOL     OW 5905   0.101   3.584   5.409
 1669SOL    HW1 5906   0.089   3.491   5.376
 1669SOL    HW2 5907   0.023   3.640   5.382
 1670SOL     OW 5908   2.137   4.487   6.046
 1670SOL    HW1 5909   2.108   4.410   5.989
 1670SOL    HW2 5910   2.102   4.572   6.007
 1671SOL     OW 5911   4.809   1.764   1.813
 1671SOL    HW1 5912   4.776   1.673   1.837
 1671SOL    HW2 5913   4.746   1.833   1.847
 1672SOL     OW 5914   0.681   3.191   6.996
 1672SOL    HW1 5915   0.626   3.237   6.926
 1672SOL    HW2 5916   0.624   3.123   0.019
 1673SOL     OW 5917   2.118   1.653   4.341
 1673SOL    HW1 5918   2.198   1.593   4.334
 1673SOL    HW2 5919   2.106   1.701   4.254
 1674SOL     OW 5920   4.682   2.709   2.789
 1674SOL    HW1 5921   4.668   2.666   2.700
 1674SOL    HW2 5922   4.734   2.793   2.777
 1675SOL     OW 5923   5.486   0.513   1.102
 1675SOL    HW1 5924   5.395   0.534   1.138
 1675SOL    HW2 5925   5.551   0.581   1.135
 1676SOL     OW 5926   2.192   2.012   2.784
 1676SOL    HW1 5927   2.222   1.934   2.839
 1676SOL    HW2 5928   2.228   2.096   2.822
 1677SOL     OW 5929   4.142   3.540   3.556
 1677SOL    HW1 5930   4.159   3.450   3.595
 1677SOL    HW2 5931   4.118   3.531   3.460
 1678SOL     OW 5932   0.372   6.778   0.991
 1678SOL    HW1 5933   0.432   6.794   1.070
 1678SOL    HW2 5934   0.364   6.863   0.938
 1679SOL     OW 5935   1.830   1.792   5.174
 1679SOL    HW1 5936   1.760   1.721   5.176
 1679SOL    HW2 5937   1.847   1.826   5.266
 1680SOL     OW 5938   4.729   2.827   4.515
 1680SOL    HW1 5939   4.738   2.870   4.605
 1680SOL    HW2 5940   4.681   2.739   4.525
 1681SOL     OW 5941   2.322   5.836   3.568
 1681SOL    HW1 5942   2.288   5.805   3.479
 1681SOL    HW2 5943   2.265   5.912   3.600
 1682SOL     OW 5944   2.613   6.569   5.616
 1682SOL    HW1 5945   2.554   6.648   5.628
 1682SOL    HW2 5946   2.560   6.492   5.582
 1683SOL     OW 5947   5.992   4.719   2.428
 1683SOL    HW1 5948   6.042   4.782   2.368
 1683SOL    HW2 5949   6.040   4.712   2.516
 1684SOL     OW 5950   1.841   4.881   1.879
 1684SOL    HW1 5951   1.898   4.834   1.812
 1684SOL    HW2 5952   1.886   4.965   1.909
 1685SOL     OW 5953   0.537   1.370   5.501
 1685SOL    HW1 5954   0.589   1.422   5.434
 1685SOL    HW2 5955   0.439   1.383   5.485
 1686SOL     OW 5956   5.194   5.035   3.347
 1686SOL    HW1 5957   5.140   4.957   3.314
 1686SOL    HW2 5958   5.134   5.099   3.396
 1687SOL     OW 5959   6.534   3.632   2.697
 1687SOL    HW1 5960   6.528   3.602   2.792
 1687SOL    HW2 5961   6.617   3.595   2.655
 1688SOL     OW 5962   2.370   2.212   3.665
 1688SOL    HW1 5963   2.343   2.181   3.757
 1688SOL    HW2 5964   2.289   2.212   3.606
 1689SOL     OW 5965   5.987   0.991   2.357
 1689SOL    HW1 5966   5.928   0.911   2.344
 1689SOL    HW2 5967   6.008   1.031   2.268
 1690SOL     OW 5968   0.685   4.237   4.268
 1690SOL    HW1 5969   0.778   4.270   4.256
 1690SOL    HW2 5970   0.669   4.213   4.363
 1691SOL     OW 5971   5.298   2.911   5.092
 1691SOL    HW1 5972   5.340   2.904   5.001
 1691SOL    HW2 5973   5.367   2.897   5.162
 1692SOL     OW 5974   6.004   5.313   1.796
 1692SOL    HW1 5975   5.930   5.331   1.731
 1692SOL    HW2 5976   6.059   5.235   1.764
 1693SOL     OW 5977   6.715   0.798   5.541
 1693SOL    HW1 5978   6.650   0.797   5.616
 1693SOL    HW2 5979   6.666   0.807   5.454
 1694SOL     OW 5980   5.327   0.746   4.727
 1694SOL    HW1 5981   5.312   0.842   4.703
 1694SOL    HW2 5982   5.301   0.731   4.822
 1695SOL     OW 5983   4.085   0.293   6.682
 1695SOL    HW1 5984   4.001   0.277   6.630
 1695SOL    HW2 5985   4.083   0.386   6.720
 1696SOL     OW 5986   4.826   5.464   0.102
 1696SOL    HW1 5987   4.775   5.491   0.022
 1696SOL    HW2 5988   4.778   5.390   0.149
 1697SOL     OW 5989   6.060   1.983   1.140
 1697SOL    HW1 5990   5.989   1.956   1.204
 1697SOL    HW2 5991   6.137   1.919   1.147
 1698SOL     OW 5992   3.096   0.596   2.192
 1698SOL    HW1 5993   3.153   0.667   2.150
 1698SOL    HW2 5994   3.002   0.630   2.200
 1699SOL     OW 5995   2.475   0.963   6.783
 1699SOL    HW1 5996   2.470   1.061   6.762
 1699SOL    HW2 5997   2.545   0.948   6.853
 1700SOL     OW 5998   6.073   3.377   3.054
 1700SOL    HW1 5999   6.124   3.400   2.971
 1700SOL    HW2 6000   6.117   3.299   3.099
 1701SOL     OW 6001   6.596   4.554   4.931
 1701SOL    HW1 6002   6.590   4.455   4.945
 1701SOL    HW2 6003   6.676   4.576   4.875
 1702SOL     OW 6004   1.862   2.341   5.758
 1702SOL    HW1 6005   1.824   2.285   5.684
 1702SOL    HW2 6006   1.878   2.434   5.724
 1703SOL     OW 6007   3.091   1.616   6.706
 1703SOL    HW1 6008   3.163   1.668   6.752
 1703SOL    HW2 6009   3.132   1.552   6.641
 1704SOL     OW 6010   3.054   1.676   0.754
 1704SOL    HW1 6011   3.001   1.597   0.783
 1704SOL    HW2 6012   3.149   1.664   0.782
 1705SOL     OW 6013   3.649   1.207   1.642
 1705SOL    HW1 6014   3.575   1.160   1.691
 1705SOL    HW2 6015   3.664   1.297   1.683
 1706SOL     OW 6016   4.130   1.959   0.982
 1706SOL    HW1 6017   4.067   1.924   0.913
 1706SOL    HW2 6018   4.097   2.047   1.017
 1707SOL     OW 6019   4.641   1.257   2.411
 1707SOL    HW1 6020   4.551   1.295   2.389
 1707SOL    HW2 6021   4.709   1.330   2.408
 1708SOL     OW 6022   3.308   5.367   1.963
 1708SOL    HW1 6023   3.286   5.376   2.060
 1708SOL    HW2 6024   3.377   5.295   1.951
 1709SOL     OW 6025   5.143   5.845   0.654
 1709SOL    HW1 6026   5.201   5.893   0.720
 1709SOL    HW2 6027   5.176   5.751   0.644
 1710SOL     OW 6028   4.479   5.031   2.773
 1710SOL    HW1 6029   4.423   5.023   2.690
 1710SOL    HW2 6030   4.427   4.999   2.852
 1711SOL     OW 6031   2.969   5.666   6.283
 1711SOL    HW1 6032   2.917   5.736   6.235
 1711SOL    HW2 6033   3.050   5.707   6.325
 1712SOL     OW 6034   0.294   2.029   4.136
 1712SOL    HW1 6035   0.220   2.040   4.204
 1712SOL    HW2 6036   0.307   2.115   4.088
 1713SOL     OW 6037   4.086   0.578   2.886
 1713SOL    HW1 6038   4.026   0.658   2.880
 1713SOL    HW2 6039   4.147   0.577   2.807
 1714SOL     OW 6040   3.655   2.913   6.755
 1714SOL    HW1 6041   3.711   2.942   6.678
 1714SOL    HW2 6042   3.672   2.817   6.775
 1715SOL     OW 6043   1.434   6.285   2.372
 1715SOL    HW1 6044   1.348   6.259   2.327
 1715SOL    HW2 6045   1.488   6.341   2.310
 1716SOL     OW 6046   4.242   0.581   4.120
 1716SOL    HW1 6047   4.195   0.602   4.206
 1716SOL    HW2 6048   4.184   0.608   4.043
 1717SOL     OW 6049   3.853   6.064   5.727
 1717SOL    HW1 6050   3.775   6.111   5.769
 1717SOL    HW2 6051   3.868   5.976   5.774
 1718SOL     OW 6052   1.911   2.740   1.912
 1718SOL    HW1 6053   1.812   2.758   1.912
 1718SOL    HW2 6054   1.959   2.822   1.884
 1719SOL     OW 6055   0.784   4.954   1.961
 1719SOL    HW1 6056   0.782   5.036   1.905
 1719SOL    HW2 6057   0.838   4.883   1.915
 1720SOL     OW 6058   6.756   2.882   5.645
 1720SOL    HW1 6059   6.695   2.934   5.705
 1720SOL    HW2 6060   6.722   2.887   5.551
 1721SOL     OW 6061   1.114   1.582   1.916
 1721SOL    HW1 6062   1.165   1.549   1.837
 1721SOL    HW2 6063   1.019   1.552   1.909
 1722SOL     OW 6064   2.958   2.147   3.032
 1722SOL    HW1 6065   2.866   2.107   3.041
 1722SOL    HW2 6066   2.961   2.205   2.950
 1723SOL     OW 6067   5.004   2.692   0.047
 1723SOL    HW1 6068   5.073   2.649   0.104
 1723SOL    HW2 6069   4.985   2.784   0.080
 1724SOL     OW 6070   6.567   2.429   1.081
 1724SOL    HW1 6071   6.475   2.453   1.112
 1724SOL    HW2 6072   6.634   2.454   1.152
 1725SOL     OW 6073   2.418   5.678   6.662
 1725SOL    HW1 6074   2.361   5.675   6.744
 1725SOL    HW2 6075   2.368   5.722   6.588
 1726SOL     OW 6076   5.629   3.881   3.966
 1726SOL    HW1 6077   5.575   3.959   3.997
 1726SOL    HW2 6078   5.666   3.900   3.875
 1727SOL     OW 6079   3.199   3.806   3.633
 1727SOL    HW1 6080   3.293   3.797   3.601
 1727SOL    HW2 6081   3.137   3.809   3.555
 1728SOL     OW 6082   4.913   2.582   5.227
 1728SOL    HW1 6083   4.928   2.680   5.211
 1728SOL    HW2 6084   4.826   2.570   5.276
 1729SOL     OW 6085   2.045   3.851   1.875
 1729SOL    HW1 6086   2.032   3.920   1.804
 1729SOL    HW2 6087   1.960   3.840   1.926
 1730SOL     OW 6088   2.651   5.070   6.168
 1730SOL    HW1 6089   2.582   5.136   6.198
 1730SOL    HW2 6090   2.605   4.991   6.128
 1731SOL     OW 6091   5.906   4.069   3.925
 1731SOL    HW1 6092   5.971   4.024   3.987
 1731SOL    HW2 6093   5.815   4.068   3.966
 1732SOL     OW 6094   1.725   4.847   6.363
 1732SOL    HW1 6095   1.809   4.798   6.341
 1732SOL    HW2 6096   1.733   4.942   6.333
 1733SOL     OW 6097   2.831   3.457   0.167
 1733SOL    HW1 6098   2.930   3.470   0.177
 1733SOL    HW2 6099   2.801   3.498   0.082
 1734SOL     OW 6100   6.960   2.862   1.358
 1734SOL    HW1 6101   0.028   2.829   1.379
 1734SOL    HW2 6102   6.921   2.907   1.438
 1735SOL     OW 6103   4.008   5.652   6.493
 1735SOL    HW1 6104   4.097   5.611   6.475
 1735SOL    HW2 6105   3.947   5.634   6.416
 1736SOL     OW 6106   5.010   3.578   0.822
 1736SOL    HW1 6107   4.995   3.486   0.785
 1736SOL    HW2 6108   4.923   3.627   0.825
 1737SOL     OW 6109   4.734   1.482   4.733
 1737SOL    HW1 6110   4.722   1.520   4.641
 1737SOL    HW2 6111   4.801   1.408   4.729
 1738SOL     OW 6112   1.119   3.567   4.358
 1738SOL    HW1 6113   1.034   3.607   4.391
 1738SOL    HW2 6114   1.187   3.640   4.345
 1739SOL     OW 6115   5.153   0.240   4.245
 1739SOL    HW1 6116   5.248   0.270   4.259
 1739SOL    HW2 6117   5.109   0.297   4.176
 1740SOL     OW 6118   6.884   2.380   4.524
 1740SOL    HW1 6119   6.811   2.441   4.557
 1740SOL    HW2 6120   6.844   2.311   4.464
 1741SOL     OW 6121   0.957   1.942   4.604
 1741SOL    HW1 6122   1.040   1.927   4.551
 1741SOL    HW2 6123   0.911   2.025   4.571
 1742SOL     OW 6124   6.106   5.753   6.152
 1742SOL    HW1 6125   6.206   5.758   6.153
 1742SOL    HW2 6126   6.069   5.818   6.219
 1743SOL     OW 6127   1.858   1.209   2.954
 1743SOL    HW1 6128   1.842   1.111   2.938
 1743SOL    HW2 6129   1.776   1.249   2.995
 1744SOL     OW 6130   4.799   2.295   3.846
 1744SOL    HW1 6131   4.816   2.225   3.915
 1744SOL    HW2 6132   4.850   2.273   3.763
 1745SOL     OW 6133   6.612   6.570   1.442
 1745SOL    HW1 6134   6.614   6.662   1.402
 1745SOL    HW2 6135   6.642   6.503   1.374
 1746SOL     OW 6136   1.792   4.154   3.305
 1746SOL    HW1 6137   1.844   4.143   3.389
 1746SOL    HW2 6138   1.718   4.087   3.302
 1747SOL     OW 6139   3.396   1.235   2.462
 1747SOL    HW1 6140   3.431   1.293   2.535
 1747SOL    HW2 6141   3.321   1.281   2.415
 1748SOL     OW 6142   0.036   1.655   4.461
 1748SOL    HW1 6143   0.111   1.601   4.425
 1748SOL    HW2 6144   0.000   1.715   4.388
 1749SOL     OW 6145   2.288   5.070   1.283
 1749SOL    HW1 6146   2.240   5.020   1.354
 1749SOL    HW2 6147   2.231   5.148   1.253
 1750SOL     OW 6148   4.814   0.498   5.581
 1750SOL    HW1 6149   4.815   0.542   5.671
 1750SOL    HW2 6150   4.799   0.399   5.592
 1751SOL     OW 6151   6.000   2.584   5.066
 1751SOL    HW1 6152   6.029   2.526   5.143
 1751SOL    HW2 6153   5.962   2.526   4.994
 1752SOL     OW 6154   6.761   0.818   1.319
 1752SOL    HW1 6155   6.815   0.808   1.236
 1752SOL    HW2 6156   6.730   0.913   1.327
 1753SOL     OW 6157   6.249   1.188   1.661
 1753SOL    HW1 6158   6.240   1.094   1.696
 1753SOL    HW2 6159   6.258   1.186   1.562
 1754SOL     OW 6160   2.846   5.552   5.852
 1754SOL    HW1 6161   2.773   5.586   5.911
 1754SOL    HW2 6162   2.812   5.538   5.759
 1755SOL     OW 6163   6.082   0.346   5.074
 1755SOL    HW1 6164   6.062   0.261   5.123
 1755SOL    HW2 6165   6.112   0.324   4.981
 1756SOL     OW 6166   5.701   0.420   5.852
 1756SOL    HW1 6167   5.604   0.440   5.849
 1756SOL    HW2 6168   5.725   0.383   5.942
 1757SOL     OW 6169   2.392   5.069   5.244
 1757SOL    HW1 6170   2.408   5.132   5.168
 1757SOL    HW2 6171   2.475   5.062   5.299
 1758SOL     OW 6172   2.131   6.349   4.552
 1758SOL    HW1 6173   2.154   6.280   4.484
 1758SOL    HW2 6174   2.074   6.420   4.509
 1759SOL     OW 6175   1.646   6.510   0.204
 1759SOL    HW1 6176   1.727   6.567   0.199
 1759SOL    HW2 6177   1.579   6.552   0.265
 1760SOL     OW 6178   6.320   1.240   5.117
 1760SOL    HW1 6179   6.254   1.228   5.191
 1760SOL    HW2 6180   6.411   1.215   5.149
 1761SOL     OW 6181   6.672   1.863   1.724
 1761SOL    HW1 6182   6.745   1.876   1.657
 1761SOL    HW2 6183   6.679   1.771   1.763
 1762SOL     OW 6184   0.168   1.471   5.210
 1762SOL    HW1 6185   0.249   1.413   5.199
 1762SOL    HW2 6186   0.087   1.413   5.219
 1763SOL     OW 6187   0.542   3.923   4.305
 1763SOL    HW1 6188   0.532   3.991   4.378
 1763SOL    HW2 6189   0.635   3.888   4.305
 1764SOL     OW 6190   1.581   5.115   2.422
 1764SOL    HW1 6191   1.561   5.041   2.357
 1764SOL    HW2 6192   1.559   5.203   2.380
 1765SOL     OW 6193   5.679   3.372   1.843
 1765SOL    HW1 6194   5.627   3.357   1.759
 1765SOL    HW2 6195   5.684   3.470   1.862
 1766SOL     OW 6196   3.922   4.864   4.500
 1766SOL    HW1 6197   4.019   4.869   4.478
 1766SOL    HW2 6198   3.909   4.872   4.599
 1767SOL     OW 6199   0.647   4.992   2.515
 1767SOL    HW1 6200   0.709   5.056   2.471
 1767SOL    HW2 6201   0.584   5.042   2.575
 1768SOL     OW 6202   4.964   6.475   2.306
 1768SOL    HW1 6203   4.930   6.381   2.306
 1768SOL    HW2 6204   4.994   6.500   2.398
 1769SOL     OW 6205   5.361   0.149   6.649
 1769SOL    HW1 6206   5.322   0.214   6.584
 1769SOL    HW2 6207   5.460   0.145   6.638
 1770SOL     OW 6208   2.057   5.046   6.322
 1770SOL    HW1 6209   2.104   5.045   6.410
 1770SOL    HW2 6210   2.117   5.007   6.252
 1771SOL     OW 6211   0.697   4.019   6.141
 1771SOL    HW1 6212   0.770   3.988   6.081
 1771SOL    HW2 6213   0.620   4.052   6.087
 1772SOL     OW 6214   2.338   4.736   4.000
 1772SOL    HW1 6215   2.238   4.738   3.997
 1772SOL    HW2 6216   2.372   4.651   3.959
 1773SOL     OW 6217   0.522   6.778   5.198
 1773SOL    HW1 6218   0.606   6.734   5.168
 1773SOL    HW2 6219   0.539   6.831   5.281
 1774SOL     OW 6220   5.908   5.505   1.374
 1774SOL    HW1 6221   5.931   5.510   1.277
 1774SOL    HW2 6222   5.822   5.553   1.392
 1775SOL     OW 6223   2.260   5.698   6.053
 1775SOL    HW1 6224   2.301   5.649   5.976
 1775SOL    HW2 6225   2.323   5.769   6.085
 1776SOL     OW 6226   4.216   1.011   6.182
 1776SOL    HW1 6227   4.221   0.991   6.084
 1776SOL    HW2 6228   4.127   0.983   6.217
 1777SOL     OW 6229   4.737   6.624   6.668
 1777SOL    HW1 6230   4.741   6.673   6.756
 1777SOL    HW2 6231   4.641   6.613   6.641
 1778SOL     OW 6232   6.083   0.098   4.203
 1778SOL    HW1 6233   6.026   0.172   4.240
 1778SOL    HW2 6234   6.082   0.103   4.103
 1779SOL     OW 6235   5.541   6.010   3.888
 1779SOL    HW1 6236   5.455   5.963   3.870
 1779SOL    HW2 6237   5.548   6.032   3.985
 1780SOL     OW 6238   1.863   5.393   5.112
 1780SOL    HW1 6239   1.953   5.402   5.068
 1780SOL    HW2 6240   1.863   5.443   5.198
 1781SOL     OW 6241   4.114   0.596   3.827
 1781SOL    HW1 6242   4.187   0.536   3.793
 1781SOL    HW2 6243   4.038   0.540   3.857
 1782SOL     OW 6244   1.747   1.765   2.714
 1782SOL    HW1 6245   1.667   1.725   2.758
 1782SOL    HW2 6246   1.719   1.839   2.653
 1783SOL     OW 6247   1.641   4.349   6.484
 1783SOL    HW1 6248   1.719   4.344   6.546
 1783SOL    HW2 6249   1.638   4.266   6.428
 1784SOL     OW 6250   2.471   0.642   0.679
 1784SOL    HW1 6251   2.558   0.628   0.632
 1784SOL    HW2 6252   2.403   0.578   0.644
 1785SOL     OW 6253   1.238   6.686   4.117
 1785SOL    HW1 6254   1.166   6.638   4.067
 1785SOL    HW2 6255   1.265   6.633   4.197
 1786SOL     OW 6256   1.201   5.818   0.872
 1786SOL    HW1 6257   1.163   5.752   0.808
 1786SOL    HW2 6258   1.144   5.900   0.873
 1787SOL     OW 6259   1.852   3.642   5.690
 1787SOL    HW1 6260   1.840   3.633   5.789
 1787SOL    HW2 6261   1.946   3.667   5.670
 1788SOL     OW 6262   4.623   3.801   0.851
 1788SOL    HW1 6263   4.675   3.814   0.767
 1788SOL    HW2 6264   4.553   3.872   0.858
 1789SOL     OW 6265   6.619   3.924   2.021
 1789SOL    HW1 6266   6.642   4.015   2.056
 1789SOL    HW2 6267   6.526   3.925   1.983
 1790SOL     OW 6268   2.687   2.371   4.442
 1790SOL    HW1 6269   2.638   2.434   4.381
 1790SOL    HW2 6270   2.667   2.395   4.537
 1791SOL     OW 6271   5.270   6.877   3.539
 1791SOL    HW1 6272   5.261   6.794   3.594
 1791SOL    HW2 6273   5.256   6.957   3.597
 1792SOL     OW 6274   0.016   1.651   5.090
 1792SOL    HW1 6275   0.076   1.585   5.135
 1792SOL    HW2 6276   0.036   1.743   5.125
 1793SOL     OW 6277   0.129   1.183   5.978
 1793SOL    HW1 6278   0.096   1.118   6.046
 1793SOL    HW2 6279   0.081   1.269   5.987
 1794SOL     OW 6280   0.544   0.003   6.041
 1794SOL    HW1 6281   0.512   7.009   6.134
 1794SOL    HW2 6282   0.594   0.090   6.038
 1795SOL     OW 6283   6.184   4.971   6.891
 1795SOL    HW1 6284   6.168   5.070   6.885
 1795SOL    HW2 6285   6.279   4.951   6.870
 1796SOL     OW 6286   0.595   6.473   6.174
 1796SOL    HW1 6287   0.566   6.467   6.079
 1796SOL    HW2 6288   0.645   6.558   6.189
 1797SOL     OW 6289   2.747   5.765   4.890
 1797SOL    HW1 6290   2.802   5.820   4.826
 1797SOL    HW2 6291   2.802   5.744   4.971
 1798SOL     OW 6292   2.946   3.758   4.429
 1798SOL    HW1 6293   2.853   3.789   4.406
 1798SOL    HW2 6294   2.940   3.689   4.502
 1799SOL     OW 6295   3.242   0.989   0.370
 1799SOL    HW1 6296   3.301   1.055   0.416
 1799SOL    HW2 6297   3.292   0.948   0.293
 1800SOL     OW 6298   5.198   3.172   4.857
 1800SOL    HW1 6299   5.207   3.270   4.837
 1800SOL    HW2 6300   5.285   3.126   4.841
 1801SOL     OW 6301   0.918   1.834   2.243
 1801SOL    HW1 6302   0.980   1.840   2.165
 1801SOL    HW2 6303   0.970   1.811   2.325
 1802SOL     OW 6304   0.155   4.986   3.960
 1802SOL    HW1 6305   0.085   4.945   4.017
 1802SOL    HW2 6306   0.198   4.916   3.903
 1803SOL     OW 6307   1.144   0.033   3.397
 1803SOL    HW1 6308   1.152   6.966   3.437
 1803SOL    HW2 6309   1.190   0.100   3.456
 1804SOL     OW 6310   2.250   3.530   5.567
 1804SOL    HW1 6311   2.275   3.577   5.483
 1804SOL    HW2 6312   2.224   3.436   5.547
 1805SOL     OW 6313   0.510   6.187   6.449
 1805SOL    HW1 6314   0.560   6.149   6.526
 1805SOL    HW2 6315   0.475   6.113   6.391
 1806SOL     OW 6316   6.782   1.706   2.409
 1806SOL    HW1 6317   6.710   1.772   2.428
 1806SOL    HW2 6318   6.829   1.732   2.324
 1807SOL     OW 6319   6.628   3.466   2.078
 1807SOL    HW1 6320   6.640   3.486   2.175
 1807SOL    HW2 6321   6.531   3.466   2.056
 1808SOL     OW 6322   4.921   1.826   5.781
 1808SOL    HW1 6323   4.969   1.764   5.719
 1808SOL    HW2 6324   4.957   1.919   5.770
 1809SOL     OW 6325   3.855   1.554   6.075
 1809SOL    HW1 6326   3.817   1.631   6.024
 1809SOL    HW2 6327   3.952   1.543   6.051
 1810SOL     OW 6328   0.373   0.230   4.059
 1810SOL    HW1 6329   0.294   0.219   3.998
 1810SOL    HW2 6330   0.432   0.302   4.024
 1811SOL     OW 6331   4.772   5.728   2.419
 1811SOL    HW1 6332   4.739   5.725   2.513
 1811SOL    HW2 6333   4.701   5.694   2.357
 1812SOL     OW 6334   4.593   0.055   4.981
 1812SOL    HW1 6335   4.669   7.014   4.992
 1812SOL    HW2 6336   4.523   0.014   4.923
 1813SOL     OW 6337   4.429   4.572   2.290
 1813SOL    HW1 6338   4.418   4.569   2.190
 1813SOL    HW2 6339   4.473   4.488   2.321
 1814SOL     OW 6340   0.064   6.345   0.550
 1814SOL    HW1 6341   0.041   6.368   0.455
 1814SOL    HW2 6342   0.157   6.375   0.570
 1815SOL     OW 6343   6.279   6.441   1.628
 1815SOL    HW1 6344   6.189   6.456   1.587
 1815SOL    HW2 6345   6.311   6.525   1.671
 1816SOL     OW 6346   4.375   5.311   6.428
 1816SOL    HW1 6347   4.436   5.287   6.353
 1816SOL    HW2 6348   4.426   5.310   6.514
 1817SOL     OW 6349   1.149   1.862   3.607
 1817SOL    HW1 6350   1.089   1.916   3.548
 1817SOL    HW2 6351   1.144   1.765   3.580
 1818SOL     OW 6352   2.009   6.778   0.763
 1818SOL    HW1 6353   2.033   6.801   0.668
 1818SOL    HW2 6354   2.067   6.704   0.796
 1819SOL     OW 6355   2.410   4.973   3.304
 1819SOL    HW1 6356   2.397   4.916   3.224
 1819SOL    HW2 6357   2.426   5.068   3.276
 1820SOL     OW 6358   3.755   0.502   4.340
 1820SOL    HW1 6359   3.694   0.495   4.419
 1820SOL    HW2 6360   3.845   0.535   4.370
 1821SOL     OW 6361   3.728   2.119   2.457
 1821SOL    HW1 6362   3.815   2.155   2.490
 1821SOL    HW2 6363   3.736   2.096   2.360
 1822SOL     OW 6364   0.087   2.698   2.188
 1822SOL    HW1 6365   0.063   2.791   2.160
 1822SOL    HW2 6366   0.011   2.657   2.238
 1823SOL     OW 6367   3.810   6.811   2.573
 1823SOL    HW1 6368   3.810   6.814   2.673
 1823SOL    HW2 6369   3.790   6.902   2.537
 1824SOL     OW 6370   3.465   2.661   1.028
 1824SOL    HW1 6371   3.519   2.745   1.020
 1824SOL    HW2 6372   3.393   2.661   0.958
 1825SOL     OW 6373   2.141   1.411   5.080
 1825SOL    HW1 6374   2.163   1.508   5.079
 1825SOL    HW2 6375   2.143   1.375   4.986
 1826SOL     OW 6376   3.612   2.207   1.635
 1826SOL    HW1 6377   3.643   2.255   1.718
 1826SOL    HW2 6378   3.527   2.248   1.603
 1827SOL     OW 6379   5.292   4.204   0.819
 1827SOL    HW1 6380   5.244   4.259   0.887
 1827SOL    HW2 6381   5.272   4.239   0.727
 1828SOL     OW 6382   1.489   3.283   5.133
 1828SOL    HW1 6383   1.567   3.338   5.100
 1828SOL    HW2 6384   1.451   3.232   5.057
 1829SOL     OW 6385   3.718   0.834   3.366
 1829SOL    HW1 6386   3.739   0.925   3.402
 1829SOL    HW2 6387   3.761   0.764   3.424
 1830SOL     OW 6388   5.390   6.397   5.377
 1830SOL    HW1 6389   5.400   6.318   5.317
 1830SOL    HW2 6390   5.462   6.464   5.356
 1831SOL     OW 6391   4.747   5.425   1.907
 1831SOL    HW1 6392   4.808   5.469   1.841
 1831SOL    HW2 6393   4.767   5.326   1.908
 1832SOL     OW 6394   3.083   3.085   0.488
 1832SOL    HW1 6395   3.131   3.086   0.400
 1832SOL    HW2 6396   2.993   3.125   0.477
 1833SOL     OW 6397   5.222   0.278   0.718
 1833SOL    HW1 6398   5.257   0.259   0.810
 1833SOL    HW2 6399   5.123   0.291   0.722
 1834SOL     OW 6400   2.262   2.378   6.459
 1834SOL    HW1 6401   2.307   2.414   6.540
 1834SOL    HW2 6402   2.173   2.423   6.447
 1835SOL     OW 6403   0.087   5.905   0.907
 1835SOL    HW1 6404   0.063   5.911   0.810
 1835SOL    HW2 6405   0.048   5.982   0.956
 1836SOL     OW 6406   5.466   2.260   1.488
 1836SOL    HW1 6407   5.384   2.214   1.524
 1836SOL    HW2 6408   5.475   2.350   1.532
 1837SOL     OW 6409   2.901   1.735   6.555
 1837SOL    HW1 6410   2.916   1.820   6.505
 1837SOL    HW2 6411   2.986   1.706   6.599
 1838SOL     OW 6412   6.679   0.972   0.528
 1838SOL    HW1 6413   6.742   0.896   0.542
 1838SOL    HW2 6414   6.586   0.938   0.523
 1839SOL     OW 6415   6.846   1.172   6.859
 1839SOL    HW1 6416   6.755   1.145   6.827
 1839SOL    HW2 6417   6.865   1.129   6.947
 1840SOL     OW 6418   4.823   6.888   3.457
 1840SOL    HW1 6419   4.758   6.911   3.529
 1840SOL    HW2 6420   4.803   6.797   3.421
 1841SOL     OW 6421   2.160   1.231   2.294
 1841SOL    HW1 6422   2.258   1.210   2.287
 1841SOL    HW2 6423   2.148   1.320   2.338
 1842SOL     OW 6424   1.395   5.316   0.132
 1842SOL    HW1 6425   1.353   5.250   0.070
 1842SOL    HW2 6426   1.325   5.377   0.168
 1843SOL     OW 6427   3.693   1.117   4.825
 1843SOL    HW1 6428   3.742   1.099   4.739
 1843SOL    HW2 6429   3.626   1.190   4.810
 1844SOL     OW 6430   5.568   1.776   0.015
 1844SOL    HW1 6431   5.647   1.809   0.066
 1844SOL    HW2 6432   5.495   1.844   0.019
 1845SOL     OW 6433   1.449   1.070   2.865
 1845SOL    HW1 6434   1.381   1.009   2.824
 1845SOL    HW2 6435   1.469   1.144   2.802
 1846SOL     OW 6436   4.257   1.339   2.122
 1846SOL    HW1 6437   4.203   1.293   2.051
 1846SOL    HW2 6438   4.299   1.421   2.085
 1847SOL     OW 6439   2.316   0.011   5.431
 1847SOL    HW1 6440   2.373   6.966   5.476
 1847SOL    HW2 6441   2.357   0.102   5.443
 1848SOL     OW 6442   2.623   5.850   4.416
 1848SOL    HW1 6443   2.551   5.824   4.480
 1848SOL    HW2 6444   2.676   5.925   4.454
 1849SOL     OW 6445   4.752   2.663   1.891
 1849SOL    HW1 6446   4.673   2.706   1.934
 1849SOL    HW2 6447   4.831   2.724   1.897
 1850SOL     OW 6448   5.210   1.630   1.595
 1850SOL    HW1 6449   5.114   1.642   1.570
 1850SOL    HW2 6450   5.268   1.673   1.525
 1851SOL     OW 6451   6.992   4.046   5.260
 1851SOL    HW1 6452   6.928   4.091   5.323
 1851SOL    HW2 6453   6.941   4.003   5.186
 1852SOL     OW 6454   1.411   5.666   2.308
 1852SOL    HW1 6455   1.414   5.764   2.325
 1852SOL    HW2 6456   1.504   5.632   2.293
 1853SOL     OW 6457   0.141   2.443   4.514
 1853SOL    HW1 6458   0.043   2.432   4.498
 1853SOL    HW2 6459   0.156   2.474   4.608
 1854SOL     OW 6460   0.165   6.729   3.855
 1854SOL    HW1 6461   0.094   6.681   3.802
 1854SOL    HW2 6462   0.245   6.743   3.798
 1855SOL     OW 6463   5.017   3.426   5.023
 1855SOL    HW1 6464   5.033   3.399   4.928
 1855SOL    HW2 6465   4.933   3.480   5.029
 1856SOL     OW 6466   3.812   2.629   6.826
 1856SOL    HW1 6467   3.846   2.606   6.917
 1856SOL    HW2 6468   3.806   2.546   6.770
 1857SOL     OW 6469   4.711   1.136   1.134
 1857SOL    HW1 6470   4.620   1.150   1.173
 1857SOL    HW2 6471   4.759   1.224   1.131
 1858SOL     OW 6472   4.221   2.263   4.229
 1858SOL    HW1 6473   4.214   2.237   4.326
 1858SOL    HW2 6474   4.301   2.322   4.216
 1859SOL     OW 6475   5.868   2.337   4.091
 1859SOL    HW1 6476   5.792   2.329   4.156
 1859SOL    HW2 6477   5.912   2.247   4.082
 1860SOL     OW 6478   0.968   1.304   4.513
 1860SOL    HW1 6479   0.933   1.256   4.594
 1860SOL    HW2 6480   0.925   1.266   4.431
 1861SOL     OW 6481   6.623   0.196   3.418
 1861SOL    HW1 6482   6.663   0.227   3.504
 1861SOL    HW2 6483   6.610   0.097   3.422
 1862SOL     OW 6484   2.406   6.030   6.630
 1862SOL    HW1 6485   2.489   6.086   6.626
 1862SOL    HW2 6486   2.331   6.085   6.668
 1863SOL     OW 6487   0.924   3.024   1.279
 1863SOL    HW1 6488   0.868   3.015   1.361
 1863SOL    HW2 6489   0.923   3.118   1.247
 1864SOL     OW 6490   3.673   5.811   2.669
 1864SOL    HW1 6491   3.638   5.900   2.699
 1864SOL    HW2 6492   3.773   5.813   2.670
 1865SOL     OW 6493   5.528   1.103   6.267
 1865SOL    HW1 6494   5.535   1.120   6.169
 1865SOL    HW2 6495   5.435   1.072   6.289
 1866SOL     OW 6496   0.284   4.724   3.332
 1866SOL    HW1 6497   0.273   4.822   3.315
 1866SOL    HW2 6498   0.370   4.709   3.380
 1867SOL     OW 6499   2.383   2.106   1.232
 1867SOL    HW1 6500   2.368   2.007   1.225
 1867SOL    HW2 6501   2.465   2.131   1.180
 1868SOL     OW 6502   5.839   4.236   5.671
 1868SOL    HW1 6503   5.918   4.265   5.616
 1868SOL    HW2 6504   5.867   4.224   5.766
 1869SOL     OW 6505   5.060   1.626   4.284
 1869SOL    HW1 6506   4.987   1.662   4.226
 1869SOL    HW2 6507   5.095   1.541   4.245
 1870SOL     OW 6508   0.156   5.242   4.265
 1870SOL    HW1 6509   0.233   5.206   4.318
 1870SOL    HW2 6510   0.075   5.245   4.323
 1871SOL     OW 6511   0.930   6.373   0.594
 1871SOL    HW1 6512   0.999   6.444   0.607
 1871SOL    HW2 6513   0.856   6.385   0.661
 1872SOL     OW 6514   2.773   2.602   1.084
 1872SOL    HW1 6515   2.847   2.595   1.150
 1872SOL    HW2 6516   2.779   2.690   1.036
 1873SOL     OW 6517   6.715   1.545   0.060
 1873SOL    HW1 6518   6.789   1.478   0.055
 1873SOL    HW2 6519   6.753   1.637   0.047
 1874SOL     OW 6520   0.446   6.272   0.108
 1874SOL    HW1 6521   0.390   6.231   0.036
 1874SOL    HW2 6522   0.390   6.290   0.189
 1875SOL     OW 6523   6.502   4.991   0.217
 1875SOL    HW1 6524   6.439   4.941   0.276
 1875SOL    HW2 6525   6.507   5.087   0.246
 1876SOL     OW 6526   0.063   6.231   6.954
 1876SOL    HW1 6527   7.016   6.197   6.892
 1876SOL    HW2 6528   0.026   6.306   7.009
 1877SOL     OW 6529   0.151   0.596   2.440
 1877SOL    HW1 6530   0.238   0.556   2.468
 1877SOL    HW2 6531   0.085   0.523   2.420
 1878SOL     OW 6532   6.576   4.640   3.577
 1878SOL    HW1 6533   6.639   4.710   3.610
 1878SOL    HW2 6534   6.618   4.549   3.588
 1879SOL     OW 6535   4.447   5.294   4.574
 1879SOL    HW1 6536   4.424   5.392   4.572
 1879SOL    HW2 6537   4.462   5.266   4.669
 1880SOL     OW 6538   0.761   1.165   3.968
 1880SOL    HW1 6539   0.852   1.162   4.007
 1880SOL    HW2 6540   0.733   1.260   3.955
 1881SOL     OW 6541   1.302   1.477   4.184
 1881SOL    HW1 6542   1.297   1.446   4.279
 1881SOL    HW2 6543   1.241   1.421   4.128
 1882SOL     OW 6544   1.283   5.716   6.978
 1882SOL    HW1 6545   1.265   5.785   6.909
 1882SOL    HW2 6546   1.358   5.657   6.948
 1883SOL     OW 6547   1.435   3.228   2.896
 1883SOL    HW1 6548   1.519   3.269   2.930
 1883SOL    HW2 6549   1.398   3.165   2.965
 1884SOL     OW 6550   3.017   0.671   0.212
 1884SOL    HW1 6551   3.036   0.624   0.125
 1884SOL    HW2 6552   2.941   0.735   0.199
 1885SOL     OW 6553   0.106   2.203   1.421
 1885SOL    HW1 6554   0.054   2.156   1.349
 1885SOL    HW2 6555   0.153   2.134   1.477
 1886SOL     OW 6556   3.151   3.009   6.499
 1886SOL    HW1 6557   3.167   3.044   6.406
 1886SOL    HW2 6558   3.096   2.926   6.494
 1887SOL     OW 6559   0.701   6.574   5.612
 1887SOL    HW1 6560   0.613   6.596   5.654
 1887SOL    HW2 6561   0.686   6.540   5.519
 1888SOL     OW 6562   2.145   2.319   5.507
 1888SOL    HW1 6563   2.055   2.362   5.515
 1888SOL    HW2 6564   2.213   2.374   5.556
 1889SOL     OW 6565   4.387   2.891   0.355
 1889SOL    HW1 6566   4.328   2.830   0.409
 1889SOL    HW2 6567   4.479   2.851   0.349
 1890SOL     OW 6568   6.597   5.371   6.538
 1890SOL    HW1 6569   6.600   5.427   6.455
 1890SOL    HW2 6570   6.613   5.428   6.618
 1891SOL     OW 6571   6.336   3.751   5.605
 1891SOL    HW1 6572   6.309   3.800   5.522
 1891SOL    HW2 6573   6.407   3.684   5.582
 1892SOL     OW 6574   4.273   5.776   1.771
 1892SOL    HW1 6575   4.264   5.722   1.855
 1892SOL    HW2 6576   4.368   5.770   1.738
 1893SOL     OW 6577   4.064   1.726   3.934
 1893SOL    HW1 6578   4.019   1.638   3.949
 1893SOL    HW2 6579   3.995   1.796   3.919
 1894SOL     OW 6580   3.983   3.785   0.895
 1894SOL    HW1 6581   4.054   3.746   0.953
 1894SOL    HW2 6582   3.915   3.715   0.872
 1895SOL     OW 6583   5.493   0.238   3.346
 1895SOL    HW1 6584   5.580   0.189   3.341
 1895SOL    HW2 6585   5.505   0.331   3.311
 1896SOL     OW 6586   6.955   1.653   5.512
 1896SOL    HW1 6587   7.023   1.585   5.485
 1896SOL    HW2 6588   6.865   1.626   5.478
 1897SOL     OW 6589   5.992   4.707   3.225
 1897SOL    HW1 6590   5.942   4.780   3.179
 1897SOL    HW2 6591   6.056   4.747   3.291
 1898SOL     OW 6592   6.107   4.602   0.443
 1898SOL    HW1 6593   6.113   4.686   0.389
 1898SOL    HW2 6594   6.125   4.623   0.539
 1899SOL     OW 6595   1.072   3.234   2.699
 1899SOL    HW1 6596   1.014   3.245   2.780
 1899SOL    HW2 6597   1.105   3.324   2.669
 1900SOL     OW 6598   2.059   5.579   6.226
 1900SOL    HW1 6599   2.091   5.658   6.174
 1900SOL    HW2 6600   1.975   5.602   6.275
 1901SOL     OW 6601   1.392   1.200   6.651
 1901SOL    HW1 6602   1.347   1.130   6.595
 1901SOL    HW2 6603   1.413   1.280   6.595
 1902SOL     OW 6604   0.607   2.945   4.772
 1902SOL    HW1 6605   0.553   2.866   4.799
 1902SOL    HW2 6606   0.697   2.914   4.741
 1903SOL     OW 6607   6.514   3.106   3.765
 1903SOL    HW1 6608   6.594   3.099   3.707
 1903SOL    HW2 6609   6.513   3.195   3.811
 1904SOL     OW 6610   6.446   6.580   3.570
 1904SOL    HW1 6611   6.400   6.668   3.578
 1904SOL    HW2 6612   6.460   6.558   3.473
 1905SOL     OW 6613   6.534   2.507   3.839
 1905SOL    HW1 6614   6.588   2.488   3.757
 1905SOL    HW2 6615   6.520   2.605   3.848
 1906SOL     OW 6616   2.404   0.545   6.827
 1906SOL    HW1 6617   2.436   0.613   6.761
 1906SOL    HW2 6618   2.318   0.577   6.869
 1907SOL     OW 6619   3.886   5.937   3.688
 1907SOL    HW1 6620   3.914   5.998   3.763
 1907SOL    HW2 6621   3.862   5.991   3.608
 1908SOL     OW 6622   4.369   1.320   6.459
 1908SOL    HW1 6623   4.305   1.295   6.532
 1908SOL    HW2 6624   4.381   1.419   6.458
 1909SOL     OW 6625   2.629   5.171   4.381
 1909SOL    HW1 6626   2.589   5.179   4.289
 1909SOL    HW2 6627   2.625   5.260   4.426
 1910SOL     OW 6628   5.030   1.461   5.932
 1910SOL    HW1 6629   5.126   1.483   5.918
 1910SOL    HW2 6630   4.995   1.410   5.853
 1911SOL     OW 6631   6.288   3.024   5.058
 1911SOL    HW1 6632   6.234   3.102   5.025
 1911SOL    HW2 6633   6.297   2.957   4.985
 1912SOL     OW 6634   3.553   0.067   3.031
 1912SOL    HW1 6635   3.457   0.063   3.055
 1912SOL    HW2 6636   3.579   0.161   3.011
 1913SOL     OW 6637   1.771   5.073   5.624
 1913SOL    HW1 6638   1.697   5.007   5.640
 1913SOL    HW2 6639   1.779   5.092   5.527
 1914SOL     OW 6640   3.603   2.110   5.932
 1914SOL    HW1 6641   3.624   2.016   5.956
 1914SOL    HW2 6642   3.688   2.159   5.911
 1915SOL     OW 6643   3.455   6.967   5.435
 1915SOL    HW1 6644   3.505   0.013   5.487
 1915SOL    HW2 6645   3.448   6.996   5.340
 1916SOL     OW 6646   3.494   6.214   1.587
 1916SOL    HW1 6647   3.486   6.186   1.683
 1916SOL    HW2 6648   3.450   6.146   1.528
 1917SOL     OW 6649   2.983   3.430   4.219
 1917SOL    HW1 6650   2.949   3.494   4.151
 1917SOL    HW2 6651   3.078   3.406   4.199
 1918SOL     OW 6652   5.219   6.136   4.393
 1918SOL    HW1 6653   5.144   6.107   4.334
 1918SOL    HW2 6654   5.273   6.056   4.419
 1919SOL     OW 6655   6.800   6.799   1.692
 1919SOL    HW1 6656   6.801   6.699   1.680
 1919SOL    HW2 6657   6.729   6.823   1.758
 1920SOL     OW 6658   6.636   5.885   4.302
 1920SOL    HW1 6659   6.570   5.819   4.265
 1920SOL    HW2 6660   6.638   5.877   4.402
 1921SOL     OW 6661   0.955   6.640   6.775
 1921SOL    HW1 6662   1.033   6.581   6.793
 1921SOL    HW2 6663   0.875   6.584   6.752
 1922SOL     OW 6664   3.778   3.985   0.908
 1922SOL    HW1 6665   3.772   4.000   0.809
 1922SOL    HW2 6666   3.862   3.934   0.929
 1923SOL     OW 6667   1.888   1.547   0.815
 1923SOL    HW1 6668   1.825   1.499   0.754
 1923SOL    HW2 6669   1.868   1.645   0.812
 1924SOL     OW 6670   0.661   4.624   1.924
 1924SOL    HW1 6671   0.645   4.526   1.927
 1924SOL    HW2 6672   0.593   4.668   1.866
 1925SOL     OW 6673   3.069   4.419   1.344
 1925SOL    HW1 6674   3.136   4.382   1.408
 1925SOL    HW2 6675   3.037   4.508   1.378
 1926SOL     OW 6676   1.544   6.622   3.660
 1926SOL    HW1 6677   1.527   6.525   3.676
 1926SOL    HW2 6678   1.483   6.676   3.718
 1927SOL     OW 6679   3.502   3.834   6.780
 1927SOL    HW1 6680   3.509   3.795   6.688
 1927SOL    HW2 6681   3.413   3.877   6.791
 1928SOL     OW 6682   6.457   4.334   5.789
 1928SOL    HW1 6683   6.449   4.423   5.834
 1928SOL    HW2 6684   6.440   4.344   5.691
 1929SOL     OW 6685   1.073   6.630   1.674
 1929SOL    HW1 6686   1.055   6.607   1.769
 1929SOL    HW2 6687   1.064   6.728   1.660
 1930SOL     OW 6688   5.687   4.164   6.105
 1930SOL    HW1 6689   5.598   4.138   6.069
 1930SOL    HW2 6690   5.675   4.229   6.180
 1931SOL     OW 6691   0.509   2.768   4.199
 1931SOL    HW1 6692   0.570   2.842   4.225
 1931SOL    HW2 6693   0.563   2.685   4.181
 1932SOL     OW 6694   5.747   3.946   1.202
 1932SOL    HW1 6695   5.763   4.029   1.149
 1932SOL    HW2 6696   5.686   3.885   1.151
 1933SOL     OW 6697   3.125   4.057   0.979
 1933SOL    HW1 6698   3.062   3.981   0.962
 1933SOL    HW2 6699   3.082   4.121   1.043
 1934SOL     OW 6700   0.960   6.392   6.030
 1934SOL    HW1 6701   0.869   6.363   6.058
 1934SOL    HW2 6702   0.952   6.469   5.966
 1935SOL     OW 6703   2.676   0.339   3.739
 1935SOL    HW1 6704   2.645   0.408   3.805
 1935SOL    HW2 6705   2.686   0.380   3.649
 1936SOL     OW 6706   6.048   5.777   5.037
 1936SOL    HW1 6707   6.020   5.790   4.942
 1936SOL    HW2 6708   6.133   5.723   5.040
 1937SOL     OW 6709   4.097   6.338   1.917
 1937SOL    HW1 6710   4.007   6.378   1.907
 1937SOL    HW2 6711   4.115   6.275   1.841
 1938SOL     OW 6712   4.346   0.975   3.807
 1938SOL    HW1 6713   4.380   0.948   3.897
 1938SOL    HW2 6714   4.334   1.075   3.804
 1939SOL     OW 6715   1.710   0.974   3.785
 1939SOL    HW1 6716   1.792   0.948   3.733
 1939SOL    HW2 6717   1.629   0.959   3.729
 1940SOL     OW 6718   6.718   5.568   0.357
 1940SOL    HW1 6719   6.679   5.601   0.444
 1940SOL    HW2 6720   6.756   5.476   0.371
 1941SOL     OW 6721   5.396   4.045   1.945
 1941SOL    HW1 6722   5.378   3.973   1.877
 1941SOL    HW2 6723   5.311   4.096   1.962
 1942SOL     OW 6724   6.607   4.914   2.511
 1942SOL    HW1 6725   6.596   4.834   2.569
 1942SOL    HW2 6726   6.702   4.945   2.514
 1943SOL     OW 6727   2.791   4.778   3.325
 1943SOL    HW1 6728   2.761   4.873   3.318
 1943SOL    HW2 6729   2.788   4.749   3.421
 1944SOL     OW 6730   6.405   0.927   0.360
 1944SOL    HW1 6731   6.322   0.881   0.393
 1944SOL    HW2 6732   6.391   0.957   0.266
 1945SOL     OW 6733   3.637   5.201   3.871
 1945SOL    HW1 6734   3.693   5.229   3.950
 1945SOL    HW2 6735   3.551   5.251   3.872
 1946SOL     OW 6736   1.302   0.432   0.019
 1946SOL    HW1 6737   1.276   0.522   7.006
 1946SOL    HW2 6738   1.299   0.436   0.119
 1947SOL     OW 6739   5.405   5.654   3.407
 1947SOL    HW1 6740   5.334   5.609   3.352
 1947SOL    HW2 6741   5.396   5.754   3.397
 1948SOL     OW 6742   6.612   5.671   4.553
 1948SOL    HW1 6743   6.554   5.596   4.584
 1948SOL    HW2 6744   6.575   5.758   4.586
 1949SOL     OW 6745   4.130   4.015   6.607
 1949SOL    HW1 6746   4.185   3.954   6.550
 1949SOL    HW2 6747   4.037   3.979   6.615
 1950SOL     OW 6748   3.270   4.068   6.480
 1950SOL    HW1 6749   3.206   4.041   6.552
 1950SOL    HW2 6750   3.363   4.046   6.507
 1951SOL     OW 6751   6.198   1.181   6.436
 1951SOL    HW1 6752   6.225   1.089   6.407
 1951SOL    HW2 6753   6.099   1.185   6.447
 1952SOL     OW 6754   3.821   1.976   0.383
 1952SOL    HW1 6755   3.905   1.928   0.408
 1952SOL    HW2 6756   3.835   2.075   0.394
 1953SOL     OW 6757   6.967   2.375   6.322
 1953SOL    HW1 6758   0.043   2.383   6.325
 1953SOL    HW2 6759   6.942   2.279   6.331
 1954SOL     OW 6760   3.720   2.076   4.083
 1954SOL    HW1 6761   3.798   2.129   4.114
 1954SOL    HW2 6762   3.656   2.063   4.159
 1955SOL     OW 6763   0.117   6.324   2.256
 1955SOL    HW1 6764   0.117   6.261   2.178
 1955SOL    HW2 6765   0.191   6.390   2.246
 1956SOL     OW 6766   5.726   5.665   2.864
 1956SOL    HW1 6767   5.634   5.650   2.901
 1956SOL    HW2 6768   5.788   5.688   2.938
 1957SOL     OW 6769   0.604   6.403   5.037
 1957SOL    HW1 6770   0.525   6.369   5.089
 1957SOL    HW2 6771   0.571   6.460   4.961
 1958SOL     OW 6772   5.179   3.363   5.712
 1958SOL    HW1 6773   5.177   3.264   5.720
 1958SOL    HW2 6774   5.148   3.389   5.620
 1959SOL     OW 6775   1.428   2.116   6.343
 1959SOL    HW1 6776   1.367   2.062   6.284
 1959SOL    HW2 6777   1.433   2.073   6.433
 1960SOL     OW 6778   5.904   5.295   0.785
 1960SOL    HW1 6779   5.988   5.240   0.791
 1960SOL    HW2 6780   5.830   5.247   0.832
 1961SOL     OW 6781   5.894   4.299   3.769
 1961SOL    HW1 6782   5.924   4.213   3.809
 1961SOL    HW2 6783   5.800   4.319   3.799
 1962SOL     OW 6784   1.465   6.067   3.303
 1962SOL    HW1 6785   1.505   6.149   3.345
 1962SOL    HW2 6786   1.517   6.043   3.221
 1963SOL     OW 6787   1.036   0.205   2.717
 1963SOL    HW1 6788   0.950   0.234   2.758
 1963SOL    HW2 6789   1.083   0.143   2.780
 1964SOL     OW 6790   4.615   2.533   2.591
 1964SOL    HW1 6791   4.547   2.500   2.526
 1964SOL    HW2 6792   4.603   2.487   2.679
 1965SOL     OW 6793   1.073   3.623   3.326
 1965SOL    HW1 6794   1.025   3.636   3.239
 1965SOL    HW2 6795   1.032   3.681   3.396
 1966SOL     OW 6796   6.836   5.332   5.648
 1966SOL    HW1 6797   6.828   5.430   5.628
 1966SOL    HW2 6798   6.840   5.281   5.562
 1967SOL     OW 6799   4.580   2.793   5.240
 1967SOL    HW1 6800   4.497   2.742   5.260
 1967SOL    HW2 6801   4.588   2.871   5.303
 1968SOL     OW 6802   2.522   6.487   0.061
 1968SOL    HW1 6803   2.586   6.412   0.046
 1968SOL    HW2 6804   2.454   6.460   0.129
 1969SOL     OW 6805   6.513   2.294   1.563
 1969SOL    HW1 6806   6.505   2.197   1.540
 1969SOL    HW2 6807   6.453   2.348   1.504
 1970SOL     OW 6808   1.903   6.945   4.326
 1970SOL    HW1 6809   1.934   0.004   4.372
 1970SOL    HW2 6810   1.949   6.866   4.364
 1971SOL     OW 6811   0.372   6.808   6.906
 1971SOL    HW1 6812   0.341   6.723   6.948
 1971SOL    HW2 6813   0.436   6.855   6.967
 1972SOL     OW 6814   0.698   4.293   3.716
 1972SOL    HW1 6815   0.706   4.277   3.814
 1972SOL    HW2 6816   0.602   4.288   3.688
 1973SOL     OW 6817   3.521   2.715   1.482
 1973SOL    HW1 6818   3.468   2.714   1.567
 1973SOL    HW2 6819   3.588   2.641   1.484
 1974SOL     OW 6820   5.308   0.360   4.001
 1974SOL    HW1 6821   5.367   0.294   4.048
 1974SOL    HW2 6822   5.274   0.427   4.067
 1975SOL     OW 6823   3.418   0.514   4.029
 1975SOL    HW1 6824   3.442   0.563   3.944
 1975SOL    HW2 6825   3.500   0.469   4.064
 1976SOL     OW 6826   0.574   6.308   0.656
 1976SOL    HW1 6827   0.513   6.261   0.721
 1976SOL    HW2 6828   0.600   6.245   0.583
 1977SOL     OW 6829   0.875   2.269   4.774
 1977SOL    HW1 6830   0.884   2.297   4.679
 1977SOL    HW2 6831   0.960   2.288   4.823
 1978SOL     OW 6832   0.192   1.463   4.861
 1978SOL    HW1 6833   0.115   1.463   4.797
 1978SOL    HW2 6834   0.219   1.558   4.881
 1979SOL     OW 6835   6.813   4.491   4.182
 1979SOL    HW1 6836   6.909   4.462   4.174
 1979SOL    HW2 6837   6.754   4.425   4.134
 1980SOL     OW 6838   3.813   0.237   1.394
 1980SOL    HW1 6839   3.848   0.290   1.471
 1980SOL    HW2 6840   3.888   0.216   1.331
 1981SOL     OW 6841   4.943   2.849   1.903
 1981SOL    HW1 6842   4.933   2.907   1.822
 1981SOL    HW2 6843   4.919   2.902   1.985
 1982SOL     OW 6844   5.890   5.135   4.699
 1982SOL    HW1 6845   5.988   5.144   4.679
 1982SOL    HW2 6846   5.878   5.087   4.786
 1983SOL     OW 6847   1.351   2.860   3.421
 1983SOL    HW1 6848   1.414   2.936   3.411
 1983SOL    HW2 6849   1.259   2.895   3.438
 1984SOL     OW 6850   4.091   1.867   6.109
 1984SOL    HW1 6851   4.186   1.891   6.086
 1984SOL    HW2 6852   4.041   1.849   6.024
 1985SOL     OW 6853   1.331   0.999   1.542
 1985SOL    HW1 6854   1.246   1.011   1.593
 1985SOL    HW2 6855   1.396   1.070   1.568
 1986SOL     OW 6856   1.311   2.283   6.868
 1986SOL    HW1 6857   1.331   2.381   6.874
 1986SOL    HW2 6858   1.222   2.265   6.911
 1987SOL     OW 6859   2.466   3.447   1.390
 1987SOL    HW1 6860   2.459   3.400   1.477
 1987SOL    HW2 6861   2.533   3.401   1.332
 1988SOL     OW 6862   4.964   3.515   6.854
 1988SOL    HW1 6863   4.962   3.422   6.889
 1988SOL    HW2 6864   5.041   3.564   6.895
 1989SOL     OW 6865   2.007   0.152   4.485
 1989SOL    HW1 6866   1.978   0.240   4.522
 1989SOL    HW2 6867   2.100   0.160   4.449
 1990SOL     OW 6868   3.183   0.553   1.219
 1990SOL    HW1 6869   3.161   0.500   1.136
 1990SOL    HW2 6870   3.125   0.521   1.294
 1991SOL     OW 6871   3.583   5.763   4.518
 1991SOL    HW1 6872   3.548   5.848   4.480
 1991SOL    HW2 6873   3.508   5.709   4.556
 1992SOL     OW 6874   2.257   6.688   5.038
 1992SOL    HW1 6875   2.176   6.657   4.988
 1992SOL    HW2 6876   2.250   6.786   5.056
 1993SOL     OW 6877   3.616   3.734   5.461
 1993SOL    HW1 6878   3.554   3.675   5.410
 1993SOL    HW2 6879   3.582   3.828   5.459
 1994SOL     OW 6880   6.589   1.939   1.993
 1994SOL    HW1 6881   6.633   1.928   1.904
 1994SOL    HW2 6882   6.655   1.971   2.060
 1995SOL     OW 6883   6.171   1.745   1.531
 1995SOL    HW1 6884   6.086   1.721   1.484
 1995SOL    HW2 6885   6.188   1.679   1.605
 1996SOL     OW 6886   3.358   4.194   0.362
 1996SOL    HW1 6887   3.357   4.126   0.289
 1996SOL    HW2 6888   3.287   4.172   0.429
 1997SOL     OW 6889   5.182   0.129   4.852
 1997SOL    HW1 6890   5.256   0.154   4.914
 1997SOL    HW2 6891   5.177   0.195   4.777
 1998SOL     OW 6892   2.864   4.022   6.669
 1998SOL    HW1 6893   2.864   3.979   6.759
 1998SOL    HW2 6894   2.780   4.076   6.657
 1999SOL     OW 6895   2.524   6.950   1.986
 1999SOL    HW1 6896   2.526   6.873   1.921
 1999SOL    HW2 6897   2.446   6.939   2.047
 2000SOL     OW 6898   4.070   1.024   5.013
 2000SOL    HW1 6899   4.063   0.994   4.918
 2000SOL    HW2 6900   4.032   1.116   5.021
 2001SOL     OW 6901   3.062   1.576   1.145
 2001SOL    HW1 6902   3.045   1.478   1.141
 2001SOL    HW2 6903   3.057   1.607   1.241
 2002SOL     OW 6904   1.990   6.049   5.686
 2002SOL    HW1 6905   2.032   6.008   5.767
 2002SOL    HW2 6906   2.055   6.046   5.610
 2003SOL     OW 6907   5.587   6.301   3.341
 2003SOL    HW1 6908   5.549   6.264   3.425
 2003SOL    HW2 6909   5.519   6.358   3.295
 2004SOL     OW 6910   3.267   0.824   5.824
 2004SOL    HW1 6911   3.204   0.777   5.761
 2004SOL    HW2 6912   3.242   0.920   5.830
 2005SOL     OW 6913   1.980   6.394   5.970
 2005SOL    HW1 6914   2.023   6.307   5.946
 2005SOL    HW2 6915   1.905   6.377   6.034
 2006SOL     OW 6916   4.404   4.919   4.301
 2006SOL    HW1 6917   4.501   4.939   4.301
 2006SOL    HW2 6918   4.353   5.000   4.328
 2007SOL     OW 6919   5.209   5.275   0.123
 2007SOL    HW1 6920   5.161   5.275   0.036
 2007SOL    HW2 6921   5.293   5.222   0.115
 2008SOL     OW 6922   6.568   6.450   3.353
 2008SOL    HW1 6923   6.491   6.387   3.359
 2008SOL    HW2 6924   6.637   6.425   3.421
 2009SOL     OW 6925   0.361   0.404   1.880
 2009SOL    HW1 6926   0.456   0.419   1.854
 2009SOL    HW2 6927   0.312   0.359   1.805
 2010SOL     OW 6928   0.810   0.825   1.053
 2010SOL    HW1 6929   0.905   0.817   1.085
 2010SOL    HW2 6930   0.792   0.920   1.029
 2011SOL     OW 6931   6.595   2.114   5.027
 2011SOL    HW1 6932   6.646   2.051   5.085
 2011SOL    HW2 6933   6.544   2.061   4.958
 2012SOL     OW 6934   1.417   4.291   1.581
 2012SOL    HW1 6935   1.472   4.227   1.527
 2012SOL    HW2 6936   1.360   4.240   1.645
 2013SOL     OW 6937   5.865   2.080   2.794
 2013SOL    HW1 6938   5.778   2.073   2.744
 2013SOL    HW2 6939   5.849   2.058   2.890
 2014SOL     OW 6940   1.816   5.969   3.786
 2014SOL    HW1 6941   1.877   6.029   3.838
 2014SOL    HW2 6942   1.721   5.992   3.808
 2015SOL     OW 6943   3.658   0.273   0.317
 2015SOL    HW1 6944   3.591   0.200   0.323
 2015SOL    HW2 6945   3.613   0.362   0.331
 2016SOL     OW 6946   0.707   5.578   4.060
 2016SOL    HW1 6947   0.608   5.568   4.075
 2016SOL    HW2 6948   0.756   5.526   4.129
 2017SOL     OW 6949   2.181   5.995   3.135
 2017SOL    HW1 6950   2.247   6.040   3.195
 2017SOL    HW2 6951   2.088   6.014   3.167
 2018SOL     OW 6952   0.377   5.513   6.038
 2018SOL    HW1 6953   0.450   5.472   5.984
 2018SOL    HW2 6954   0.324   5.441   6.084
 2019SOL     OW 6955   6.144   2.228   1.021
 2019SOL    HW1 6956   6.091   2.153   1.059
 2019SOL    HW2 6957   6.107   2.315   1.053
 2020SOL     OW 6958   2.176   5.147   3.954
 2020SOL    HW1 6959   2.207   5.079   3.887
 2020SOL    HW2 6960   2.235   5.228   3.949
 2021SOL     OW 6961   1.724   0.948   2.647
 2021SOL    HW1 6962   1.699   1.030   2.595
 2021SOL    HW2 6963   1.661   0.874   2.623
 2022SOL     OW 6964   2.531   3.683   1.652
 2022SOL    HW1 6965   2.444   3.700   1.699
 2022SOL    HW2 6966   2.552   3.585   1.656
 2023SOL     OW 6967   6.876   1.300   6.590
 2023SOL    HW1 6968   6.859   1.388   6.633
 2023SOL    HW2 6969   6.909   1.235   6.660
 2024SOL     OW 6970   6.379   0.715   3.646
 2024SOL    HW1 6971   6.431   0.631   3.665
 2024SOL    HW2 6972   6.398   0.782   3.718
 2025SOL     OW 6973   0.498   2.179   1.521
 2025SOL    HW1 6974   0.584   2.180   1.572
 2025SOL    HW2 6975   0.421   2.188   1.585
 2026SOL     OW 6976   2.437   2.084   5.604
 2026SOL    HW1 6977   2.390   2.106   5.690
 2026SOL    HW2 6978   2.536   2.086   5.618
 2027SOL     OW 6979   1.147   1.099   2.252
 2027SOL    HW1 6980   1.075   1.060   2.309
 2027SOL    HW2 6981   1.163   1.194   2.279
 2028SOL     OW 6982   3.642   1.786   0.407
 2028SOL    HW1 6983   3.699   1.868   0.406
 2028SOL    HW2 6984   3.554   1.807   0.449
 2029SOL     OW 6985   1.133   1.473   6.749
 2029SOL    HW1 6986   1.175   1.491   6.660
 2029SOL    HW2 6987   1.053   1.413   6.736
 2030SOL     OW 6988   1.727   2.268   3.606
 2030SOL    HW1 6989   1.670   2.230   3.533
 2030SOL    HW2 6990   1.804   2.318   3.566
 2031SOL     OW 6991   5.690   5.868   2.195
 2031SOL    HW1 6992   5.744   5.893   2.115
 2031SOL    HW2 6993   5.677   5.948   2.254
 2032SOL     OW 6994   5.113   6.115   0.098
 2032SOL    HW1 6995   5.041   6.052   0.068
 2032SOL    HW2 6996   5.139   6.093   0.192
 2033SOL     OW 6997   5.131   4.578   6.396
 2033SOL    HW1 6998   5.207   4.638   6.370
 2033SOL    HW2 6999   5.048   4.607   6.349
 2034SOL     OW 7000   2.661   6.787   3.120
 2034SOL    HW1 7001   2.729   6.840   3.171
 2034SOL    HW2 7002   2.704   6.704   3.084
 2035SOL     OW 7003   0.297   1.700   2.813
 2035SOL    HW1 7004   0.232   1.723   2.741
 2035SOL    HW2 7005   0.324   1.784   2.861
 2036SOL     OW 7006   0.357   5.258   0.809
 2036SOL    HW1 7007   0.349   5.218   0.900
 2036SOL    HW2 7008   0.373   5.356   0.818
 2037SOL     OW 7009   6.727   2.351   5.481
 2037SOL    HW1 7010   6.683   2.400   5.406
 2037SOL    HW2 7011   6.659   2.296   5.530
 2038SOL     OW 7012   0.516   1.541   4.786
 2038SOL    HW1 7013   0.500   1.443   4.791
 2038SOL    HW2 7014   0.440   1.590   4.829
 2039SOL     OW 7015   6.232   5.644   3.874
 2039SOL    HW1 7016   6.164   5.634   3.802
 2039SOL    HW2 7017   6.267   5.738   3.875
 2040SOL     OW 7018   4.125   3.323   4.436
 2040SOL    HW1 7019   4.067   3.275   4.501
 2040SOL    HW2 7020   4.096   3.302   4.343
 2041SOL     OW 7021   5.854   4.726   6.008
 2041SOL    HW1 7022   5.829   4.665   5.932
 2041SOL    HW2 7023   5.779   4.790   6.024
 2042SOL     OW 7024   5.327   4.807   0.739
 2042SOL    HW1 7025   5.241   4.854   0.762
 2042SOL    HW2 7026   5.351   4.743   0.812
 2043SOL     OW 7027   5.960   5.178   2.375
 2043SOL    HW1 7028   5.868   5.213   2.392
 2043SOL    HW2 7029   6.022   5.212   2.446
 2044SOL     OW 7030   5.879   0.233   1.916
 2044SOL    HW1 7031   5.941   0.255   1.991
 2044SOL    HW2 7032   5.891   0.298   1.841
 2045SOL     OW 7033   2.309   4.574   6.230
 2045SOL    HW1 7034   2.253   4.597   6.310
 2045SOL    HW2 7035   2.255   4.522   6.165
 2046SOL     OW 7036   6.378   0.706   4.310
 2046SOL    HW1 7037   6.321   0.719   4.228
 2046SOL    HW2 7038   6.404   0.610   4.317
 2047SOL     OW 7039   4.888   2.504   1.376
 2047SOL    HW1 7040   4.809   2.549   1.334
 2047SOL    HW2 7041   4.939   2.570   1.431
 2048SOL     OW 7042   3.776   0.064   0.205
 2048SOL    HW1 7043   3.732   0.135   0.260
 2048SOL    HW2 7044   3.755   6.998   0.244
 2049SOL     OW 7045   4.679   1.384   6.746
 2049SOL    HW1 7046   4.585   1.365   6.775
 2049SOL    HW2 7047   4.678   1.421   6.653
 2050SOL     OW 7048   5.907   2.627   4.090
 2050SOL    HW1 7049   5.926   2.638   3.993
 2050SOL    HW2 7050   5.902   2.530   4.113
 2051SOL     OW 7051   0.868   5.572   0.150
 2051SOL    HW1 7052   0.777   5.571   0.108
 2051SOL    HW2 7053   0.937   5.582   0.078
 2052SOL     OW 7054   0.905   2.980   6.849
 2052SOL    HW1 7055   0.899   3.060   6.908
 2052SOL    HW2 7056   0.954   3.003   6.765
 2053SOL     OW 7057   6.161   0.761   0.381
 2053SOL    HW1 7058   6.098   0.730   0.310
 2053SOL    HW2 7059   6.111   0.812   0.451
 2054SOL     OW 7060   6.122   3.043   0.610
 2054SOL    HW1 7061   6.187   2.997   0.670
 2054SOL    HW2 7062   6.078   2.975   0.550
 2055SOL     OW 7063   5.561   2.628   3.265
 2055SOL    HW1 7064   5.502   2.705   3.239
 2055SOL    HW2 7065   5.567   2.623   3.365
 2056SOL     OW 7066   2.180   1.423   3.308
 2056SOL    HW1 7067   2.142   1.479   3.381
 2056SOL    HW2 7068   2.270   1.459   3.281
 2057SOL     OW 7069   6.077   2.331   4.325
 2057SOL    HW1 7070   6.088   2.395   4.401
 2057SOL    HW2 7071   6.131   2.363   4.247
 2058SOL     OW 7072   0.203   2.136   3.434
 2058SOL    HW1 7073   0.214   2.227   3.473
 2058SOL    HW2 7074   0.258   2.070   3.486
 2059SOL     OW 7075   2.053   1.001   6.386
 2059SOL    HW1 7076   2.083   1.087   6.343
 2059SOL    HW2 7077   2.038   0.933   6.315
 2060SOL     OW 7078   6.975   4.687   1.680
 2060SOL    HW1 7079   6.946   4.670   1.586
 2060SOL    HW2 7080   6.925   4.765   1.717
 2061SOL     OW 7081   0.186   1.155   2.377
 2061SOL    HW1 7082   0.157   1.157   2.282
 2061SOL    HW2 7083   0.257   1.085   2.389
 2062SOL     OW 7084   4.568   6.979   2.280
 2062SOL    HW1 7085   4.510   6.927   2.218
 2062SOL    HW2 7086   4.515   7.010   2.358
 2063SOL     OW 7087   1.852   2.797   6.263
 2063SOL    HW1 7088   1.923   2.815   6.331
 2063SOL    HW2 7089   1.875   2.715   6.212
 2064SOL     OW 7090   1.055   2.329   5.534
 2064SOL    HW1 7091   1.080   2.360   5.443
 2064SOL    HW2 7092   1.045   2.408   5.595
 2065SOL     OW 7093   6.052   3.501   2.233
 2065SOL    HW1 7094   6.061   3.410   2.193
 2065SOL    HW2 7095   6.015   3.564   2.164
 2066SOL     OW 7096   0.493   6.127   4.764
 2066SOL    HW1 7097   0.426   6.174   4.821
 2066SOL    HW2 7098   0.546   6.064   4.819
 2067SOL     OW 7099   6.755   6.660   0.850
 2067SOL    HW1 7100   6.746   6.715   0.932
 2067SOL    HW2 7101   6.849   6.667   0.816
 2068SOL     OW 7102   2.053   1.534   5.490
 2068SOL    HW1 7103   2.101   1.455   5.527
 2068SOL    HW2 7104   1.962   1.506   5.459
 2069SOL     OW 7105   0.667   2.955   2.427
 2069SOL    HW1 7106   0.680   2.875   2.486
 2069SOL    HW2 7107   0.750   3.009   2.425
 2070SOL     OW 7108   1.272   0.547   2.543
 2070SOL    HW1 7109   1.336   0.562   2.467
 2070SOL    HW2 7110   1.199   0.486   2.513
 2071SOL     OW 7111   0.568   6.615   3.597
 2071SOL    HW1 7112   0.501   6.626   3.524
 2071SOL    HW2 7113   0.630   6.694   3.598
 2072SOL     OW 7114   4.868   5.903   2.014
 2072SOL    HW1 7115   4.911   5.835   2.073
 2072SOL    HW2 7116   4.770   5.885   2.009
 2073SOL     OW 7117   3.861   6.851   4.800
 2073SOL    HW1 7118   3.813   6.779   4.849
 2073SOL    HW2 7119   3.795   6.908   4.752
 2074SOL     OW 7120   6.865   2.180   0.464
 2074SOL    HW1 7121   6.874   2.175   0.365
 2074SOL    HW2 7122   6.814   2.101   0.497
 2075SOL     OW 7123   4.348   3.085   0.837
 2075SOL    HW1 7124   4.295   3.005   0.808
 2075SOL    HW2 7125   4.305   3.168   0.801
 2076SOL     OW 7126   5.630   5.927   6.962
 2076SOL    HW1 7127   5.674   5.856   7.019
 2076SOL    HW2 7128   5.648   6.017   7.002
 2077SOL     OW 7129   5.698   1.780   2.196
 2077SOL    HW1 7130   5.642   1.733   2.264
 2077SOL    HW2 7131   5.745   1.857   2.240
 2078SOL     OW 7132   2.705   5.738   6.429
 2078SOL    HW1 7133   2.732   5.818   6.483
 2078SOL    HW2 7134   2.709   5.760   6.332
 2079SOL     OW 7135   5.831   0.756   3.680
 2079SOL    HW1 7136   5.805   0.665   3.713
 2079SOL    HW2 7137   5.749   0.811   3.668
 2080SOL     OW 7138   2.647   2.135   4.752
 2080SOL    HW1 7139   2.659   2.137   4.652
 2080SOL    HW2 7140   2.617   2.225   4.783
 2081SOL     OW 7141   1.014   6.753   5.245
 2081SOL    HW1 7142   0.920   6.731   5.216
 2081SOL    HW2 7143   1.011   6.810   5.327
 2082SOL     OW 7144   5.589   0.549   1.436
 2082SOL    HW1 7145   5.543   0.484   1.498
 2082SOL    HW2 7146   5.602   0.506   1.347
 2083SOL     OW 7147   3.497   5.689   0.173
 2083SOL    HW1 7148   3.509   5.786   0.193
 2083SOL    HW2 7149   3.402   5.662   0.191
 2084SOL     OW 7150   6.904   2.390   3.205
 2084SOL    HW1 7151   6.855   2.478   3.200
 2084SOL    HW2 7152   6.882   2.335   3.124
 2085SOL     OW 7153   4.501   1.160   6.657
 2085SOL    HW1 7154   4.404   1.159   6.681
 2085SOL    HW2 7155   4.516   1.219   6.578
 2086SOL     OW 7156   3.395   4.197   6.878
 2086SOL    HW1 7157   3.448   4.180   6.795
 2086SOL    HW2 7158   3.431   4.143   6.953
 2087SOL     OW 7159   5.067   6.394   2.987
 2087SOL    HW1 7160   5.018   6.454   3.052
 2087SOL    HW2 7161   5.037   6.415   2.894
 2088SOL     OW 7162   3.314   6.751   0.980
 2088SOL    HW1 7163   3.314   6.832   1.038
 2088SOL    HW2 7164   3.243   6.688   1.011
 2089SOL     OW 7165   4.545   1.621   0.131
 2089SOL    HW1 7166   4.582   1.669   0.051
 2089SOL    HW2 7167   4.529   1.525   0.108
 2090SOL     OW 7168   3.685   4.032   4.571
 2090SOL    HW1 7169   3.707   4.047   4.474
 2090SOL    HW2 7170   3.672   4.120   4.617
 2091SOL     OW 7171   0.376   5.961   0.665
 2091SOL    HW1 7172   0.278   5.961   0.645
 2091SOL    HW2 7173   0.392   5.997   0.757
 2092SOL     OW 7174   5.706   6.078   0.740
 2092SOL    HW1 7175   5.611   6.106   0.752
 2092SOL    HW2 7176   5.751   6.140   0.676
 2093SOL     OW 7177   1.200   2.505   2.529
 2093SOL    HW1 7178   1.149   2.581   2.569
 2093SOL    HW2 7179   1.279   2.541   2.478
 2094SOL     OW 7180   5.865   0.547   2.003
 2094SOL    HW1 7181   5.796   0.475   1.988
 2094SOL    HW2 7182   5.841   0.628   1.950
 2095SOL     OW 7183   5.195   6.018   3.585
 2095SOL    HW1 7184   5.217   5.973   3.671
 2095SOL    HW2 7185   5.106   5.985   3.552
 2096SOL     OW 7186   5.028   3.913   2.515
 2096SOL    HW1 7187   4.982   3.932   2.601
 2096SOL    HW2 7188   4.960   3.890   2.445
 2097SOL     OW 7189   0.664   2.862   6.884
 2097SOL    HW1 7190   0.620   2.898   6.967
 2097SOL    HW2 7191   0.762   2.875   6.890
 2098SOL     OW 7192   4.323   6.240   3.993
 2098SOL    HW1 7193   4.342   6.156   4.043
 2098SOL    HW2 7194   4.230   6.238   3.957
 2099SOL     OW 7195   2.933   1.056   5.038
 2099SOL    HW1 7196   3.010   1.110   5.005
 2099SOL    HW2 7197   2.849   1.086   4.992
 2100SOL     OW 7198   3.726   4.016   6.818
 2100SOL    HW1 7199   3.784   3.999   6.738
 2100SOL    HW2 7200   3.690   3.930   6.852
 2101SOL     OW 7201   0.824   0.172   2.913
 2101SOL    HW1 7202   0.847   0.233   2.988
 2101SOL    HW2 7203   0.858   0.080   2.934
 2102SOL     OW 7204   0.397   5.892   2.783
 2102SOL    HW1 7205   0.393   5.792   2.778
 2102SOL    HW2 7206   0.491   5.922   2.799
 2103SOL     OW 7207   3.273   3.554   6.806
 2103SOL    HW1 7208   3.196   3.506   6.848
 2103SOL    HW2 7209   3.318   3.611   6.875
 2104SOL     OW 7210   1.724   3.318   6.181
 2104SOL    HW1 7211   1.744   3.347   6.087
 2104SOL    HW2 7212   1.673   3.232   6.178
 2105SOL     OW 7213   5.407   5.584   2.992
 2105SOL    HW1 7214   5.356   5.630   2.919
 2105SOL    HW2 7215   5.452   5.503   2.954
 2106SOL     OW 7216   4.342   4.988   6.726
 2106SOL    HW1 7217   4.413   4.931   6.767
 2106SOL    HW2 7218   4.264   4.994   6.790
 2107SOL     OW 7219   3.932   3.771   5.739
 2107SOL    HW1 7220   3.968   3.726   5.820
 2107SOL    HW2 7221   4.001   3.773   5.668
 2108SOL     OW 7222   6.178   5.092   5.340
 2108SOL    HW1 7223   6.207   5.065   5.432
 2108SOL    HW2 7224   6.080   5.079   5.331
 2109SOL     OW 7225   5.183   6.123   3.194
 2109SOL    HW1 7226   5.173   6.172   3.107
 2109SOL    HW2 7227   5.168   6.187   3.270
 2110SOL     OW 7228   2.533   4.883   6.834
 2110SOL    HW1 7229   2.480   4.959   6.796
 2110SOL    HW2 7230   2.625   4.883   6.794
 2111SOL     OW 7231   0.663   2.472   6.229
 2111SOL    HW1 7232   0.575   2.462   6.182
 2111SOL    HW2 7233   0.702   2.382   6.246
 2112SOL     OW 7234   3.952   2.694   1.704
 2112SOL    HW1 7235   3.891   2.771   1.726
 2112SOL    HW2 7236   4.042   2.729   1.679
 2113SOL     OW 7237   1.662   7.001   2.755
 2113SOL    HW1 7238   1.622   0.050   2.811
 2113SOL    HW2 7239   1.757   0.001   2.732
 2114SOL     OW 7240   1.353   4.115   0.847
 2114SOL    HW1 7241   1.287   4.075   0.910
 2114SOL    HW2 7242   1.361   4.213   0.865
 2115SOL     OW 7243   2.309   4.418   3.321
 2115SOL    HW1 7244   2.349   4.411   3.230
 2115SOL    HW2 7245   2.284   4.513   3.339
 2116SOL     OW 7246   6.591   4.114   3.246
 2116SOL    HW1 7247   6.572   4.184   3.316
 2116SOL    HW2 7248   6.689   4.098   3.241
 2117SOL     OW 7249   0.134   4.797   1.416
 2117SOL    HW1 7250   0.168   4.824   1.326
 2117SOL    HW2 7251   0.050   4.745   1.405
 2118SOL     OW 7252   7.019   3.624   2.053
 2118SOL    HW1 7253   6.944   3.619   1.987
 2118SOL    HW2 7254   0.039   3.535   2.060
 2119SOL     OW 7255   1.970   5.383   0.900
 2119SOL    HW1 7256   2.067   5.405   0.899
 2119SOL    HW2 7257   1.957   5.285   0.913
 2120SOL     OW 7258   6.139   4.053   2.582
 2120SOL    HW1 7259   6.166   4.141   2.621
 2120SOL    HW2 7260   6.205   4.028   2.511
 2121SOL     OW 7261   0.628   5.539   5.207
 2121SOL    HW1 7262   0.550   5.561   5.266
 2121SOL    HW2 7263   0.596   5.528   5.113
 2122SOL     OW 7264   5.577   4.236   5.587
 2122SOL    HW1 7265   5.507   4.260   5.654
 2122SOL    HW2 7266   5.668   4.246   5.630
 2123SOL     OW 7267   6.960   4.244   2.648
 2123SOL    HW1 7268   6.882   4.300   2.674
 2123SOL    HW2 7269   0.019   4.300   2.646
 2124SOL     OW 7270   1.476   1.474   1.442
 2124SOL    HW1 7271   1.392   1.504   1.488
 2124SOL    HW2 7272   1.453   1.431   1.355
 2125SOL     OW 7273   2.044   1.215   6.823
 2125SOL    HW1 7274   1.979   1.256   6.887
 2125SOL    HW2 7275   2.099   1.288   6.782
 2126SOL     OW 7276   2.430   1.217   6.714
 2126SOL    HW1 7277   2.356   1.237   6.650
 2126SOL    HW2 7278   2.461   1.302   6.757
 2127SOL     OW 7279   5.810   2.499   4.421
 2127SOL    HW1 7280   5.858   2.550   4.350
 2127SOL    HW2 7281   5.846   2.525   4.510
 2128SOL     OW 7282   0.733   4.554   4.660
 2128SOL    HW1 7283   0.684   4.501   4.729
 2128SOL    HW2 7284   0.739   4.650   4.690
 2129SOL     OW 7285   4.824   2.730   5.648
 2129SOL    HW1 7286   4.845   2.813   5.700
 2129SOL    HW2 7287   4.740   2.743   5.596
 2130SOL     OW 7288   5.049   6.552   2.588
 2130SOL    HW1 7289   4.979   6.509   2.645
 2130SOL    HW2 7290   5.120   6.592   2.647
 2131SOL     OW 7291   0.307   1.580   0.326
 2131SOL    HW1 7292   0.244   1.530   0.386
 2131SOL    HW2 7293   0.388   1.607   0.378
 2132SOL     OW 7294   3.128   3.099   1.087
 2132SOL    HW1 7295   3.163   3.033   1.153
 2132SOL    HW2 7296   3.087   3.051   1.010
 2133SOL     OW 7297   2.532   2.185   5.954
 2133SOL    HW1 7298   2.534   2.281   5.925
 2133SOL    HW2 7299   2.473   2.176   6.034
 2134SOL     OW 7300   6.564   2.000   1.182
 2134SOL    HW1 7301   6.573   1.901   1.171
 2134SOL    HW2 7302   6.645   2.045   1.144
 2135SOL     OW 7303   0.941   4.117   4.192
 2135SOL    HW1 7304   0.862   4.056   4.186
 2135SOL    HW2 7305   0.983   4.109   4.282
 2136SOL     OW 7306   2.873   5.649   1.523
 2136SOL    HW1 7307   2.827   5.647   1.434
 2136SOL    HW2 7308   2.892   5.743   1.548
 2137SOL     OW 7309   3.390   5.562   4.515
 2137SOL    HW1 7310   3.347   5.491   4.570
 2137SOL    HW2 7311   3.395   5.532   4.419
 2138SOL     OW 7312   6.296   1.041   3.184
 2138SOL    HW1 7313   6.237   1.075   3.111
 2138SOL    HW2 7314   6.336   1.118   3.234
 2139SOL     OW 7315   3.041   0.959   5.447
 2139SOL    HW1 7316   3.109   1.008   5.393
 2139SOL    HW2 7317   2.951   0.970   5.405
 2140SOL     OW 7318   2.719   0.687   5.292
 2140SOL    HW1 7319   2.772   0.771   5.291
 2140SOL    HW2 7320   2.762   0.622   5.355
 2141SOL     OW 7321   6.337   4.152   2.402
 2141SOL    HW1 7322   6.320   4.204   2.486
 2141SOL    HW2 7323   6.435   4.135   2.393
 2142SOL     OW 7324   1.576   2.795   4.247
 2142SOL    HW1 7325   1.664   2.840   4.264
 2142SOL    HW2 7326   1.580   2.748   4.159
 2143SOL     OW 7327   2.532   5.434   1.352
 2143SOL    HW1 7328   2.495   5.508   1.296
 2143SOL    HW2 7329   2.623   5.409   1.318
 2144SOL     OW 7330   0.126   5.249   4.597
 2144SOL    HW1 7331   0.177   5.335   4.596
 2144SOL    HW2 7332   0.042   5.259   4.544
 2145SOL     OW 7333   4.029   6.539   4.428
 2145SOL    HW1 7334   4.047   6.494   4.516
 2145SOL    HW2 7335   4.099   6.513   4.362
 2146SOL     OW 7336   2.333   2.569   1.092
 2146SOL    HW1 7337   2.383   2.578   1.006
 2146SOL    HW2 7338   2.396   2.537   1.163
 2147SOL     OW 7339   6.669   1.908   5.618
 2147SOL    HW1 7340   6.651   1.809   5.617
 2147SOL    HW2 7341   6.583   1.958   5.623
 2148SOL     OW 7342   0.100   2.698   6.443
 2148SOL    HW1 7343   0.047   2.703   6.358
 2148SOL    HW2 7344   0.042   2.665   6.517
 2149SOL     OW 7345   1.044   0.773   0.767
 2149SOL    HW1 7346   1.002   0.804   0.682
 2149SOL    HW2 7347   1.024   0.676   0.782
 2150SOL     OW 7348   2.619   2.654   1.793
 2150SOL    HW1 7349   2.609   2.559   1.764
 2150SOL    HW2 7350   2.580   2.665   1.885
 2151SOL     OW 7351   1.037   6.504   0.199
 2151SOL    HW1 7352   1.021   6.428   0.262
 2151SOL    HW2 7353   0.982   6.491   0.117
 2152SOL     OW 7354   4.166   5.683   2.305
 2152SOL    HW1 7355   4.113   5.761   2.271
 2152SOL    HW2 7356   4.106   5.604   2.314
 2153SOL     OW 7357   4.523   1.040   2.576
 2153SOL    HW1 7358   4.584   0.961   2.577
 2153SOL    HW2 7359   4.566   1.115   2.527
 2154SOL     OW 7360   2.969   6.572   3.474
 2154SOL    HW1 7361   2.991   6.577   3.376
 2154SOL    HW2 7362   2.873   6.597   3.488
 2155SOL     OW 7363   4.352   0.173   1.329
 2155SOL    HW1 7364   4.446   0.160   1.362
 2155SOL    HW2 7365   4.288   0.129   1.392
 2156SOL     OW 7366   6.594   1.550   3.514
 2156SOL    HW1 7367   6.639   1.469   3.477
 2156SOL    HW2 7368   6.647   1.631   3.489
 2157SOL     OW 7369   4.169   5.922   3.899
 2157SOL    HW1 7370   4.112   5.843   3.875
 2157SOL    HW2 7371   4.199   5.969   3.816
 2158SOL     OW 7372   4.176   0.307   0.647
 2158SOL    HW1 7373   4.236   0.266   0.579
 2158SOL    HW2 7374   4.083   0.271   0.636
 2159SOL     OW 7375   1.232   0.692   5.375
 2159SOL    HW1 7376   1.318   0.666   5.420
 2159SOL    HW2 7377   1.167   0.723   5.444
 2160SOL     OW 7378   5.117   5.624   6.970
 2160SOL    HW1 7379   5.184   5.556   6.999
 2160SOL    HW2 7380   5.077   5.668   0.027
 2161SOL     OW 7381   0.887   3.853   2.318
 2161SOL    HW1 7382   0.851   3.942   2.291
 2161SOL    HW2 7383   0.950   3.864   2.395
 2162SOL     OW 7384   2.811   0.026   3.357
 2162SOL    HW1 7385   2.826   0.108   3.411
 2162SOL    HW2 7386   2.877   6.979   3.383
 2163SOL     OW 7387   1.715   3.195   0.281
 2163SOL    HW1 7388   1.657   3.232   0.209
 2163SOL    HW2 7389   1.797   3.251   0.290
 2164SOL     OW 7390   2.427   2.345   0.850
 2164SOL    HW1 7391   2.396   2.435   0.819
 2164SOL    HW2 7392   2.352   2.279   0.845
 2165SOL     OW 7393   0.605   1.403   3.807
 2165SOL    HW1 7394   0.542   1.327   3.824
 2165SOL    HW2 7395   0.553   1.487   3.797
 2166SOL     OW 7396   0.634   4.186   3.976
 2166SOL    HW1 7397   0.650   4.090   3.955
 2166SOL    HW2 7398   0.629   4.198   4.076
 2167SOL     OW 7399   1.307   2.748   3.990
 2167SOL    HW1 7400   1.385   2.693   3.962
 2167SOL    HW2 7401   1.337   2.841   4.012
 2168SOL     OW 7402   1.072   1.860   2.964
 2168SOL    HW1 7403   1.021   1.783   3.000
 2168SOL    HW2 7404   1.009   1.926   2.923
 2169SOL     OW 7405   0.449   0.920   1.245
 2169SOL    HW1 7406   0.544   0.906   1.275
 2169SOL    HW2 7407   0.445   0.921   1.145
 2170SOL     OW 7408   0.610   4.406   4.863
 2170SOL    HW1 7409   0.691   4.438   4.913
 2170SOL    HW2 7410   0.597   4.309   4.879
 2171SOL     OW 7411   0.330   5.539   1.506
 2171SOL    HW1 7412   0.293   5.575   1.420
 2171SOL    HW2 7413   0.382   5.610   1.553
 2172SOL     OW 7414   0.327   1.938   5.073
 2172SOL    HW1 7415   0.402   1.996   5.041
 2172SOL    HW2 7416   0.304   1.963   5.167
 2173SOL     OW 7417   5.618   0.254   5.595
 2173SOL    HW1 7418   5.703   0.293   5.631
 2173SOL    HW2 7419   5.637   0.205   5.510
 2174SOL     OW 7420   0.572   6.042   5.228
 2174SOL    HW1 7421   0.531   6.036   5.319
 2174SOL    HW2 7422   0.655   5.986   5.224
 2175SOL     OW 7423   2.507   2.889   5.598
 2175SOL    HW1 7424   2.563   2.806   5.607
 2175SOL    HW2 7425   2.454   2.885   5.513
 2176SOL     OW 7426   5.017   2.669   1.545
 2176SOL    HW1 7427   5.056   2.591   1.595
 2176SOL    HW2 7428   5.090   2.714   1.494
 2177SOL     OW 7429   0.113   0.694   3.172
 2177SOL    HW1 7430   0.060   0.689   3.256
 2177SOL    HW2 7431   0.064   0.649   3.098
 2178SOL     OW 7432   1.037   1.371   1.671
 2178SOL    HW1 7433   1.006   1.405   1.582
 2178SOL    HW2 7434   0.974   1.403   1.743
 2179SOL     OW 7435   2.066   4.332   6.621
 2179SOL    HW1 7436   1.982   4.315   6.673
 2179SOL    HW2 7437   2.049   4.312   6.525
 2180SOL     OW 7438   1.500   4.205   2.258
 2180SOL    HW1 7439   1.414   4.211   2.207
 2180SOL    HW2 7440   1.576   4.231   2.198
 2181SOL     OW 7441   4.831   4.555   4.790
 2181SOL    HW1 7442   4.778   4.477   4.757
 2181SOL    HW2 7443   4.909   4.570   4.730
 2182SOL     OW 7444   0.976   4.197   3.245
 2182SOL    HW1 7445   0.919   4.214   3.325
 2182SOL    HW2 7446   1.036   4.276   3.230
 2183SOL     OW 7447   3.117   3.479   0.127
 2183SOL    HW1 7448   3.149   3.508   0.036
 2183SOL    HW2 7449   3.154   3.542   0.196
 2184SOL     OW 7450   6.082   0.626   0.076
 2184SOL    HW1 7451   6.000   0.662   0.030
 2184SOL    HW2 7452   6.108   0.539   0.034
 2185SOL     OW 7453   0.675   1.420   6.618
 2185SOL    HW1 7454   0.603   1.421   6.688
 2185SOL    HW2 7455   0.669   1.335   6.566
 2186SOL     OW 7456   6.474   4.839   5.504
 2186SOL    HW1 7457   6.428   4.911   5.555
 2186SOL    HW2 7458   6.407   4.788   5.450
 2187SOL     OW 7459   0.667   5.556   2.724
 2187SOL    HW1 7460   0.620   5.604   2.650
 2187SOL    HW2 7461   0.644   5.598   2.812
 2188SOL     OW 7462   2.363   5.658   6.958
 2188SOL    HW1 7463   2.327   5.711   0.011
 2188SOL    HW2 7464   2.335   5.563   6.967
 2189SOL     OW 7465   2.756   1.311   2.085
 2189SOL    HW1 7466   2.738   1.344   1.992
 2189SOL    HW2 7467   2.682   1.250   2.114
 2190SOL     OW 7468   6.652   3.535   2.328
 2190SOL    HW1 7469   6.692   3.538   2.419
 2190SOL    HW2 7470   6.643   3.628   2.292
 2191SOL     OW 7471   2.003   1.206   5.251
 2191SOL    HW1 7472   2.060   1.281   5.217
 2191SOL    HW2 7473   2.002   1.132   5.184
 2192SOL     OW 7474   5.598   0.415   2.011
 2192SOL    HW1 7475   5.579   0.486   1.943
 2192SOL    HW2 7476   5.555   0.330   1.982
 2193SOL     OW 7477   6.120   6.863   6.666
 2193SOL    HW1 7478   6.220   6.861   6.658
 2193SOL    HW2 7479   6.086   6.770   6.682
 2194SOL     OW 7480   0.437   4.229   5.416
 2194SOL    HW1 7481   0.507   4.231   5.345
 2194SOL    HW2 7482   0.369   4.159   5.395
 2195SOL     OW 7483   0.319   5.667   6.287
 2195SOL    HW1 7484   0.276   5.593   6.236
 2195SOL    HW2 7485   0.308   5.753   6.237
 2196SOL     OW 7486   2.893   6.246   5.240
 2196SOL    HW1 7487   2.803   6.280   5.214
 2196SOL    HW2 7488   2.936   6.309   5.305
 2197SOL     OW 7489   2.770   3.125   5.802
 2197SOL    HW1 7490   2.865   3.130   5.832
 2197SOL    HW2 7491   2.764   3.144   5.704
 2198SOL     OW 7492   6.997   0.276   0.091
 2198SOL    HW1 7493   6.903   0.269   0.123
 2198SOL    HW2 7494   0.022   0.346   0.144
 2199SOL     OW 7495   5.011   6.951   4.811
 2199SOL    HW1 7496   5.069   0.007   4.821
 2199SOL    HW2 7497   5.029   6.906   4.723
 2200SOL     OW 7498   3.451   1.286   4.037
 2200SOL    HW1 7499   3.436   1.313   4.132
 2200SOL    HW2 7500   3.460   1.187   4.031
 2201SOL     OW 7501   6.277   2.886   3.047
 2201SOL    HW1 7502   6.265   2.806   2.988
 2201SOL    HW2 7503   6.294   2.855   3.141
 2202SOL     OW 7504   3.267   5.226   2.543
 2202SOL    HW1 7505   3.341   5.159   2.552
 2202SOL    HW2 7506   3.283   5.302   2.606
 2203SOL     OW 7507   2.442   4.158   1.094
 2203SOL    HW1 7508   2.418   4.254   1.078
 2203SOL    HW2 7509   2.449   4.142   1.193
 2204SOL     OW 7510   4.107   2.775   0.968
 2204SOL    HW1 7511   4.159   2.764   1.053
 2204SOL    HW2 7512   4.045   2.853   0.978
 2205SOL     OW 7513   1.573   6.493   0.569
 2205SOL    HW1 7514   1.663   6.530   0.545
 2205SOL    HW2 7515   1.502   6.546   0.523
 2206SOL     OW 7516   2.359   4.260   6.530
 2206SOL    HW1 7517   2.275   4.304   6.562
 2206SOL    HW2 7518   2.337   4.171   6.490
 2207SOL     OW 7519   3.342   5.966   0.710
 2207SOL    HW1 7520   3.310   5.878   0.675
 2207SOL    HW2 7521   3.433   5.954   0.751
 2208SOL     OW 7522   1.042   5.991   3.427
 2208SOL    HW1 7523   0.990   6.027   3.350
 2208SOL    HW2 7524   1.093   5.910   3.398
 2209SOL     OW 7525   2.582   5.711   4.672
 2209SOL    HW1 7526   2.504   5.657   4.704
 2209SOL    HW2 7527   2.646   5.726   4.748
 2210SOL     OW 7528   6.245   5.862   2.241
 2210SOL    HW1 7529   6.309   5.898   2.309
 2210SOL    HW2 7530   6.161   5.833   2.288
 2211SOL     OW 7531   6.169   1.078   0.720
 2211SOL    HW1 7532   6.120   1.008   0.669
 2211SOL    HW2 7533   6.247   1.037   0.768
 2212SOL     OW 7534   2.060   5.656   6.600
 2212SOL    HW1 7535   2.112   5.730   6.644
 2212SOL    HW2 7536   2.078   5.570   6.648
 2213SOL     OW 7537   4.780   2.922   4.749
 2213SOL    HW1 7538   4.867   2.881   4.778
 2213SOL    HW2 7539   4.783   3.021   4.765
 2214SOL     OW 7540   3.595   2.881   5.497
 2214SOL    HW1 7541   3.514   2.940   5.501
 2214SOL    HW2 7542   3.641   2.894   5.409
 2215SOL     OW 7543   5.566   1.705   6.202
 2215SOL    HW1 7544   5.650   1.759   6.197
 2215SOL    HW2 7545   5.520   1.722   6.290
 2216SOL     OW 7546   0.361   6.716   5.910
 2216SOL    HW1 7547   0.457   6.746   5.903
 2216SOL    HW2 7548   0.331   6.722   6.005
 2217SOL     OW 7549   4.465   0.745   3.993
 2217SOL    HW1 7550   4.447   0.681   4.068
 2217SOL    HW2 7551   4.474   0.694   3.907
 2218SOL     OW 7552   0.233   5.001   6.894
 2218SOL    HW1 7553   0.229   5.076   6.959
 2218SOL    HW2 7554   0.143   4.984   6.855
 2219SOL     OW 7555   6.414   1.786   0.728
 2219SOL    HW1 7556   6.343   1.854   0.713
 2219SOL    HW2 7557   6.406   1.713   0.660
 2220SOL     OW 7558   2.163   6.267   5.487
 2220SOL    HW1 7559   2.184   6.170   5.499
 2220SOL    HW2 7560   2.211   6.302   5.406
 2221SOL     OW 7561   6.999   1.452   4.658
 2221SOL    HW1 7562   6.904   1.423   4.645
 2221SOL    HW2 7563   7.017   1.534   4.604
 2222SOL     OW 7564   6.170   6.769   0.712
 2222SOL    HW1 7565   6.076   6.736   0.709
 2222SOL    HW2 7566   6.214   6.736   0.796
 2223SOL     OW 7567   6.770   1.276   5.857
 2223SOL    HW1 7568   6.693   1.303   5.915
 2223SOL    HW2 7569   6.755   1.183   5.823
 2224SOL     OW 7570   5.939   3.671   2.049
 2224SOL    HW1 7571   5.856   3.670   1.994
 2224SOL    HW2 7572   5.953   3.763   2.086
 2225SOL     OW 7573   0.063   6.735   3.262
 2225SOL    HW1 7574   0.141   6.788   3.297
 2225SOL    HW2 7575   0.096   6.670   3.193
 2226SOL     OW 7576   3.639   5.789   0.763
 2226SOL    HW1 7577   3.718   5.822   0.814
 2226SOL    HW2 7578   3.669   5.720   0.697
 2227SOL     OW 7579   4.427   2.754   1.455
 2227SOL    HW1 7580   4.445   2.659   1.482
 2227SOL    HW2 7581   4.466   2.816   1.523
 2228SOL     OW 7582   4.615   5.206   0.394
 2228SOL    HW1 7583   4.680   5.228   0.321
 2228SOL    HW2 7584   4.547   5.141   0.360
 2229SOL     OW 7585   3.589   3.670   5.063
 2229SOL    HW1 7586   3.534   3.717   4.994
 2229SOL    HW2 7587   3.683   3.704   5.059
 2230SOL     OW 7588   5.216   6.054   1.634
 2230SOL    HW1 7589   5.125   6.063   1.673
 2230SOL    HW2 7590   5.224   5.966   1.586
 2231SOL     OW 7591   0.848   0.943   6.158
 2231SOL    HW1 7592   0.825   0.881   6.234
 2231SOL    HW2 7593   0.945   0.964   6.162
 2232SOL     OW 7594   0.228   0.793   5.054
 2232SOL    HW1 7595   0.219   0.694   5.056
 2232SOL    HW2 7596   0.295   0.823   5.122
 2233SOL     OW 7597   3.214   3.377   0.887
 2233SOL    HW1 7598   3.256   3.354   0.975
 2233SOL    HW2 7599   3.133   3.434   0.902
 2234SOL     OW 7600   3.830   1.636   0.565
 2234SOL    HW1 7601   3.780   1.576   0.628
 2234SOL    HW2 7602   3.767   1.703   0.527
 2235SOL     OW 7603   2.656   0.454   2.448
 2235SOL    HW1 7604   2.574   0.401   2.467
 2235SOL    HW2 7605   2.664   0.530   2.513
 2236SOL     OW 7606   2.105   3.733   5.677
 2236SOL    HW1 7607   2.147   3.646   5.653
 2236SOL    HW2 7608   2.168   3.808   5.654
 2237SOL     OW 7609   6.191   4.720   4.379
 2237SOL    HW1 7610   6.192   4.633   4.330
 2237SOL    HW2 7611   6.098   4.739   4.411
 2238SOL     OW 7612   4.898   4.940   2.226
 2238SOL    HW1 7613   4.865   5.019   2.173
 2238SOL    HW2 7614   4.877   4.955   2.322
 2239SOL     OW 7615   4.172   5.280   3.981
 2239SOL    HW1 7616   4.192   5.373   3.950
 2239SOL    HW2 7617   4.222   5.214   3.923
 2240SOL     OW 7618   3.683   5.705   2.133
 2240SOL    HW1 7619   3.770   5.678   2.091
 2240SOL    HW2 7620   3.695   5.714   2.232
 2241SOL     OW 7621   6.608   6.922   1.834
 2241SOL    HW1 7622   6.655   6.942   1.921
 2241SOL    HW2 7623   6.511   6.944   1.842
 2242SOL     OW 7624   5.182   3.555   2.397
 2242SOL    HW1 7625   5.167   3.456   2.390
 2242SOL    HW2 7626   5.278   3.571   2.422
 2243SOL     OW 7627   2.000   6.752   0.019
 2243SOL    HW1 7628   1.927   6.791   6.987
 2243SOL    HW2 7629   2.089   6.772   7.001
 2244SOL     OW 7630   2.871   0.306   1.417
 2244SOL    HW1 7631   2.778   0.327   1.387
 2244SOL    HW2 7632   2.926   0.389   1.415
 2245SOL     OW 7633   0.025   1.685   0.274
 2245SOL    HW1 7634   0.056   1.758   0.335
 2245SOL    HW2 7635   0.096   1.664   0.208
 2246SOL     OW 7636   1.922   0.608   3.924
 2246SOL    HW1 7637   1.860   0.549   3.873
 2246SOL    HW2 7638   1.939   0.568   4.015
 2247SOL     OW 7639   3.184   3.587   2.578
 2247SOL    HW1 7640   3.264   3.596   2.518
 2247SOL    HW2 7641   3.156   3.677   2.610
 2248SOL     OW 7642   6.535   4.409   4.109
 2248SOL    HW1 7643   6.479   4.431   4.030
 2248SOL    HW2 7644   6.487   4.342   4.166
 2249SOL     OW 7645   3.992   6.673   4.042
 2249SOL    HW1 7646   4.007   6.739   3.968
 2249SOL    HW2 7647   3.908   6.697   4.091
 2250SOL     OW 7648   3.102   3.913   5.791
 2250SOL    HW1 7649   3.035   3.843   5.817
 2250SOL    HW2 7650   3.097   3.929   5.693
 2251SOL     OW 7651   5.498   0.124   6.291
 2251SOL    HW1 7652   5.474   0.033   6.324
 2251SOL    HW2 7653   5.455   0.193   6.349
 2252SOL     OW 7654   5.118   1.640   2.906
 2252SOL    HW1 7655   5.104   1.564   2.843
 2252SOL    HW2 7656   5.111   1.608   3.000
 2253SOL     OW 7657   0.194   3.308   6.749
 2253SOL    HW1 7658   0.229   3.384   6.694
 2253SOL    HW2 7659   0.211   3.326   6.846
 2254SOL     OW 7660   3.627   3.601   3.338
 2254SOL    HW1 7661   3.715   3.607   3.385
 2254SOL    HW2 7662   3.555   3.582   3.405
 2255SOL     OW 7663   3.010   3.406   5.685
 2255SOL    HW1 7664   2.998   3.356   5.599
 2255SOL    HW2 7665   3.004   3.504   5.667
 2256SOL     OW 7666   4.530   6.647   2.189
 2256SOL    HW1 7667   4.439   6.654   2.148
 2256SOL    HW2 7668   4.584   6.728   2.164
 2257SOL     OW 7669   0.783   1.243   4.315
 2257SOL    HW1 7670   0.796   1.145   4.302
 2257SOL    HW2 7671   0.686   1.263   4.328
 2258SOL     OW 7672   1.958   5.812   4.133
 2258SOL    HW1 7673   1.986   5.759   4.213
 2258SOL    HW2 7674   1.858   5.818   4.130
 2259SOL     OW 7675   5.176   2.657   4.984
 2259SOL    HW1 7676   5.121   2.736   5.013
 2259SOL    HW2 7677   5.125   2.573   5.003
 2260SOL     OW 7678   0.620   3.637   1.159
 2260SOL    HW1 7679   0.548   3.577   1.192
 2260SOL    HW2 7680   0.624   3.633   1.059
 2261SOL     OW 7681   6.824   4.265   0.834
 2261SOL    HW1 7682   6.788   4.195   0.773
 2261SOL    HW2 7683   6.782   4.353   0.811
 2262SOL     OW 7684   6.353   0.189   2.986
 2262SOL    HW1 7685   6.332   0.268   2.928
 2262SOL    HW2 7686   6.314   0.203   3.077
 2263SOL     OW 7687   2.154   5.848   0.538
 2263SOL    HW1 7688   2.072   5.849   0.481
 2263SOL    HW2 7689   2.158   5.763   0.590
 2264SOL     OW 7690   2.593   0.049   6.835
 2264SOL    HW1 7691   2.653   7.004   6.795
 2264SOL    HW2 7692   2.576   0.026   6.931
 2265SOL     OW 7693   2.068   0.643   4.182
 2265SOL    HW1 7694   2.154   0.663   4.134
 2265SOL    HW2 7695   2.079   0.664   4.279
 2266SOL     OW 7696   4.716   1.485   6.488
 2266SOL    HW1 7697   4.692   1.453   6.397
 2266SOL    HW2 7698   4.785   1.557   6.481
 2267SOL     OW 7699   4.674   2.744   4.933
 2267SOL    HW1 7700   4.649   2.788   5.018
 2267SOL    HW2 7701   4.717   2.810   4.872
 2268SOL     OW 7702   6.113   3.556   6.279
 2268SOL    HW1 7703   6.052   3.635   6.279
 2268SOL    HW2 7704   6.083   3.490   6.211
 2269SOL     OW 7705   1.057   3.499   4.924
 2269SOL    HW1 7706   1.123   3.516   4.996
 2269SOL    HW2 7707   1.048   3.580   4.866
 2270SOL     OW 7708   3.741   3.237   6.492
 2270SOL    HW1 7709   3.772   3.212   6.584
 2270SOL    HW2 7710   3.803   3.197   6.425
 2271SOL     OW 7711   5.711   4.620   6.904
 2271SOL    HW1 7712   5.717   4.546   6.971
 2271SOL    HW2 7713   5.639   4.684   6.932
 2272SOL     OW 7714   6.905   1.572   6.652
 2272SOL    HW1 7715   6.943   1.660   6.624
 2272SOL    HW2 7716   6.819   1.587   6.701
 2273SOL     OW 7717   1.797   2.359   2.453
 2273SOL    HW1 7718   1.857   2.423   2.405
 2273SOL    HW2 7719   1.741   2.409   2.519
 2274SOL     OW 7720   0.386   1.732   6.209
 2274SOL    HW1 7721   0.442   1.798   6.159
 2274SOL    HW2 7722   0.421   1.722   6.302
 2275SOL     OW 7723   5.559   5.952   2.803
 2275SOL    HW1 7724   5.582   6.047   2.782
 2275SOL    HW2 7725   5.642   5.897   2.803
 2276SOL     OW 7726   1.442   5.779   1.520
 2276SOL    HW1 7727   1.401   5.796   1.610
 2276SOL    HW2 7728   1.451   5.866   1.471
 2277SOL     OW 7729   3.161   3.524   4.704
 2277SOL    HW1 7730   3.079   3.568   4.668
 2277SOL    HW2 7731   3.218   3.492   4.629
 2278SOL     OW 7732   6.061   2.655   3.869
 2278SOL    HW1 7733   6.104   2.567   3.849
 2278SOL    HW2 7734   6.120   2.708   3.930
 2279SOL     OW 7735   6.293   6.832   5.649
 2279SOL    HW1 7736   6.307   6.891   5.569
 2279SOL    HW2 7737   6.374   6.836   5.707
 2280SOL     OW 7738   6.064   0.893   4.466
 2280SOL    HW1 7739   6.056   0.794   4.472
 2280SOL    HW2 7740   6.148   0.917   4.415
 2281SOL     OW 7741   3.359   0.579   1.973
 2281SOL    HW1 7742   3.387   0.525   2.053
 2281SOL    HW2 7743   3.429   0.574   1.903
 2282SOL     OW 7744   5.214   6.052   5.566
 2282SOL    HW1 7745   5.134   6.082   5.514
 2282SOL    HW2 7746   5.258   6.131   5.607
 2283SOL     OW 7747   1.519   0.720   1.907
 2283SOL    HW1 7748   1.535   0.723   2.006
 2283SOL    HW2 7749   1.478   0.805   1.877
 2284SOL     OW 7750   0.917   3.565   6.052
 2284SOL    HW1 7751   0.878   3.546   6.142
 2284SOL    HW2 7752   0.911   3.483   5.995
 2285SOL     OW 7753   1.337   3.229   0.334
 2285SOL    HW1 7754   1.389   3.155   0.376
 2285SOL    HW2 7755   1.386   3.263   0.253
 2286SOL     OW 7756   5.458   0.171   3.616
 2286SOL    HW1 7757   5.541   0.116   3.610
 2286SOL    HW2 7758   5.434   0.206   3.525
 2287SOL     OW 7759   2.588   0.785   3.669
 2287SOL    HW1 7760   2.588   0.879   3.704
 2287SOL    HW2 7761   2.644   0.780   3.586
 2288SOL     OW 7762   0.046   5.363   4.052
 2288SOL    HW1 7763   0.081   5.324   4.137
 2288SOL    HW2 7764   0.043   5.292   3.981
 2289SOL     OW 7765   7.017   5.052   0.888
 2289SOL    HW1 7766   6.934   5.004   0.858
 2289SOL    HW2 7767   7.001   5.094   0.977
 2290SOL     OW 7768   0.496   4.157   1.181
 2290SOL    HW1 7769   0.511   4.185   1.276
 2290SOL    HW2 7770   0.559   4.084   1.157
 2291SOL     OW 7771   2.332   2.462   5.657
 2291SOL    HW1 7772   2.424   2.423   5.663
 2291SOL    HW2 7773   2.327   2.525   5.579
 2292SOL     OW 7774   1.616   1.610   4.512
 2292SOL    HW1 7775   1.553   1.665   4.457
 2292SOL    HW2 7776   1.684   1.568   4.453
 2293SOL     OW 7777   5.370   6.020   1.962
 2293SOL    HW1 7778   5.420   5.995   1.879
 2293SOL    HW2 7779   5.272   6.006   1.946
 2294SOL     OW 7780   3.291   0.134   0.094
 2294SOL    HW1 7781   3.375   0.102   0.138
 2294SOL    HW2 7782   3.233   0.178   0.162
 2295SOL     OW 7783   0.354   1.558   2.279
 2295SOL    HW1 7784   0.315   1.602   2.360
 2295SOL    HW2 7785   0.444   1.520   2.302
 2296SOL     OW 7786   3.014   6.787   0.817
 2296SOL    HW1 7787   3.021   6.885   0.838
 2296SOL    HW2 7788   3.106   6.747   0.817
 2297SOL     OW 7789   3.698   4.137   5.157
 2297SOL    HW1 7790   3.758   4.095   5.225
 2297SOL    HW2 7791   3.700   4.083   5.073
 2298SOL     OW 7792   3.604   2.636   1.780
 2298SOL    HW1 7793   3.506   2.639   1.803
 2298SOL    HW2 7794   3.638   2.544   1.795
 2299SOL     OW 7795   5.864   0.684   6.609
 2299SOL    HW1 7796   5.823   0.765   6.569
 2299SOL    HW2 7797   5.933   0.647   6.547
 2300SOL     OW 7798   2.119   5.212   1.809
 2300SOL    HW1 7799   2.120   5.277   1.886
 2300SOL    HW2 7800   2.199   5.228   1.751
 2301SOL     OW 7801   2.929   3.754   2.808
 2301SOL    HW1 7802   2.898   3.668   2.769
 2301SOL    HW2 7803   2.981   3.805   2.739
 2302SOL     OW 7804   3.781   0.023   2.451
 2302SOL    HW1 7805   3.757   0.034   2.354
 2302SOL    HW2 7806   3.810   0.112   2.488
 2303SOL     OW 7807   1.466   3.445   5.636
 2303SOL    HW1 7808   1.420   3.482   5.555
 2303SOL    HW2 7809   1.534   3.377   5.608
 2304SOL     OW 7810   2.535   0.431   3.351
 2304SOL    HW1 7811   2.464   0.479   3.402
 2304SOL    HW2 7812   2.502   0.341   3.323
 2305SOL     OW 7813   3.657   5.659   3.265
 2305SOL    HW1 7814   3.568   5.695   3.236
 2305SOL    HW2 7815   3.711   5.637   3.184
 2306SOL     OW 7816   2.166   5.750   1.298
 2306SOL    HW1 7817   2.180   5.826   1.361
 2306SOL    HW2 7818   2.070   5.746   1.270
 2307SOL     OW 7819   2.481   4.566   2.692
 2307SOL    HW1 7820   2.544   4.605   2.625
 2307SOL    HW2 7821   2.425   4.496   2.647
 2308SOL     OW 7822   1.029   6.992   6.785
 2308SOL    HW1 7823   0.954   0.032   6.805
 2308SOL    HW2 7824   1.009   6.903   6.826
 2309SOL     OW 7825   2.764   6.783   0.105
 2309SOL    HW1 7826   2.693   6.853   0.111
 2309SOL    HW2 7827   2.829   6.796   0.180
 2310SOL     OW 7828   6.195   6.497   1.237
 2310SOL    HW1 7829   6.249   6.425   1.193
 2310SOL    HW2 7830   6.250   6.544   1.305
 2311SOL     OW 7831   2.796   6.766   2.203
 2311SOL    HW1 7832   2.838   6.855   2.219
 2311SOL    HW2 7833   2.740   6.741   2.282
 2312SOL     OW 7834   3.270   0.068   3.330
 2312SOL    HW1 7835   3.341   0.018   3.379
 2312SOL    HW2 7836   3.260   0.160   3.369
 2313SOL     OW 7837   4.676   5.066   1.937
 2313SOL    HW1 7838   4.679   5.081   1.838
 2313SOL    HW2 7839   4.757   5.107   1.980
 2314SOL     OW 7840   5.985   0.962   3.271
 2314SOL    HW1 7841   6.073   0.915   3.277
 2314SOL    HW2 7842   5.993   1.053   3.311
 2315SOL     OW 7843   5.187   3.364   5.208
 2315SOL    HW1 7844   5.131   3.364   5.291
 2315SOL    HW2 7845   5.131   3.392   5.130
 2316SOL     OW 7846   2.426   1.489   5.224
 2316SOL    HW1 7847   2.476   1.507   5.308
 2316SOL    HW2 7848   2.408   1.575   5.176
 2317SOL     OW 7849   6.445   6.345   3.715
 2317SOL    HW1 7850   6.458   6.430   3.664
 2317SOL    HW2 7851   6.370   6.354   3.779
 2318SOL     OW 7852   2.129   3.469   4.328
 2318SOL    HW1 7853   2.125   3.370   4.315
 2318SOL    HW2 7854   2.130   3.489   4.426
 2319SOL     OW 7855   3.253   5.434   5.293
 2319SOL    HW1 7856   3.229   5.462   5.386
 2319SOL    HW2 7857   3.221   5.341   5.277
 2320SOL     OW 7858   0.506   2.130   4.953
 2320SOL    HW1 7859   0.508   2.106   4.856
 2320SOL    HW2 7860   0.599   2.143   4.986
 2321SOL     OW 7861   2.179   5.859   6.745
 2321SOL    HW1 7862   2.202   5.956   6.746
 2321SOL    HW2 7863   2.204   5.817   6.832
 2322SOL     OW 7864   1.999   4.355   2.212
 2322SOL    HW1 7865   1.955   4.380   2.126
 2322SOL    HW2 7866   2.095   4.333   2.195
 2323SOL     OW 7867   3.291   4.816   1.804
 2323SOL    HW1 7868   3.372   4.758   1.806
 2323SOL    HW2 7869   3.213   4.764   1.769
 2324SOL     OW 7870   6.727   6.060   1.085
 2324SOL    HW1 7871   6.734   5.960   1.083
 2324SOL    HW2 7872   6.668   6.090   1.010
 2325SOL     OW 7873   0.346   4.598   1.222
 2325SOL    HW1 7874   0.394   4.646   1.295
 2325SOL    HW2 7875   0.411   4.539   1.174
 2326SOL     OW 7876   1.413   6.378   6.486
 2326SOL    HW1 7877   1.502   6.413   6.516
 2326SOL    HW2 7878   1.426   6.289   6.442
 2327SOL     OW 7879   0.583   1.062   3.070
 2327SOL    HW1 7880   0.670   1.046   3.117
 2327SOL    HW2 7881   0.540   1.145   3.106
 2328SOL     OW 7882   1.804   1.968   2.954
 2328SOL    HW1 7883   1.878   1.903   2.932
 2328SOL    HW2 7884   1.777   2.017   2.871
 2329SOL     OW 7885   0.780   4.772   4.787
 2329SOL    HW1 7886   0.873   4.810   4.785
 2329SOL    HW2 7887   0.714   4.845   4.767
 2330SOL     OW 7888   6.984   2.665   0.709
 2330SOL    HW1 7889   6.961   2.685   0.804
 2330SOL    HW2 7890   7.019   2.572   0.701
 2331SOL     OW 7891   3.731   5.295   0.441
 2331SOL    HW1 7892   3.748   5.384   0.398
 2331SOL    HW2 7893   3.813   5.265   0.490
 2332SOL     OW 7894   6.980   6.851   5.756
 2332SOL    HW1 7895   6.904   6.800   5.715
 2332SOL    HW2 7896   0.009   6.791   5.815
 2333SOL     OW 7897   6.798   4.688   3.040
 2333SOL    HW1 7898   6.839   4.642   3.119
 2333SOL    HW2 7899   6.868   4.706   2.971
 2334SOL     OW 7900   1.684   1.011   6.612
 2334SOL    HW1 7901   1.778   0.985   6.635
 2334SOL    HW2 7902   1.621   0.944   6.650
 2335SOL     OW 7903   5.745   7.006   3.728
 2335SOL    HW1 7904   5.732   6.951   3.646
 2335SOL    HW2 7905   5.827   0.039   3.717
 2336SOL     OW 7906   3.908   1.265   4.946
 2336SOL    HW1 7907   3.974   1.272   4.871
 2336SOL    HW2 7908   3.824   1.222   4.914
 2337SOL     OW 7909   4.168   0.391   1.499
 2337SOL    HW1 7910   4.260   0.351   1.496
 2337SOL    HW2 7911   4.139   0.415   1.406
 2338SOL     OW 7912   0.375   3.129   4.342
 2338SOL    HW1 7913   0.463   3.086   4.364
 2338SOL    HW2 7914   0.312   3.118   4.418
 2339SOL     OW 7915   3.836   4.088   3.456
 2339SOL    HW1 7916   3.834   4.032   3.373
 2339SOL    HW2 7917   3.836   4.028   3.536
 2340SOL     OW 7918   6.790   4.344   6.564
 2340SOL    HW1 7919   6.788   4.310   6.658
 2340SOL    HW2 7920   6.858   4.292   6.512
 2341SOL     OW 7921   2.799   4.863   2.250
 2341SOL    HW1 7922   2.840   4.859   2.341
 2341SOL    HW2 7923   2.859   4.817   2.184
 2342SOL     OW 7924   1.489   0.109   5.004
 2342SOL    HW1 7925   1.560   0.042   5.027
 2342SOL    HW2 7926   1.483   0.119   4.905
 2343SOL     OW 7927   1.674   5.562   2.271
 2343SOL    HW1 7928   1.725   5.508   2.338
 2343SOL    HW2 7929   1.613   5.503   2.219
 2344SOL     OW 7930   0.421   5.905   0.055
 2344SOL    HW1 7931   0.491   5.875   0.119
 2344SOL    HW2 7932   0.448   5.992   0.014
 2345SOL     OW 7933   2.439   5.327   5.092
 2345SOL    HW1 7934   2.395   5.352   5.006
 2345SOL    HW2 7935   2.445   5.408   5.151
 2346SOL     OW 7936   3.429   3.231   5.808
 2346SOL    HW1 7937   3.462   3.278   5.889
 2346SOL    HW2 7938   3.408   3.298   5.737
 2347SOL     OW 7939   2.570   2.462   1.508
 2347SOL    HW1 7940   2.472   2.461   1.528
 2347SOL    HW2 7941   2.620   2.423   1.586
 2348SOL     OW 7942   1.756   6.023   3.489
 2348SOL    HW1 7943   1.772   6.009   3.587
 2348SOL    HW2 7944   1.800   6.108   3.460
 2349SOL     OW 7945   0.882   4.719   5.658
 2349SOL    HW1 7946   0.912   4.815   5.655
 2349SOL    HW2 7947   0.945   4.664   5.604
 2350SOL     OW 7948   6.372   5.525   6.094
 2350SOL    HW1 7949   6.273   5.522   6.106
 2350SOL    HW2 7950   6.395   5.504   5.999
 2351SOL     OW 7951   2.905   5.045   4.227
 2351SOL    HW1 7952   2.858   4.982   4.288
 2351SOL    HW2 7953   2.990   5.077   4.269
 2352SOL     OW 7954   0.283   3.731   2.621
 2352SOL    HW1 7955   0.305   3.670   2.697
 2352SOL    HW2 7956   0.316   3.823   2.641
 2353SOL     OW 7957   3.291   5.120   4.411
 2353SOL    HW1 7958   3.351   5.177   4.465
 2353SOL    HW2 7959   3.265   5.039   4.464
 2354SOL     OW 7960   2.338   1.831   4.499
 2354SOL    HW1 7961   2.379   1.911   4.457
 2354SOL    HW2 7962   2.248   1.814   4.458
 2355SOL     OW 7963   2.183   0.055   5.762
 2355SOL    HW1 7964   2.219   6.986   5.773
 2355SOL    HW2 7965   2.096   0.063   5.811
 2356SOL     OW 7966   1.158   3.125   6.171
 2356SOL    HW1 7967   1.073   3.079   6.199
 2356SOL    HW2 7968   1.221   3.127   6.248
 2357SOL     OW 7969   4.244   0.406   2.679
 2357SOL    HW1 7970   4.183   0.390   2.601
 2357SOL    HW2 7971   4.256   0.322   2.730
 2358SOL     OW 7972   3.191   5.443   5.573
 2358SOL    HW1 7973   3.201   5.500   5.654
 2358SOL    HW2 7974   3.231   5.352   5.592
 2359SOL     OW 7975   6.781   1.004   5.710
 2359SOL    HW1 7976   6.879   1.004   5.727
 2359SOL    HW2 7977   6.761   0.949   5.629
 2360SOL     OW 7978   5.647   2.893   6.520
 2360SOL    HW1 7979   5.577   2.823   6.507
 2360SOL    HW2 7980   5.702   2.901   6.437
 2361SOL     OW 7981   2.095   0.749   6.048
 2361SOL    HW1 7982   2.093   0.712   6.141
 2361SOL    HW2 7983   2.159   0.696   5.992
 2362SOL     OW 7984   2.363   5.630   3.734
 2362SOL    HW1 7985   2.344   5.717   3.688
 2362SOL    HW2 7986   2.282   5.572   3.729
 2363SOL     OW 7987   4.720   1.913   5.087
 2363SOL    HW1 7988   4.677   1.917   4.996
 2363SOL    HW2 7989   4.667   1.967   5.151
 2364SOL     OW 7990   1.106   2.757   2.585
 2364SOL    HW1 7991   1.137   2.851   2.601
 2364SOL    HW2 7992   1.025   2.758   2.527
 2365SOL     OW 7993   6.893   2.366   6.831
 2365SOL    HW1 7994   6.870   2.286   6.887
 2365SOL    HW2 7995   6.868   2.449   6.880
 2366SOL     OW 7996   2.564   5.510   6.521
 2366SOL    HW1 7997   2.492   5.549   6.580
 2366SOL    HW2 7998   2.637   5.577   6.509
 2367SOL     OW 7999   2.674   3.719   1.071
 2367SOL    HW1 8000   2.713   3.801   1.029
 2367SOL    HW2 8001   2.574   3.726   1.071
 2368SOL     OW 8002   4.501   6.737   4.695
 2368SOL    HW1 8003   4.448   6.694   4.768
 2368SOL    HW2 8004   4.599   6.731   4.716
 2369SOL     OW 8005   2.296   0.951   4.751
 2369SOL    HW1 8006   2.296   0.889   4.830
 2369SOL    HW2 8007   2.239   1.030   4.771
 2370SOL     OW 8008   4.944   2.966   0.081
 2370SOL    HW1 8009   4.857   2.964   0.131
 2370SOL    HW2 8010   4.926   2.979   7.007
 2371SOL     OW 8011   1.101   6.966   1.459
 2371SOL    HW1 8012   1.199   6.951   1.444
 2371SOL    HW2 8013   1.056   6.988   1.373
 2372SOL     OW 8014   0.043   2.812   1.821
 2372SOL    HW1 8015   6.970   2.835   1.832
 2372SOL    HW2 8016   0.077   2.852   1.735
 2373SOL     OW 8017   0.949   2.591   6.210
 2373SOL    HW1 8018   0.895   2.520   6.164
 2373SOL    HW2 8019   0.964   2.667   6.146
 2374SOL     OW 8020   6.068   1.778   3.876
 2374SOL    HW1 8021   6.159   1.742   3.854
 2374SOL    HW2 8022   6.013   1.707   3.919
 2375SOL     OW 8023   2.998   6.249   4.734
 2375SOL    HW1 8024   3.058   6.178   4.696
 2375SOL    HW2 8025   3.022   6.266   4.829
 2376SOL     OW 8026   6.714   2.594   4.589
 2376SOL    HW1 8027   6.623   2.635   4.596
 2376SOL    HW2 8028   6.767   2.644   4.521
 2377SOL     OW 8029   4.066   3.623   3.814
 2377SOL    HW1 8030   4.049   3.721   3.820
 2377SOL    HW2 8031   4.098   3.600   3.721
 2378SOL     OW 8032   5.028   1.676   0.915
 2378SOL    HW1 8033   4.977   1.725   0.986
 2378SOL    HW2 8034   5.031   1.579   0.937
 2379SOL     OW 8035   6.816   1.805   0.146
 2379SOL    HW1 8036   6.746   1.853   0.199
 2379SOL    HW2 8037   6.894   1.784   0.206
 2380SOL     OW 8038   0.394   1.790   6.512
 2380SOL    HW1 8039   0.428   1.883   6.497
 2380SOL    HW2 8040   0.471   1.726   6.514
 2381SOL     OW 8041   2.026   5.038   4.699
 2381SOL    HW1 8042   2.005   5.067   4.793
 2381SOL    HW2 8043   2.091   4.962   4.701
 2382SOL     OW 8044   2.114   3.885   4.522
 2382SOL    HW1 8045   2.202   3.914   4.483
 2382SOL    HW2 8046   2.105   3.922   4.615
 2383SOL     OW 8047   4.705   6.351   0.788
 2383SOL    HW1 8048   4.701   6.450   0.779
 2383SOL    HW2 8049   4.762   6.313   0.715
 2384SOL     OW 8050   6.106   1.098   2.870
 2384SOL    HW1 8051   6.081   1.173   2.931
 2384SOL    HW2 8052   6.034   1.029   2.870
 2385SOL     OW 8053   1.143   6.755   0.641
 2385SOL    HW1 8054   1.082   6.729   0.566
 2385SOL    HW2 8055   1.088   6.792   0.717
 2386SOL     OW 8056   6.224   5.867   4.163
 2386SOL    HW1 8057   6.166   5.889   4.241
 2386SOL    HW2 8058   6.316   5.845   4.195
 2387SOL     OW 8059   1.414   2.056   4.212
 2387SOL    HW1 8060   1.427   2.014   4.122
 2387SOL    HW2 8061   1.320   2.041   4.242
 2388SOL     OW 8062   0.793   1.964   4.338
 2388SOL    HW1 8063   0.836   1.971   4.248
 2388SOL    HW2 8064   0.796   1.869   4.369
 2389SOL     OW 8065   4.824   3.985   2.730
 2389SOL    HW1 8066   4.767   4.024   2.803
 2389SOL    HW2 8067   4.827   3.885   2.740
 2390SOL     OW 8068   3.808   2.962   3.335
 2390SOL    HW1 8069   3.765   2.929   3.252
 2390SOL    HW2 8070   3.762   2.922   3.415
 2391SOL     OW 8071   5.170   3.976   5.900
 2391SOL    HW1 8072   5.112   3.897   5.881
 2391SOL    HW2 8073   5.146   4.050   5.838
 2392SOL     OW 8074   3.845   6.197   5.238
 2392SOL    HW1 8075   3.890   6.283   5.263
 2392SOL    HW2 8076   3.767   6.216   5.180
 2393SOL     OW 8077   4.851   4.015   6.144
 2393SOL    HW1 8078   4.919   4.088   6.145
 2393SOL    HW2 8079   4.839   3.981   6.051
 2394SOL     OW 8080   1.034   3.828   4.567
 2394SOL    HW1 8081   1.107   3.897   4.564
 2394SOL    HW2 8082   0.965   3.849   4.498
 2395SOL     OW 8083   5.239   1.456   5.604
 2395SOL    HW1 8084   5.330   1.441   5.564
 2395SOL    HW2 8085   5.249   1.502   5.692
 2396SOL     OW 8086   3.709   5.212   1.313
 2396SOL    HW1 8087   3.721   5.295   1.259
 2396SOL    HW2 8088   3.738   5.230   1.407
 2397SOL     OW 8089   6.895   3.738   5.624
 2397SOL    HW1 8090   6.822   3.774   5.566
 2397SOL    HW2 8091   6.969   3.805   5.628
 2398SOL     OW 8092   3.731   4.276   6.815
 2398SOL    HW1 8093   3.720   4.177   6.807
 2398SOL    HW2 8094   3.712   4.304   6.910
 2399SOL     OW 8095   4.417   0.972   1.699
 2399SOL    HW1 8096   4.342   0.977   1.764
 2399SOL    HW2 8097   4.381   0.960   1.607
 2400SOL     OW 8098   2.696   4.033   1.020
 2400SOL    HW1 8099   2.607   4.079   1.014
 2400SOL    HW2 8100   2.704   3.988   1.109
 2401SOL     OW 8101   5.143   6.301   6.861
 2401SOL    HW1 8102   5.141   6.312   6.762
 2401SOL    HW2 8103   5.226   6.254   6.888
 2402SOL     OW 8104   0.457   0.559   3.313
 2402SOL    HW1 8105   0.451   0.613   3.229
 2402SOL    HW2 8106   0.449   0.619   3.392
 2403SOL     OW 8107   2.012   2.341   6.722
 2403SOL    HW1 8108   2.070   2.260   6.729
 2403SOL    HW2 8109   2.027   2.385   6.633
 2404SOL     OW 8110   2.863   1.014   1.226
 2404SOL    HW1 8111   2.870   1.088   1.159
 2404SOL    HW2 8112   2.885   0.927   1.183
 2405SOL     OW 8113   3.688   3.557   2.439
 2405SOL    HW1 8114   3.747   3.508   2.375
 2405SOL    HW2 8115   3.690   3.512   2.529
 2406SOL     OW 8116   2.505   0.426   2.099
 2406SOL    HW1 8117   2.425   0.459   2.149
 2406SOL    HW2 8118   2.499   0.327   2.088
 2407SOL     OW 8119   5.433   1.538   2.751
 2407SOL    HW1 8120   5.400   1.448   2.777
 2407SOL    HW2 8121   5.525   1.530   2.711
 2408SOL     OW 8122   4.647   4.772   3.385
 2408SOL    HW1 8123   4.664   4.684   3.340
 2408SOL    HW2 8124   4.592   4.757   3.467
 2409SOL     OW 8125   2.124   4.504   1.862
 2409SOL    HW1 8126   2.175   4.539   1.941
 2409SOL    HW2 8127   2.174   4.526   1.778
 2410SOL     OW 8128   4.079   3.337   5.224
 2410SOL    HW1 8129   4.137   3.414   5.197
 2410SOL    HW2 8130   4.136   3.266   5.267
 2411SOL     OW 8131   5.071   5.801   4.783
 2411SOL    HW1 8132   5.097   5.737   4.710
 2411SOL    HW2 8133   5.033   5.884   4.742
 2412SOL     OW 8134   5.330   4.469   1.159
 2412SOL    HW1 8135   5.297   4.379   1.188
 2412SOL    HW2 8136   5.406   4.458   1.095
 2413SOL     OW 8137   6.284   1.290   0.589
 2413SOL    HW1 8138   6.248   1.205   0.626
 2413SOL    HW2 8139   6.383   1.280   0.573
 2414SOL     OW 8140   4.732   4.247   2.605
 2414SOL    HW1 8141   4.694   4.244   2.513
 2414SOL    HW2 8142   4.762   4.156   2.632
 2415SOL     OW 8143   6.539   0.907   3.130
 2415SOL    HW1 8144   6.458   0.964   3.140
 2415SOL    HW2 8145   6.599   0.946   3.060
 2416SOL     OW 8146   4.790   2.474   4.934
 2416SOL    HW1 8147   4.758   2.569   4.930
 2416SOL    HW2 8148   4.868   2.468   4.997
 2417SOL     OW 8149   3.851   3.602   4.800
 2417SOL    HW1 8150   3.889   3.634   4.886
 2417SOL    HW2 8151   3.771   3.658   4.776
 2418SOL     OW 8152   3.785   2.978   4.796
 2418SOL    HW1 8153   3.776   2.935   4.886
 2418SOL    HW2 8154   3.694   2.982   4.752
 2419SOL     OW 8155   0.070   6.864   4.167
 2419SOL    HW1 8156   0.135   6.930   4.205
 2419SOL    HW2 8157   7.019   6.850   4.231
 2420SOL     OW 8158   3.178   0.802   2.739
 2420SOL    HW1 8159   3.109   0.788   2.810
 2420SOL    HW2 8160   3.262   0.837   2.779
 2421SOL     OW 8161   1.925   2.548   5.285
 2421SOL    HW1 8162   1.861   2.617   5.249
 2421SOL    HW2 8163   2.018   2.571   5.257
 2422SOL     OW 8164   5.666   1.085   1.111
 2422SOL    HW1 8165   5.686   1.182   1.110
 2422SOL    HW2 8166   5.642   1.054   1.019
 2423SOL     OW 8167   1.781   5.817   2.582
 2423SOL    HW1 8168   1.874   5.800   2.551
 2423SOL    HW2 8169   1.745   5.899   2.535
 2424SOL     OW 8170   6.478   6.919   6.419
 2424SOL    HW1 8171   6.465   6.870   6.505
 2424SOL    HW2 8172   6.389   6.943   6.381
 2425SOL     OW 8173   5.684   0.479   4.119
 2425SOL    HW1 8174   5.628   0.558   4.093
 2425SOL    HW2 8175   5.697   0.478   4.218
 2426SOL     OW 8176   1.273   5.737   5.268
 2426SOL    HW1 8177   1.326   5.696   5.342
 2426SOL    HW2 8178   1.335   5.779   5.202
 2427SOL     OW 8179   5.373   5.934   5.312
 2427SOL    HW1 8180   5.385   5.870   5.236
 2427SOL    HW2 8181   5.275   5.943   5.333
 2428SOL     OW 8182   0.172   0.301   2.295
 2428SOL    HW1 8183   0.266   0.290   2.328
 2428SOL    HW2 8184   0.167   0.273   2.199
 2429SOL     OW 8185   5.836   5.432   2.770
 2429SOL    HW1 8186   5.788   5.514   2.801
 2429SOL    HW2 8187   5.892   5.396   2.844
 2430SOL     OW 8188   6.247   0.924   1.760
 2430SOL    HW1 8189   6.306   0.902   1.838
 2430SOL    HW2 8190   6.236   0.843   1.703
 2431SOL     OW 8191   3.772   0.600   2.129
 2431SOL    HW1 8192   3.728   0.572   2.044
 2431SOL    HW2 8193   3.851   0.657   2.109
 2432SOL     OW 8194   3.926   6.171   2.772
 2432SOL    HW1 8195   3.921   6.258   2.722
 2432SOL    HW2 8196   3.854   6.167   2.840
 2433SOL     OW 8197   3.989   1.537   0.118
 2433SOL    HW1 8198   3.935   1.508   0.196
 2433SOL    HW2 8199   4.060   1.601   0.148
 2434SOL     OW 8200   4.095   1.462   5.771
 2434SOL    HW1 8201   4.078   1.400   5.695
 2434SOL    HW2 8202   4.116   1.409   5.854
 2435SOL     OW 8203   4.831   5.182   5.583
 2435SOL    HW1 8204   4.783   5.191   5.670
 2435SOL    HW2 8205   4.870   5.271   5.558
 2436SOL     OW 8206   1.617   5.007   6.780
 2436SOL    HW1 8207   1.705   5.011   6.827
 2436SOL    HW2 8208   1.603   4.914   6.745
 2437SOL     OW 8209   5.664   6.872   6.610
 2437SOL    HW1 8210   5.582   6.841   6.562
 2437SOL    HW2 8211   5.714   6.792   6.645
 2438SOL     OW 8212   3.254   1.718   0.212
 2438SOL    HW1 8213   3.298   1.802   0.242
 2438SOL    HW2 8214   3.217   1.731   0.120
 2439SOL     OW 8215   0.903   4.574   6.388
 2439SOL    HW1 8216   0.871   4.596   6.480
 2439SOL    HW2 8217   0.825   4.555   6.328
 2440SOL     OW 8218   4.478   5.840   6.022
 2440SOL    HW1 8219   4.439   5.925   6.055
 2440SOL    HW2 8220   4.503   5.850   5.926
 2441SOL     OW 8221   6.852   2.535   6.627
 2441SOL    HW1 8222   6.784   2.490   6.570
 2441SOL    HW2 8223   6.879   2.475   6.702
 2442SOL     OW 8224   1.120   4.087   5.596
 2442SOL    HW1 8225   1.063   4.112   5.518
 2442SOL    HW2 8226   1.161   3.997   5.581
 2443SOL     OW 8227   3.362   5.095   6.633
 2443SOL    HW1 8228   3.384   5.058   6.723
 2443SOL    HW2 8229   3.432   5.065   6.567
 2444SOL     OW 8230   2.813   5.085   6.502
 2444SOL    HW1 8231   2.763   5.158   6.455
 2444SOL    HW2 8232   2.874   5.039   6.438
 2445SOL     OW 8233   0.206   1.121   1.353
 2445SOL    HW1 8234   0.254   1.034   1.363
 2445SOL    HW2 8235   0.232   1.183   1.427
 2446SOL     OW 8236   5.969   3.944   4.151
 2446SOL    HW1 8237   6.011   3.936   4.241
 2446SOL    HW2 8238   5.963   3.853   4.109
 2447SOL     OW 8239   2.191   2.557   6.906
 2447SOL    HW1 8240   2.257   2.526   6.838
 2447SOL    HW2 8241   2.192   2.657   6.911
 2448SOL     OW 8242   0.583   0.456   4.487
 2448SOL    HW1 8243   0.535   0.492   4.407
 2448SOL    HW2 8244   0.682   0.462   4.472
 2449SOL     OW 8245   0.011   3.855   0.312
 2449SOL    HW1 8246   6.992   3.810   0.234
 2449SOL    HW2 8247   0.094   3.903   0.282
 2450SOL     OW 8248   2.608   4.560   3.248
 2450SOL    HW1 8249   2.626   4.519   3.159
 2450SOL    HW2 8250   2.652   4.650   3.253
 2451SOL     OW 8251   2.111   6.420   3.997
 2451SOL    HW1 8252   2.178   6.459   3.933
 2451SOL    HW2 8253   2.142   6.436   4.091
 2452SOL     OW 8254   1.584   3.586   3.099
 2452SOL    HW1 8255   1.666   3.594   3.043
 2452SOL    HW2 8256   1.553   3.491   3.100
 2453SOL     OW 8257   6.451   4.593   1.408
 2453SOL    HW1 8258   6.452   4.597   1.508
 2453SOL    HW2 8259   6.505   4.516   1.377
 2454SOL     OW 8260   3.233   0.508   2.700
 2454SOL    HW1 8261   3.178   0.458   2.767
 2454SOL    HW2 8262   3.202   0.603   2.697
 2455SOL     OW 8263   5.170   5.300   0.567
 2455SOL    HW1 8264   5.143   5.233   0.498
 2455SOL    HW2 8265   5.214   5.253   0.643
 2456SOL     OW 8266   5.078   6.334   1.908
 2456SOL    HW1 8267   5.121   6.414   1.949
 2456SOL    HW2 8268   5.039   6.358   1.819
 2457SOL     OW 8269   6.266   0.192   0.670
 2457SOL    HW1 8270   6.201   0.239   0.729
 2457SOL    HW2 8271   6.232   0.100   0.650
 2458SOL     OW 8272   2.366   6.131   3.292
 2458SOL    HW1 8273   2.343   6.228   3.286
 2458SOL    HW2 8274   2.453   6.120   3.340
 2459SOL     OW 8275   1.948   0.165   0.388
 2459SOL    HW1 8276   2.013   0.135   0.458
 2459SOL    HW2 8277   1.899   0.246   0.420
 2460SOL     OW 8278   2.629   5.967   2.359
 2460SOL    HW1 8279   2.538   5.988   2.325
 2460SOL    HW2 8280   2.622   5.920   2.447
 2461SOL     OW 8281   5.682   0.041   1.899
 2461SOL    HW1 8282   5.696   7.000   1.824
 2461SOL    HW2 8283   5.748   0.116   1.891
 2462SOL     OW 8284   2.147   5.073   0.028
 2462SOL    HW1 8285   2.209   4.995   0.034
 2462SOL    HW2 8286   2.133   5.099   6.956
 2463SOL     OW 8287   6.474   1.709   3.270
 2463SOL    HW1 8288   6.547   1.716   3.338
 2463SOL    HW2 8289   6.491   1.631   3.210
 2464SOL     OW 8290   0.916   3.594   1.208
 2464SOL    HW1 8291   0.954   3.510   1.245
 2464SOL    HW2 8292   0.817   3.584   1.198
 2465SOL     OW 8293   0.536   5.681   2.518
 2465SOL    HW1 8294   0.555   5.642   2.428
 2465SOL    HW2 8295   0.469   5.754   2.509
 2466SOL     OW 8296   4.079   2.009   2.810
 2466SOL    HW1 8297   4.076   1.941   2.882
 2466SOL    HW2 8298   3.997   2.066   2.814
 2467SOL     OW 8299   0.152   0.856   5.875
 2467SOL    HW1 8300   0.157   0.766   5.831
 2467SOL    HW2 8301   0.089   0.852   5.953
 2468SOL     OW 8302   0.066   6.299   1.626
 2468SOL    HW1 8303   0.099   6.346   1.707
 2468SOL    HW2 8304   0.033   6.208   1.651
 2469SOL     OW 8305   2.916   3.902   5.165
 2469SOL    HW1 8306   2.955   3.990   5.191
 2469SOL    HW2 8307   2.982   3.829   5.182
 2470SOL     OW 8308   3.511   3.760   6.518
 2470SOL    HW1 8309   3.516   3.811   6.431
 2470SOL    HW2 8310   3.592   3.703   6.528
 2471SOL     OW 8311   0.426   6.573   2.588
 2471SOL    HW1 8312   0.373   6.505   2.536
 2471SOL    HW2 8313   0.405   6.564   2.685
 2472SOL     OW 8314   5.428   2.899   4.334
 2472SOL    HW1 8315   5.491   2.825   4.310
 2472SOL    HW2 8316   5.464   2.950   4.412
 2473SOL     OW 8317   0.539   5.860   4.255
 2473SOL    HW1 8318   0.441   5.868   4.237
 2473SOL    HW2 8319   0.590   5.867   4.169
 2474SOL     OW 8320   7.018   5.195   5.259
 2474SOL    HW1 8321   0.016   5.282   5.215
 2474SOL    HW2 8322   7.009   5.123   5.191
 2475SOL     OW 8323   4.309   2.413   0.450
 2475SOL    HW1 8324   4.230   2.352   0.454
 2475SOL    HW2 8325   4.365   2.389   0.371
 2476SOL     OW 8326   0.851   1.700   3.319
 2476SOL    HW1 8327   0.850   1.719   3.221
 2476SOL    HW2 8328   0.932   1.740   3.361
 2477SOL     OW 8329   5.410   5.506   1.385
 2477SOL    HW1 8330   5.319   5.509   1.343
 2477SOL    HW2 8331   5.451   5.417   1.369
 2478SOL     OW 8332   5.992   6.414   2.450
 2478SOL    HW1 8333   5.960   6.367   2.367
 2478SOL    HW2 8334   6.082   6.455   2.432
 2479SOL     OW 8335   0.336   2.333   0.763
 2479SOL    HW1 8336   0.318   2.236   0.780
 2479SOL    HW2 8337   0.402   2.342   0.689
 2480SOL     OW 8338   6.653   3.873   1.333
 2480SOL    HW1 8339   6.738   3.827   1.310
 2480SOL    HW2 8340   6.608   3.903   1.249
 2481SOL     OW 8341   4.027   5.467   2.213
 2481SOL    HW1 8342   4.090   5.392   2.190
 2481SOL    HW2 8343   3.938   5.448   2.173
 2482SOL     OW 8344   5.444   3.210   5.150
 2482SOL    HW1 8345   5.430   3.123   5.104
 2482SOL    HW2 8346   5.356   3.252   5.172
 2483SOL     OW 8347   1.128   1.384   0.070
 2483SOL    HW1 8348   1.176   1.334   7.021
 2483SOL    HW2 8349   1.188   1.454   0.108
 2484SOL     OW 8350   3.441   1.173   0.472
 2484SOL    HW1 8351   3.519   1.119   0.442
 2484SOL    HW2 8352   3.426   1.249   0.408
 2485SOL     OW 8353   0.329   5.415   2.593
 2485SOL    HW1 8354   0.424   5.428   2.567
 2485SOL    HW2 8355   0.287   5.504   2.612
 2486SOL     OW 8356   1.802   5.478   2.737
 2486SOL    HW1 8357   1.738   5.553   2.723
 2486SOL    HW2 8358   1.889   5.513   2.771
 2487SOL     OW 8359   4.243   0.304   1.123
 2487SOL    HW1 8360   4.313   0.314   1.052
 2487SOL    HW2 8361   4.272   0.234   1.188
 2488SOL     OW 8362   2.625   5.129   1.744
 2488SOL    HW1 8363   2.676   5.206   1.780
 2488SOL    HW2 8364   2.593   5.072   1.819
 2489SOL     OW 8365   1.701   5.908   4.929
 2489SOL    HW1 8366   1.668   5.823   4.970
 2489SOL    HW2 8367   1.643   5.932   4.851
 2490SOL     OW 8368   6.219   3.945   0.717
 2490SOL    HW1 8369   6.179   3.889   0.790
 2490SOL    HW2 8370   6.282   3.889   0.663
 2491SOL     OW 8371   2.860   5.244   3.143
 2491SOL    HW1 8372   2.933   5.313   3.146
 2491SOL    HW2 8373   2.813   5.250   3.055
 2492SOL     OW 8374   4.733   2.993   6.450
 2492SOL    HW1 8375   4.813   2.937   6.427
 2492SOL    HW2 8376   4.714   2.984   6.547
 2493SOL     OW 8377   5.852   1.687   3.020
 2493SOL    HW1 8378   5.826   1.599   3.057
 2493SOL    HW2 8379   5.774   1.728   2.972
 2494SOL     OW 8380   4.717   2.846   2.414
 2494SOL    HW1 8381   4.622   2.867   2.396
 2494SOL    HW2 8382   4.756   2.796   2.337
 2495SOL     OW 8383   5.335   0.928   4.979
 2495SOL    HW1 8384   5.419   0.980   4.990
 2495SOL    HW2 8385   5.345   0.840   5.026
 2496SOL     OW 8386   1.043   6.032   6.944
 2496SOL    HW1 8387   1.074   6.085   7.022
 2496SOL    HW2 8388   0.957   5.986   6.967
 2497SOL     OW 8389   6.558   1.444   6.806
 2497SOL    HW1 8390   6.614   1.501   6.864
 2497SOL    HW2 8391   6.588   1.349   6.813
 2498SOL     OW 8392   1.924   2.839   4.623
 2498SOL    HW1 8393   1.893   2.843   4.718
 2498SOL    HW2 8394   1.990   2.911   4.606
 2499SOL     OW 8395   5.142   0.628   4.500
 2499SOL    HW1 8396   5.130   0.727   4.489
 2499SOL    HW2 8397   5.175   0.609   4.592
 2500SOL     OW 8398   4.480   3.025   6.273
 2500SOL    HW1 8399   4.575   3.025   6.305
 2500SOL    HW2 8400   4.424   3.077   6.338
 2501SOL     OW 8401   6.504   4.567   7.016
 2501SOL    HW1 8402   6.427   4.509   6.987
 2501SOL    HW2 8403   6.534   4.623   6.939
 2502SOL     OW 8404   2.394   7.018   2.780
 2502SOL    HW1 8405   2.392   6.988   2.685
 2502SOL    HW2 8406   2.480   6.991   2.823
 2503SOL     OW 8407   4.112   5.109   5.696
 2503SOL    HW1 8408   4.165   5.061   5.627
 2503SOL    HW2 8409   4.084   5.044   5.767
 2504SOL     OW 8410   1.738   4.722   4.327
 2504SOL    HW1 8411   1.771   4.628   4.318
 2504SOL    HW2 8412   1.672   4.727   4.402
 2505SOL     OW 8413   4.294   5.108   4.439
 2505SOL    HW1 8414   4.199   5.132   4.460
 2505SOL    HW2 8415   4.355   5.168   4.490
 2506SOL     OW 8416   6.742   2.555   6.363
 2506SOL    HW1 8417   6.713   2.592   6.275
 2506SOL    HW2 8418   6.826   2.503   6.352
 2507SOL     OW 8419   6.374   5.914   0.579
 2507SOL    HW1 8420   6.323   5.846   0.630
 2507SOL    HW2 8421   6.449   5.949   0.636
 2508SOL     OW 8422   2.660   2.220   2.328
 2508SOL    HW1 8423   2.622   2.130   2.308
 2508SOL    HW2 8424   2.760   2.216   2.321
 2509SOL     OW 8425   5.118   2.810   3.616
 2509SOL    HW1 8426   5.217   2.827   3.614
 2509SOL    HW2 8427   5.085   2.816   3.710
 2510SOL     OW 8428   3.809   5.354   0.827
 2510SOL    HW1 8429   3.743   5.295   0.780
 2510SOL    HW2 8430   3.845   5.308   0.907
 2511SOL     OW 8431   0.568   0.740   5.134
 2511SOL    HW1 8432   0.514   0.780   5.060
 2511SOL    HW2 8433   0.665   0.749   5.112
 2512SOL     OW 8434   5.163   3.762   4.745
 2512SOL    HW1 8435   5.201   3.684   4.795
 2512SOL    HW2 8436   5.175   3.747   4.647
 2513SOL     OW 8437   0.791   2.857   0.160
 2513SOL    HW1 8438   0.854   2.925   0.197
 2513SOL    HW2 8439   0.798   2.772   0.213
 2514SOL     OW 8440   1.499   1.179   4.171
 2514SOL    HW1 8441   1.543   1.190   4.260
 2514SOL    HW2 8442   1.519   1.257   4.113
 2515SOL     OW 8443   0.832   5.697   0.871
 2515SOL    HW1 8444   0.823   5.793   0.899
 2515SOL    HW2 8445   0.911   5.687   0.811
 2516SOL     OW 8446   5.476   6.126   3.597
 2516SOL    HW1 8447   5.524   6.123   3.685
 2516SOL    HW2 8448   5.378   6.118   3.613
 2517SOL     OW 8449   2.165   4.405   0.133
 2517SOL    HW1 8450   2.124   4.379   0.045
 2517SOL    HW2 8451   2.095   4.446   0.192
 2518SOL     OW 8452   2.355   2.754   6.511
 2518SOL    HW1 8453   2.289   2.758   6.436
 2518SOL    HW2 8454   2.364   2.845   6.552
 2519SOL     OW 8455   4.625   4.915   4.962
 2519SOL    HW1 8456   4.657   4.852   5.033
 2519SOL    HW2 8457   4.653   4.881   4.872
 2520SOL     OW 8458   2.547   4.076   1.711
 2520SOL    HW1 8459   2.626   4.015   1.708
 2520SOL    HW2 8460   2.535   4.120   1.622
 2521SOL     OW 8461   5.805   0.322   5.291
 2521SOL    HW1 8462   5.885   0.264   5.278
 2521SOL    HW2 8463   5.805   0.361   5.383
 2522SOL     OW 8464   0.582   3.136   4.560
 2522SOL    HW1 8465   0.553   3.059   4.616
 2522SOL    HW2 8466   0.682   3.137   4.554
 2523SOL     OW 8467   0.695   3.577   0.083
 2523SOL    HW1 8468   0.741   3.489   0.098
 2523SOL    HW2 8469   0.739   3.648   0.137
 2524SOL     OW 8470   1.667   6.438   3.961
 2524SOL    HW1 8471   1.681   6.362   3.897
 2524SOL    HW2 8472   1.741   6.505   3.950
 2525SOL     OW 8473   1.337   3.576   3.897
 2525SOL    HW1 8474   1.276   3.569   3.976
 2525SOL    HW2 8475   1.347   3.485   3.855
 2526SOL     OW 8476   0.097   1.296   3.995
 2526SOL    HW1 8477   0.026   1.344   3.944
 2526SOL    HW2 8478   0.076   1.298   4.093
 2527SOL     OW 8479   5.610   6.615   3.929
 2527SOL    HW1 8480   5.622   6.517   3.914
 2527SOL    HW2 8481   5.516   6.641   3.910
 2528SOL     OW 8482   6.260   5.989   0.243
 2528SOL    HW1 8483   6.238   6.055   0.315
 2528SOL    HW2 8484   6.337   5.933   0.272
 2529SOL     OW 8485   5.181   4.292   4.148
 2529SOL    HW1 8486   5.101   4.341   4.183
 2529SOL    HW2 8487   5.264   4.334   4.186
 2530SOL     OW 8488   1.242   0.808   3.619
 2530SOL    HW1 8489   1.143   0.806   3.606
 2530SOL    HW2 8490   1.283   0.730   3.572
 2531SOL     OW 8491   3.934   1.203   6.452
 2531SOL    HW1 8492   3.895   1.240   6.368
 2531SOL    HW2 8493   4.006   1.264   6.486
 2532SOL     OW 8494   1.212   4.728   6.741
 2532SOL    HW1 8495   1.167   4.639   6.743
 2532SOL    HW2 8496   1.284   4.728   6.671
 2533SOL     OW 8497   5.878   6.610   6.219
 2533SOL    HW1 8498   5.940   6.531   6.221
 2533SOL    HW2 8499   5.931   6.694   6.213
 2534SOL     OW 8500   1.176   1.148   2.959
 2534SOL    HW1 8501   1.115   1.079   2.998
 2534SOL    HW2 8502   1.263   1.106   2.934
 2535SOL     OW 8503   2.338   1.258   3.858
 2535SOL    HW1 8504   2.393   1.283   3.778
 2535SOL    HW2 8505   2.363   1.166   3.888
 2536SOL     OW 8506   5.980   0.973   3.749
 2536SOL    HW1 8507   5.926   0.895   3.717
 2536SOL    HW2 8508   5.919   1.046   3.779
 2537SOL     OW 8509   5.088   5.424   1.548
 2537SOL    HW1 8510   5.154   5.395   1.618
 2537SOL    HW2 8511   5.136   5.471   1.474
 2538SOL     OW 8512   2.092   4.775   4.500
 2538SOL    HW1 8513   2.187   4.790   4.528
 2538SOL    HW2 8514   2.062   4.851   4.443
 2539SOL     OW 8515   3.847   6.661   5.689
 2539SOL    HW1 8516   3.838   6.631   5.784
 2539SOL    HW2 8517   3.795   6.600   5.630
 2540SOL     OW 8518   5.588   1.493   1.935
 2540SOL    HW1 8519   5.658   1.553   1.897
 2540SOL    HW2 8520   5.503   1.504   1.882
 2541SOL     OW 8521   1.166   6.347   6.587
 2541SOL    HW1 8522   1.257   6.375   6.557
 2541SOL    HW2 8523   1.104   6.346   6.508
 2542SOL     OW 8524   3.304   1.809   4.789
 2542SOL    HW1 8525   3.265   1.862   4.864
 2542SOL    HW2 8526   3.403   1.819   4.789
 2543SOL     OW 8527   0.990   1.458   3.160
 2543SOL    HW1 8528   0.966   1.482   3.066
 2543SOL    HW2 8529   0.915   1.485   3.221
 2544SOL     OW 8530   6.556   5.253   1.464
 2544SOL    HW1 8531   6.457   5.264   1.476
 2544SOL    HW2 8532   6.599   5.240   1.553
 2545SOL     OW 8533   0.494   1.991   1.330
 2545SOL    HW1 8534   0.489   2.076   1.384
 2545SOL    HW2 8535   0.431   1.997   1.253
 2546SOL     OW 8536   6.918   4.024   1.652
 2546SOL    HW1 8537   6.871   4.096   1.702
 2546SOL    HW2 8538   6.966   3.964   1.717
 2547SOL     OW 8539   5.491   3.508   0.212
 2547SOL    HW1 8540   5.398   3.541   0.229
 2547SOL    HW2 8541   5.535   3.487   0.299
 2548SOL     OW 8542   6.890   6.915   5.256
 2548SOL    HW1 8543   6.944   6.933   5.174
 2548SOL    HW2 8544   6.947   6.927   5.337
 2549SOL     OW 8545   2.705   2.418   0.793
 2549SOL    HW1 8546   2.731   2.511   0.820
 2549SOL    HW2 8547   2.607   2.405   0.809
 2550SOL     OW 8548   4.434   6.767   6.532
 2550SOL    HW1 8549   4.433   6.756   6.433
 2550SOL    HW2 8550   4.450   6.862   6.556
 2551SOL     OW 8551   3.027   5.888   0.169
 2551SOL    HW1 8552   3.072   5.968   0.130
 2551SOL    HW2 8553   2.936   5.914   0.203
 2552SOL     OW 8554   1.972   5.890   0.806
 2552SOL    HW1 8555   2.011   5.801   0.832
 2552SOL    HW2 8556   2.011   5.919   0.719
 2553SOL     OW 8557   4.393   1.463   6.821
 2553SOL    HW1 8558   4.296   1.471   6.801
 2553SOL    HW2 8559   4.413   1.372   6.856
 2554SOL     OW 8560   1.659   5.611   1.523
 2554SOL    HW1 8561   1.587   5.678   1.507
 2554SOL    HW2 8562   1.659   5.584   1.620
 2555SOL     OW 8563   5.726   6.137   5.274
 2555SOL    HW1 8564   5.675   6.112   5.192
 2555SOL    HW2 8565   5.821   6.156   5.251
 2556SOL     OW 8566   4.189   6.769   1.690
 2556SOL    HW1 8567   4.250   6.846   1.709
 2556SOL    HW2 8568   4.095   6.803   1.681
 2557SOL     OW 8569   4.075   6.843   6.968
 2557SOL    HW1 8570   4.003   6.911   6.957
 2557SOL    HW2 8571   4.063   6.796   0.032
 2558SOL     OW 8572   5.869   4.123   6.387
 2558SOL    HW1 8573   5.820   4.182   6.323
 2558SOL    HW2 8574   5.817   4.038   6.400
 2559SOL     OW 8575   1.223   4.426   4.024
 2559SOL    HW1 8576   1.147   4.362   4.033
 2559SOL    HW2 8577   1.283   4.396   3.950
 2560SOL     OW 8578   4.952   1.976   3.554
 2560SOL    HW1 8579   4.930   1.973   3.457
 2560SOL    HW2 8580   4.987   2.067   3.577
 2561SOL     OW 8581   3.261   0.550   4.635
 2561SOL    HW1 8582   3.198   0.534   4.559
 2561SOL    HW2 8583   3.344   0.594   4.601
 2562SOL     OW 8584   3.388   0.296   3.593
 2562SOL    HW1 8585   3.312   0.288   3.529
 2562SOL    HW2 8586   3.364   0.358   3.667
 2563SOL     OW 8587   3.698   1.089   0.379
 2563SOL    HW1 8588   3.768   1.124   0.442
 2563SOL    HW2 8589   3.693   0.990   0.386
 2564SOL     OW 8590   1.720   1.647   0.361
 2564SOL    HW1 8591   1.807   1.653   0.410
 2564SOL    HW2 8592   1.727   1.574   0.292
 2565SOL     OW 8593   1.300   2.324   6.550
 2565SOL    HW1 8594   1.374   2.259   6.569
 2565SOL    HW2 8595   1.339   2.416   6.538
 2566SOL     OW 8596   2.524   0.728   0.932
 2566SOL    HW1 8597   2.602   0.778   0.894
 2566SOL    HW2 8598   2.479   0.676   0.859
 2567SOL     OW 8599   1.139   0.078   0.196
 2567SOL    HW1 8600   1.049   0.120   0.195
 2567SOL    HW2 8601   1.209   0.147   0.213
 2568SOL     OW 8602   2.933   6.419   1.417
 2568SOL    HW1 8603   2.840   6.384   1.421
 2568SOL    HW2 8604   2.997   6.347   1.446
 2569SOL     OW 8605   0.610   1.111   1.601
 2569SOL    HW1 8606   0.566   1.129   1.513
 2569SOL    HW2 8607   0.705   1.086   1.586
 2570SOL     OW 8608   5.465   6.304   6.637
 2570SOL    HW1 8609   5.440   6.211   6.613
 2570SOL    HW2 8610   5.468   6.313   6.737
 2571SOL     OW 8611   3.608   3.405   4.641
 2571SOL    HW1 8612   3.690   3.402   4.585
 2571SOL    HW2 8613   3.632   3.386   4.736
 2572SOL     OW 8614   2.050   6.291   1.475
 2572SOL    HW1 8615   2.078   6.386   1.461
 2572SOL    HW2 8616   2.062   6.266   1.571
 2573SOL     OW 8617   6.722   2.191   3.866
 2573SOL    HW1 8618   6.762   2.282   3.879
 2573SOL    HW2 8619   6.642   2.198   3.807
 2574SOL     OW 8620   0.279   3.859   1.348
 2574SOL    HW1 8621   0.227   3.916   1.285
 2574SOL    HW2 8622   0.321   3.783   1.298
 2575SOL     OW 8623   5.718   3.981   0.294
 2575SOL    HW1 8624   5.776   4.058   0.319
 2575SOL    HW2 8625   5.767   3.896   0.311
 2576SOL     OW 8626   2.418   6.950   3.141
 2576SOL    HW1 8627   2.339   6.927   3.085
 2576SOL    HW2 8628   2.497   6.897   3.110
 2577SOL     OW 8629   2.594   6.805   2.660
 2577SOL    HW1 8630   2.528   6.862   2.610
 2577SOL    HW2 8631   2.661   6.863   2.706
 2578SOL     OW 8632   5.429   2.990   4.838
 2578SOL    HW1 8633   5.405   2.990   4.741
 2578SOL    HW2 8634   5.504   2.926   4.854
 2579SOL     OW 8635   0.417   2.493   6.957
 2579SOL    HW1 8636   0.395   2.451   6.869
 2579SOL    HW2 8637   0.334   2.527   7.001
 2580SOL     OW 8638   1.584   2.756   6.678
 2580SOL    HW1 8639   1.595   2.778   6.775
 2580SOL    HW2 8640   1.558   2.838   6.628
 2581SOL     OW 8641   5.944   6.046   2.834
 2581SOL    HW1 8642   6.025   5.990   2.850
 2581SOL    HW2 8643   5.895   6.058   2.921
 2582SOL     OW 8644   0.821   5.380   2.384
 2582SOL    HW1 8645   0.903   5.329   2.358
 2582SOL    HW2 8646   0.848   5.469   2.421
 2583SOL     OW 8647   1.146   0.108   0.488
 2583SOL    HW1 8648   1.204   0.054   0.549
 2583SOL    HW2 8649   1.149   0.070   0.396
 2584SOL     OW 8650   3.821   6.034   1.221
 2584SOL    HW1 8651   3.853   6.037   1.127
 2584SOL    HW2 8652   3.722   6.047   1.223
 2585SOL     OW 8653   3.485   0.286   1.199
 2585SOL    HW1 8654   3.460   0.360   1.136
 2585SOL    HW2 8655   3.565   0.313   1.252
 2586SOL     OW 8656   6.222   2.132   3.836
 2586SOL    HW1 8657   6.182   2.064   3.897
 2586SOL    HW2 8658   6.155   2.158   3.766
 2587SOL     OW 8659   6.024   6.284   4.086
 2587SOL    HW1 8660   6.109   6.236   4.106
 2587SOL    HW2 8661   5.947   6.236   4.128
 2588SOL     OW 8662   5.420   0.181   1.787
 2588SOL    HW1 8663   5.456   0.127   1.863
 2588SOL    HW2 8664   5.419   0.125   1.704
 2589SOL     OW 8665   6.554   6.359   5.543
 2589SOL    HW1 8666   6.571   6.386   5.637
 2589SOL    HW2 8667   6.456   6.343   5.531
 2590SOL     OW 8668   4.755   6.660   3.296
 2590SOL    HW1 8669   4.661   6.648   3.263
 2590SOL    HW2 8670   4.815   6.592   3.253
 2591SOL     OW 8671   5.092   6.067   1.969
 2591SOL    HW1 8672   5.085   6.166   1.959
 2591SOL    HW2 8673   5.002   6.029   1.989
 2592SOL     OW 8674   3.333   5.607   1.870
 2592SOL    HW1 8675   3.258   5.628   1.807
 2592SOL    HW2 8676   3.322   5.515   1.907
 2593SOL     OW 8677   3.451   6.508   2.531
 2593SOL    HW1 8678   3.460   6.578   2.460
 2593SOL    HW2 8679   3.424   6.422   2.490
 2594SOL     OW 8680   0.231   6.676   6.645
 2594SOL    HW1 8681   0.154   6.684   6.709
 2594SOL    HW2 8682   0.311   6.722   6.684
 2595SOL     OW 8683   6.237   3.125   4.612
 2595SOL    HW1 8684   6.231   3.185   4.532
 2595SOL    HW2 8685   6.332   3.121   4.643
 2596SOL     OW 8686   3.967   2.174   1.909
 2596SOL    HW1 8687   4.011   2.173   1.999
 2596SOL    HW2 8688   3.875   2.211   1.917
 2597SOL     OW 8689   2.332   3.765   0.627
 2597SOL    HW1 8690   2.347   3.833   0.555
 2597SOL    HW2 8691   2.371   3.799   0.713
 2598SOL     OW 8692   6.706   3.099   3.574
 2598SOL    HW1 8693   6.786   3.071   3.521
 2598SOL    HW2 8694   6.647   3.157   3.517
 2599SOL     OW 8695   3.814   5.540   0.368
 2599SOL    HW1 8696   3.899   5.534   0.420
 2599SOL    HW2 8697   3.835   5.563   0.273
 2600SOL     OW 8698   5.962   3.545   3.215
 2600SOL    HW1 8699   6.020   3.493   3.153
 2600SOL    HW2 8700   6.010   3.559   3.301
 2601SOL     OW 8701   3.752   3.791   6.237
 2601SOL    HW1 8702   3.852   3.790   6.234
 2601SOL    HW2 8703   3.717   3.698   6.222
 2602SOL     OW 8704   6.669   5.006   4.160
 2602SOL    HW1 8705   6.725   5.089   4.150
 2602SOL    HW2 8706   6.698   4.956   4.242
 2603SOL     OW 8707   3.099   2.030   1.383
 2603SOL    HW1 8708   3.160   1.956   1.413
 2603SOL    HW2 8709   3.005   2.009   1.410
 2604SOL     OW 8710   5.434   0.782   1.416
 2604SOL    HW1 8711   5.375   0.771   1.496
 2604SOL    HW2 8712   5.509   0.716   1.421
 2605SOL     OW 8713   4.209   4.740   4.695
 2605SOL    HW1 8714   4.209   4.804   4.772
 2605SOL    HW2 8715   4.118   4.700   4.684
 2606SOL     OW 8716   6.480   4.218   0.654
 2606SOL    HW1 8717   6.412   4.246   0.587
 2606SOL    HW2 8718   6.567   4.200   0.608
 2607SOL     OW 8719   1.078   0.499   3.097
 2607SOL    HW1 8720   1.115   0.583   3.137
 2607SOL    HW2 8721   1.136   0.471   3.021
 2608SOL     OW 8722   5.277   0.726   1.632
 2608SOL    HW1 8723   5.196   0.672   1.654
 2608SOL    HW2 8724   5.295   0.791   1.706
 2609SOL     OW 8725   0.750   2.306   2.728
 2609SOL    HW1 8726   0.764   2.343   2.636
 2609SOL    HW2 8727   0.816   2.233   2.745
 2610SOL     OW 8728   6.279   5.640   5.051
 2610SOL    HW1 8729   6.346   5.638   5.125
 2610SOL    HW2 8730   6.265   5.547   5.016
 2611SOL     OW 8731   5.332   6.361   1.332
 2611SOL    HW1 8732   5.350   6.441   1.388
 2611SOL    HW2 8733   5.264   6.303   1.376
 2612SOL     OW 8734   5.286   6.559   3.675
 2612SOL    HW1 8735   5.317   6.565   3.580
 2612SOL    HW2 8736   5.276   6.463   3.701
 2613SOL     OW 8737   3.618   0.571   2.335
 2613SOL    HW1 8738   3.667   0.529   2.411
 2613SOL    HW2 8739   3.678   0.573   2.254
 2614SOL     OW 8740   6.245   6.639   5.857
 2614SOL    HW1 8741   6.281   6.689   5.936
 2614SOL    HW2 8742   6.229   6.703   5.782
 2615SOL     OW 8743   5.126   4.578   2.599
 2615SOL    HW1 8744   5.033   4.604   2.625
 2615SOL    HW2 8745   5.123   4.505   2.531
 2616SOL     OW 8746   3.956   3.033   3.034
 2616SOL    HW1 8747   3.998   3.077   3.114
 2616SOL    HW2 8748   3.956   2.934   3.046
 2617SOL     OW 8749   3.556   6.091   0.964
 2617SOL    HW1 8750   3.468   6.133   0.942
 2617SOL    HW2 8751   3.566   6.084   1.064
 2618SOL     OW 8752   0.140   0.513   1.006
 2618SOL    HW1 8753   0.135   0.611   1.024
 2618SOL    HW2 8754   0.183   0.467   1.083
 2619SOL     OW 8755   4.331   1.971   2.287
 2619SOL    HW1 8756   4.426   1.999   2.270
 2619SOL    HW2 8757   4.323   1.872   2.275
 2620SOL     OW 8758   1.017   4.831   3.655
 2620SOL    HW1 8759   1.103   4.855   3.610
 2620SOL    HW2 8760   1.022   4.736   3.686
 2621SOL     OW 8761   0.868   6.007   3.938
 2621SOL    HW1 8762   0.889   6.101   3.910
 2621SOL    HW2 8763   0.849   6.005   4.036
 2622SOL     OW 8764   2.354   3.028   6.626
 2622SOL    HW1 8765   2.359   3.106   6.689
 2622SOL    HW2 8766   2.341   3.061   6.533
 2623SOL     OW 8767   3.662   1.066   5.660
 2623SOL    HW1 8768   3.642   1.111   5.748
 2623SOL    HW2 8769   3.667   1.134   5.588
 2624SOL     OW 8770   5.808   2.695   3.180
 2624SOL    HW1 8771   5.816   2.695   3.080
 2624SOL    HW2 8772   5.714   2.672   3.206
 2625SOL     OW 8773   2.648   2.639   5.564
 2625SOL    HW1 8774   2.736   2.686   5.570
 2625SOL    HW2 8775   2.642   2.590   5.477
 2626SOL     OW 8776   2.003   6.708   3.125
 2626SOL    HW1 8777   2.043   6.781   3.070
 2626SOL    HW2 8778   1.907   6.729   3.144
 2627SOL     OW 8779   0.280   0.248   4.479
 2627SOL    HW1 8780   0.303   0.263   4.575
 2627SOL    HW2 8781   0.226   0.325   4.445
 2628SOL     OW 8782   3.734   6.637   0.080
 2628SOL    HW1 8783   3.811   6.683   0.124
 2628SOL    HW2 8784   3.765   6.590   7.022
 2629SOL     OW 8785   3.764   4.064   1.542
 2629SOL    HW1 8786   3.698   4.073   1.468
 2629SOL    HW2 8787   3.742   3.983   1.597
 2630SOL     OW 8788   3.664   1.604   1.947
 2630SOL    HW1 8789   3.656   1.599   2.046
 2630SOL    HW2 8790   3.611   1.682   1.913
 2631SOL     OW 8791   4.613   6.440   4.191
 2631SOL    HW1 8792   4.694   6.475   4.237
 2631SOL    HW2 8793   4.600   6.343   4.214
 2632SOL     OW 8794   3.441   1.564   7.009
 2632SOL    HW1 8795   3.520   1.608   0.027
 2632SOL    HW2 8796   3.368   1.555   0.053
 2633SOL     OW 8797   5.978   2.491   6.487
 2633SOL    HW1 8798   5.991   2.576   6.538
 2633SOL    HW2 8799   6.064   2.465   6.443
 2634SOL     OW 8800   1.491   4.063   1.331
 2634SOL    HW1 8801   1.534   4.030   1.415
 2634SOL    HW2 8802   1.531   4.150   1.304
 2635SOL     OW 8803   5.474   5.163   4.274
 2635SOL    HW1 8804   5.484   5.113   4.188
 2635SOL    HW2 8805   5.548   5.136   4.336
 2636SOL     OW 8806   5.250   0.244   6.146
 2636SOL    HW1 8807   5.258   0.284   6.055
 2636SOL    HW2 8808   5.256   0.144   6.139
 2637SOL     OW 8809   5.385   6.493   3.442
 2637SOL    HW1 8810   5.300   6.442   3.427
 2637SOL    HW2 8811   5.436   6.499   3.356
 2638SOL     OW 8812   5.467   6.204   0.746
 2638SOL    HW1 8813   5.394   6.194   0.813
 2638SOL    HW2 8814   5.429   6.227   0.657
 2639SOL     OW 8815   5.733   6.540   1.132
 2639SOL    HW1 8816   5.706   6.459   1.184
 2639SOL    HW2 8817   5.825   6.568   1.160
 2640SOL     OW 8818   0.031   6.223   5.169
 2640SOL    HW1 8819   0.040   6.154   5.097
 2640SOL    HW2 8820   0.098   6.206   5.240
 2641SOL     OW 8821   4.903   3.876   6.383
 2641SOL    HW1 8822   4.971   3.933   6.428
 2641SOL    HW2 8823   4.869   3.923   6.301
 2642SOL     OW 8824   4.712   0.310   4.192
 2642SOL    HW1 8825   4.701   0.228   4.247
 2642SOL    HW2 8826   4.623   0.354   4.179
 2643SOL     OW 8827   0.142   6.661   3.502
 2643SOL    HW1 8828   0.097   6.664   3.413
 2643SOL    HW2 8829   0.099   6.728   3.563
 2644SOL     OW 8830   0.828   5.134   5.760
 2644SOL    HW1 8831   0.842   5.068   5.834
 2644SOL    HW2 8832   0.730   5.153   5.750
 2645SOL     OW 8833   5.513   6.404   5.867
 2645SOL    HW1 8834   5.488   6.330   5.929
 2645SOL    HW2 8835   5.527   6.488   5.919
 2646SOL     OW 8836   0.060   0.090   6.662
 2646SOL    HW1 8837   0.062   0.189   6.651
 2646SOL    HW2 8838   0.153   0.057   6.680
 2647SOL     OW 8839   4.258   1.732   1.056
 2647SOL    HW1 8840   4.254   1.696   0.963
 2647SOL    HW2 8841   4.239   1.830   1.056
 2648SOL     OW 8842   5.954   0.068   2.344
 2648SOL    HW1 8843   6.046   0.049   2.308
 2648SOL    HW2 8844   5.886   0.027   2.284
 2649SOL     OW 8845   3.335   1.442   6.232
 2649SOL    HW1 8846   3.267   1.476   6.297
 2649SOL    HW2 8847   3.294   1.371   6.175
 2650SOL     OW 8848   0.309   5.193   3.421
 2650SOL    HW1 8849   0.225   5.143   3.402
 2650SOL    HW2 8850   0.297   5.251   3.502
 2651SOL     OW 8851   0.059   1.234   1.815
 2651SOL    HW1 8852   0.044   1.146   1.860
 2651SOL    HW2 8853   0.086   1.220   1.720
 2652SOL     OW 8854   2.903   3.300   2.966
 2652SOL    HW1 8855   2.921   3.249   2.882
 2652SOL    HW2 8856   2.875   3.393   2.943
 2653SOL     OW 8857   5.745   6.917   6.179
 2653SOL    HW1 8858   5.718   6.983   6.109
 2653SOL    HW2 8859   5.697   6.830   6.162
 2654SOL     OW 8860   5.135   1.658   6.226
 2654SOL    HW1 8861   5.199   1.640   6.301
 2654SOL    HW2 8862   5.187   1.666   6.141
 2655SOL     OW 8863   4.070   6.061   4.755
 2655SOL    HW1 8864   4.163   6.059   4.718
 2655SOL    HW2 8865   4.072   6.104   4.846
 2656SOL     OW 8866   5.373   3.745   3.397
 2656SOL    HW1 8867   5.306   3.819   3.392
 2656SOL    HW2 8868   5.463   3.778   3.367
 2657SOL     OW 8869   1.808   4.268   6.707
 2657SOL    HW1 8870   1.722   4.287   6.755
 2657SOL    HW2 8871   1.810   4.172   6.678
 2658SOL     OW 8872   6.086   4.074   5.826
 2658SOL    HW1 8873   6.054   4.127   5.905
 2658SOL    HW2 8874   6.012   4.016   5.793
 2659SOL     OW 8875   6.881   2.609   4.830
 2659SOL    HW1 8876   6.881   2.524   4.882
 2659SOL    HW2 8877   6.855   2.590   4.735
 2660SOL     OW 8878   6.286   2.134   2.425
 2660SOL    HW1 8879   6.374   2.097   2.456
 2660SOL    HW2 8880   6.270   2.106   2.330
 2661SOL     OW 8881   3.402   5.698   1.237
 2661SOL    HW1 8882   3.347   5.765   1.187
 2661SOL    HW2 8883   3.359   5.680   1.326
 2662SOL     OW 8884   4.457   6.289   5.179
 2662SOL    HW1 8885   4.532   6.250   5.233
 2662SOL    HW2 8886   4.376   6.298   5.237
 2663SOL     OW 8887   2.161   4.857   2.226
 2663SOL    HW1 8888   2.132   4.783   2.167
 2663SOL    HW2 8889   2.141   4.945   2.183
 2664SOL     OW 8890   3.962   3.838   2.817
 2664SOL    HW1 8891   4.021   3.780   2.872
 2664SOL    HW2 8892   3.923   3.910   2.874
 2665SOL     OW 8893   3.695   1.233   5.439
 2665SOL    HW1 8894   3.719   1.177   5.360
 2665SOL    HW2 8895   3.756   1.313   5.443
 2666SOL     OW 8896   4.883   4.165   1.075
 2666SOL    HW1 8897   4.923   4.115   1.151
 2666SOL    HW2 8898   4.957   4.204   1.018
 2667SOL     OW 8899   1.977   6.066   5.227
 2667SOL    HW1 8900   1.925   6.104   5.303
 2667SOL    HW2 8901   2.071   6.100   5.231
 2668SOL     OW 8902   6.797   3.316   5.101
 2668SOL    HW1 8903   6.732   3.308   5.177
 2668SOL    HW2 8904   6.748   3.305   5.015
 2669SOL     OW 8905   4.367   5.324   5.619
 2669SOL    HW1 8906   4.319   5.267   5.552
 2669SOL    HW2 8907   4.425   5.390   5.571
 2670SOL     OW 8908   0.782   1.035   0.135
 2670SOL    HW1 8909   0.721   1.014   0.058
 2670SOL    HW2 8910   0.832   1.119   0.115
 2671SOL     OW 8911   2.621   4.148   6.541
 2671SOL    HW1 8912   2.529   4.178   6.566
 2671SOL    HW2 8913   2.631   4.152   6.441
 2672SOL     OW 8914   1.907   5.121   0.368
 2672SOL    HW1 8915   1.880   5.129   0.272
 2672SOL    HW2 8916   2.002   5.150   0.377
 2673SOL     OW 8917   3.890   2.078   3.096
 2673SOL    HW1 8918   3.951   2.008   3.059
 2673SOL    HW2 8919   3.915   2.098   3.190
 2674SOL     OW 8920   0.342   5.028   4.371
 2674SOL    HW1 8921   0.310   4.934   4.385
 2674SOL    HW2 8922   0.384   5.036   4.281
 2675SOL     OW 8923   0.264   4.470   5.394
 2675SOL    HW1 8924   0.345   4.411   5.397
 2675SOL    HW2 8925   0.184   4.419   5.426
 2676SOL     OW 8926   4.468   1.537   2.096
 2676SOL    HW1 8927   4.487   1.565   2.002
 2676SOL    HW2 8928   4.554   1.531   2.147
 2677SOL     OW 8929   1.621   4.658   1.513
 2677SOL    HW1 8930   1.637   4.757   1.509
 2677SOL    HW2 8931   1.583   4.627   1.426
 2678SOL     OW 8932   1.245   5.135   6.238
 2678SOL    HW1 8933   1.241   5.057   6.300
 2678SOL    HW2 8934   1.278   5.215   6.288
 2679SOL     OW 8935   3.452   5.102   1.019
 2679SOL    HW1 8936   3.518   5.160   0.972
 2679SOL    HW2 8937   3.384   5.159   1.064
 2680SOL     OW 8938   2.094   1.489   0.618
 2680SOL    HW1 8939   2.035   1.524   0.691
 2680SOL    HW2 8940   2.125   1.564   0.560
 2681SOL     OW 8941   0.868   3.150   4.594
 2681SOL    HW1 8942   0.951   3.153   4.538
 2681SOL    HW2 8943   0.857   3.237   4.642
 2682SOL     OW 8944   5.166   3.049   2.175
 2682SOL    HW1 8945   5.089   3.067   2.113
 2682SOL    HW2 8946   5.156   2.958   2.214
 2683SOL     OW 8947   0.604   5.225   1.094
 2683SOL    HW1 8948   0.542   5.148   1.079
 2683SOL    HW2 8949   0.581   5.270   1.180
 2684SOL     OW 8950   3.500   6.632   2.971
 2684SOL    HW1 8951   3.490   6.533   2.972
 2684SOL    HW2 8952   3.487   6.668   3.063
 2685SOL     OW 8953   5.464   6.285   4.741
 2685SOL    HW1 8954   5.534   6.255   4.676
 2685SOL    HW2 8955   5.378   6.300   4.692
 2686SOL     OW 8956   2.394   2.765   4.084
 2686SOL    HW1 8957   2.490   2.746   4.065
 2686SOL    HW2 8958   2.353   2.686   4.130
 2687SOL     OW 8959   3.767   5.159   2.256
 2687SOL    HW1 8960   3.853   5.174   2.305
 2687SOL    HW2 8961   3.693   5.148   2.323
 2688SOL     OW 8962   4.781   4.984   6.469
 2688SOL    HW1 8963   4.772   5.084   6.467
 2688SOL    HW2 8964   4.788   4.950   6.376
 2689SOL     OW 8965   1.109   2.499   3.319
 2689SOL    HW1 8966   1.102   2.419   3.259
 2689SOL    HW2 8967   1.118   2.582   3.263
 2690SOL     OW 8968   3.662   2.868   3.649
 2690SOL    HW1 8969   3.661   2.864   3.749
 2690SOL    HW2 8970   3.570   2.884   3.615
 2691SOL     OW 8971   1.937   5.248   2.259
 2691SOL    HW1 8972   1.910   5.166   2.309
 2691SOL    HW2 8973   1.866   5.272   2.193
 2692SOL     OW 8974   0.035   5.590   3.924
 2692SOL    HW1 8975   0.120   5.609   3.875
 2692SOL    HW2 8976   0.043   5.503   3.973
 2693SOL     OW 8977   1.800   3.661   3.850
 2693SOL    HW1 8978   1.706   3.695   3.847
 2693SOL    HW2 8979   1.811   3.600   3.929
 2694SOL     OW 8980   3.173   0.324   3.428
 2694SOL    HW1 8981   3.075   0.326   3.446
 2694SOL    HW2 8982   3.202   0.412   3.391
 2695SOL     OW 8983   5.004   1.917   2.751
 2695SOL    HW1 8984   5.037   1.826   2.729
 2695SOL    HW2 8985   4.928   1.941   2.690
 2696SOL     OW 8986   3.661   3.814   5.744
 2696SOL    HW1 8987   3.756   3.789   5.761
 2696SOL    HW2 8988   3.630   3.773   5.657
 2697SOL     OW 8989   4.097   2.237   3.561
 2697SOL    HW1 8990   4.004   2.227   3.525
 2697SOL    HW2 8991   4.098   2.307   3.632
 2698SOL     OW 8992   0.849   4.002   0.459
 2698SOL    HW1 8993   0.786   3.984   0.383
 2698SOL    HW2 8994   0.873   4.100   0.460
 2699SOL     OW 8995   3.663   5.550   1.269
 2699SOL    HW1 8996   3.670   5.596   1.358
 2699SOL    HW2 8997   3.581   5.582   1.222
 2700SOL     OW 8998   1.895   3.683   2.549
 2700SOL    HW1 8999   1.848   3.771   2.543
 2700SOL    HW2 9000   1.959   3.684   2.626
 2701SOL     OW 9001   3.064   0.129   6.251
 2701SOL    HW1 9002   3.152   0.168   6.279
 2701SOL    HW2 9003   3.040   0.053   6.311
 2702SOL     OW 9004   6.981   1.446   2.932
 2702SOL    HW1 9005   0.021   1.373   2.909
 2702SOL    HW2 9006   6.899   1.407   2.974
 2703SOL     OW 9007   2.759   2.014   2.572
 2703SOL    HW1 9008   2.766   2.107   2.609
 2703SOL    HW2 9009   2.808   2.010   2.484
 2704SOL     OW 9010   2.819   5.159   2.045
 2704SOL    HW1 9011   2.917   5.147   2.029
 2704SOL    HW2 9012   2.796   5.256   2.042
 2705SOL     OW 9013   6.319   5.909   3.818
 2705SOL    HW1 9014   6.409   5.930   3.855
 2705SOL    HW2 9015   6.264   5.993   3.816
 2706SOL     OW 9016   6.751   1.421   2.042
 2706SOL    HW1 9017   6.768   1.324   2.058
 2706SOL    HW2 9018   6.718   1.463   2.127
 2707SOL     OW 9019   1.908   1.954   6.777
 2707SOL    HW1 9020   1.999   1.919   6.755
 2707SOL    HW2 9021   1.908   1.992   6.869
 2708SOL     OW 9022   2.171   2.559   1.838
 2708SOL    HW1 9023   2.074   2.581   1.831
 2708SOL    HW2 9024   2.181   2.464   1.869
 2709SOL     OW 9025   5.262   6.056   1.069
 2709SOL    HW1 9026   5.275   5.969   1.116
 2709SOL    HW2 9027   5.166   6.065   1.043
 2710SOL     OW 9028   6.920   3.776   2.292
 2710SOL    HW1 9029   6.957   3.713   2.224
 2710SOL    HW2 9030   6.824   3.794   2.273
 2711SOL     OW 9031   1.250   0.343   1.648
 2711SOL    HW1 9032   1.310   0.406   1.697
 2711SOL    HW2 9033   1.304   0.266   1.614
 2712SOL     OW 9034   2.297   4.528   0.708
 2712SOL    HW1 9035   2.328   4.441   0.670
 2712SOL    HW2 9036   2.201   4.542   0.683
 2713SOL     OW 9037   2.248   3.237   5.214
 2713SOL    HW1 9038   2.286   3.157   5.168
 2713SOL    HW2 9039   2.199   3.294   5.148
 2714SOL     OW 9040   4.990   1.010   5.734
 2714SOL    HW1 9041   4.951   0.989   5.824
 2714SOL    HW2 9042   4.917   1.042   5.673
 2715SOL     OW 9043   5.389   1.961   0.088
 2715SOL    HW1 9044   5.392   2.061   0.083
 2715SOL    HW2 9045   5.314   1.934   0.148
 2716SOL     OW 9046   6.599   5.199   2.499
 2716SOL    HW1 9047   6.580   5.103   2.517
 2716SOL    HW2 9048   6.514   5.247   2.475
 2717SOL     OW 9049   0.889   6.390   2.646
 2717SOL    HW1 9050   0.847   6.453   2.712
 2717SOL    HW2 9051   0.831   6.384   2.564
 2718SOL     OW 9052   1.806   3.756   4.190
 2718SOL    HW1 9053   1.819   3.785   4.284
 2718SOL    HW2 9054   1.891   3.770   4.139
 2719SOL     OW 9055   4.303   5.021   2.550
 2719SOL    HW1 9056   4.289   5.113   2.513
 2719SOL    HW2 9057   4.237   4.958   2.509
 2720SOL     OW 9058   1.994   6.192   3.931
 2720SOL    HW1 9059   2.046   6.116   3.970
 2720SOL    HW2 9060   2.044   6.278   3.946
 2721SOL     OW 9061   2.701   0.304   4.577
 2721SOL    HW1 9062   2.768   0.362   4.529
 2721SOL    HW2 9063   2.750   0.237   4.633
 2722SOL     OW 9064   0.629   5.401   3.128
 2722SOL    HW1 9065   0.645   5.498   3.144
 2722SOL    HW2 9066   0.642   5.350   3.213
 2723SOL     OW 9067   1.881   1.220   5.674
 2723SOL    HW1 9068   1.907   1.140   5.619
 2723SOL    HW2 9069   1.785   1.213   5.699
 2724SOL     OW 9070   3.486   5.708   6.915
 2724SOL    HW1 9071   3.415   5.654   6.871
 2724SOL    HW2 9072   3.492   5.683   7.012
 2725SOL     OW 9073   4.615   4.662   2.554
 2725SOL    HW1 9074   4.569   4.657   2.466
 2725SOL    HW2 9075   4.551   4.698   2.623
 2726SOL     OW 9076   4.703   4.536   1.608
 2726SOL    HW1 9077   4.723   4.615   1.666
 2726SOL    HW2 9078   4.695   4.454   1.666
 2727SOL     OW 9079   0.769   4.820   2.702
 2727SOL    HW1 9080   0.743   4.724   2.698
 2727SOL    HW2 9081   0.718   4.871   2.632
 2728SOL     OW 9082   2.772   6.748   5.398
 2728SOL    HW1 9083   2.764   6.761   5.497
 2728SOL    HW2 9084   2.680   6.739   5.358
 2729SOL     OW 9085   6.517   5.173   3.053
 2729SOL    HW1 9086   6.514   5.109   2.976
 2729SOL    HW2 9087   6.440   5.155   3.115
 2730SOL     OW 9088   2.398   0.065   0.373
 2730SOL    HW1 9089   2.314   0.074   0.427
 2730SOL    HW2 9090   2.477   0.064   0.434
 2731SOL     OW 9091   3.019   3.800   1.849
 2731SOL    HW1 9092   2.992   3.886   1.893
 2731SOL    HW2 9093   3.069   3.743   1.915
 2732SOL     OW 9094   5.868   2.783   2.437
 2732SOL    HW1 9095   5.807   2.848   2.482
 2732SOL    HW2 9096   5.873   2.803   2.339
 2733SOL     OW 9097   0.964   6.974   5.392
 2733SOL    HW1 9098   1.062   6.984   5.409
 2733SOL    HW2 9099   0.927   0.037   5.360
 2734SOL     OW 9100   2.082   6.229   3.580
 2734SOL    HW1 9101   2.111   6.163   3.650
 2734SOL    HW2 9102   2.152   6.299   3.570
 2735SOL     OW 9103   1.454   4.660   2.536
 2735SOL    HW1 9104   1.421   4.623   2.449
 2735SOL    HW2 9105   1.432   4.757   2.542
 2736SOL     OW 9106   3.960   0.249   5.278
 2736SOL    HW1 9107   4.031   0.316   5.303
 2736SOL    HW2 9108   3.920   0.275   5.190
 2737SOL     OW 9109   4.023   3.594   5.930
 2737SOL    HW1 9110   4.112   3.563   5.897
 2737SOL    HW2 9111   3.954   3.524   5.910
 2738SOL     OW 9112   5.156   5.231   4.575
 2738SOL    HW1 9113   5.195   5.144   4.605
 2738SOL    HW2 9114   5.125   5.282   4.655
 2739SOL     OW 9115   5.291   3.925   0.909
 2739SOL    HW1 9116   5.317   4.000   0.849
 2739SOL    HW2 9117   5.320   3.945   1.002
 2740SOL     OW 9118   5.999   2.306   2.713
 2740SOL    HW1 9119   5.967   2.213   2.732
 2740SOL    HW2 9120   5.984   2.327   2.617
 2741SOL     OW 9121   7.008   2.123   5.582
 2741SOL    HW1 9122   7.011   2.023   5.580
 2741SOL    HW2 9123   6.935   2.153   5.643
 2742SOL     OW 9124   1.426   5.637   6.495
 2742SOL    HW1 9125   1.472   5.725   6.482
 2742SOL    HW2 9126   1.328   5.652   6.505
 2743SOL     OW 9127   5.381   4.863   1.337
 2743SOL    HW1 9128   5.350   4.794   1.402
 2743SOL    HW2 9129   5.464   4.906   1.371
 2744SOL     OW 9130   4.020   2.343   6.327
 2744SOL    HW1 9131   3.928   2.372   6.352
 2744SOL    HW2 9132   4.075   2.423   6.303
 2745SOL     OW 9133   2.185   6.262   0.798
 2745SOL    HW1 9134   2.239   6.218   0.870
 2745SOL    HW2 9135   2.095   6.287   0.834
 2746SOL     OW 9136   1.830   2.156   5.307
 2746SOL    HW1 9137   1.736   2.124   5.314
 2746SOL    HW2 9138   1.878   2.137   5.392
 2747SOL     OW 9139   5.487   5.852   4.268
 2747SOL    HW1 9140   5.527   5.780   4.211
 2747SOL    HW2 9141   5.505   5.941   4.227
 2748SOL     OW 9142   4.571   1.481   3.396
 2748SOL    HW1 9143   4.659   1.505   3.438
 2748SOL    HW2 9144   4.499   1.484   3.465
 2749SOL     OW 9145   4.613   4.361   4.399
 2749SOL    HW1 9146   4.542   4.423   4.433
 2749SOL    HW2 9147   4.625   4.375   4.301
 2750SOL     OW 9148   0.778   5.843   2.383
 2750SOL    HW1 9149   0.829   5.859   2.298
 2750SOL    HW2 9150   0.800   5.753   2.419
 2751SOL     OW 9151   2.016   6.930   6.638
 2751SOL    HW1 9152   1.995   7.008   6.698
 2751SOL    HW2 9153   1.988   6.845   6.683
 2752SOL     OW 9154   5.989   6.273   5.250
 2752SOL    HW1 9155   6.087   6.270   5.234
 2752SOL    HW2 9156   5.969   6.334   5.326
 2753SOL     OW 9157   3.958   6.091   6.334
 2753SOL    HW1 9158   3.953   6.071   6.432
 2753SOL    HW2 9159   4.041   6.051   6.295
 2754SOL     OW 9160   0.923   0.073   4.265
 2754SOL    HW1 9161   0.840   0.070   4.320
 2754SOL    HW2 9162   0.901   0.104   4.173
 2755SOL     OW 9163   3.169   6.366   2.331
 2755SOL    HW1 9164   3.165   6.277   2.377
 2755SOL    HW2 9165   3.082   6.383   2.285
 2756SOL     OW 9166   5.909   3.326   5.621
 2756SOL    HW1 9167   5.982   3.369   5.674
 2756SOL    HW2 9168   5.835   3.300   5.682
 2757SOL     OW 9169   4.484   2.347   0.246
 2757SOL    HW1 9170   4.552   2.418   0.265
 2757SOL    HW2 9171   4.527   2.257   0.249
 2758SOL     OW 9172   5.213   4.517   2.851
 2758SOL    HW1 9173   5.185   4.551   2.761
 2758SOL    HW2 9174   5.310   4.537   2.866
 2759SOL     OW 9175   3.289   4.636   6.297
 2759SOL    HW1 9176   3.268   4.699   6.371
 2759SOL    HW2 9177   3.278   4.542   6.330
 2760SOL     OW 9178   5.395   5.444   3.559
 2760SOL    HW1 9179   5.414   5.360   3.508
 2760SOL    HW2 9180   5.416   5.523   3.502
 2761SOL     OW 9181   2.096   3.705   2.769
 2761SOL    HW1 9182   2.081   3.633   2.837
 2761SOL    HW2 9183   2.090   3.794   2.813
 2762SOL     OW 9184   1.932   2.214   0.333
 2762SOL    HW1 9185   2.009   2.236   0.273
 2762SOL    HW2 9186   1.915   2.115   0.330
 2763SOL     OW 9187   4.498   1.116   5.861
 2763SOL    HW1 9188   4.429   1.048   5.836
 2763SOL    HW2 9189   4.521   1.171   5.781
 2764SOL     OW 9190   0.606   3.887   1.815
 2764SOL    HW1 9191   0.663   3.917   1.738
 2764SOL    HW2 9192   0.650   3.810   1.861
 2765SOL     OW 9193   6.110   6.858   7.016
 2765SOL    HW1 9194   6.172   6.797   6.967
 2765SOL    HW2 9195   6.018   6.818   7.018
 2766SOL     OW 9196   5.747   0.955   6.844
 2766SOL    HW1 9197   5.742   0.961   6.744
 2766SOL    HW2 9198   5.788   0.868   6.870
 2767SOL     OW 9199   6.662   4.900   6.218
 2767SOL    HW1 9200   6.620   4.988   6.239
 2767SOL    HW2 9201   6.761   4.906   6.232
 2768SOL     OW 9202   4.962   0.482   0.980
 2768SOL    HW1 9203   4.987   0.406   0.920
 2768SOL    HW2 9204   4.876   0.461   1.027
 2769SOL     OW 9205   1.798   4.521   5.519
 2769SOL    HW1 9206   1.834   4.455   5.454
 2769SOL    HW2 9207   1.698   4.518   5.518
 2770SOL     OW 9208   2.244   6.826   6.902
 2770SOL    HW1 9209   2.269   6.923   6.904
 2770SOL    HW2 9210   2.325   6.770   6.915
 2771SOL     OW 9211   4.517   0.435   4.660
 2771SOL    HW1 9212   4.470   0.360   4.708
 2771SOL    HW2 9213   4.472   0.453   4.573
 2772SOL     OW 9214   4.375   0.968   2.882
 2772SOL    HW1 9215   4.425   0.888   2.849
 2772SOL    HW2 9216   4.393   1.046   2.821
 2773SOL     OW 9217   6.089   3.071   3.871
 2773SOL    HW1 9218   6.186   3.065   3.892
 2773SOL    HW2 9219   6.057   2.983   3.836
 2774SOL     OW 9220   5.079   1.784   3.690
 2774SOL    HW1 9221   5.033   1.861   3.646
 2774SOL    HW2 9222   5.122   1.726   3.621
 2775SOL     OW 9223   0.388   4.469   4.736
 2775SOL    HW1 9224   0.474   4.465   4.787
 2775SOL    HW2 9225   0.349   4.560   4.743
 2776SOL     OW 9226   5.089   4.651   5.983
 2776SOL    HW1 9227   5.080   4.733   5.928
 2776SOL    HW2 9228   5.184   4.619   5.981
 2777SOL     OW 9229   3.177   2.422   6.016
 2777SOL    HW1 9230   3.115   2.379   5.950
 2777SOL    HW2 9231   3.233   2.490   5.969
 2778SOL     OW 9232   2.549   6.255   6.701
 2778SOL    HW1 9233   2.491   6.335   6.715
 2778SOL    HW2 9234   2.641   6.272   6.737
 2779SOL     OW 9235   6.004   6.312   2.096
 2779SOL    HW1 9236   6.037   6.264   2.177
 2779SOL    HW2 9237   6.047   6.274   2.014
 2780SOL     OW 9238   0.208   1.562   6.083
 2780SOL    HW1 9239   0.255   1.552   5.995
 2780SOL    HW2 9240   0.242   1.644   6.130
 2781SOL     OW 9241   6.331   0.603   2.587
 2781SOL    HW1 9242   6.254   0.544   2.566
 2781SOL    HW2 9243   6.413   0.547   2.602
 2782SOL     OW 9244   4.215   1.210   6.664
 2782SOL    HW1 9245   4.188   1.116   6.643
 2782SOL    HW2 9246   4.165   1.242   6.745
 2783SOL     OW 9247   5.533   3.400   1.606
 2783SOL    HW1 9248   5.447   3.368   1.645
 2783SOL    HW2 9249   5.535   3.377   1.508
 2784SOL     OW 9250   1.525   1.796   0.455
 2784SOL    HW1 9251   1.604   1.753   0.411
 2784SOL    HW2 9252   1.519   1.892   0.428
 2785SOL     OW 9253   5.164   3.150   1.330
 2785SOL    HW1 9254   5.121   3.060   1.322
 2785SOL    HW2 9255   5.262   3.138   1.347
 2786SOL     OW 9256   6.857   6.283   0.310
 2786SOL    HW1 9257   6.807   6.200   0.284
 2786SOL    HW2 9258   6.799   6.340   0.367
 2787SOL     OW 9259   6.308   4.918   6.188
 2787SOL    HW1 9260   6.295   4.981   6.112
 2787SOL    HW2 9261   6.240   4.845   6.182
 2788SOL     OW 9262   3.367   5.945   5.851
 2788SOL    HW1 9263   3.363   5.881   5.774
 2788SOL    HW2 9264   3.428   5.909   5.921
 2789SOL     OW 9265   0.788   2.574   4.966
 2789SOL    HW1 9266   0.785   2.513   5.045
 2789SOL    HW2 9267   0.766   2.523   4.883
 2790SOL     OW 9268   2.097   5.656   0.848
 2790SOL    HW1 9269   2.112   5.639   0.750
 2790SOL    HW2 9270   2.180   5.636   0.899
 2791SOL     OW 9271   6.881   3.865   3.427
 2791SOL    HW1 9272   6.807   3.798   3.435
 2791SOL    HW2 9273   6.955   3.827   3.373
 2792SOL     OW 9274   3.325   1.565   5.420
 2792SOL    HW1 9275   3.399   1.632   5.410
 2792SOL    HW2 9276   3.238   1.609   5.398
 2793SOL     OW 9277   3.543   4.263   1.405
 2793SOL    HW1 9278   3.471   4.294   1.467
 2793SOL    HW2 9279   3.616   4.332   1.401
 2794SOL     OW 9280   0.443   2.073   6.140
 2794SOL    HW1 9281   0.416   2.147   6.078
 2794SOL    HW2 9282   0.373   2.001   6.138
 2795SOL     OW 9283   1.162   4.724   1.712
 2795SOL    HW1 9284   1.218   4.806   1.723
 2795SOL    HW2 9285   1.204   4.664   1.643
 2796SOL     OW 9286   1.067   6.082   5.444
 2796SOL    HW1 9287   1.108   6.044   5.526
 2796SOL    HW2 9288   1.016   6.012   5.396
 2797SOL     OW 9289   5.398   6.912   4.040
 2797SOL    HW1 9290   5.338   6.933   4.116
 2797SOL    HW2 9291   5.364   6.831   3.992
 2798SOL     OW 9292   5.898   6.742   1.658
 2798SOL    HW1 9293   5.962   6.768   1.585
 2798SOL    HW2 9294   5.935   6.769   1.746
 2799SOL     OW 9295   3.852   5.904   5.006
 2799SOL    HW1 9296   3.786   5.898   5.081
 2799SOL    HW2 9297   3.810   5.869   4.922
 2800SOL     OW 9298   6.674   0.903   6.925
 2800SOL    HW1 9299   6.714   0.829   6.870
 2800SOL    HW2 9300   6.583   0.925   6.890
 2801SOL     OW 9301   0.820   5.042   5.494
 2801SOL    HW1 9302   0.864   5.023   5.582
 2801SOL    HW2 9303   0.721   5.042   5.505
 2802SOL     OW 9304   6.881   5.594   5.379
 2802SOL    HW1 9305   6.913   5.685   5.353
 2802SOL    HW2 9306   6.860   5.594   5.477
 2803SOL     OW 9307   3.886   3.673   6.597
 2803SOL    HW1 9308   3.969   3.635   6.558
 2803SOL    HW2 9309   3.885   3.658   6.695
 2804SOL     OW 9310   0.322   2.616   3.626
 2804SOL    HW1 9311   0.292   2.593   3.718
 2804SOL    HW2 9312   0.415   2.652   3.629
 2805SOL     OW 9313   4.052   3.211   1.278
 2805SOL    HW1 9314   4.028   3.187   1.372
 2805SOL    HW2 9315   4.124   3.280   1.278
 2806SOL     OW 9316   0.685   4.944   6.220
 2806SOL    HW1 9317   0.738   4.948   6.305
 2806SOL    HW2 9318   0.748   4.946   6.142
 2807SOL     OW 9319   3.138   0.317   3.773
 2807SOL    HW1 9320   3.080   0.394   3.746
 2807SOL    HW2 9321   3.182   0.338   3.861
 2808SOL     OW 9322   6.431   5.256   0.062
 2808SOL    HW1 9323   6.437   5.254   6.986
 2808SOL    HW2 9324   6.473   5.340   0.097
 2809SOL     OW 9325   6.752   4.876   2.278
 2809SOL    HW1 9326   6.830   4.835   2.325
 2809SOL    HW2 9327   6.682   4.900   2.345
 2810SOL     OW 9328   2.368   5.243   3.410
 2810SOL    HW1 9329   2.287   5.293   3.377
 2810SOL    HW2 9330   2.446   5.263   3.351
 2811SOL     OW 9331   1.140   0.707   1.995
 2811SOL    HW1 9332   1.169   0.789   1.946
 2811SOL    HW2 9333   1.057   0.727   2.047
 2812SOL     OW 9334   0.171   3.287   0.671
 2812SOL    HW1 9335   0.263   3.318   0.698
 2812SOL    HW2 9336   0.146   3.331   0.585
 2813SOL     OW 9337   0.830   2.461   1.564
 2813SOL    HW1 9338   0.928   2.471   1.576
 2813SOL    HW2 9339   0.811   2.386   1.500
 2814SOL     OW 9340   1.790   4.232   0.334
 2814SOL    HW1 9341   1.769   4.181   0.417
 2814SOL    HW2 9342   1.867   4.188   0.287
 2815SOL     OW 9343   0.455   5.794   5.643
 2815SOL    HW1 9344   0.419   5.753   5.727
 2815SOL    HW2 9345   0.547   5.758   5.625
 2816SOL     OW 9346   0.324   6.183   5.795
 2816SOL    HW1 9347   0.230   6.205   5.768
 2816SOL    HW2 9348   0.386   6.206   5.720
 2817SOL     OW 9349   4.450   0.481   1.940
 2817SOL    HW1 9350   4.524   0.534   1.899
 2817SOL    HW2 9351   4.431   0.515   2.032
 2818SOL     OW 9352   0.958   0.656   1.250
 2818SOL    HW1 9353   1.000   0.572   1.216
 2818SOL    HW2 9354   0.860   0.656   1.229
 2819SOL     OW 9355   0.753   0.365   0.789
 2819SOL    HW1 9356   0.780   0.432   0.858
 2819SOL    HW2 9357   0.828   0.352   0.725
 2820SOL     OW 9358   1.499   2.822   1.543
 2820SOL    HW1 9359   1.439   2.874   1.604
 2820SOL    HW2 9360   1.532   2.882   1.470
 2821SOL     OW 9361   3.233   4.379   6.691
 2821SOL    HW1 9362   3.267   4.473   6.678
 2821SOL    HW2 9363   3.300   4.327   6.744
 2822SOL     OW 9364   4.381   2.402   0.719
 2822SOL    HW1 9365   4.341   2.455   0.644
 2822SOL    HW2 9366   4.317   2.401   0.796
 2823SOL     OW 9367   5.366   2.321   0.921
 2823SOL    HW1 9368   5.328   2.410   0.947
 2823SOL    HW2 9369   5.369   2.315   0.821
 2824SOL     OW 9370   1.167   3.486   5.569
 2824SOL    HW1 9371   1.219   3.571   5.580
 2824SOL    HW2 9372   1.079   3.494   5.617
 2825SOL     OW 9373   5.736   1.532   6.511
 2825SOL    HW1 9374   5.678   1.475   6.569
 2825SOL    HW2 9375   5.744   1.623   6.551
 2826SOL     OW 9376   1.942   3.899   6.349
 2826SOL    HW1 9377   1.975   3.970   6.287
 2826SOL    HW2 9378   1.985   3.909   6.438
 2827SOL     OW 9379   0.272   1.051   6.484
 2827SOL    HW1 9380   0.280   1.109   6.403
 2827SOL    HW2 9381   0.227   0.965   6.458
 2828SOL     OW 9382   1.868   4.038   0.898
 2828SOL    HW1 9383   1.789   3.986   0.867
 2828SOL    HW2 9384   1.949   3.980   0.899
 2829SOL     OW 9385   4.012   3.822   3.242
 2829SOL    HW1 9386   3.929   3.873   3.223
 2829SOL    HW2 9387   4.046   3.846   3.333
 2830SOL     OW 9388   3.603   5.228   5.902
 2830SOL    HW1 9389   3.620   5.292   5.827
 2830SOL    HW2 9390   3.531   5.164   5.875
 2831SOL     OW 9391   6.397   2.104   2.130
 2831SOL    HW1 9392   6.446   2.046   2.065
 2831SOL    HW2 9393   6.300   2.083   2.128
 2832SOL     OW 9394   0.536   3.188   1.111
 2832SOL    HW1 9395   0.502   3.140   1.030
 2832SOL    HW2 9396   0.488   3.155   1.192
 2833SOL     OW 9397   1.653   2.164   1.373
 2833SOL    HW1 9398   1.561   2.156   1.335
 2833SOL    HW2 9399   1.649   2.213   1.461
 2834SOL     OW 9400   4.038   5.961   5.328
 2834SOL    HW1 9401   4.002   6.043   5.284
 2834SOL    HW2 9402   4.090   5.908   5.261
 2835SOL     OW 9403   0.665   6.685   0.877
 2835SOL    HW1 9404   0.676   6.621   0.802
 2835SOL    HW2 9405   0.579   6.735   0.865
 2836SOL     OW 9406   3.465   6.322   3.228
 2836SOL    HW1 9407   3.439   6.323   3.132
 2836SOL    HW2 9408   3.417   6.396   3.276
 2837SOL     OW 9409   5.129   4.180   1.971
 2837SOL    HW1 9410   5.047   4.138   2.009
 2837SOL    HW2 9411   5.118   4.280   1.970
 2838SOL     OW 9412   5.406   4.172   6.273
 2838SOL    HW1 9413   5.492   4.162   6.321
 2838SOL    HW2 9414   5.413   4.130   6.183
 2839SOL     OW 9415   5.798   2.767   5.040
 2839SOL    HW1 9416   5.847   2.853   5.056
 2839SOL    HW2 9417   5.859   2.690   5.059
 2840SOL     OW 9418   0.086   6.401   3.002
 2840SOL    HW1 9419   0.149   6.478   3.013
 2840SOL    HW2 9420   0.066   6.388   2.905
 2841SOL     OW 9421   5.655   2.880   1.738
 2841SOL    HW1 9422   5.677   2.867   1.641
 2841SOL    HW2 9423   5.738   2.896   1.790
 2842SOL     OW 9424   1.767   6.455   3.143
 2842SOL    HW1 9425   1.855   6.485   3.180
 2842SOL    HW2 9426   1.746   6.509   3.062
 2843SOL     OW 9427   2.180   2.921   3.294
 2843SOL    HW1 9428   2.229   2.992   3.345
 2843SOL    HW2 9429   2.246   2.863   3.247
 2844SOL     OW 9430   4.810   4.673   1.409
 2844SOL    HW1 9431   4.760   4.645   1.327
 2844SOL    HW2 9432   4.778   4.619   1.487
 2845SOL     OW 9433   3.536   2.024   2.876
 2845SOL    HW1 9434   3.558   1.935   2.917
 2845SOL    HW2 9435   3.506   2.087   2.948
 2846SOL     OW 9436   5.239   0.574   0.513
 2846SOL    HW1 9437   5.220   0.549   0.608
 2846SOL    HW2 9438   5.259   0.672   0.508
 2847SOL     OW 9439   5.027   4.365   2.418
 2847SOL    HW1 9440   5.074   4.297   2.361
 2847SOL    HW2 9441   4.989   4.320   2.499
 2848SOL     OW 9442   0.685   4.165   5.097
 2848SOL    HW1 9443   0.778   4.147   5.067
 2848SOL    HW2 9444   0.620   4.129   5.029
 2849SOL     OW 9445   4.447   0.531   2.575
 2849SOL    HW1 9446   4.520   0.463   2.586
 2849SOL    HW2 9447   4.361   0.494   2.611
 2850SOL     OW 9448   2.723   0.149   3.067
 2850SOL    HW1 9449   2.754   0.131   3.160
 2850SOL    HW2 9450   2.687   0.242   3.061
 2851SOL     OW 9451   3.933   3.180   0.918
 2851SOL    HW1 9452   3.953   3.107   0.983
 2851SOL    HW2 9453   3.837   3.209   0.929
 2852SOL     OW 9454   6.217   4.129   5.608
 2852SOL    HW1 9455   6.155   4.077   5.549
 2852SOL    HW2 9456   6.188   4.120   5.703
 2853SOL     OW 9457   0.648   3.946   0.005
 2853SOL    HW1 9458   0.583   3.950   6.952
 2853SOL    HW2 9459   0.741   3.947   6.993
 2854SOL     OW 9460   3.504   1.644   6.156
 2854SOL    HW1 9461   3.447   1.725   6.166
 2854SOL    HW2 9462   3.449   1.562   6.170
 2855SOL     OW 9463   1.832   1.594   4.330
 2855SOL    HW1 9464   1.804   1.504   4.296
 2855SOL    HW2 9465   1.932   1.600   4.329
 2856SOL     OW 9466   0.884   4.525   3.063
 2856SOL    HW1 9467   0.848   4.470   2.988
 2856SOL    HW2 9468   0.939   4.468   3.124
 2857SOL     OW 9469   6.712   3.380   0.527
 2857SOL    HW1 9470   6.748   3.472   0.512
 2857SOL    HW2 9471   6.782   3.312   0.506
 2858SOL     OW 9472   4.870   4.622   2.695
 2858SOL    HW1 9473   4.821   4.535   2.699
 2858SOL    HW2 9474   4.805   4.697   2.686
 2859SOL     OW 9475   5.576   4.747   1.627
 2859SOL    HW1 9476   5.614   4.681   1.562
 2859SOL    HW2 9477   5.516   4.699   1.691
 2860SOL     OW 9478   1.160   6.138   1.387
 2860SOL    HW1 9479   1.210   6.215   1.425
 2860SOL    HW2 9480   1.122   6.082   1.461
 2861SOL     OW 9481   4.466   4.971   0.173
 2861SOL    HW1 9482   4.450   4.892   0.233
 2861SOL    HW2 9483   4.442   4.947   0.079
 2862SOL     OW 9484   4.125   3.082   0.575
 2862SOL    HW1 9485   4.141   2.996   0.622
 2862SOL    HW2 9486   4.147   3.158   0.636
 2863SOL     OW 9487   5.850   0.521   5.513
 2863SOL    HW1 9488   5.907   0.579   5.455
 2863SOL    HW2 9489   5.876   0.535   5.609
 2864SOL     OW 9490   4.250   3.929   0.419
 2864SOL    HW1 9491   4.202   3.897   0.500
 2864SOL    HW2 9492   4.234   4.027   0.407
 2865SOL     OW 9493   5.190   5.680   4.563
 2865SOL    HW1 9494   5.095   5.655   4.545
 2865SOL    HW2 9495   5.251   5.623   4.508
 2866SOL     OW 9496   3.927   4.503   0.021
 2866SOL    HW1 9497   3.998   4.560   0.064
 2866SOL    HW2 9498   3.958   4.471   6.956
 2867SOL     OW 9499   5.654   6.211   1.928
 2867SOL    HW1 9500   5.734   6.242   1.878
 2867SOL    HW2 9501   5.571   6.237   1.878
 2868SOL     OW 9502   1.386   1.412   6.021
 2868SOL    HW1 9503   1.314   1.353   5.983
 2868SOL    HW2 9504   1.467   1.407   5.962
 2869SOL     OW 9505   5.085   5.142   4.079
 2869SOL    HW1 9506   4.993   5.108   4.097
 2869SOL    HW2 9507   5.126   5.175   4.164
 2870SOL     OW 9508   6.880   1.957   1.475
 2870SOL    HW1 9509   6.931   1.970   1.391
 2870SOL    HW2 9510   6.796   2.011   1.472
 2871SOL     OW 9511   5.438   1.669   1.424
 2871SOL    HW1 9512   5.400   1.738   1.362
 2871SOL    HW2 9513   5.531   1.694   1.449
 2872SOL     OW 9514   2.530   1.984   2.226
 2872SOL    HW1 9515   2.446   1.958   2.273
 2872SOL    HW2 9516   2.526   1.952   2.131
 2873SOL     OW 9517   0.913   6.329   1.280
 2873SOL    HW1 9518   0.989   6.293   1.226
 2873SOL    HW2 9519   0.948   6.388   1.353
 2874SOL     OW 9520   2.128   1.038   2.959
 2874SOL    HW1 9521   2.098   0.957   3.010
 2874SOL    HW2 9522   2.059   1.064   2.893
 2875SOL     OW 9523   2.930   6.834   3.052
 2875SOL    HW1 9524   2.964   6.927   3.063
 2875SOL    HW2 9525   2.954   6.801   2.960
 2876SOL     OW 9526   1.584   6.011   2.056
 2876SOL    HW1 9527   1.615   6.101   2.026
 2876SOL    HW2 9528   1.629   5.940   2.002
 2877SOL     OW 9529   1.490   0.913   5.866
 2877SOL    HW1 9530   1.477   0.994   5.923
 2877SOL    HW2 9531   1.423   0.913   5.792
 2878SOL     OW 9532   4.079   3.604   4.320
 2878SOL    HW1 9533   4.154   3.551   4.361
 2878SOL    HW2 9534   4.090   3.604   4.220
 2879SOL     OW 9535   4.663   4.616   6.840
 2879SOL    HW1 9536   4.586   4.589   6.782
 2879SOL    HW2 9537   4.717   4.685   6.793
 2880SOL     OW 9538   1.168   1.173   4.894
 2880SOL    HW1 9539   1.249   1.116   4.879
 2880SOL    HW2 9540   1.195   1.261   4.933
 2881SOL     OW 9541   3.932   6.128   6.636
 2881SOL    HW1 9542   3.906   6.068   6.712
 2881SOL    HW2 9543   3.890   6.218   6.649
 2882SOL     OW 9544   4.360   6.463   0.708
 2882SOL    HW1 9545   4.339   6.528   0.782
 2882SOL    HW2 9546   4.451   6.483   0.672
 2883SOL     OW 9547   6.439   6.111   3.534
 2883SOL    HW1 9548   6.430   6.190   3.595
 2883SOL    HW2 9549   6.502   6.133   3.460
 2884SOL     OW 9550   6.981   5.164   3.067
 2884SOL    HW1 9551   6.896   5.192   3.111
 2884SOL    HW2 9552   6.964   5.149   2.969
 2885SOL     OW 9553   0.771   2.997   2.720
 2885SOL    HW1 9554   0.763   3.076   2.782
 2885SOL    HW2 9555   0.833   3.018   2.645
 2886SOL     OW 9556   2.584   4.604   6.265
 2886SOL    HW1 9557   2.484   4.609   6.256
 2886SOL    HW2 9558   2.618   4.527   6.210
 2887SOL     OW 9559   1.548   5.592   3.648
 2887SOL    HW1 9560   1.629   5.576   3.704
 2887SOL    HW2 9561   1.481   5.644   3.701
 2888SOL     OW 9562   6.346   6.615   0.584
 2888SOL    HW1 9563   6.431   6.666   0.600
 2888SOL    HW2 9564   6.271   6.680   0.570
 2889SOL     OW 9565   3.324   6.496   3.373
 2889SOL    HW1 9566   3.276   6.475   3.458
 2889SOL    HW2 9567   3.356   6.591   3.375
 2890SOL     OW 9568   2.301   0.533   1.012
 2890SOL    HW1 9569   2.273   0.625   0.985
 2890SOL    HW2 9570   2.225   0.470   0.998
 2891SOL     OW 9571   0.462   2.922   3.594
 2891SOL    HW1 9572   0.521   2.847   3.626
 2891SOL    HW2 9573   0.442   2.983   3.671
 2892SOL     OW 9574   6.767   3.790   1.694
 2892SOL    HW1 9575   6.778   3.768   1.791
 2892SOL    HW2 9576   6.815   3.876   1.674
 2893SOL     OW 9577   0.093   4.951   4.732
 2893SOL    HW1 9578   0.129   5.040   4.702
 2893SOL    HW2 9579   0.002   4.963   4.770
 2894SOL     OW 9580   1.471   5.351   2.365
 2894SOL    HW1 9581   1.438   5.397   2.282
 2894SOL    HW2 9582   1.406   5.367   2.440
 2895SOL     OW 9583   4.216   6.589   6.301
 2895SOL    HW1 9584   4.142   6.656   6.311
 2895SOL    HW2 9585   4.263   6.578   6.388
 2896SOL     OW 9586   6.070   6.087   4.969
 2896SOL    HW1 9587   5.973   6.111   4.963
 2896SOL    HW2 9588   6.098   6.085   5.065
 2897SOL     OW 9589   3.905   4.864   2.740
 2897SOL    HW1 9590   3.945   4.784   2.696
 2897SOL    HW2 9591   3.975   4.911   2.793
 2898SOL     OW 9592   5.755   4.144   2.179
 2898SOL    HW1 9593   5.675   4.086   2.196
 2898SOL    HW2 9594   5.765   4.210   2.253
 2899SOL     OW 9595   6.818   3.104   0.926
 2899SOL    HW1 9596   6.783   3.181   0.874
 2899SOL    HW2 9597   6.912   3.084   0.898
 2900SOL     OW 9598   2.861   4.073   0.053
 2900SOL    HW1 9599   2.879   4.016   0.133
 2900SOL    HW2 9600   2.942   4.128   0.031
 2901SOL     OW 9601   1.564   3.986   3.289
 2901SOL    HW1 9602   1.519   4.005   3.201
 2901SOL    HW2 9603   1.588   3.889   3.293
 2902SOL     OW 9604   0.951   5.695   3.909
 2902SOL    HW1 9605   0.911   5.622   3.965
 2902SOL    HW2 9606   0.920   5.784   3.943
 2903SOL     OW 9607   4.462   5.686   1.000
 2903SOL    HW1 9608   4.546   5.741   0.997
 2903SOL    HW2 9609   4.390   5.732   0.948
 2904SOL     OW 9610   2.460   4.464   5.280
 2904SOL    HW1 9611   2.554   4.496   5.294
 2904SOL    HW2 9612   2.418   4.519   5.207
 2905SOL     OW 9613   0.875   5.072   1.522
 2905SOL    HW1 9614   0.791   5.030   1.556
 2905SOL    HW2 9615   0.918   5.125   1.594
 2906SOL     OW 9616   6.142   5.483   3.685
 2906SOL    HW1 9617   6.189   5.415   3.629
 2906SOL    HW2 9618   6.055   5.508   3.642
 2907SOL     OW 9619   1.013   0.324   3.635
 2907SOL    HW1 9620   1.057   0.366   3.556
 2907SOL    HW2 9621   1.043   0.370   3.719
 2908SOL     OW 9622   4.569   6.933   3.173
 2908SOL    HW1 9623   4.539   7.021   3.135
 2908SOL    HW2 9624   4.637   6.950   3.245
 2909SOL     OW 9625   1.189   5.709   2.516
 2909SOL    HW1 9626   1.246   5.671   2.443
 2909SOL    HW2 9627   1.245   5.724   2.598
 2910SOL     OW 9628   6.921   0.394   3.486
 2910SOL    HW1 9629   6.982   0.455   3.536
 2910SOL    HW2 9630   6.974   0.340   3.421
 2911SOL     OW 9631   6.764   3.788   4.421
 2911SOL    HW1 9632   6.822   3.826   4.493
 2911SOL    HW2 9633   6.807   3.706   4.383
 2912SOL     OW 9634   6.975   6.972   0.901
 2912SOL    HW1 9635   0.038   7.011   0.871
 2912SOL    HW2 9636   6.985   6.872   0.908
 2913SOL     OW 9637   2.658   5.741   1.011
 2913SOL    HW1 9638   2.702   5.751   0.922
 2913SOL    HW2 9639   2.583   5.675   1.004
 2914SOL     OW 9640   5.111   4.972   0.294
 2914SOL    HW1 9641   5.107   5.066   0.329
 2914SOL    HW2 9642   5.156   4.914   0.361
 2915SOL     OW 9643   2.907   1.324   3.241
 2915SOL    HW1 9644   2.852   1.273   3.307
 2915SOL    HW2 9645   2.928   1.415   3.278
 2916SOL     OW 9646   1.343   5.724   0.444
 2916SOL    HW1 9647   1.359   5.794   0.514
 2916SOL    HW2 9648   1.305   5.768   0.362
 2917SOL     OW 9649   2.805   6.590   3.945
 2917SOL    HW1 9650   2.855   6.601   3.860
 2917SOL    HW2 9651   2.768   6.678   3.974
 2918SOL     OW 9652   6.077   3.524   1.176
 2918SOL    HW1 9653   6.132   3.526   1.093
 2918SOL    HW2 9654   5.992   3.475   1.159
 2919SOL     OW 9655   1.445   5.794   3.991
 2919SOL    HW1 9656   1.395   5.785   3.905
 2919SOL    HW2 9657   1.381   5.809   4.066
 2920SOL     OW 9658   1.565   2.223   2.033
 2920SOL    HW1 9659   1.554   2.240   2.131
 2920SOL    HW2 9660   1.583   2.125   2.018
 2921SOL     OW 9661   0.382   0.281   5.617
 2921SOL    HW1 9662   0.361   0.263   5.713
 2921SOL    HW2 9663   0.472   0.244   5.595
 2922SOL     OW 9664   3.869   0.534   3.255
 2922SOL    HW1 9665   3.871   0.472   3.332
 2922SOL    HW2 9666   3.962   0.550   3.222
 2923SOL     OW 9667   6.180   5.049   4.658
 2923SOL    HW1 9668   6.144   5.015   4.571
 2923SOL    HW2 9669   6.193   4.971   4.721
 2924SOL     OW 9670   6.400   2.681   5.404
 2924SOL    HW1 9671   6.405   2.591   5.362
 2924SOL    HW2 9672   6.389   2.672   5.502
 2925SOL     OW 9673   5.312   0.336   6.411
 2925SOL    HW1 9674   5.380   0.401   6.375
 2925SOL    HW2 9675   5.266   0.291   6.334
 2926SOL     OW 9676   0.055   2.166   4.601
 2926SOL    HW1 9677   0.003   2.083   4.624
 2926SOL    HW2 9678   0.001   2.247   4.624
 2927SOL     OW 9679   1.329   2.922   1.719
 2927SOL    HW1 9680   1.321   2.932   1.818
 2927SOL    HW2 9681   1.278   2.995   1.674
 2928SOL     OW 9682   6.900   2.538   0.173
 2928SOL    HW1 9683   6.952   2.489   0.103
 2928SOL    HW2 9684   6.929   2.510   0.264
 2929SOL     OW 9685   1.474   2.547   4.790
 2929SOL    HW1 9686   1.503   2.506   4.876
 2929SOL    HW2 9687   1.533   2.514   4.716
 2930SOL     OW 9688   0.212   5.152   5.439
 2930SOL    HW1 9689   0.256   5.072   5.398
 2930SOL    HW2 9690   0.131   5.176   5.387
 2931SOL     OW 9691   4.713   4.350   5.776
 2931SOL    HW1 9692   4.749   4.392   5.693
 2931SOL    HW2 9693   4.788   4.319   5.834
 2932SOL     OW 9694   6.649   5.643   0.608
 2932SOL    HW1 9695   6.725   5.665   0.669
 2932SOL    HW2 9696   6.573   5.606   0.661
 2933SOL     OW 9697   1.460   0.497   0.482
 2933SOL    HW1 9698   1.477   0.531   0.574
 2933SOL    HW2 9699   1.510   0.412   0.468
 2934SOL     OW 9700   4.160   4.488   0.506
 2934SOL    HW1 9701   4.154   4.389   0.493
 2934SOL    HW2 9702   4.146   4.534   0.417
 2935SOL     OW 9703   0.002   2.232   6.043
 2935SOL    HW1 9704   0.076   2.164   6.046
 2935SOL    HW2 9705   6.952   2.203   6.104
 2936SOL     OW 9706   5.233   0.029   1.192
 2936SOL    HW1 9707   5.136   0.050   1.179
 2936SOL    HW2 9708   5.242   6.960   1.229
 2937SOL     OW 9709   4.768   5.510   2.165
 2937SOL    HW1 9710   4.763   5.448   2.086
 2937SOL    HW2 9711   4.851   5.566   2.157
 2938SOL     OW 9712   6.253   5.623   6.988
 2938SOL    HW1 9713   6.200   5.544   6.960
 2938SOL    HW2 9714   6.329   5.637   6.924
 2939SOL     OW 9715   0.302   5.957   1.553
 2939SOL    HW1 9716   0.384   5.902   1.541
 2939SOL    HW2 9717   0.232   5.928   1.487
 2940SOL     OW 9718   4.431   5.937   4.017
 2940SOL    HW1 9719   4.342   5.895   4.004
 2940SOL    HW2 9720   4.467   5.914   4.107
 2941SOL     OW 9721   1.820   3.516   4.071
 2941SOL    HW1 9722   1.799   3.570   4.152
 2941SOL    HW2 9723   1.752   3.444   4.060
 2942SOL     OW 9724   3.714   1.815   0.975
 2942SOL    HW1 9725   3.673   1.768   1.053
 2942SOL    HW2 9726   3.799   1.770   0.950
 2943SOL     OW 9727   5.927   4.219   3.508
 2943SOL    HW1 9728   5.902   4.243   3.602
 2943SOL    HW2 9729   6.026   4.219   3.499
 2944SOL     OW 9730   2.298   5.677   3.319
 2944SOL    HW1 9731   2.322   5.589   3.278
 2944SOL    HW2 9732   2.209   5.669   3.365
 2945SOL     OW 9733   4.855   4.385   1.269
 2945SOL    HW1 9734   4.861   4.300   1.217
 2945SOL    HW2 9735   4.768   4.388   1.318
 2946SOL     OW 9736   2.960   4.243   6.135
 2946SOL    HW1 9737   2.948   4.201   6.045
 2946SOL    HW2 9738   3.032   4.195   6.185
 2947SOL     OW 9739   5.914   6.574   0.437
 2947SOL    HW1 9740   5.995   6.527   0.403
 2947SOL    HW2 9741   5.914   6.574   0.537
 2948SOL     OW 9742   5.934   3.906   2.225
 2948SOL    HW1 9743   5.908   4.000   2.248
 2948SOL    HW2 9744   5.890   3.843   2.288
 2949SOL     OW 9745   1.338   6.960   0.582
 2949SOL    HW1 9746   1.437   6.946   0.570
 2949SOL    HW2 9747   1.291   6.872   0.573
 2950SOL     OW 9748   5.107   4.909   2.597
 2950SOL    HW1 9749   5.098   4.813   2.571
 2950SOL    HW2 9750   5.143   4.915   2.691
 2951SOL     OW 9751   5.998   1.441   1.852
 2951SOL    HW1 9752   5.948   1.397   1.778
 2951SOL    HW2 9753   5.939   1.509   1.896
 2952SOL     OW 9754   5.872   1.298   4.118
 2952SOL    HW1 9755   5.779   1.296   4.154
 2952SOL    HW2 9756   5.923   1.220   4.155
 2953SOL     OW 9757   0.809   5.675   3.678
 2953SOL    HW1 9758   0.793   5.774   3.672
 2953SOL    HW2 9759   0.886   5.657   3.738
 2954SOL     OW 9760   0.458   4.721   6.028
 2954SOL    HW1 9761   0.502   4.786   5.966
 2954SOL    HW2 9762   0.424   4.643   5.977
 2955SOL     OW 9763   1.962   4.260   6.971
 2955SOL    HW1 9764   1.866   4.246   6.946
 2955SOL    HW2 9765   2.021   4.231   6.895
 2956SOL     OW 9766   6.228   4.340   3.662
 2956SOL    HW1 9767   6.238   4.326   3.564
 2956SOL    HW2 9768   6.164   4.414   3.679
 2957SOL     OW 9769   2.630   5.497   1.816
 2957SOL    HW1 9770   2.708   5.545   1.855
 2957SOL    HW2 9771   2.564   5.478   1.889
 2958SOL     OW 9772   2.535   5.259   3.179
 2958SOL    HW1 9773   2.465   5.267   3.108
 2958SOL    HW2 9774   2.611   5.321   3.159
 2959SOL     OW 9775   6.710   2.603   2.952
 2959SOL    HW1 9776   6.733   2.624   3.047
 2959SOL    HW2 9777   6.656   2.679   2.914
 2960SOL     OW 9778   4.411   0.766   0.517
 2960SOL    HW1 9779   4.511   0.766   0.506
 2960SOL    HW2 9780   4.384   0.686   0.570
 2961SOL     OW 9781   5.508   4.104   2.393
 2961SOL    HW1 9782   5.523   4.046   2.313
 2961SOL    HW2 9783   5.511   4.200   2.366
 2962SOL     OW 9784   0.296   6.795   1.990
 2962SOL    HW1 9785   0.301   6.894   1.979
 2962SOL    HW2 9786   0.210   6.761   1.952
 2963SOL     OW 9787   1.680   1.287   4.793
 2963SOL    HW1 9788   1.778   1.271   4.782
 2963SOL    HW2 9789   1.666   1.370   4.847
 2964SOL     OW 9790   0.796   2.572   6.796
 2964SOL    HW1 9791   0.746   2.609   6.875
 2964SOL    HW2 9792   0.862   2.639   6.764
 2965SOL     OW 9793   0.891   0.164   4.703
 2965SOL    HW1 9794   0.856   0.072   4.719
 2965SOL    HW2 9795   0.984   0.171   4.739
 2966SOL     OW 9796   4.396   5.721   3.377
 2966SOL    HW1 9797   4.471   5.784   3.355
 2966SOL    HW2 9798   4.314   5.749   3.327
 2967SOL     OW 9799   6.583   0.360   5.310
 2967SOL    HW1 9800   6.609   0.363   5.407
 2967SOL    HW2 9801   6.648   0.303   5.260
 2968SOL     OW 9802   1.972   2.459   1.137
 2968SOL    HW1 9803   2.041   2.404   1.184
 2968SOL    HW2 9804   2.016   2.536   1.092
 2969SOL     OW 9805   5.249   3.523   4.553
 2969SOL    HW1 9806   5.239   3.451   4.484
 2969SOL    HW2 9807   5.293   3.486   4.635
 2970SOL     OW 9808   2.540   2.504   4.267
 2970SOL    HW1 9809   2.443   2.526   4.260
 2970SOL    HW2 9810   2.572   2.468   4.179
 2971SOL     OW 9811   5.400   3.012   6.192
 2971SOL    HW1 9812   5.312   3.036   6.234
 2971SOL    HW2 9813   5.414   2.913   6.196
 2972SOL     OW 9814   5.815   4.709   6.677
 2972SOL    HW1 9815   5.747   4.671   6.740
 2972SOL    HW2 9816   5.881   4.763   6.729
 2973SOL     OW 9817   4.810   0.071   2.431
 2973SOL    HW1 9818   4.851   7.008   2.459
 2973SOL    HW2 9819   4.762   0.059   2.344
 2974SOL     OW 9820   4.697   5.308   3.613
 2974SOL    HW1 9821   4.776   5.274   3.562
 2974SOL    HW2 9822   4.630   5.346   3.549
 2975SOL     OW 9823   4.915   4.368   4.237
 2975SOL    HW1 9824   4.880   4.275   4.243
 2975SOL    HW2 9825   4.856   4.422   4.177
 2976SOL     OW 9826   4.110   2.216   2.137
 2976SOL    HW1 9827   4.095   2.179   2.228
 2976SOL    HW2 9828   4.100   2.316   2.139
 2977SOL     OW 9829   1.040   0.868   1.593
 2977SOL    HW1 9830   0.966   0.882   1.659
 2977SOL    HW2 9831   1.082   0.779   1.608
 2978SOL     OW 9832   4.775   4.806   6.691
 2978SOL    HW1 9833   4.843   4.822   6.762
 2978SOL    HW2 9834   4.762   4.889   6.637
 2979SOL     OW 9835   3.173   1.034   3.968
 2979SOL    HW1 9836   3.198   1.053   3.873
 2979SOL    HW2 9837   3.139   1.118   4.011
 2980SOL     OW 9838   3.924   4.072   5.616
 2980SOL    HW1 9839   3.918   3.982   5.659
 2980SOL    HW2 9840   4.018   4.089   5.587
 2981SOL     OW 9841   1.274   1.174   0.728
 2981SOL    HW1 9842   1.253   1.129   0.641
 2981SOL    HW2 9843   1.229   1.125   0.802
 2982SOL     OW 9844   0.877   1.083   1.526
 2982SOL    HW1 9845   0.923   1.172   1.520
 2982SOL    HW2 9846   0.940   1.016   1.564
 2983SOL     OW 9847   6.029   2.895   6.392
 2983SOL    HW1 9848   5.994   2.872   6.483
 2983SOL    HW2 9849   5.964   2.954   6.344
 2984SOL     OW 9850   6.914   4.699   0.227
 2984SOL    HW1 9851   6.953   4.607   0.220
 2984SOL    HW2 9852   6.818   4.696   0.202
 2985SOL     OW 9853   0.259   6.720   4.704
 2985SOL    HW1 9854   0.226   6.626   4.706
 2985SOL    HW2 9855   0.269   6.750   4.609
 2986SOL     OW 9856   3.602   4.138   2.715
 2986SOL    HW1 9857   3.532   4.083   2.761
 2986SOL    HW2 9858   3.598   4.120   2.617
 2987SOL     OW 9859   1.696   0.877   4.314
 2987SOL    HW1 9860   1.728   0.885   4.220
 2987SOL    HW2 9861   1.597   0.894   4.316
 2988SOL     OW 9862   0.797   1.933   0.519
 2988SOL    HW1 9863   0.783   1.935   0.618
 2988SOL    HW2 9864   0.796   1.838   0.488
 2989SOL     OW 9865   5.112   3.628   4.204
 2989SOL    HW1 9866   5.208   3.616   4.178
 2989SOL    HW2 9867   5.104   3.699   4.273
 2990SOL     OW 9868   4.806   1.984   4.820
 2990SOL    HW1 9869   4.871   1.969   4.895
 2990SOL    HW2 9870   4.748   2.062   4.841
 2991SOL     OW 9871   5.847   3.843   0.583
 2991SOL    HW1 9872   5.851   3.940   0.604
 2991SOL    HW2 9873   5.929   3.816   0.532
 2992SOL     OW 9874   0.590   3.314   5.448
 2992SOL    HW1 9875   0.680   3.345   5.416
 2992SOL    HW2 9876   0.518   3.369   5.405
 2993SOL     OW 9877   1.229   4.494   0.489
 2993SOL    HW1 9878   1.159   4.517   0.422
 2993SOL    HW2 9879   1.304   4.560   0.483
 2994SOL     OW 9880   4.650   6.758   6.909
 2994SOL    HW1 9881   4.599   6.828   6.858
 2994SOL    HW2 9882   4.732   6.799   6.949
 2995SOL     OW 9883   5.323   0.258   1.028
 2995SOL    HW1 9884   5.313   0.180   1.089
 2995SOL    HW2 9885   5.285   0.340   1.072
 2996SOL     OW 9886   0.480   1.650   4.520
 2996SOL    HW1 9887   0.506   1.738   4.481
 2996SOL    HW2 9888   0.509   1.646   4.616
 2997SOL     OW 9889   4.969   0.552   3.838
 2997SOL    HW1 9890   5.006   0.640   3.869
 2997SOL    HW2 9891   5.015   0.478   3.887
 2998SOL     OW 9892   2.599   1.555   2.533
 2998SOL    HW1 9893   2.675   1.495   2.559
 2998SOL    HW2 9894   2.600   1.571   2.435
 2999SOL     OW 9895   2.980   4.217   0.332
 2999SOL    HW1 9896   3.022   4.194   0.244
 2999SOL    HW2 9897   2.894   4.265   0.316
 3000SOL     OW 9898   2.932   3.612   5.219
 3000SOL    HW1 9899   2.875   3.532   5.234
 3000SOL    HW2 9900   3.027   3.583   5.204
 3001SOL     OW 9901   6.512   0.867   5.708
 3001SOL    HW1 9902   6.524   0.962   5.738
 3001SOL    HW2 9903   6.442   0.863   5.637
 3002SOL     OW 9904   2.524   1.482   1.545
 3002SOL    HW1 9905   2.601   1.475   1.609
 3002SOL    HW2 9906   2.443   1.515   1.593
 3003SOL     OW 9907   1.585   5.984   0.110
 3003SOL    HW1 9908   1.618   5.895   0.079
 3003SOL    HW2 9909   1.550   6.036   0.033
 3004SOL     OW 9910   2.703   5.890   3.957
 3004SOL    HW1 9911   2.691   5.841   3.871
 3004SOL    HW2 9912   2.653   5.842   4.030
 3005SOL     OW 9913   1.086   2.542   5.337
 3005SOL    HW1 9914   0.999   2.517   5.380
 3005SOL    HW2 9915   1.077   2.631   5.293
 3006SOL     OW 9916   5.707   1.740   5.305
 3006SOL    HW1 9917   5.704   1.645   5.272
 3006SOL    HW2 9918   5.750   1.742   5.396
 3007SOL     OW 9919   5.053   4.067   6.554
 3007SOL    HW1 9920   4.988   4.054   6.629
 3007SOL    HW2 9921   5.073   4.165   6.545
 3008SOL     OW 9922   4.556   2.350   5.818
 3008SOL    HW1 9923   4.491   2.314   5.752
 3008SOL    HW2 9924   4.526   2.326   5.911
 3009SOL     OW 9925   0.393   3.224   2.664
 3009SOL    HW1 9926   0.385   3.153   2.594
 3009SOL    HW2 9927   0.439   3.187   2.744
 3010SOL     OW 9928   4.416   6.089   6.180
 3010SOL    HW1 9929   4.497   6.102   6.237
 3010SOL    HW2 9930   4.393   6.175   6.134
 3011SOL     OW 9931   6.308   7.013   0.996
 3011SOL    HW1 9932   6.336   0.061   1.060
 3011SOL    HW2 9933   6.365   7.017   0.915
 3012SOL     OW 9934   2.618   2.797   6.171
 3012SOL    HW1 9935   2.594   2.866   6.102
 3012SOL    HW2 9936   2.548   2.726   6.172
 3013SOL     OW 9937   0.619   5.740   4.749
 3013SOL    HW1 9938   0.659   5.823   4.787
 3013SOL    HW2 9939   0.688   5.692   4.694
 3014SOL     OW 9940   4.755   0.433   5.292
 3014SOL    HW1 9941   4.684   0.494   5.258
 3014SOL    HW2 9942   4.800   0.473   5.372
 3015SOL     OW 9943   1.353   1.518   0.158
 3015SOL    HW1 9944   1.409   1.465   0.222
 3015SOL    HW2 9945   1.367   1.616   0.174
 3016SOL     OW 9946   2.286   6.542   4.717
 3016SOL    HW1 9947   2.355   6.615   4.728
 3016SOL    HW2 9948   2.332   6.457   4.690
 3017SOL     OW 9949   0.025   5.706   1.106
 3017SOL    HW1 9950   7.015   5.792   1.067
 3017SOL    HW2 9951   0.046   5.642   1.032
 3018SOL     OW 9952   3.746   6.877   6.672
 3018SOL    HW1 9953   3.818   6.819   6.709
 3018SOL    HW2 9954   3.660   6.827   6.670
 3019SOL     OW 9955   1.818   0.215   4.860
 3019SOL    HW1 9956   1.906   0.180   4.890
 3019SOL    HW2 9957   1.791   0.291   4.918
 3020SOL     OW 9958   5.060   3.337   0.151
 3020SOL    HW1 9959   4.982   3.331   0.089
 3020SOL    HW2 9960   5.112   3.252   0.148
 3021SOL     OW 9961   3.595   6.119   4.805
 3021SOL    HW1 9962   3.545   6.044   4.762
 3021SOL    HW2 9963   3.677   6.140   4.752
 3022SOL     OW 9964   4.341   5.548   3.931
 3022SOL    HW1 9965   4.345   5.599   3.845
 3022SOL    HW2 9966   4.426   5.563   3.983
 3023SOL     OW 9967   4.362   6.725   3.226
 3023SOL    HW1 9968   4.304   6.766   3.296
 3023SOL    HW2 9969   4.423   6.794   3.187
 3024SOL     OW 9970   0.180   6.555   6.950
 3024SOL    HW1 9971   0.121   6.633   6.971
 3024SOL    HW2 9972   0.142   6.472   6.990
 3025SOL     OW 9973   3.625   6.278   0.659
 3025SOL    HW1 9974   3.649   6.374   0.670
 3025SOL    HW2 9975   3.526   6.268   0.653
 3026SOL     OW 9976   6.272   0.951   0.081
 3026SOL    HW1 9977   6.328   0.886   0.031
 3026SOL    HW2 9978   6.176   0.926   0.074
 3027SOL     OW 9979   4.970   1.799   1.244
 3027SOL    HW1 9980   4.897   1.740   1.278
 3027SOL    HW2 9981   4.930   1.878   1.196
 3028SOL     OW 9982   2.566   4.831   6.022
 3028SOL    HW1 9983   2.587   4.747   6.071
 3028SOL    HW2 9984   2.608   4.828   5.931
 3029SOL     OW 9985   0.826   2.570   4.358
 3029SOL    HW1 9986   0.808   2.530   4.268
 3029SOL    HW2 9987   0.745   2.559   4.416
 3030SOL     OW 9988   2.454   3.293   0.217
 3030SOL    HW1 9989   2.397   3.297   0.135
 3030SOL    HW2 9990   2.407   3.239   0.287
 3031SOL     OW 9991   1.080   6.453   1.464
 3031SOL    HW1 9992   1.079   6.539   1.515
 3031SOL    HW2 9993   1.168   6.408   1.477
 3032SOL     OW 9994   2.136   0.387   2.372
 3032SOL    HW1 9995   2.041   0.383   2.342
 3032SOL    HW2 9996   2.186   0.455   2.318
 3033SOL     OW 9997   6.808   1.875   3.905
 3033SOL    HW1 9998   6.745   1.837   3.972
 3033SOL    HW2 9999   6.832   1.969   3.932
 3034SOL     OW10000   0.478   6.021   3.559
 3034SOL    HW110001   0.443   6.078   3.634
 3034SOL    HW210002   0.466   5.924   3.583
 3035SOL     OW10003   0.978   2.921   6.242
 3035SOL    HW110004   1.028   2.862   6.178
 3035SOL    HW210005   0.947   2.866   6.320
 3036SOL     OW10006   3.191   2.373   6.460
 3036SOL    HW110007   3.205   2.472   6.463
 3036SOL    HW210008   3.232   2.335   6.377
 3037SOL     OW10009   0.266   5.511   0.048
 3037SOL    HW110010   0.311   5.583   7.019
 3037SOL    HW210011   0.191   5.472   7.018
 3038SOL     OW10012   5.303   3.998   6.537
 3038SOL    HW110013   5.318   3.957   6.627
 3038SOL    HW210014   5.205   4.013   6.523
 3039SOL     OW10015   6.856   4.216   6.816
 3039SOL    HW110016   6.911   4.152   6.761
 3039SOL    HW210017   6.866   4.194   6.913
 3040SOL     OW10018   4.639   3.863   5.865
 3040SOL    HW110019   4.623   3.768   5.892
 3040SOL    HW210020   4.584   3.923   5.923
 3041SOL     OW10021   2.269   4.261   5.007
 3041SOL    HW110022   2.269   4.162   5.015
 3041SOL    HW210023   2.258   4.287   4.911
 3042SOL     OW10024   0.067   5.333   3.313
 3042SOL    HW110025   0.020   5.250   3.343
 3042SOL    HW210026   0.108   5.319   3.223
 3043SOL     OW10027   3.373   4.876   0.857
 3043SOL    HW110028   3.347   4.920   0.771
 3043SOL    HW210029   3.385   4.945   0.928
 3044SOL     OW10030   3.464   3.147   5.195
 3044SOL    HW110031   3.431   3.055   5.218
 3044SOL    HW210032   3.460   3.161   5.096
 3045SOL     OW10033   4.715   1.298   2.049
 3045SOL    HW110034   4.709   1.382   2.103
 3045SOL    HW210035   4.809   1.264   2.051
 3046SOL     OW10036   5.424   5.628   0.765
 3046SOL    HW110037   5.476   5.585   0.839
 3046SOL    HW210038   5.397   5.720   0.793
 3047SOL     OW10039   6.245   0.610   6.286
 3047SOL    HW110040   6.322   0.673   6.273
 3047SOL    HW210041   6.259   0.528   6.230
 3048SOL     OW10042   3.748   3.580   0.848
 3048SOL    HW110043   3.723   3.619   0.759
 3048SOL    HW210044   3.673   3.591   0.912
 3049SOL     OW10045   1.407   0.920   4.327
 3049SOL    HW110046   1.352   0.955   4.403
 3049SOL    HW210047   1.375   0.828   4.303
 3050SOL     OW10048   2.964   2.606   1.293
 3050SOL    HW110049   2.988   2.526   1.349
 3050SOL    HW210050   2.972   2.689   1.348
 3051SOL     OW10051   2.525   6.108   5.247
 3051SOL    HW110052   2.438   6.074   5.212
 3051SOL    HW210053   2.555   6.186   5.192
 3052SOL     OW10054   6.456   6.446   2.237
 3052SOL    HW110055   6.511   6.526   2.213
 3052SOL    HW210056   6.446   6.387   2.156
 3053SOL     OW10057   1.429   4.281   0.410
 3053SOL    HW110058   1.361   4.259   0.480
 3053SOL    HW210059   1.445   4.200   0.353
 3054SOL     OW10060   5.593   1.266   2.649
 3054SOL    HW110061   5.590   1.334   2.575
 3054SOL    HW210062   5.508   1.213   2.648
 3055SOL     OW10063   6.109   5.466   6.157
 3055SOL    HW110064   6.089   5.435   6.250
 3055SOL    HW210065   6.094   5.565   6.151
 3056SOL     OW10066   4.654   1.431   6.215
 3056SOL    HW110067   4.752   1.440   6.202
 3056SOL    HW210068   4.625   1.338   6.192
 3057SOL     OW10069   6.047   5.436   2.989
 3057SOL    HW110070   6.055   5.340   2.960
 3057SOL    HW210071   6.035   5.440   3.088
 3058SOL     OW10072   6.994   4.662   6.870
 3058SOL    HW110073   0.062   4.625   6.884
 3058SOL    HW210074   6.928   4.607   6.921
 3059SOL     OW10075   2.343   2.496   4.524
 3059SOL    HW110076   2.436   2.497   4.561
 3059SOL    HW210077   2.330   2.575   4.465
 3060SOL     OW10078   4.842   5.217   5.236
 3060SOL    HW110079   4.754   5.218   5.188
 3060SOL    HW210080   4.835   5.162   5.319
 3061SOL     OW10081   5.927   5.292   5.023
 3061SOL    HW110082   5.926   5.343   4.937
 3061SOL    HW210083   5.995   5.331   5.084
 3062SOL     OW10084   5.030   4.455   2.004
 3062SOL    HW110085   5.078   4.514   1.938
 3062SOL    HW210086   4.935   4.446   1.976
 3063SOL     OW10087   0.377   4.623   1.549
 3063SOL    HW110088   0.330   4.698   1.501
 3063SOL    HW210089   0.320   4.541   1.545
 3064SOL     OW10090   4.375   1.854   7.006
 3064SOL    HW110091   4.391   1.780   0.047
 3064SOL    HW210092   4.341   1.815   6.920
 3065SOL     OW10093   0.566   0.849   6.787
 3065SOL    HW110094   0.636   0.778   6.786
 3065SOL    HW210095   0.558   0.889   6.695
 3066SOL     OW10096   5.361   5.987   5.914
 3066SOL    HW110097   5.262   5.993   5.912
 3066SOL    HW210098   5.397   6.049   5.984
 3067SOL     OW10099   1.998   2.453   6.473
 3067SOL    HW110100   1.935   2.514   6.522
 3067SOL    HW210101   1.971   2.448   6.377
 3068SOL     OW10102   0.828   1.315   1.087
 3068SOL    HW110103   0.796   1.224   1.062
 3068SOL    HW210104   0.906   1.307   1.149
 3069SOL     OW10105   5.005   0.019   2.865
 3069SOL    HW110106   4.955   7.021   2.781
 3069SOL    HW210107   4.949   7.016   2.944
 3070SOL     OW10108   2.726   1.230   1.041
 3070SOL    HW110109   2.627   1.247   1.045
 3070SOL    HW210110   2.771   1.281   1.114
 3071SOL     OW10111   6.913   3.260   3.788
 3071SOL    HW110112   6.895   3.309   3.703
 3071SOL    HW210113   6.831   3.264   3.846
 3072SOL     OW10114   2.131   6.483   6.183
 3072SOL    HW110115   2.185   6.567   6.174
 3072SOL    HW210116   2.069   6.474   6.105
 3073SOL     OW10117   6.253   5.226   0.452
 3073SOL    HW110118   6.168   5.265   0.488
 3073SOL    HW210119   6.232   5.170   0.371
 3074SOL     OW10120   2.354   3.356   1.083
 3074SOL    HW110121   2.421   3.319   1.019
 3074SOL    HW210122   2.356   3.303   1.167
 3075SOL     OW10123   2.362   5.573   2.926
 3075SOL    HW110124   2.326   5.513   2.855
 3075SOL    HW210125   2.363   5.524   3.013
 3076SOL     OW10126   0.076   0.015   4.461
 3076SOL    HW110127   0.115   7.016   4.550
 3076SOL    HW210128   0.131   0.087   4.418
 3077SOL     OW10129   6.349   3.917   1.982
 3077SOL    HW110130   6.285   3.921   1.906
 3077SOL    HW210131   6.300   3.895   2.066
 3078SOL     OW10132   6.510   3.237   1.571
 3078SOL    HW110133   6.431   3.274   1.620
 3078SOL    HW210134   6.543   3.305   1.505
 3079SOL     OW10135   2.589   3.259   5.371
 3079SOL    HW110136   2.579   3.225   5.464
 3079SOL    HW210137   2.565   3.187   5.306
 3080SOL     OW10138   4.165   5.080   1.109
 3080SOL    HW110139   4.136   4.985   1.096
 3080SOL    HW210140   4.245   5.082   1.169
 3081SOL     OW10141   1.857   4.286   0.759
 3081SOL    HW110142   1.766   4.322   0.740
 3081SOL    HW210143   1.850   4.192   0.791
 3082SOL     OW10144   4.100   4.928   4.909
 3082SOL    HW110145   4.067   5.004   4.965
 3082SOL    HW210146   4.185   4.892   4.947
 3083SOL     OW10147   2.655   5.840   2.615
 3083SOL    HW110148   2.582   5.870   2.676
 3083SOL    HW210149   2.742   5.841   2.665
 3084SOL     OW10150   0.622   3.141   3.947
 3084SOL    HW110151   0.631   3.239   3.959
 3084SOL    HW210152   0.712   3.101   3.928
 3085SOL     OW10153   5.085   4.322   0.981
 3085SOL    HW110154   5.034   4.369   1.053
 3085SOL    HW210155   5.078   4.375   0.896
 3086SOL     OW10156   6.124   0.900   6.630
 3086SOL    HW110157   6.111   0.956   6.712
 3086SOL    HW210158   6.103   0.804   6.651
 3087SOL     OW10159   2.809   0.229   2.382
 3087SOL    HW110160   2.753   0.308   2.405
 3087SOL    HW210161   2.857   0.246   2.296
 3088SOL     OW10162   1.425   2.868   5.301
 3088SOL    HW110163   1.467   2.797   5.357
 3088SOL    HW210164   1.360   2.826   5.237
 3089SOL     OW10165   4.788   6.893   4.954
 3089SOL    HW110166   4.843   6.866   5.033
 3089SOL    HW210167   4.847   6.904   4.874
 3090SOL     OW10168   1.308   2.537   1.962
 3090SOL    HW110169   1.221   2.496   1.932
 3090SOL    HW210170   1.307   2.635   1.941
 3091SOL     OW10171   0.974   2.438   0.853
 3091SOL    HW110172   0.983   2.482   0.942
 3091SOL    HW210173   0.904   2.485   0.799
 3092SOL     OW10174   6.869   6.810   2.346
 3092SOL    HW110175   6.880   6.717   2.312
 3092SOL    HW210176   6.958   6.847   2.372
 3093SOL     OW10177   5.205   5.044   6.858
 3093SOL    HW110178   5.251   5.055   6.770
 3093SOL    HW210179   5.271   5.053   6.932
 3094SOL     OW10180   3.045   1.688   5.946
 3094SOL    HW110181   3.130   1.641   5.969
 3094SOL    HW210182   2.974   1.661   6.011
 3095SOL     OW10183   1.925   3.453   5.287
 3095SOL    HW110184   1.931   3.374   5.349
 3095SOL    HW210185   1.969   3.532   5.330
 3096SOL     OW10186   0.447   3.987   4.682
 3096SOL    HW110187   0.464   3.890   4.661
 3096SOL    HW210188   0.378   4.023   4.619
 3097SOL     OW10189   5.535   1.772   6.522
 3097SOL    HW110190   5.633   1.783   6.536
 3097SOL    HW210191   5.501   1.850   6.469
 3098SOL     OW10192   1.911   2.584   2.301
 3098SOL    HW110193   1.902   2.572   2.202
 3098SOL    HW210194   1.953   2.673   2.319
 3099SOL     OW10195   7.002   6.209   3.750
 3099SOL    HW110196   7.010   6.173   3.843
 3099SOL    HW210197   6.988   6.308   3.754
 3100SOL     OW10198   6.802   5.488   2.359
 3100SOL    HW110199   6.822   5.565   2.421
 3100SOL    HW210200   6.816   5.402   2.408
 3101SOL     OW10201   4.109   6.099   5.604
 3101SOL    HW110202   4.094   6.075   5.508
 3101SOL    HW210203   4.021   6.114   5.648
 3102SOL     OW10204   0.009   4.606   0.776
 3102SOL    HW110205   0.051   4.520   0.804
 3102SOL    HW210206   0.055   4.682   0.821
 3103SOL     OW10207   3.482   0.563   1.687
 3103SOL    HW110208   3.508   0.591   1.594
 3103SOL    HW210209   3.554   0.590   1.751
 3104SOL     OW10210   4.742   0.176   6.258
 3104SOL    HW110211   4.802   0.251   6.230
 3104SOL    HW210212   4.680   0.208   6.329
 3105SOL     OW10213   5.495   3.271   0.031
 3105SOL    HW110214   5.443   3.306   6.978
 3105SOL    HW210215   5.492   3.336   0.107
 3106SOL     OW10216   5.628   0.337   5.081
 3106SOL    HW110217   5.686   0.377   5.011
 3106SOL    HW210218   5.678   0.332   5.168
 3107SOL     OW10219   3.988   0.683   6.284
 3107SOL    HW110220   3.898   0.639   6.286
 3107SOL    HW210221   3.977   0.781   6.300
 3108SOL     OW10222   2.003   4.461   4.162
 3108SOL    HW110223   2.054   4.440   4.245
 3108SOL    HW210224   2.007   4.560   4.145
 3109SOL     OW10225   6.714   6.090   3.882
 3109SOL    HW110226   6.797   6.106   3.936
 3109SOL    HW210227   6.734   6.107   3.786
 3110SOL     OW10228   1.840   4.707   3.837
 3110SOL    HW110229   1.834   4.669   3.745
 3110SOL    HW210230   1.830   4.806   3.833
 3111SOL     OW10231   5.955   4.397   4.473
 3111SOL    HW110232   6.035   4.348   4.438
 3111SOL    HW210233   5.959   4.400   4.573
 3112SOL     OW10234   3.484   2.343   6.779
 3112SOL    HW110235   3.485   2.283   6.700
 3112SOL    HW210236   3.492   2.288   6.863
 3113SOL     OW10237   1.762   5.209   3.313
 3113SOL    HW110238   1.816   5.148   3.255
 3113SOL    HW210239   1.774   5.304   3.283
 3114SOL     OW10240   4.506   0.769   0.098
 3114SOL    HW110241   4.521   0.852   0.044
 3114SOL    HW210242   4.593   0.738   0.136
 3115SOL     OW10243   4.314   4.999   5.525
 3115SOL    HW110244   4.348   5.037   5.439
 3115SOL    HW210245   4.265   4.914   5.506
 3116SOL     OW10246   0.441   2.154   1.034
 3116SOL    HW110247   0.351   2.115   1.015
 3116SOL    HW210248   0.432   2.226   1.103
 3117SOL     OW10249   5.339   1.523   5.207
 3117SOL    HW110250   5.383   1.613   5.205
 3117SOL    HW210251   5.317   1.498   5.302
 3118SOL     OW10252   2.055   1.391   3.058
 3118SOL    HW110253   2.003   1.307   3.044
 3118SOL    HW210254   2.076   1.403   3.155
 3119SOL     OW10255   4.221   4.195   5.894
 3119SOL    HW110256   4.265   4.285   5.895
 3119SOL    HW210257   4.277   4.130   5.843
 3120SOL     OW10258   1.914   6.508   4.496
 3120SOL    HW110259   1.825   6.466   4.514
 3120SOL    HW210260   1.959   6.531   4.583
 3121SOL     OW10261   4.664   1.162   4.461
 3121SOL    HW110262   4.684   1.128   4.553
 3121SOL    HW210263   4.740   1.219   4.429
 3122SOL     OW10264   4.203   5.365   4.771
 3122SOL    HW110265   4.240   5.369   4.864
 3122SOL    HW210266   4.212   5.454   4.728
 3123SOL     OW10267   2.844   1.653   3.753
 3123SOL    HW110268   2.755   1.661   3.798
 3123SOL    HW210269   2.874   1.743   3.721
 3124SOL     OW10270   4.771   0.281   3.927
 3124SOL    HW110271   4.731   0.285   4.019
 3124SOL    HW210272   4.841   0.352   3.918
 3125SOL     OW10273   1.687   2.403   5.267
 3125SOL    HW110274   1.703   2.309   5.297
 3125SOL    HW210275   1.774   2.453   5.264
 3126SOL     OW10276   5.682   5.074   4.518
 3126SOL    HW110277   5.693   5.137   4.441
 3126SOL    HW210278   5.758   5.086   4.582
 3127SOL     OW10279   0.126   1.218   4.586
 3127SOL    HW110280   0.204   1.160   4.608
 3127SOL    HW210281   0.131   1.302   4.640
 3128SOL     OW10282   4.893   0.795   0.331
 3128SOL    HW110283   4.851   0.815   0.242
 3128SOL    HW210284   4.963   0.725   0.319
 3129SOL     OW10285   4.964   3.333   0.735
 3129SOL    HW110286   5.009   3.255   0.691
 3129SOL    HW210287   4.875   3.304   0.771
 3130SOL     OW10288   0.931   4.527   1.368
 3130SOL    HW110289   0.979   4.535   1.456
 3130SOL    HW210290   0.888   4.615   1.346
 3131SOL     OW10291   6.842   4.094   2.444
 3131SOL    HW110292   6.913   4.079   2.375
 3131SOL    HW210293   6.882   4.141   2.523
 3132SOL     OW10294   3.844   4.795   6.861
 3132SOL    HW110295   3.827   4.759   6.769
 3132SOL    HW210296   3.812   4.729   6.929
 3133SOL     OW10297   4.111   0.839   3.716
 3133SOL    HW110298   4.169   0.909   3.756
 3133SOL    HW210299   4.109   0.758   3.775
 3134SOL     OW10300   4.002   5.200   2.404
 3134SOL    HW110301   4.014   5.108   2.440
 3134SOL    HW210302   4.091   5.244   2.396
 3135SOL     OW10303   5.608   6.648   6.122
 3135SOL    HW110304   5.625   6.686   6.031
 3135SOL    HW210305   5.693   6.611   6.159
 3136SOL     OW10306   6.116   1.196   2.495
 3136SOL    HW110307   6.082   1.148   2.414
 3136SOL    HW210308   6.050   1.188   2.570
 3137SOL     OW10309   6.658   7.004   6.995
 3137SOL    HW110310   6.626   7.020   6.901
 3137SOL    HW210311   6.733   6.937   6.993
 3138SOL     OW10312   5.819   4.962   3.846
 3138SOL    HW110313   5.914   4.940   3.823
 3138SOL    HW210314   5.774   4.881   3.881
 3139SOL     OW10315   2.596   5.054   0.967
 3139SOL    HW110316   2.654   4.975   0.987
 3139SOL    HW210317   2.570   5.099   1.053
 3140SOL     OW10318   6.902   6.256   6.075
 3140SOL    HW110319   6.872   6.275   5.981
 3140SOL    HW210320   7.000   6.233   6.075
 3141SOL     OW10321   6.253   2.420   6.497
 3141SOL    HW110322   6.264   2.481   6.575
 3141SOL    HW210323   6.340   2.412   6.448
 3142SOL     OW10324   5.079   0.597   2.256
 3142SOL    HW110325   5.165   0.549   2.238
 3142SOL    HW210326   5.003   0.532   2.257
 3143SOL     OW10327   6.260   1.532   0.120
 3143SOL    HW110328   6.260   1.468   0.044
 3143SOL    HW210329   6.242   1.483   0.205
 3144SOL     OW10330   4.031   4.211   6.440
 3144SOL    HW110331   3.938   4.184   6.466
 3144SOL    HW210332   4.098   4.160   6.494
 3145SOL     OW10333   0.970   5.968   1.561
 3145SOL    HW110334   0.928   5.886   1.601
 3145SOL    HW210335   0.907   6.045   1.572
 3146SOL     OW10336   0.285   0.503   5.044
 3146SOL    HW110337   0.370   0.488   4.993
 3146SOL    HW210338   0.215   0.440   5.012
 3147SOL     OW10339   4.095   4.969   6.536
 3147SOL    HW110340   4.014   5.021   6.564
 3147SOL    HW210341   4.145   4.940   6.617
 3148SOL     OW10342   0.701   5.936   2.863
 3148SOL    HW110343   0.692   6.013   2.926
 3148SOL    HW210344   0.790   5.939   2.818
 3149SOL     OW10345   2.769   1.067   0.777
 3149SOL    HW110346   2.767   1.128   0.856
 3149SOL    HW210347   2.828   1.105   0.706
 3150SOL     OW10348   6.991   5.830   5.257
 3150SOL    HW110349   6.907   5.847   5.205
 3150SOL    HW210350   0.045   5.868   5.207
 3151SOL     OW10351   6.027   1.715   5.874
 3151SOL    HW110352   6.006   1.705   5.971
 3151SOL    HW210353   6.051   1.627   5.835
 3152SOL     OW10354   1.369   2.967   6.309
 3152SOL    HW110355   1.369   2.899   6.383
 3152SOL    HW210356   1.372   2.921   6.221
 3153SOL     OW10357   6.578   5.257   1.042
 3153SOL    HW110358   6.534   5.169   1.062
 3153SOL    HW210359   6.548   5.288   0.952
 3154SOL     OW10360   5.446   1.495   1.071
 3154SOL    HW110361   5.416   1.469   1.163
 3154SOL    HW210362   5.389   1.449   1.003
 3155SOL     OW10363   0.319   4.643   0.878
 3155SOL    HW110364   0.285   4.573   0.941
 3155SOL    HW210365   0.254   4.719   0.875
 3156SOL     OW10366   3.597   4.161   2.065
 3156SOL    HW110367   3.692   4.192   2.078
 3156SOL    HW210368   3.591   4.102   1.985
 3157SOL     OW10369   0.824   1.834   5.360
 3157SOL    HW110370   0.847   1.761   5.295
 3157SOL    HW210371   0.903   1.854   5.417
 3158SOL     OW10372   2.927   1.376   5.533
 3158SOL    HW110373   2.894   1.406   5.444
 3158SOL    HW210374   2.943   1.455   5.592
 3159SOL     OW10375   5.768   6.977   0.155
 3159SOL    HW110376   5.816   7.017   0.233
 3159SOL    HW210377   5.681   6.939   0.186
 3160SOL     OW10378   2.358   0.216   5.667
 3160SOL    HW110379   2.447   0.209   5.711
 3160SOL    HW210380   2.288   0.173   5.725
 3161SOL     OW10381   1.925   2.836   3.244
 3161SOL    HW110382   2.020   2.861   3.262
 3161SOL    HW210383   1.870   2.852   3.325
 3162SOL     OW10384   1.872   5.516   0.611
 3162SOL    HW110385   1.882   5.457   0.692
 3162SOL    HW210386   1.781   5.503   0.572
 3163SOL     OW10387   4.496   4.292   0.520
 3163SOL    HW110388   4.557   4.369   0.501
 3163SOL    HW210389   4.542   4.228   0.581
 3164SOL     OW10390   2.623   6.114   3.365
 3164SOL    HW110391   2.687   6.188   3.385
 3164SOL    HW210392   2.654   6.062   3.286
 3165SOL     OW10393   1.013   6.026   0.920
 3165SOL    HW110394   1.027   6.060   0.827
 3165SOL    HW210395   0.915   6.025   0.940
 3166SOL     OW10396   4.184   0.616   5.374
 3166SOL    HW110397   4.130   0.690   5.333
 3166SOL    HW210398   4.223   0.647   5.461
 3167SOL     OW10399   4.866   3.786   0.701
 3167SOL    HW110400   4.946   3.733   0.674
 3167SOL    HW210401   4.893   3.862   0.759
 3168SOL     OW10402   4.054   1.877   0.501
 3168SOL    HW110403   4.066   1.956   0.561
 3168SOL    HW210404   4.069   1.793   0.553
 3169SOL     OW10405   1.842   4.722   2.160
 3169SOL    HW110406   1.872   4.634   2.121
 3169SOL    HW210407   1.865   4.724   2.257
 3170SOL     OW10408   3.598   5.310   3.382
 3170SOL    HW110409   3.638   5.309   3.291
 3170SOL    HW210410   3.524   5.243   3.387
 3171SOL     OW10411   5.340   2.577   2.912
 3171SOL    HW110412   5.323   2.676   2.916
 3171SOL    HW210413   5.255   2.528   2.931
 3172SOL     OW10414   0.404   4.976   0.723
 3172SOL    HW110415   0.323   4.941   0.677
 3172SOL    HW210416   0.390   5.072   0.749
 3173SOL     OW10417   3.378   1.367   0.283
 3173SOL    HW110418   3.306   1.383   0.217
 3173SOL    HW210419   3.467   1.368   0.237
 3174SOL     OW10420   3.140   3.372   5.894
 3174SOL    HW110421   3.096   3.374   5.804
 3174SOL    HW210422   3.197   3.454   5.904
 3175SOL     OW10423   6.965   0.449   4.178
 3175SOL    HW110424   0.037   0.465   4.155
 3175SOL    HW210425   6.944   0.352   4.170
 3176SOL     OW10426   1.130   4.610   4.648
 3176SOL    HW110427   1.213   4.554   4.639
 3176SOL    HW210428   1.050   4.555   4.622
 3177SOL     OW10429   5.549   3.979   2.886
 3177SOL    HW110430   5.478   3.910   2.871
 3177SOL    HW210431   5.639   3.935   2.887
 3178SOL     OW10432   6.921   0.843   1.105
 3178SOL    HW110433   6.888   0.914   1.043
 3178SOL    HW210434   7.012   0.812   1.075
 3179SOL     OW10435   0.627   1.987   2.052
 3179SOL    HW110436   0.723   1.965   2.037
 3179SOL    HW210437   0.573   1.903   2.055
 3180SOL     OW10438   6.850   6.007   6.822
 3180SOL    HW110439   6.775   6.013   6.888
 3180SOL    HW210440   6.861   6.096   6.776
 3181SOL     OW10441   0.505   1.296   4.438
 3181SOL    HW110442   0.489   1.323   4.343
 3181SOL    HW210443   0.456   1.358   4.499
 3182SOL     OW10444   2.968   0.441   0.334
 3182SOL    HW110445   2.879   0.395   0.340
 3182SOL    HW210446   2.963   0.511   0.262
 3183SOL     OW10447   4.544   4.578   1.997
 3183SOL    HW110448   4.590   4.620   2.075
 3183SOL    HW210449   4.570   4.481   1.991
 3184SOL     OW10450   0.215   2.542   4.289
 3184SOL    HW110451   0.180   2.508   4.376
 3184SOL    HW210452   0.315   2.534   4.288
 3185SOL     OW10453   0.147   6.306   6.212
 3185SOL    HW110454   0.143   6.207   6.199
 3185SOL    HW210455   0.236   6.331   6.251
 3186SOL     OW10456   1.121   1.344   5.943
 3186SOL    HW110457   1.060   1.267   5.959
 3186SOL    HW210458   1.102   1.384   5.853
 3187SOL     OW10459   4.018   5.571   2.838
 3187SOL    HW110460   4.029   5.487   2.784
 3187SOL    HW210461   4.072   5.644   2.796
 3188SOL     OW10462   2.242   5.383   6.143
 3188SOL    HW110463   2.268   5.411   6.051
 3188SOL    HW210464   2.199   5.459   6.191
 3189SOL     OW10465   2.780   1.658   0.475
 3189SOL    HW110466   2.862   1.615   0.436
 3189SOL    HW210467   2.782   1.756   0.458
 3190SOL     OW10468   0.114   6.041   4.462
 3190SOL    HW110469   0.072   5.952   4.444
 3190SOL    HW210470   0.202   6.027   4.508
 3191SOL     OW10471   4.612   5.680   1.853
 3191SOL    HW110472   4.671   5.712   1.778
 3191SOL    HW210473   4.653   5.599   1.895
 3192SOL     OW10474   6.427   2.319   1.901
 3192SOL    HW110475   6.451   2.227   1.932
 3192SOL    HW210476   6.494   2.350   1.833
 3193SOL     OW10477   3.620   0.183   5.503
 3193SOL    HW110478   3.697   0.225   5.550
 3193SOL    HW210479   3.534   0.218   5.541
 3194SOL     OW10480   1.083   1.354   5.649
 3194SOL    HW110481   1.047   1.366   5.556
 3194SOL    HW210482   1.080   1.258   5.675
 3195SOL     OW10483   0.254   1.669   1.661
 3195SOL    HW110484   0.234   1.581   1.702
 3195SOL    HW210485   0.169   1.720   1.648
 3196SOL     OW10486   6.534   0.080   4.987
 3196SOL    HW110487   6.478   0.163   4.992
 3196SOL    HW210488   6.557   0.050   5.080
 3197SOL     OW10489   1.906   0.281   6.128
 3197SOL    HW110490   1.880   0.363   6.077
 3197SOL    HW210491   2.006   0.275   6.132
 3198SOL     OW10492   6.606   2.691   3.437
 3198SOL    HW110493   6.591   2.596   3.465
 3198SOL    HW210494   6.600   2.750   3.517
 3199SOL     OW10495   5.712   4.488   2.990
 3199SOL    HW110496   5.657   4.420   2.942
 3199SOL    HW210497   5.751   4.552   2.924
 3200SOL     OW10498   5.562   3.156   3.746
 3200SOL    HW110499   5.524   3.208   3.670
 3200SOL    HW210500   5.654   3.123   3.721
 3201SOL     OW10501   6.074   3.738   2.635
 3201SOL    HW110502   6.007   3.701   2.700
 3201SOL    HW210503   6.099   3.831   2.663
 3202SOL     OW10504   1.258   5.020   0.688
 3202SOL    HW110505   1.269   5.087   0.761
 3202SOL    HW210506   1.346   4.975   0.670
 3203SOL     OW10507   4.268   6.411   1.337
 3203SOL    HW110508   4.184   6.358   1.335
 3203SOL    HW210509   4.246   6.508   1.351
 3204SOL     OW10510   3.201   1.302   3.853
 3204SOL    HW110511   3.206   1.328   3.757
 3204SOL    HW210512   3.291   1.311   3.895
 3205SOL     OW10513   5.559   2.851   5.208
 3205SOL    HW110514   5.626   2.801   5.153
 3205SOL    HW210515   5.555   2.810   5.299
 3206SOL     OW10516   2.570   2.836   1.593
 3206SOL    HW110517   2.521   2.908   1.643
 3206SOL    HW210518   2.608   2.770   1.657
 3207SOL     OW10519   0.752   0.410   5.069
 3207SOL    HW110520   0.767   0.433   5.165
 3207SOL    HW210521   0.735   0.312   5.060
 3208SOL     OW10522   5.993   5.840   5.302
 3208SOL    HW110523   6.006   5.825   5.204
 3208SOL    HW210524   5.896   5.853   5.321
 3209SOL     OW10525   4.900   5.875   6.150
 3209SOL    HW110526   4.857   5.895   6.238
 3209SOL    HW210527   4.957   5.793   6.157
 3210SOL     OW10528   0.338   5.060   1.455
 3210SOL    HW110529   0.417   5.098   1.504
 3210SOL    HW210530   0.264   5.042   1.520
 3211SOL     OW10531   1.228   5.867   0.200
 3211SOL    HW110532   1.247   5.964   0.186
 3211SOL    HW210533   1.256   5.816   0.118
 3212SOL     OW10534   3.011   0.320   3.128
 3212SOL    HW110535   3.003   0.224   3.155
 3212SOL    HW210536   3.061   0.370   3.199
 3213SOL     OW10537   1.580   1.053   6.359
 3213SOL    HW110538   1.604   1.028   6.453
 3213SOL    HW210539   1.643   1.125   6.327
 3214SOL     OW10540   3.816   0.928   3.131
 3214SOL    HW110541   3.795   0.923   3.229
 3214SOL    HW210542   3.799   0.839   3.089
 3215SOL     OW10543   1.269   3.023   0.638
 3215SOL    HW110544   1.278   2.940   0.694
 3215SOL    HW210545   1.239   2.998   0.546
 3216SOL     OW10546   5.703   4.350   0.683
 3216SOL    HW110547   5.770   4.383   0.617
 3216SOL    HW210548   5.736   4.368   0.776
 3217SOL     OW10549   0.461   4.622   2.978
 3217SOL    HW110550   0.418   4.707   2.948
 3217SOL    HW210551   0.515   4.639   3.060
 3218SOL     OW10552   6.766   1.864   3.034
 3218SOL    HW110553   6.785   1.948   2.983
 3218SOL    HW210554   6.674   1.832   3.012
 3219SOL     OW10555   6.639   0.810   4.850
 3219SOL    HW110556   6.570   0.766   4.908
 3219SOL    HW210557   6.593   0.865   4.780
 3220SOL     OW10558   6.566   5.819   6.984
 3220SOL    HW110559   6.538   5.762   6.907
 3220SOL    HW210560   6.493   5.885   7.004
 3221SOL     OW10561   4.376   0.544   2.208
 3221SOL    HW110562   4.420   0.486   2.276
 3221SOL    HW210563   4.288   0.504   2.182
 3222SOL     OW10564   2.924   1.558   2.608
 3222SOL    HW110565   3.009   1.597   2.573
 3222SOL    HW210566   2.909   1.468   2.569
 3223SOL     OW10567   1.583   6.547   0.837
 3223SOL    HW110568   1.484   6.555   0.851
 3223SOL    HW210569   1.601   6.534   0.740
 3224SOL     OW10570   4.328   2.327   4.784
 3224SOL    HW110571   4.393   2.401   4.802
 3224SOL    HW210572   4.262   2.322   4.859
 3225SOL     OW10573   3.912   0.681   4.042
 3225SOL    HW110574   3.892   0.583   4.044
 3225SOL    HW210575   3.975   0.703   4.117
 3226SOL     OW10576   1.249   0.284   2.289
 3226SOL    HW110577   1.261   0.372   2.242
 3226SOL    HW210578   1.210   0.299   2.379
 3227SOL     OW10579   4.339   2.824   6.126
 3227SOL    HW110580   4.245   2.837   6.158
 3227SOL    HW210581   4.394   2.904   6.151
 3228SOL     OW10582   1.072   4.349   0.665
 3228SOL    HW110583   1.127   4.277   0.624
 3228SOL    HW210584   1.110   4.438   0.642
 3229SOL     OW10585   2.694   1.564   6.403
 3229SOL    HW110586   2.754   1.609   6.471
 3229SOL    HW210587   2.612   1.618   6.390
 3230SOL     OW10588   2.695   5.730   5.532
 3230SOL    HW110589   2.714   5.738   5.434
 3230SOL    HW210590   2.727   5.641   5.565
 3231SOL     OW10591   3.009   1.278   2.516
 3231SOL    HW110592   3.052   1.203   2.568
 3231SOL    HW210593   3.076   1.317   2.453
 3232SOL     OW10594   4.063   5.595   3.985
 3232SOL    HW110595   4.162   5.581   3.987
 3232SOL    HW210596   4.037   5.638   3.899
 3233SOL     OW10597   0.732   2.380   0.060
 3233SOL    HW110598   0.720   2.469   0.102
 3233SOL    HW210599   0.658   2.363   7.019
 3234SOL     OW10600   2.554   3.067   0.643
 3234SOL    HW110601   2.543   3.079   0.742
 3234SOL    HW210602   2.651   3.074   0.619
 3235SOL     OW10603   6.652   5.999   2.097
 3235SOL    HW110604   6.659   6.068   2.170
 3235SOL    HW210605   6.692   5.913   2.128
 3236SOL     OW10606   2.627   4.074   0.708
 3236SOL    HW110607   2.610   4.141   0.635
 3236SOL    HW210608   2.672   3.993   0.670
 3237SOL     OW10609   6.007   1.009   5.087
 3237SOL    HW110610   6.061   1.003   5.171
 3237SOL    HW210611   5.918   1.049   5.108
 3238SOL     OW10612   6.372   5.274   0.693
 3238SOL    HW110613   6.328   5.250   0.607
 3238SOL    HW210614   6.470   5.254   0.687
 3239SOL     OW10615   0.313   0.233   3.543
 3239SOL    HW110616   0.312   0.216   3.445
 3239SOL    HW210617   0.292   0.329   3.560
 3240SOL     OW10618   0.165   0.412   6.367
 3240SOL    HW110619   0.196   0.317   6.356
 3240SOL    HW210620   0.232   0.474   6.325
 3241SOL     OW10621   5.364   1.369   6.325
 3241SOL    HW110622   5.357   1.454   6.376
 3241SOL    HW210623   5.405   1.387   6.235
 3242SOL     OW10624   4.793   4.443   5.545
 3242SOL    HW110625   4.713   4.414   5.493
 3242SOL    HW210626   4.788   4.541   5.563
 3243SOL     OW10627   4.295   5.213   6.134
 3243SOL    HW110628   4.215   5.271   6.148
 3243SOL    HW210629   4.273   5.140   6.070
 3244SOL     OW10630   5.677   6.516   6.424
 3244SOL    HW110631   5.744   6.537   6.353
 3244SOL    HW210632   5.637   6.601   6.459
 3245SOL     OW10633   4.415   1.893   3.920
 3245SOL    HW110634   4.356   1.970   3.945
 3245SOL    HW210635   4.449   1.907   3.827
 3246SOL     OW10636   0.753   0.152   2.460
 3246SOL    HW110637   0.778   0.086   2.389
 3246SOL    HW210638   0.693   0.108   2.527
 3247SOL     OW10639   0.147   4.330   2.198
 3247SOL    HW110640   0.115   4.424   2.214
 3247SOL    HW210641   0.229   4.313   2.253
 3248SOL     OW10642   5.387   2.102   3.130
 3248SOL    HW110643   5.451   2.082   3.056
 3248SOL    HW210644   5.410   2.189   3.172
 3249SOL     OW10645   3.781   3.573   3.764
 3249SOL    HW110646   3.744   3.534   3.849
 3249SOL    HW210647   3.876   3.601   3.780
 3250SOL     OW10648   5.334   5.616   2.562
 3250SOL    HW110649   5.313   5.641   2.657
 3250SOL    HW210650   5.337   5.517   2.553
 3251SOL     OW10651   2.579   0.800   4.755
 3251SOL    HW110652   2.630   0.758   4.830
 3251SOL    HW210653   2.492   0.836   4.790
 3252SOL     OW10654   2.919   1.234   3.865
 3252SOL    HW110655   2.879   1.291   3.792
 3252SOL    HW210656   3.018   1.239   3.860
 3253SOL     OW10657   6.089   3.002   0.892
 3253SOL    HW110658   6.017   3.032   0.830
 3253SOL    HW210659   6.111   3.076   0.955
 3254SOL     OW10660   5.849   0.844   0.262
 3254SOL    HW110661   5.780   0.914   0.280
 3254SOL    HW210662   5.808   0.753   0.274
 3255SOL     OW10663   6.002   4.924   1.321
 3255SOL    HW110664   6.049   4.885   1.400
 3255SOL    HW210665   5.908   4.946   1.346
 3256SOL     OW10666   4.848   2.231   1.482
 3256SOL    HW110667   4.852   2.327   1.454
 3256SOL    HW210668   4.752   2.201   1.484
 3257SOL     OW10669   2.953   2.213   2.501
 3257SOL    HW110670   2.994   2.303   2.484
 3257SOL    HW210671   2.981   2.150   2.429
 3258SOL     OW10672   2.988   5.896   3.548
 3258SOL    HW110673   3.046   5.836   3.492
 3258SOL    HW210674   2.902   5.851   3.567
 3259SOL     OW10675   5.427   4.385   4.312
 3259SOL    HW110676   5.469   4.296   4.297
 3259SOL    HW210677   5.484   4.456   4.270
 3260SOL     OW10678   1.796   4.412   1.538
 3260SOL    HW110679   1.743   4.485   1.496
 3260SOL    HW210680   1.832   4.351   1.467
 3261SOL     OW10681   4.881   0.307   3.012
 3261SOL    HW110682   4.902   0.388   3.067
 3261SOL    HW210683   4.960   0.283   2.956
 3262SOL     OW10684   3.777   1.960   2.686
 3262SOL    HW110685   3.760   2.003   2.597
 3262SOL    HW210686   3.791   2.031   2.755
 3263SOL     OW10687   2.449   1.492   3.236
 3263SOL    HW110688   2.534   1.439   3.240
 3263SOL    HW210689   2.470   1.589   3.224
 3264SOL     OW10690   2.315   5.242   0.170
 3264SOL    HW110691   2.240   5.195   0.124
 3264SOL    HW210692   2.363   5.300   0.103
 3265SOL     OW10693   5.949   5.462   5.535
 3265SOL    HW110694   5.874   5.448   5.471
 3265SOL    HW210695   5.968   5.560   5.543
 3266SOL     OW10696   2.966   4.681   0.281
 3266SOL    HW110697   3.014   4.594   0.270
 3266SOL    HW210698   3.031   4.753   0.302
 3267SOL     OW10699   4.558   0.506   1.025
 3267SOL    HW110700   4.507   0.551   1.098
 3267SOL    HW210701   4.495   0.471   0.956
 3268SOL     OW10702   0.137   4.942   1.153
 3268SOL    HW110703   0.080   4.889   1.090
 3268SOL    HW210704   0.079   5.004   1.206
 3269SOL     OW10705   1.184   5.102   2.376
 3269SOL    HW110706   1.112   5.033   2.383
 3269SOL    HW210707   1.259   5.067   2.321
 3270SOL     OW10708   0.800   2.452   5.400
 3270SOL    HW110709   0.771   2.425   5.308
 3270SOL    HW210710   0.741   2.409   5.468
 3271SOL     OW10711   0.302   3.311   1.871
 3271SOL    HW110712   0.371   3.383   1.869
 3271SOL    HW210713   0.224   3.338   1.814
 3272SOL     OW10714   4.235   5.701   0.322
 3272SOL    HW110715   4.224   5.800   0.313
 3272SOL    HW210716   4.245   5.661   0.231
 3273SOL     OW10717   4.412   3.554   5.981
 3273SOL    HW110718   4.374   3.643   5.957
 3273SOL    HW210719   4.371   3.483   5.923
 3274SOL     OW10720   5.999   0.918   0.025
 3274SOL    HW110721   5.947   0.931   0.109
 3274SOL    HW210722   5.973   0.830   7.007
 3275SOL     OW10723   4.778   0.450   1.182
 3275SOL    HW110724   4.788   0.524   1.249
 3275SOL    HW210725   4.697   0.466   1.126
 3276SOL     OW10726   4.918   0.206   0.413
 3276SOL    HW110727   4.882   0.298   0.422
 3276SOL    HW210728   5.017   0.207   0.429
 3277SOL     OW10729   3.116   1.455   1.907
 3277SOL    HW110730   3.215   1.458   1.914
 3277SOL    HW210731   3.081   1.549   1.903
 3278SOL     OW10732   0.044   0.605   6.841
 3278SOL    HW110733   0.048   0.705   6.848
 3278SOL    HW210734   0.129   0.571   6.802
 3279SOL     OW10735   4.484   6.825   1.304
 3279SOL    HW110736   4.414   6.760   1.333
 3279SOL    HW210737   4.546   6.843   1.381
 3280SOL     OW10738   5.588   3.411   4.175
 3280SOL    HW110739   5.590   3.313   4.196
 3280SOL    HW210740   5.663   3.457   4.222
 3281SOL     OW10741   6.978   4.557   1.932
 3281SOL    HW110742   0.020   4.484   1.917
 3281SOL    HW210743   6.977   4.619   1.854
 3282SOL     OW10744   0.369   3.767   5.023
 3282SOL    HW110745   0.358   3.760   5.122
 3282SOL    HW210746   0.440   3.702   4.993
 3283SOL     OW10747   3.255   0.863   1.487
 3283SOL    HW110748   3.160   0.847   1.459
 3283SOL    HW210749   3.297   0.930   1.425
 3284SOL     OW10750   1.953   5.877   5.024
 3284SOL    HW110751   1.968   5.924   5.111
 3284SOL    HW210752   1.856   5.885   4.999
 3285SOL     OW10753   5.312   1.003   4.652
 3285SOL    HW110754   5.386   1.053   4.696
 3285SOL    HW210755   5.234   1.064   4.639
 3286SOL     OW10756   3.404   1.867   1.668
 3286SOL    HW110757   3.498   1.857   1.635
 3286SOL    HW210758   3.340   1.850   1.592
 3287SOL     OW10759   1.039   6.937   6.324
 3287SOL    HW110760   1.127   6.917   6.366
 3287SOL    HW210761   1.044   6.920   6.226
 3288SOL     OW10762   1.881   6.131   0.467
 3288SOL    HW110763   1.938   6.211   0.446
 3288SOL    HW210764   1.795   6.138   0.417
 3289SOL     OW10765   2.849   1.203   6.927
 3289SOL    HW110766   2.875   1.229   7.020
 3289SOL    HW210767   2.781   1.267   6.892
 3290SOL     OW10768   6.627   5.585   0.883
 3290SOL    HW110769   6.673   5.497   0.886
 3290SOL    HW210770   6.537   5.575   0.839
 3291SOL     OW10771   4.498   6.799   6.009
 3291SOL    HW110772   4.426   6.730   6.010
 3291SOL    HW210773   4.585   6.758   6.035
 3292SOL     OW10774   0.442   1.748   1.054
 3292SOL    HW110775   0.420   1.700   1.139
 3292SOL    HW210776   0.540   1.739   1.036
 3293SOL     OW10777   6.172   5.206   2.568
 3293SOL    HW110778   6.251   5.234   2.513
 3293SOL    HW210779   6.199   5.130   2.628
 3294SOL     OW10780   5.322   2.249   5.557
 3294SOL    HW110781   5.250   2.293   5.611
 3294SOL    HW210782   5.357   2.314   5.490
 3295SOL     OW10783   1.817   2.694   0.925
 3295SOL    HW110784   1.907   2.653   0.945
 3295SOL    HW210785   1.762   2.695   1.009
 3296SOL     OW10786   6.974   0.003   5.524
 3296SOL    HW110787   0.010   0.060   5.580
 3296SOL    HW210788   6.963   6.937   5.568
 3297SOL     OW10789   3.019   2.110   5.365
 3297SOL    HW110790   2.957   2.152   5.431
 3297SOL    HW210791   3.107   2.156   5.368
 3298SOL     OW10792   6.074   3.574   4.570
 3298SOL    HW110793   6.003   3.584   4.499
 3298SOL    HW210794   6.039   3.518   4.644
 3299SOL     OW10795   3.545   4.935   3.580
 3299SOL    HW110796   3.614   5.006   3.570
 3299SOL    HW210797   3.463   4.974   3.622
 3300SOL     OW10798   1.996   6.874   5.393
 3300SOL    HW110799   2.047   6.954   5.364
 3300SOL    HW210800   1.955   6.830   5.314
 3301SOL     OW10801   1.563   3.391   2.506
 3301SOL    HW110802   1.595   3.442   2.586
 3301SOL    HW210803   1.602   3.432   2.423
 3302SOL     OW10804   2.095   5.086   5.785
 3302SOL    HW110805   2.142   5.021   5.844
 3302SOL    HW210806   2.005   5.107   5.823
 3303SOL     OW10807   3.502   2.814   0.480
 3303SOL    HW110808   3.404   2.828   0.492
 3303SOL    HW210809   3.549   2.832   0.567
 3304SOL     OW10810   2.171   4.721   6.453
 3304SOL    HW110811   2.183   4.818   6.477
 3304SOL    HW210812   2.170   4.666   6.536
 3305SOL     OW10813   3.582   0.561   1.180
 3305SOL    HW110814   3.517   0.585   1.109
 3305SOL    HW210815   3.540   0.574   1.270
 3306SOL     OW10816   1.112   6.844   0.100
 3306SOL    HW110817   1.126   6.929   0.151
 3306SOL    HW210818   1.179   6.776   0.130
 3307SOL     OW10819   1.309   0.147   5.205
 3307SOL    HW110820   1.299   0.247   5.205
 3307SOL    HW210821   1.361   0.118   5.124
 3308SOL     OW10822   3.935   4.278   1.251
 3308SOL    HW110823   3.855   4.337   1.263
 3308SOL    HW210824   4.010   4.311   1.309
 3309SOL     OW10825   5.396   4.471   3.786
 3309SOL    HW110826   5.398   4.468   3.687
 3309SOL    HW210827   5.330   4.403   3.820
 3310SOL     OW10828   0.434   4.753   4.418
 3310SOL    HW110829   0.500   4.824   4.392
 3310SOL    HW210830   0.420   4.756   4.517
 3311SOL     OW10831   3.255   3.594   0.688
 3311SOL    HW110832   3.239   3.496   0.704
 3311SOL    HW210833   3.301   3.633   0.768
 3312SOL     OW10834   5.293   2.585   6.357
 3312SOL    HW110835   5.348   2.620   6.280
 3312SOL    HW210836   5.196   2.586   6.331
 3313SOL     OW10837   0.749   0.688   3.063
 3313SOL    HW110838   0.842   0.714   3.034
 3313SOL    HW210839   0.683   0.723   2.996
 3314SOL     OW10840   2.523   0.029   3.396
 3314SOL    HW110841   2.469   7.000   3.332
 3314SOL    HW210842   2.613   0.047   3.357
 3315SOL     OW10843   0.424   5.275   4.967
 3315SOL    HW110844   0.478   5.191   4.967
 3315SOL    HW210845   0.484   5.354   4.976
 3316SOL     OW10846   2.770   0.906   6.624
 3316SOL    HW110847   2.727   0.993   6.600
 3316SOL    HW210848   2.854   0.894   6.571
 3317SOL     OW10849   5.110   2.609   1.920
 3317SOL    HW110850   5.207   2.627   1.935
 3317SOL    HW210851   5.061   2.696   1.909
 3318SOL     OW10852   2.858   2.569   6.751
 3318SOL    HW110853   2.865   2.538   6.656
 3318SOL    HW210854   2.766   2.549   6.785
 3319SOL     OW10855   6.600   6.803   2.656
 3319SOL    HW110856   6.617   6.901   2.666
 3319SOL    HW210857   6.683   6.758   2.624
 3320SOL     OW10858   6.454   0.503   0.968
 3320SOL    HW110859   6.467   0.582   0.909
 3320SOL    HW210860   6.541   0.453   0.975
 3321SOL     OW10861   5.969   1.457   0.931
 3321SOL    HW110862   6.005   1.497   0.847
 3321SOL    HW210863   5.953   1.530   0.998
 3322SOL     OW10864   6.389   3.382   0.840
 3322SOL    HW110865   6.411   3.365   0.744
 3322SOL    HW210866   6.394   3.296   0.891
 3323SOL     OW10867   2.491   1.844   1.544
 3323SOL    HW110868   2.574   1.857   1.599
 3323SOL    HW210869   2.514   1.801   1.457
 3324SOL     OW10870   4.855   5.694   5.931
 3324SOL    HW110871   4.770   5.693   5.879
 3324SOL    HW210872   4.845   5.751   6.012
 3325SOL     OW10873   1.264   3.695   6.784
 3325SOL    HW110874   1.320   3.766   6.826
 3325SOL    HW210875   1.262   3.708   6.685
 3326SOL     OW10876   5.445   1.047   3.046
 3326SOL    HW110877   5.537   1.008   3.044
 3326SOL    HW210878   5.404   1.033   3.136
 3327SOL     OW10879   1.553   6.239   1.339
 3327SOL    HW110880   1.513   6.158   1.382
 3327SOL    HW210881   1.647   6.219   1.309
 3328SOL     OW10882   3.417   1.485   1.083
 3328SOL    HW110883   3.460   1.462   1.170
 3328SOL    HW210884   3.382   1.579   1.087
 3329SOL     OW10885   6.545   5.822   6.004
 3329SOL    HW110886   6.476   5.806   6.075
 3329SOL    HW210887   6.612   5.749   6.006
 3330SOL     OW10888   6.167   2.793   2.148
 3330SOL    HW110889   6.186   2.742   2.063
 3330SOL    HW210890   6.219   2.878   2.148
 3331SOL     OW10891   1.666   2.707   1.144
 3331SOL    HW110892   1.615   2.621   1.152
 3331SOL    HW210893   1.615   2.771   1.087
 3332SOL     OW10894   5.514   4.472   0.262
 3332SOL    HW110895   5.549   4.565   0.276
 3332SOL    HW210896   5.525   4.419   0.346
 3333SOL     OW10897   4.060   5.291   6.427
 3333SOL    HW110898   4.107   5.241   6.499
 3333SOL    HW210899   3.968   5.315   6.459
 3334SOL     OW10900   3.401   3.403   1.395
 3334SOL    HW110901   3.373   3.308   1.411
 3334SOL    HW210902   3.412   3.449   1.483
 3335SOL     OW10903   5.051   4.888   5.851
 3335SOL    HW110904   5.095   4.929   5.770
 3335SOL    HW210905   4.967   4.938   5.871
 3336SOL     OW10906   2.900   5.273   5.874
 3336SOL    HW110907   2.972   5.266   5.943
 3336SOL    HW210908   2.879   5.369   5.857
 3337SOL     OW10909   3.671   1.795   1.658
 3337SOL    HW110910   3.752   1.736   1.658
 3337SOL    HW210911   3.676   1.860   1.734
 3338SOL     OW10912   6.632   4.146   1.569
 3338SOL    HW110913   6.668   4.112   1.482
 3338SOL    HW210914   6.661   4.241   1.582
 3339SOL     OW10915   6.683   6.206   6.980
 3339SOL    HW110916   6.644   6.171   6.894
 3339SOL    HW210917   6.653   6.300   6.994
 3340SOL     OW10918   3.374   6.561   1.785
 3340SOL    HW110919   3.418   6.500   1.719
 3340SOL    HW210920   3.275   6.550   1.779
 3341SOL     OW10921   0.359   6.765   2.833
 3341SOL    HW110922   0.271   6.762   2.786
 3341SOL    HW210923   0.428   6.802   2.771
 3342SOL     OW10924   2.123   0.015   3.937
 3342SOL    HW110925   2.031   7.002   3.924
 3342SOL    HW210926   2.179   6.973   3.986
 3343SOL     OW10927   4.727   2.631   0.892
 3343SOL    HW110928   4.717   2.729   0.908
 3343SOL    HW210929   4.815   2.614   0.846
 3344SOL     OW10930   5.544   3.802   4.860
 3344SOL    HW110931   5.526   3.729   4.925
 3344SOL    HW210932   5.501   3.887   4.892
 3345SOL     OW10933   2.937   4.137   5.885
 3345SOL    HW110934   2.866   4.068   5.894
 3345SOL    HW210935   3.020   4.095   5.847
 3346SOL     OW10936   0.460   1.398   1.890
 3346SOL    HW110937   0.433   1.350   1.973
 3346SOL    HW210938   0.383   1.452   1.856
 3347SOL     OW10939   6.314   3.712   4.199
 3347SOL    HW110940   6.377   3.748   4.130
 3347SOL    HW210941   6.224   3.699   4.158
 3348SOL     OW10942   3.324   3.267   3.758
 3348SOL    HW110943   3.417   3.252   3.725
 3348SOL    HW210944   3.263   3.285   3.681
 3349SOL     OW10945   6.576   3.811   3.993
 3349SOL    HW110946   6.615   3.732   4.041
 3349SOL    HW210947   6.608   3.811   3.898
 3350SOL     OW10948   1.950   1.002   6.663
 3350SOL    HW110949   2.002   1.065   6.721
 3350SOL    HW210950   1.982   1.009   6.569
 3351SOL     OW10951   5.356   0.997   1.251
 3351SOL    HW110952   5.367   0.931   1.325
 3351SOL    HW210953   5.446   1.026   1.218
 3352SOL     OW10954   0.886   4.264   0.480
 3352SOL    HW110955   0.944   4.313   0.545
 3352SOL    HW210956   0.819   4.327   0.441
 3353SOL     OW10957   1.527   6.945   6.743
 3353SOL    HW110958   1.525   0.017   6.774
 3353SOL    HW210959   1.446   6.897   6.777
 3354SOL     OW10960   6.693   2.303   3.360
 3354SOL    HW110961   6.618   2.329   3.299
 3354SOL    HW210962   6.781   2.323   3.316
 3355SOL     OW10963   0.429   2.327   1.256
 3355SOL    HW110964   0.377   2.411   1.271
 3355SOL    HW210965   0.474   2.301   1.341
 3356SOL     OW10966   2.434   3.895   6.902
 3356SOL    HW110967   2.515   3.950   6.883
 3356SOL    HW210968   2.432   3.816   6.840
 3357SOL     OW10969   2.600   5.139   1.230
 3357SOL    HW110970   2.669   5.186   1.286
 3357SOL    HW210971   2.520   5.118   1.286
 3358SOL     OW10972   4.696   6.305   2.442
 3358SOL    HW110973   4.645   6.337   2.362
 3358SOL    HW210974   4.683   6.206   2.453
 3359SOL     OW10975   0.689   0.482   2.845
 3359SOL    HW110976   0.598   0.442   2.857
 3359SOL    HW210977   0.718   0.525   2.930
 3360SOL     OW10978   0.591   0.970   0.357
 3360SOL    HW110979   0.680   1.004   0.327
 3360SOL    HW210980   0.562   0.895   0.298
 3361SOL     OW10981   6.485   5.848   3.101
 3361SOL    HW110982   6.548   5.846   3.179
 3361SOL    HW210983   6.492   5.935   3.053
 3362SOL     OW10984   3.104   1.374   4.644
 3362SOL    HW110985   3.173   1.445   4.634
 3362SOL    HW210986   3.064   1.379   4.736
 3363SOL     OW10987   0.274   1.669   6.734
 3363SOL    HW110988   0.318   1.740   6.678
 3363SOL    HW210989   0.237   1.598   6.674
 3364SOL     OW10990   1.146   5.874   6.250
 3364SOL    HW110991   1.129   5.957   6.197
 3364SOL    HW210992   1.165   5.898   6.345
 3365SOL     OW10993   7.018   2.357   4.943
 3365SOL    HW110994   7.002   2.291   5.016
 3365SOL    HW210995   6.968   2.328   4.861
 3366SOL     OW10996   5.389   0.661   5.060
 3366SOL    HW110997   5.315   0.643   5.125
 3366SOL    HW210998   5.455   0.586   5.063
 3367SOL     OW10999   1.843   2.509   2.026
 3367SOL    HW111000   1.879   2.597   1.995
 3367SOL    HW211001   1.746   2.519   2.050
 3368SOL     OW11002   6.287   5.408   6.481
 3368SOL    HW111003   6.363   5.456   6.439
 3368SOL    HW211004   6.264   5.327   6.426
 3369SOL     OW11005   3.574   0.516   0.437
 3369SOL    HW111006   3.516   0.555   0.508
 3369SOL    HW211007   3.670   0.541   0.455
 3370SOL     OW11008   6.482   6.688   5.160
 3370SOL    HW111009   6.582   6.679   5.156
 3370SOL    HW211010   6.451   6.678   5.254
 3371SOL     OW11011   1.188   4.414   1.935
 3371SOL    HW111012   1.192   4.333   1.877
 3371SOL    HW211013   1.092   4.443   1.945
 3372SOL     OW11014   0.547   0.749   2.241
 3372SOL    HW111015   0.481   0.674   2.245
 3372SOL    HW211016   0.561   0.778   2.147
 3373SOL     OW11017   6.082   1.363   4.431
 3373SOL    HW111018   6.059   1.285   4.372
 3373SOL    HW211019   6.046   1.447   4.390
 3374SOL     OW11020   3.619   5.812   5.299
 3374SOL    HW111021   3.622   5.715   5.275
 3374SOL    HW211022   3.689   5.832   5.367
 3375SOL     OW11023   4.595   4.475   5.091
 3375SOL    HW111024   4.648   4.415   5.031
 3375SOL    HW211025   4.500   4.478   5.059
 3376SOL     OW11026   3.325   2.997   2.613
 3376SOL    HW111027   3.271   2.965   2.690
 3376SOL    HW211028   3.407   2.940   2.605
 3377SOL     OW11029   1.601   6.687   5.031
 3377SOL    HW111030   1.562   6.723   4.947
 3377SOL    HW211031   1.592   6.587   5.032
 3378SOL     OW11032   6.697   1.490   1.131
 3378SOL    HW111033   6.693   1.461   1.035
 3378SOL    HW211034   6.720   1.412   1.188
 3379SOL     OW11035   0.710   4.722   5.876
 3379SOL    HW111036   0.722   4.646   5.941
 3379SOL    HW211037   0.766   4.705   5.795
 3380SOL     OW11038   6.737   4.614   6.491
 3380SOL    HW111039   6.659   4.596   6.432
 3380SOL    HW211040   6.746   4.540   6.557
 3381SOL     OW11041   2.571   2.775   0.641
 3381SOL    HW111042   2.582   2.873   0.655
 3381SOL    HW211043   2.599   2.751   0.549
 3382SOL     OW11044   0.148   1.619   6.992
 3382SOL    HW111045   0.171   1.641   6.897
 3382SOL    HW211046   0.227   1.579   0.014
 3383SOL     OW11047   5.814   4.981   2.615
 3383SOL    HW111048   5.886   4.970   2.547
 3383SOL    HW211049   5.725   4.966   2.572
 3384SOL     OW11050   3.440   3.207   4.934
 3384SOL    HW111051   3.498   3.289   4.925
 3384SOL    HW211052   3.347   3.229   4.903
 3385SOL     OW11053   6.061   3.764   3.548
 3385SOL    HW111054   6.109   3.773   3.461
 3385SOL    HW211055   5.981   3.823   3.548
 3386SOL     OW11056   6.190   4.226   4.492
 3386SOL    HW111057   6.272   4.219   4.435
 3386SOL    HW211058   6.214   4.212   4.588
 3387SOL     OW11059   2.430   2.551   2.521
 3387SOL    HW111060   2.429   2.651   2.520
 3387SOL    HW211061   2.394   2.519   2.609
 3388SOL     OW11062   5.697   2.638   1.119
 3388SOL    HW111063   5.780   2.645   1.174
 3388SOL    HW211064   5.625   2.596   1.173
 3389SOL     OW11065   4.761   4.140   3.936
 3389SOL    HW111066   4.717   4.209   3.879
 3389SOL    HW211067   4.735   4.155   4.032
 3390SOL     OW11068   5.019   2.569   6.327
 3390SOL    HW111069   4.921   2.566   6.307
 3390SOL    HW211070   5.043   2.494   6.388
 3391SOL     OW11071   3.782   2.101   5.007
 3391SOL    HW111072   3.857   2.162   5.035
 3391SOL    HW211073   3.810   2.048   4.927
 3392SOL     OW11074   2.657   0.681   4.187
 3392SOL    HW111075   2.641   0.756   4.123
 3392SOL    HW211076   2.751   0.686   4.221
 3393SOL     OW11077   6.584   6.729   0.600
 3393SOL    HW111078   6.620   6.749   0.691
 3393SOL    HW211079   6.635   6.781   0.532
 3394SOL     OW11080   5.717   2.950   1.091
 3394SOL    HW111081   5.796   2.896   1.062
 3394SOL    HW211082   5.734   3.047   1.071
 3395SOL     OW11083   0.189   3.178   4.143
 3395SOL    HW111084   0.103   3.195   4.190
 3395SOL    HW211085   0.264   3.182   4.209
 3396SOL     OW11086   6.987   3.271   3.345
 3396SOL    HW111087   6.988   3.178   3.309
 3396SOL    HW211088   7.010   3.335   3.272
 3397SOL     OW11089   3.817   0.296   5.692
 3397SOL    HW111090   3.763   0.380   5.704
 3397SOL    HW211091   3.808   0.239   5.774
 3398SOL     OW11092   1.026   0.336   4.017
 3398SOL    HW111093   0.995   0.242   4.004
 3398SOL    HW211094   0.988   0.371   4.103
 3399SOL     OW11095   4.457   4.595   4.482
 3399SOL    HW111096   4.503   4.684   4.486
 3399SOL    HW211097   4.449   4.558   4.574
 3400SOL     OW11098   5.136   2.498   5.951
 3400SOL    HW111099   5.129   2.587   5.996
 3400SOL    HW211100   5.044   2.461   5.936
 3401SOL     OW11101   0.111   3.560   0.422
 3401SOL    HW111102   0.016   3.583   0.443
 3401SOL    HW211103   0.149   3.627   0.358
 3402SOL     OW11104   5.323   5.577   1.134
 3402SOL    HW111105   5.344   5.672   1.160
 3402SOL    HW211106   5.369   5.556   1.047
 3403SOL     OW11107   3.801   0.269   4.829
 3403SOL    HW111108   3.716   0.230   4.794
 3403SOL    HW211109   3.874   0.200   4.825
 3404SOL     OW11110   4.020   1.291   0.423
 3404SOL    HW111111   3.986   1.370   0.373
 3404SOL    HW211112   4.021   1.211   0.363
 3405SOL     OW11113   6.471   3.579   5.969
 3405SOL    HW111114   6.539   3.644   5.936
 3405SOL    HW211115   6.422   3.617   6.047
 3406SOL     OW11116   2.347   4.565   1.674
 3406SOL    HW111117   2.373   4.478   1.717
 3406SOL    HW211118   2.422   4.597   1.616
 3407SOL     OW11119   1.521   5.625   1.892
 3407SOL    HW111120   1.564   5.581   1.813
 3407SOL    HW211121   1.497   5.719   1.868
 3408SOL     OW11122   4.793   4.016   3.332
 3408SOL    HW111123   4.778   4.060   3.243
 3408SOL    HW211124   4.734   4.059   3.400
 3409SOL     OW11125   3.728   7.018   6.033
 3409SOL    HW111126   3.717   0.051   5.951
 3409SOL    HW211127   3.824   6.993   6.043
 3410SOL     OW11128   5.813   5.286   6.574
 3410SOL    HW111129   5.805   5.187   6.581
 3410SOL    HW211130   5.805   5.327   6.665
 3411SOL     OW11131   5.363   2.558   2.079
 3411SOL    HW111132   5.332   2.464   2.067
 3411SOL    HW211133   5.313   2.600   2.155
 3412SOL     OW11134   4.224   3.341   6.979
 3412SOL    HW111135   4.133   3.374   7.003
 3412SOL    HW211136   4.243   3.362   6.883
 3413SOL     OW11137   4.196   1.700   2.700
 3413SOL    HW111138   4.215   1.791   2.664
 3413SOL    HW211139   4.265   1.636   2.667
 3414SOL     OW11140   3.125   1.660   4.990
 3414SOL    HW111141   3.114   1.736   4.926
 3414SOL    HW211142   3.110   1.692   5.083
 3415SOL     OW11143   0.909   4.844   4.173
 3415SOL    HW111144   0.951   4.830   4.262
 3415SOL    HW211145   0.970   4.897   4.115
 3416SOL     OW11146   0.217   4.218   5.854
 3416SOL    HW111147   0.136   4.223   5.796
 3416SOL    HW211148   0.189   4.208   5.950
 3417SOL     OW11149   6.721   6.160   2.308
 3417SOL    HW111150   6.810   6.122   2.333
 3417SOL    HW211151   6.706   6.244   2.361
 3418SOL     OW11152   3.574   1.434   5.071
 3418SOL    HW111153   3.482   1.468   5.052
 3418SOL    HW211154   3.640   1.486   5.018
 3419SOL     OW11155   4.353   4.922   6.364
 3419SOL    HW111156   4.279   4.895   6.302
 3419SOL    HW211157   4.325   5.001   6.418
 3420SOL     OW11158   5.324   1.647   3.769
 3420SOL    HW111159   5.251   1.700   3.726
 3420SOL    HW211160   5.296   1.620   3.861
 3421SOL     OW11161   6.876   0.603   5.700
 3421SOL    HW111162   6.859   0.597   5.799
 3421SOL    HW211163   6.819   0.674   5.660
 3422SOL     OW11164   3.461   0.106   0.951
 3422SOL    HW111165   3.436   0.042   1.024
 3422SOL    HW211166   3.422   0.196   0.970
 3423SOL     OW11167   2.163   0.747   0.175
 3423SOL    HW111168   2.075   0.719   0.214
 3423SOL    HW211169   2.197   0.827   0.224
 3424SOL     OW11170   3.679   1.491   2.620
 3424SOL    HW111171   3.675   1.591   2.614
 3424SOL    HW211172   3.594   1.456   2.659
 3425SOL     OW11173   5.160   4.578   2.206
 3425SOL    HW111174   5.150   4.669   2.165
 3425SOL    HW211175   5.108   4.512   2.152
 3426SOL     OW11176   3.568   3.480   0.580
 3426SOL    HW111177   3.491   3.495   0.518
 3426SOL    HW211178   3.615   3.567   0.597
 3427SOL     OW11179   6.439   6.923   0.130
 3427SOL    HW111180   6.491   6.943   0.047
 3427SOL    HW211181   6.423   7.007   0.181
 3428SOL     OW11182   3.929   5.177   1.931
 3428SOL    HW111183   3.969   5.205   2.018
 3428SOL    HW211184   3.850   5.118   1.948
 3429SOL     OW11185   0.807   2.314   6.749
 3429SOL    HW111186   0.793   2.411   6.767
 3429SOL    HW211187   0.902   2.298   6.722
 3430SOL     OW11188   1.294   6.878   6.880
 3430SOL    HW111189   1.230   6.885   6.957
 3430SOL    HW211190   1.248   6.908   6.797
 3431SOL     OW11191   1.975   6.398   0.932
 3431SOL    HW111192   1.878   6.410   0.953
 3431SOL    HW211193   2.029   6.423   1.012
 3432SOL     OW11194   2.710   2.332   5.177
 3432SOL    HW111195   2.636   2.283   5.222
 3432SOL    HW211196   2.777   2.266   5.143
 3433SOL     OW11197   2.576   1.122   6.299
 3433SOL    HW111198   2.624   1.195   6.250
 3433SOL    HW211199   2.636   1.043   6.306
 3434SOL     OW11200   3.638   2.943   0.715
 3434SOL    HW111201   3.627   3.041   0.699
 3434SOL    HW211202   3.628   2.925   0.813
 3435SOL     OW11203   0.313   2.266   1.769
 3435SOL    HW111204   0.271   2.356   1.786
 3435SOL    HW211205   0.409   2.269   1.796
 3436SOL     OW11206   4.436   6.537   5.061
 3436SOL    HW111207   4.518   6.571   5.016
 3436SOL    HW211208   4.455   6.448   5.102
 3437SOL     OW11209   4.484   0.011   6.131
 3437SOL    HW111210   4.548   0.020   6.207
 3437SOL    HW211211   4.487   6.941   6.096
 3438SOL     OW11212   1.852   2.861   6.861
 3438SOL    HW111213   1.881   2.880   6.767
 3438SOL    HW211214   1.841   2.947   6.911
 3439SOL     OW11215   2.892   7.010   5.348
 3439SOL    HW111216   2.823   0.046   5.307
 3439SOL    HW211217   2.853   6.919   5.361
 3440SOL     OW11218   4.438   3.520   1.140
 3440SOL    HW111219   4.529   3.522   1.097
 3440SOL    HW211220   4.425   3.604   1.192
 3441SOL     OW11221   4.077   6.854   3.831
 3441SOL    HW111222   4.116   6.917   3.899
 3441SOL    HW211223   4.151   6.812   3.778
 3442SOL     OW11224   2.167   5.045   3.474
 3442SOL    HW111225   2.118   4.962   3.451
 3442SOL    HW211226   2.242   5.059   3.410
 3443SOL     OW11227   5.673   1.781   3.371
 3443SOL    HW111228   5.660   1.815   3.464
 3443SOL    HW211229   5.588   1.738   3.339
 3444SOL     OW11230   4.908   5.582   6.512
 3444SOL    HW111231   4.816   5.585   6.473
 3444SOL    HW211232   4.902   5.587   6.612
 3445SOL     OW11233   6.604   3.943   4.267
 3445SOL    HW111234   6.668   3.898   4.328
 3445SOL    HW211235   6.594   3.889   4.183
 3446SOL     OW11236   4.616   1.269   2.752
 3446SOL    HW111237   4.573   1.202   2.691
 3446SOL    HW211238   4.574   1.262   2.843
 3447SOL     OW11239   5.710   5.026   0.060
 3447SOL    HW111240   5.752   5.076   7.008
 3447SOL    HW211241   5.682   4.935   0.029
 3448SOL     OW11242   3.678   6.545   0.692
 3448SOL    HW111243   3.702   6.545   0.595
 3448SOL    HW211244   3.762   6.544   0.747
 3449SOL     OW11245   6.261   6.479   2.439
 3449SOL    HW111246   6.327   6.485   2.364
 3449SOL    HW211247   6.294   6.531   2.517
 3450SOL     OW11248   0.760   2.164   1.309
 3450SOL    HW111249   0.776   2.109   1.227
 3450SOL    HW211250   0.746   2.259   1.282
 3451SOL     OW11251   0.742   5.951   3.655
 3451SOL    HW111252   0.792   5.980   3.737
 3451SOL    HW211253   0.678   6.022   3.627
 3452SOL     OW11254   6.797   0.667   6.837
 3452SOL    HW111255   6.803   0.639   6.741
 3452SOL    HW211256   6.753   0.595   6.890
 3453SOL     OW11257   5.918   5.461   4.808
 3453SOL    HW111258   6.015   5.481   4.794
 3453SOL    HW211259   5.865   5.502   4.734
 3454SOL     OW11260   1.723   1.288   6.695
 3454SOL    HW111261   1.691   1.193   6.698
 3454SOL    HW211262   1.811   1.295   6.742
 3455SOL     OW11263   1.124   3.046   4.682
 3455SOL    HW111264   1.148   2.953   4.710
 3455SOL    HW211265   1.092   3.098   4.761
 3456SOL     OW11266   6.075   6.123   2.287
 3456SOL    HW111267   6.068   6.036   2.238
 3456SOL    HW211268   6.113   6.108   2.378
 3457SOL     OW11269   2.537   5.206   4.113
 3457SOL    HW111270   2.576   5.298   4.113
 3457SOL    HW211271   2.587   5.148   4.049
 3458SOL     OW11272   5.988   0.259   0.187
 3458SOL    HW111273   6.036   0.210   0.114
 3458SOL    HW211274   6.054   0.308   0.244
 3459SOL     OW11275   0.471   3.511   3.329
 3459SOL    HW111276   0.425   3.528   3.416
 3459SOL    HW211277   0.535   3.585   3.310
 3460SOL     OW11278   3.485   3.191   0.605
 3460SOL    HW111279   3.442   3.101   0.600
 3460SOL    HW211280   3.417   3.259   0.635
 3461SOL     OW11281   3.759   5.290   4.089
 3461SOL    HW111282   3.800   5.226   4.154
 3461SOL    HW211283   3.775   5.384   4.120
 3462SOL     OW11284   5.897   2.833   2.166
 3462SOL    HW111285   5.995   2.813   2.154
 3462SOL    HW211286   5.854   2.842   2.077
 3463SOL     OW11287   0.188   2.975   2.696
 3463SOL    HW111288   0.268   2.993   2.640
 3463SOL    HW211289   0.151   3.062   2.732
 3464SOL     OW11290   5.702   2.365   6.827
 3464SOL    HW111291   5.687   2.276   6.870
 3464SOL    HW211292   5.644   2.434   6.870
 3465SOL     OW11293   2.102   3.595   1.491
 3465SOL    HW111294   2.121   3.652   1.571
 3465SOL    HW211295   2.003   3.584   1.480
 3466SOL     OW11296   5.615   5.302   5.873
 3466SOL    HW111297   5.682   5.350   5.816
 3466SOL    HW211298   5.563   5.368   5.926
 3467SOL     OW11299   3.302   1.602   0.817
 3467SOL    HW111300   3.361   1.554   0.882
 3467SOL    HW211301   3.337   1.589   0.724
 3468SOL     OW11302   4.748   1.535   2.219
 3468SOL    HW111303   4.749   1.546   2.318
 3468SOL    HW211304   4.830   1.578   2.180
 3469SOL     OW11305   4.956   0.389   6.341
 3469SOL    HW111306   4.985   0.337   6.421
 3469SOL    HW211307   4.981   0.339   6.258
 3470SOL     OW11308   0.606   2.859   1.682
 3470SOL    HW111309   0.598   2.767   1.721
 3470SOL    HW211310   0.618   2.926   1.756
 3471SOL     OW11311   4.731   4.170   3.558
 3471SOL    HW111312   4.696   4.101   3.622
 3471SOL    HW211313   4.661   4.240   3.544
 3472SOL     OW11314   3.939   1.780   2.530
 3472SOL    HW111315   3.875   1.811   2.599
 3472SOL    HW211316   3.906   1.807   2.439
 3473SOL     OW11317   6.978   3.591   3.745
 3473SOL    HW111318   6.908   3.574   3.815
 3473SOL    HW211319   6.976   3.517   3.677
 3474SOL     OW11320   0.142   4.299   3.798
 3474SOL    HW111321   0.092   4.216   3.819
 3474SOL    HW211322   0.204   4.322   3.873
 3475SOL     OW11323   0.661   4.954   3.975
 3475SOL    HW111324   0.742   4.899   3.999
 3475SOL    HW211325   0.585   4.893   3.953
 3476SOL     OW11326   1.890   1.550   3.634
 3476SOL    HW111327   1.872   1.469   3.689
 3476SOL    HW211328   1.827   1.551   3.556
 3477SOL     OW11329   1.033   3.550   0.392
 3477SOL    HW111330   1.076   3.603   0.319
 3477SOL    HW211331   1.060   3.454   0.385
 3478SOL     OW11332   2.344   0.137   6.529
 3478SOL    HW111333   2.385   0.207   6.588
 3478SOL    HW211334   2.255   0.110   6.566
 3479SOL     OW11335   0.751   1.787   3.700
 3479SOL    HW111336   0.728   1.751   3.610
 3479SOL    HW211337   0.667   1.810   3.749
 3480SOL     OW11338   0.844   6.110   6.541
 3480SOL    HW111339   0.771   6.135   6.605
 3480SOL    HW211340   0.885   6.023   6.571
 3481SOL     OW11341   5.664   1.061   0.781
 3481SOL    HW111342   5.620   0.972   0.770
 3481SOL    HW211343   5.763   1.049   0.785
 3482SOL     OW11344   6.114   1.688   3.029
 3482SOL    HW111345   6.018   1.707   3.007
 3482SOL    HW211346   6.133   1.716   3.123
 3483SOL     OW11347   5.459   2.358   3.266
 3483SOL    HW111348   5.538   2.356   3.328
 3483SOL    HW211349   5.434   2.453   3.248
 3484SOL     OW11350   1.646   3.247   6.770
 3484SOL    HW111351   1.633   3.338   6.732
 3484SOL    HW211352   1.561   3.215   6.811
 3485SOL     OW11353   0.436   2.193   5.240
 3485SOL    HW111354   0.486   2.179   5.154
 3485SOL    HW211355   0.373   2.270   5.230
 3486SOL     OW11356   2.191   0.237   4.073
 3486SOL    HW111357   2.147   0.160   4.026
 3486SOL    HW211358   2.122   0.289   4.123
 3487SOL     OW11359   6.710   2.180   6.928
 3487SOL    HW111360   6.654   2.099   6.945
 3487SOL    HW211361   6.698   2.245   7.003
 3488SOL     OW11362   5.572   0.703   4.744
 3488SOL    HW111363   5.631   0.748   4.811
 3488SOL    HW211364   5.479   0.739   4.753
 3489SOL     OW11365   3.364   6.963   1.145
 3489SOL    HW111366   3.334   0.014   1.204
 3489SOL    HW211367   3.446   6.921   1.184
 3490SOL     OW11368   3.860   4.899   1.553
 3490SOL    HW111369   3.774   4.850   1.562
 3490SOL    HW211370   3.854   4.965   1.479
 3491SOL     OW11371   4.460   4.008   6.028
 3491SOL    HW111372   4.465   4.103   5.998
 3491SOL    HW211373   4.510   3.997   6.114
 3492SOL     OW11374   6.571   4.397   1.295
 3492SOL    HW111375   6.529   4.355   1.215
 3492SOL    HW211376   6.647   4.340   1.327
 3493SOL     OW11377   6.632   3.813   3.736
 3493SOL    HW111378   6.706   3.816   3.670
 3493SOL    HW211379   6.550   3.854   3.696
 3494SOL     OW11380   3.013   1.074   1.839
 3494SOL    HW111381   3.008   0.979   1.808
 3494SOL    HW211382   3.061   1.078   1.927
 3495SOL     OW11383   0.542   3.861   2.275
 3495SOL    HW111384   0.595   3.870   2.191
 3495SOL    HW211385   0.587   3.796   2.336
 3496SOL     OW11386   5.742   5.091   1.005
 3496SOL    HW111387   5.732   5.036   0.922
 3496SOL    HW211388   5.838   5.088   1.035
 3497SOL     OW11389   3.510   1.076   3.795
 3497SOL    HW111390   3.427   1.021   3.803
 3497SOL    HW211391   3.569   1.058   3.874
 3498SOL     OW11392   3.035   1.365   2.155
 3498SOL    HW111393   2.936   1.356   2.146
 3498SOL    HW211394   3.075   1.384   2.065
 3499SOL     OW11395   6.455   5.456   4.665
 3499SOL    HW111396   6.402   5.374   4.640
 3499SOL    HW211397   6.546   5.428   4.696
 3500SOL     OW11398   2.254   2.939   4.238
 3500SOL    HW111399   2.167   2.901   4.208
 3500SOL    HW211400   2.326   2.914   4.173
 3501SOL     OW11401   2.580   6.990   5.994
 3501SOL    HW111402   2.660   6.970   6.052
 3501SOL    HW211403   2.547   6.906   5.953
 3502SOL     OW11404   6.149   3.250   1.351
 3502SOL    HW111405   6.082   3.247   1.425
 3502SOL    HW211406   6.206   3.332   1.361
 3503SOL     OW11407   6.873   6.254   5.777
 3503SOL    HW111408   6.972   6.265   5.782
 3503SOL    HW211409   6.852   6.166   5.734
 3504SOL     OW11410   1.985   1.118   2.118
 3504SOL    HW111411   2.021   1.139   2.209
 3504SOL    HW211412   2.052   1.145   2.049
 3505SOL     OW11413   5.770   5.453   5.329
 3505SOL    HW111414   5.798   5.493   5.242
 3505SOL    HW211415   5.698   5.509   5.370
 3506SOL     OW11416   5.757   4.451   4.700
 3506SOL    HW111417   5.776   4.362   4.739
 3506SOL    HW211418   5.841   4.506   4.699
 3507SOL     OW11419   2.218   6.829   0.222
 3507SOL    HW111420   2.225   6.913   0.167
 3507SOL    HW211421   2.302   6.776   0.214
 3508SOL     OW11422   2.910   2.456   6.495
 3508SOL    HW111423   2.902   2.508   6.410
 3508SOL    HW211424   2.981   2.386   6.484
 3509SOL     OW11425   5.332   6.533   0.178
 3509SOL    HW111426   5.246   6.581   0.191
 3509SOL    HW211427   5.392   6.586   0.119
 3510SOL     OW11428   1.732   0.570   1.151
 3510SOL    HW111429   1.657   0.532   1.205
 3510SOL    HW211430   1.775   0.645   1.201
 3511SOL     OW11431   1.597   4.311   1.283
 3511SOL    HW111432   1.558   4.401   1.299
 3511SOL    HW211433   1.691   4.308   1.320
 3512SOL     OW11434   0.994   3.382   0.681
 3512SOL    HW111435   1.033   3.307   0.736
 3512SOL    HW211436   1.016   3.366   0.585
 3513SOL     OW11437   5.938   1.674   1.424
 3513SOL    HW111438   5.920   1.604   1.355
 3513SOL    HW211439   5.861   1.738   1.428
 3514SOL     OW11440   5.668   0.495   2.374
 3514SOL    HW111441   5.659   0.458   2.282
 3514SOL    HW211442   5.637   0.427   2.441
 3515SOL     OW11443   5.273   5.898   3.871
 3515SOL    HW111444   5.181   5.864   3.894
 3515SOL    HW211445   5.297   5.973   3.932
 3516SOL     OW11446   5.299   6.331   1.057
 3516SOL    HW111447   5.290   6.231   1.056
 3516SOL    HW211448   5.310   6.363   1.151
 3517SOL     OW11449   0.429   1.791   1.824
 3517SOL    HW111450   0.522   1.780   1.789
 3517SOL    HW211451   0.366   1.739   1.766
 3518SOL     OW11452   5.105   1.709   5.100
 3518SOL    HW111453   5.169   1.655   5.154
 3518SOL    HW211454   5.154   1.783   5.054
 3519SOL     OW11455   2.197   1.030   6.048
 3519SOL    HW111456   2.177   0.934   6.072
 3519SOL    HW211457   2.117   1.071   6.006
 3520SOL     OW11458   3.046   6.999   0.031
 3520SOL    HW111459   2.980   0.049   0.039
 3520SOL    HW211460   3.127   7.021   0.085
 3521SOL     OW11461   4.005   2.802   6.785
 3521SOL    HW111462   3.925   2.744   6.804
 3521SOL    HW211463   4.008   2.877   6.851
 3522SOL     OW11464   6.431   5.256   6.794
 3522SOL    HW111465   6.445   5.299   6.704
 3522SOL    HW211466   6.442   5.157   6.786
 3523SOL     OW11467   1.417   4.510   5.194
 3523SOL    HW111468   1.347   4.492   5.126
 3523SOL    HW211469   1.490   4.441   5.186
 3524SOL     OW11470   4.988   2.015   2.206
 3524SOL    HW111471   5.076   1.989   2.247
 3524SOL    HW211472   4.923   2.034   2.279
 3525SOL     OW11473   6.249   3.306   4.404
 3525SOL    HW111474   6.149   3.311   4.404
 3525SOL    HW211475   6.286   3.390   4.444
 3526SOL     OW11476   1.950   6.974   3.386
 3526SOL    HW111477   1.948   0.041   3.428
 3526SOL    HW211478   1.935   6.905   3.456
 3527SOL     OW11479   5.746   3.154   6.098
 3527SOL    HW111480   5.742   3.243   6.053
 3527SOL    HW211481   5.698   3.086   6.043
 3528SOL     OW11482   2.252   6.156   5.074
 3528SOL    HW111483   2.194   6.214   5.017
 3528SOL    HW211484   2.270   6.070   5.026
 3529SOL     OW11485   4.002   6.746   0.641
 3529SOL    HW111486   4.023   6.656   0.602
 3529SOL    HW211487   3.924   6.786   0.594
 3530SOL     OW11488   6.858   5.041   1.528
 3530SOL    HW111489   6.797   5.054   1.606
 3530SOL    HW211490   6.828   5.098   1.452
 3531SOL     OW11491   5.789   2.621   0.810
 3531SOL    HW111492   5.762   2.717   0.799
 3531SOL    HW211493   5.867   2.616   0.872
 3532SOL     OW11494   2.480   0.971   1.644
 3532SOL    HW111495   2.565   0.961   1.593
 3532SOL    HW211496   2.403   0.961   1.581
 3533SOL     OW11497   0.756   1.450   2.482
 3533SOL    HW111498   0.742   1.501   2.566
 3533SOL    HW211499   0.724   1.504   2.404
 3534SOL     OW11500   0.969   2.162   1.771
 3534SOL    HW111501   0.925   2.104   1.838
 3534SOL    HW211502   0.932   2.142   1.680
 3535SOL     OW11503   1.987   5.602   5.891
 3535SOL    HW111504   2.030   5.589   5.981
 3535SOL    HW211505   1.992   5.699   5.866
 3536SOL     OW11506   3.366   2.135   3.599
 3536SOL    HW111507   3.340   2.174   3.687
 3536SOL    HW211508   3.337   2.040   3.594
 3537SOL     OW11509   2.024   5.588   2.285
 3537SOL    HW111510   1.967   5.661   2.324
 3537SOL    HW211511   1.993   5.500   2.320
 3538SOL     OW11512   2.438   5.627   5.576
 3538SOL    HW111513   2.424   5.536   5.539
 3538SOL    HW211514   2.534   5.654   5.566
 3539SOL     OW11515   3.350   3.467   4.541
 3539SOL    HW111516   3.445   3.455   4.568
 3539SOL    HW211517   3.332   3.417   4.456
 3540SOL     OW11518   1.855   2.169   4.695
 3540SOL    HW111519   1.859   2.135   4.601
 3540SOL    HW211520   1.948   2.181   4.730
 3541SOL     OW11521   2.578   2.460   5.830
 3541SOL    HW111522   2.655   2.444   5.892
 3541SOL    HW211523   2.604   2.529   5.762
 3542SOL     OW11524   1.605   4.879   2.805
 3542SOL    HW111525   1.613   4.869   2.905
 3542SOL    HW211526   1.676   4.941   2.772
 3543SOL     OW11527   6.196   2.754   3.546
 3543SOL    HW111528   6.230   2.674   3.594
 3543SOL    HW211529   6.103   2.738   3.515
 3544SOL     OW11530   1.985   4.223   6.314
 3544SOL    HW111531   2.065   4.183   6.269
 3544SOL    HW211532   1.907   4.220   6.251
 3545SOL     OW11533   3.791   6.354   6.714
 3545SOL    HW111534   3.703   6.382   6.674
 3545SOL    HW211535   3.810   6.410   6.794
 3546SOL     OW11536   0.655   4.449   3.220
 3546SOL    HW111537   0.750   4.475   3.205
 3546SOL    HW211538   0.600   4.532   3.231
 3547SOL     OW11539   4.654   4.396   4.140
 3547SOL    HW111540   4.657   4.384   4.041
 3547SOL    HW211541   4.595   4.474   4.163
 3548SOL     OW11542   5.312   1.534   5.900
 3548SOL    HW111543   5.315   1.634   5.905
 3548SOL    HW211544   5.372   1.495   5.969
 3549SOL     OW11545   6.812   4.647   4.774
 3549SOL    HW111546   6.823   4.665   4.676
 3549SOL    HW211547   6.902   4.627   4.814
 3550SOL     OW11548   4.871   2.896   2.651
 3550SOL    HW111549   4.799   2.874   2.585
 3550SOL    HW211550   4.960   2.889   2.605
 3551SOL     OW11551   3.706   6.134   2.951
 3551SOL    HW111552   3.607   6.125   2.937
 3551SOL    HW211553   3.723   6.193   3.031
 3552SOL     OW11554   4.691   6.025   2.506
 3552SOL    HW111555   4.762   6.010   2.437
 3552SOL    HW211556   4.684   5.943   2.564
 3553SOL     OW11557   5.874   3.179   1.085
 3553SOL    HW111558   5.969   3.183   1.116
 3553SOL    HW211559   5.825   3.260   1.116
 3554SOL     OW11560   3.717   3.331   0.766
 3554SOL    HW111561   3.650   3.326   0.691
 3554SOL    HW211562   3.709   3.420   0.811
 3555SOL     OW11563   0.870   3.248   2.881
 3555SOL    HW111564   0.860   3.175   2.948
 3555SOL    HW211565   0.832   3.333   2.918
 3556SOL     OW11566   3.690   0.645   5.060
 3556SOL    HW111567   3.610   0.611   5.111
 3556SOL    HW211568   3.659   0.709   4.990
 3557SOL     OW11569   0.731   0.479   4.070
 3557SOL    HW111570   0.766   0.508   4.159
 3557SOL    HW211571   0.761   0.386   4.050
 3558SOL     OW11572   0.074   6.011   1.683
 3558SOL    HW111573   0.170   6.016   1.654
 3558SOL    HW211574   0.069   5.963   1.771
 3559SOL     OW11575   0.713   0.073   4.438
 3559SOL    HW111576   0.701   7.012   4.490
 3559SOL    HW211577   0.625   0.099   4.398
 3560SOL     OW11578   1.885   5.714   1.402
 3560SOL    HW111579   1.898   5.661   1.318
 3560SOL    HW211580   1.813   5.670   1.457
 3561SOL     OW11581   5.191   5.306   5.762
 3561SOL    HW111582   5.180   5.373   5.688
 3561SOL    HW211583   5.177   5.214   5.725
 3562SOL     OW11584   4.526   0.929   4.379
 3562SOL    HW111585   4.590   0.999   4.410
 3562SOL    HW211586   4.542   0.844   4.430
 3563SOL     OW11587   5.378   0.865   1.866
 3563SOL    HW111588   5.394   0.962   1.844
 3563SOL    HW211589   5.449   0.833   1.929
 3564SOL     OW11590   1.564   4.379   4.066
 3564SOL    HW111591   1.613   4.335   3.990
 3564SOL    HW211592   1.474   4.409   4.034
 3565SOL     OW11593   3.374   6.592   4.990
 3565SOL    HW111594   3.472   6.603   4.973
 3565SOL    HW211595   3.345   6.501   4.961
 3566SOL     OW11596   6.961   3.071   5.892
 3566SOL    HW111597   6.990   3.025   5.808
 3566SOL    HW211598   6.873   3.116   5.876
 3567SOL     OW11599   1.682   2.328   0.374
 3567SOL    HW111600   1.667   2.344   0.472
 3567SOL    HW211601   1.778   2.305   0.358
 3568SOL     OW11602   5.437   4.849   2.752
 3568SOL    HW111603   5.462   4.839   2.656
 3568SOL    HW211604   5.515   4.826   2.810
 3569SOL     OW11605   2.992   3.042   5.257
 3569SOL    HW111606   2.901   3.002   5.248
 3569SOL    HW211607   3.062   2.972   5.239
 3570SOL     OW11608   5.313   0.598   5.510
 3570SOL    HW111609   5.302   0.668   5.439
 3570SOL    HW211610   5.387   0.624   5.571
 3571SOL     OW11611   1.522   0.832   4.925
 3571SOL    HW111612   1.614   0.815   4.962
 3571SOL    HW211613   1.512   0.786   4.837
 3572SOL     OW11614   5.245   3.835   2.352
 3572SOL    HW111615   5.208   3.819   2.260
 3572SOL    HW211616   5.176   3.880   2.408
 3573SOL     OW11617   6.967   4.594   2.417
 3573SOL    HW111618   6.987   4.619   2.323
 3573SOL    HW211619   6.871   4.569   2.426
 3574SOL     OW11620   2.147   3.344   6.526
 3574SOL    HW111621   2.142   3.436   6.488
 3574SOL    HW211622   2.055   3.315   6.554
 3575SOL     OW11623   4.968   5.676   0.948
 3575SOL    HW111624   4.978   5.581   0.916
 3575SOL    HW211625   4.942   5.675   1.044
 3576SOL     OW11626   0.257   2.611   0.415
 3576SOL    HW111627   0.303   2.527   0.445
 3576SOL    HW211628   0.162   2.590   0.394
 3577SOL     OW11629   2.257   3.245   5.502
 3577SOL    HW111630   2.340   3.201   5.538
 3577SOL    HW211631   2.264   3.252   5.403
 3578SOL     OW11632   3.964   3.006   1.104
 3578SOL    HW111633   3.899   2.953   1.158
 3578SOL    HW211634   3.991   3.088   1.154
 3579SOL     OW11635   0.264   3.111   3.024
 3579SOL    HW111636   0.297   3.021   2.996
 3579SOL    HW211637   0.203   3.148   2.953
 3580SOL     OW11638   7.013   4.056   1.404
 3580SOL    HW111639   7.018   3.972   1.350
 3580SOL    HW211640   6.998   4.032   1.500
 3581SOL     OW11641   1.038   6.624   3.231
 3581SOL    HW111642   1.024   6.674   3.316
 3581SOL    HW211643   1.128   6.582   3.230
 3582SOL     OW11644   3.435   5.021   5.769
 3582SOL    HW111645   3.432   4.970   5.684
 3582SOL    HW211646   3.470   4.963   5.842
 3583SOL     OW11647   0.578   4.260   0.656
 3583SOL    HW111648   0.511   4.298   0.720
 3583SOL    HW211649   0.612   4.173   0.692
 3584SOL     OW11650   6.285   4.696   5.358
 3584SOL    HW111651   6.207   4.735   5.311
 3584SOL    HW211652   6.254   4.634   5.430
 3585SOL     OW11653   3.182   1.963   4.969
 3585SOL    HW111654   3.086   1.949   4.995
 3585SOL    HW211655   3.203   2.061   4.973
 3586SOL     OW11656   6.089   2.818   4.155
 3586SOL    HW111657   6.063   2.914   4.157
 3586SOL    HW211658   6.008   2.760   4.163
 3587SOL     OW11659   3.343   5.977   6.827
 3587SOL    HW111660   3.387   5.893   6.859
 3587SOL    HW211661   3.390   6.010   6.745
 3588SOL     OW11662   6.460   4.658   4.227
 3588SOL    HW111663   6.389   4.589   4.242
 3588SOL    HW211664   6.443   4.705   4.140
 3589SOL     OW11665   6.863   0.012   5.934
 3589SOL    HW111666   6.903   0.089   5.884
 3589SOL    HW211667   6.888   6.950   5.890
 3590SOL     OW11668   0.115   3.952   0.616
 3590SOL    HW111669   0.171   3.922   0.692
 3590SOL    HW211670   0.135   3.896   0.535
 3591SOL     OW11671   5.814   2.788   0.178
 3591SOL    HW111672   5.786   2.747   0.265
 3591SOL    HW211673   5.844   2.715   0.116
 3592SOL     OW11674   0.847   0.571   2.432
 3592SOL    HW111675   0.808   0.540   2.519
 3592SOL    HW211676   0.809   0.661   2.409
 3593SOL     OW11677   0.447   4.804   5.714
 3593SOL    HW111678   0.517   4.742   5.679
 3593SOL    HW211679   0.479   4.899   5.707
 3594SOL     OW11680   4.366   6.038   5.372
 3594SOL    HW111681   4.301   6.114   5.375
 3594SOL    HW211682   4.363   5.994   5.282
 3595SOL     OW11683   6.267   6.346   6.962
 3595SOL    HW111684   6.193   6.410   6.982
 3595SOL    HW211685   6.243   6.291   6.882
 3596SOL     OW11686   4.578   1.886   3.028
 3596SOL    HW111687   4.549   1.981   3.025
 3596SOL    HW211688   4.677   1.881   3.042
 3597SOL     OW11689   1.955   3.254   5.767
 3597SOL    HW111690   1.956   3.246   5.667
 3597SOL    HW211691   1.892   3.187   5.805
 3598SOL     OW11692   1.622   6.635   5.642
 3598SOL    HW111693   1.689   6.562   5.623
 3598SOL    HW211694   1.632   6.665   5.737
 3599SOL     OW11695   4.710   1.752   6.248
 3599SOL    HW111696   4.630   1.782   6.301
 3599SOL    HW211697   4.689   1.668   6.199
 3600SOL     OW11698   2.193   3.198   0.896
 3600SOL    HW111699   2.259   3.251   0.951
 3600SOL    HW211700   2.100   3.218   0.928
 3601SOL     OW11701   5.065   1.368   5.422
 3601SOL    HW111702   5.130   1.373   5.498
 3601SOL    HW211703   4.993   1.436   5.435
 3602SOL     OW11704   2.069   2.619   1.544
 3602SOL    HW111705   1.987   2.569   1.518
 3602SOL    HW211706   2.081   2.614   1.644
 3603SOL     OW11707   3.294   0.905   6.337
 3603SOL    HW111708   3.380   0.925   6.291
 3603SOL    HW211709   3.221   0.894   6.269
 3604SOL     OW11710   6.959   0.728   3.418
 3604SOL    HW111711   7.004   0.769   3.497
 3604SOL    HW211712   6.882   0.672   3.448
 3605SOL     OW11713   1.429   5.144   4.058
 3605SOL    HW111714   1.453   5.238   4.036
 3605SOL    HW211715   1.462   5.121   4.150
 3606SOL     OW11716   1.651   6.478   1.298
 3606SOL    HW111717   1.609   6.394   1.330
 3606SOL    HW211718   1.738   6.492   1.346
 3607SOL     OW11719   5.467   2.775   2.391
 3607SOL    HW111720   5.481   2.762   2.489
 3607SOL    HW211721   5.422   2.695   2.352
 3608SOL     OW11722   5.005   2.062   4.264
 3608SOL    HW111723   4.938   2.133   4.284
 3608SOL    HW211724   4.979   2.013   4.180
 3609SOL     OW11725   2.153   6.224   4.294
 3609SOL    HW111726   2.164   6.322   4.281
 3609SOL    HW211727   2.230   6.176   4.253
 3610SOL     OW11728   1.784   0.437   5.413
 3610SOL    HW111729   1.706   0.398   5.364
 3610SOL    HW211730   1.847   0.364   5.440
 3611SOL     OW11731   4.781   4.317   4.601
 3611SOL    HW111732   4.862   4.364   4.566
 3611SOL    HW211733   4.706   4.326   4.535
 3612SOL     OW11734   6.415   1.569   6.620
 3612SOL    HW111735   6.337   1.527   6.574
 3612SOL    HW211736   6.470   1.498   6.663
 3613SOL     OW11737   4.362   5.323   1.559
 3613SOL    HW111738   4.355   5.257   1.484
 3613SOL    HW211739   4.312   5.288   1.638
 3614SOL     OW11740   3.566   3.814   0.002
 3614SOL    HW111741   3.666   3.816   0.002
 3614SOL    HW211742   3.532   3.822   6.932
 3615SOL     OW11743   5.694   3.023   5.556
 3615SOL    HW111744   5.648   2.937   5.533
 3615SOL    HW211745   5.641   3.072   5.625
 3616SOL     OW11746   2.137   2.390   6.081
 3616SOL    HW111747   2.112   2.327   6.007
 3616SOL    HW211748   2.062   2.397   6.146
 3617SOL     OW11749   4.109   6.534   5.892
 3617SOL    HW111750   4.015   6.549   5.922
 3617SOL    HW211751   4.128   6.591   5.812
 3618SOL     OW11752   2.167   3.580   4.850
 3618SOL    HW111753   2.157   3.674   4.884
 3618SOL    HW211754   2.258   3.546   4.873
 3619SOL     OW11755   5.929   3.355   0.424
 3619SOL    HW111756   5.838   3.375   0.462
 3619SOL    HW211757   5.999   3.381   0.490
 3620SOL     OW11758   6.090   5.903   4.391
 3620SOL    HW111759   6.026   5.973   4.423
 3620SOL    HW211760   6.068   5.816   4.435
 3621SOL     OW11761   3.601   3.183   3.884
 3621SOL    HW111762   3.529   3.187   3.954
 3621SOL    HW211763   3.642   3.092   3.883
 3622SOL     OW11764   0.695   0.928   1.340
 3622SOL    HW111765   0.781   0.977   1.327
 3622SOL    HW211766   0.707   0.857   1.409
 3623SOL     OW11767   0.529   5.470   6.557
 3623SOL    HW111768   0.478   5.556   6.555
 3623SOL    HW211769   0.474   5.397   6.516
 3624SOL     OW11770   2.165   0.558   1.268
 3624SOL    HW111771   2.213   0.611   1.338
 3624SOL    HW211772   2.216   0.562   1.182
 3625SOL     OW11773   6.574   2.882   6.842
 3625SOL    HW111774   6.511   2.960   6.843
 3625SOL    HW211775   6.649   2.899   6.905
 3626SOL     OW11776   0.131   3.918   4.259
 3626SOL    HW111777   0.129   3.825   4.298
 3626SOL    HW211778   0.221   3.936   4.221
 3627SOL     OW11779   4.459   2.860   1.207
 3627SOL    HW111780   4.441   2.836   1.302
 3627SOL    HW211781   4.425   2.953   1.189
 3628SOL     OW11782   1.297   1.875   1.811
 3628SOL    HW111783   1.348   1.868   1.726
 3628SOL    HW211784   1.200   1.858   1.794
 3629SOL     OW11785   1.073   1.206   3.377
 3629SOL    HW111786   1.108   1.281   3.322
 3629SOL    HW211787   1.127   1.197   3.460
 3630SOL     OW11788   6.763   2.458   2.674
 3630SOL    HW111789   6.748   2.549   2.712
 3630SOL    HW211790   6.693   2.440   2.604
 3631SOL     OW11791   1.940   7.006   3.122
 3631SOL    HW111792   1.962   6.987   3.218
 3631SOL    HW211793   1.852   6.965   3.099
 3632SOL     OW11794   4.322   3.597   0.707
 3632SOL    HW111795   4.310   3.572   0.803
 3632SOL    HW211796   4.260   3.673   0.685
 3633SOL     OW11797   3.354   2.600   5.923
 3633SOL    HW111798   3.360   2.686   5.975
 3633SOL    HW211799   3.445   2.573   5.892
 3634SOL     OW11800   2.767   6.153   5.821
 3634SOL    HW111801   2.775   6.237   5.768
 3634SOL    HW211802   2.822   6.081   5.778
 3635SOL     OW11803   2.897   1.144   1.559
 3635SOL    HW111804   2.933   1.152   1.652
 3635SOL    HW211805   2.970   1.163   1.493
 3636SOL     OW11806   6.823   5.382   0.830
 3636SOL    HW111807   6.834   5.386   0.930
 3636SOL    HW211808   6.912   5.384   0.786
 3637SOL     OW11809   0.965   3.044   6.549
 3637SOL    HW111810   0.935   3.140   6.546
 3637SOL    HW211811   0.889   2.984   6.526
 3638SOL     OW11812   6.271   4.036   2.928
 3638SOL    HW111813   6.357   3.994   2.898
 3638SOL    HW211814   6.221   4.067   2.847
 3639SOL     OW11815   3.881   4.073   4.913
 3639SOL    HW111816   3.939   4.141   4.957
 3639SOL    HW211817   3.897   3.983   4.954
 3640SOL     OW11818   5.523   2.757   0.106
 3640SOL    HW111819   5.501   2.854   0.096
 3640SOL    HW211820   5.615   2.747   0.145
 3641SOL     OW11821   6.239   4.227   0.851
 3641SOL    HW111822   6.254   4.135   0.813
 3641SOL    HW211823   6.328   4.271   0.867
 3642SOL     OW11824   6.123   2.162   6.379
 3642SOL    HW111825   6.083   2.225   6.313
 3642SOL    HW211826   6.170   2.214   6.451
 3643SOL     OW11827   4.633   6.077   6.350
 3643SOL    HW111828   4.657   5.985   6.382
 3643SOL    HW211829   4.711   6.138   6.359
 3644SOL     OW11830   2.521   0.675   1.895
 3644SOL    HW111831   2.439   0.703   1.845
 3644SOL    HW211832   2.583   0.626   1.834
 3645SOL     OW11833   1.705   3.921   4.455
 3645SOL    HW111834   1.782   3.859   4.465
 3645SOL    HW211835   1.737   4.016   4.455
 3646SOL     OW11836   2.775   4.804   4.664
 3646SOL    HW111837   2.727   4.769   4.584
 3646SOL    HW211838   2.710   4.821   4.738
 3647SOL     OW11839   1.808   6.747   0.213
 3647SOL    HW111840   1.723   6.783   0.174
 3647SOL    HW211841   1.883   6.760   0.147
 3648SOL     OW11842   5.167   5.604   3.277
 3648SOL    HW111843   5.087   5.550   3.249
 3648SOL    HW211844   5.153   5.700   3.255
 3649SOL     OW11845   5.658   3.198   6.541
 3649SOL    HW111846   5.703   3.160   6.460
 3649SOL    HW211847   5.612   3.125   6.592
 3650SOL     OW11848   4.669   4.633   1.157
 3650SOL    HW111849   4.601   4.706   1.146
 3650SOL    HW211850   4.630   4.558   1.210
 3651SOL     OW11851   1.652   2.700   5.643
 3651SOL    HW111852   1.626   2.681   5.548
 3651SOL    HW211853   1.737   2.653   5.665
 3652SOL     OW11854   5.366   0.740   2.258
 3652SOL    HW111855   5.408   0.748   2.168
 3652SOL    HW211856   5.278   0.788   2.258
 3653SOL     OW11857   1.502   1.452   2.435
 3653SOL    HW111858   1.451   1.503   2.366
 3653SOL    HW211859   1.594   1.432   2.401
 3654SOL     OW11860   5.082   6.468   0.898
 3654SOL    HW111861   5.150   6.418   0.953
 3654SOL    HW211862   5.008   6.498   0.958
 3655SOL     OW11863   2.829   1.392   4.220
 3655SOL    HW111864   2.836   1.293   4.207
 3655SOL    HW211865   2.840   1.413   4.317
 3656SOL     OW11866   0.876   5.623   2.181
 3656SOL    HW111867   0.965   5.607   2.225
 3656SOL    HW211868   0.833   5.535   2.161
 3657SOL     OW11869   5.070   6.424   5.648
 3657SOL    HW111870   5.156   6.375   5.660
 3657SOL    HW211871   5.082   6.499   5.583
 3658SOL     OW11872   1.419   5.315   6.392
 3658SOL    HW111873   1.499   5.278   6.440
 3658SOL    HW211874   1.356   5.356   6.458
 3659SOL     OW11875   0.163   1.962   6.329
 3659SOL    HW111876   0.232   2.009   6.384
 3659SOL    HW211877   0.143   1.873   6.368
 3660SOL     OW11878   5.137   5.528   5.617
 3660SOL    HW111879   5.074   5.483   5.553
 3660SOL    HW211880   5.114   5.625   5.623
 3661SOL     OW11881   6.889   1.515   4.914
 3661SOL    HW111882   6.924   1.507   4.821
 3661SOL    HW211883   6.953   1.568   4.970
 3662SOL     OW11884   3.691   0.758   5.823
 3662SOL    HW111885   3.626   0.785   5.752
 3662SOL    HW211886   3.677   0.814   5.905
 3663SOL     OW11887   2.615   3.374   6.848
 3663SOL    HW111888   2.550   3.318   6.899
 3663SOL    HW211889   2.645   3.325   6.767
 3664SOL     OW11890   4.294   1.708   2.218
 3664SOL    HW111891   4.364   1.647   2.181
 3664SOL    HW211892   4.244   1.661   2.292
 3665SOL     OW11893   0.422   6.534   5.727
 3665SOL    HW111894   0.402   6.613   5.784
 3665SOL    HW211895   0.345   6.517   5.666
 3666SOL     OW11896   1.601   2.689   3.997
 3666SOL    HW111897   1.629   2.618   3.932
 3666SOL    HW211898   1.654   2.772   3.979
 3667SOL     OW11899   1.473   1.317   2.713
 3667SOL    HW111900   1.527   1.339   2.631
 3667SOL    HW211901   1.463   1.399   2.769
 3668SOL     OW11902   1.327   0.049   1.719
 3668SOL    HW111903   1.311   7.010   1.796
 3668SOL    HW211904   1.356   7.020   1.639
 3669SOL     OW11905   6.431   2.500   4.098
 3669SOL    HW111906   6.377   2.583   4.088
 3669SOL    HW211907   6.467   2.473   4.009
 3670SOL     OW11908   3.450   5.104   1.325
 3670SOL    HW111909   3.535   5.135   1.282
 3670SOL    HW211910   3.466   5.092   1.423
 3671SOL     OW11911   6.716   0.280   3.661
 3671SOL    HW111912   6.777   0.312   3.589
 3671SOL    HW211913   6.769   0.258   3.743
 3672SOL     OW11914   4.947   0.966   2.612
 3672SOL    HW111915   4.891   0.954   2.694
 3672SOL    HW211916   4.970   0.876   2.574
 3673SOL     OW11917   4.943   5.532   0.528
 3673SOL    HW111918   4.895   5.614   0.497
 3673SOL    HW211919   5.020   5.558   0.585
 3674SOL     OW11920   1.730   5.933   5.772
 3674SOL    HW111921   1.808   5.937   5.709
 3674SOL    HW211922   1.737   6.009   5.837
 3675SOL     OW11923   7.021   1.733   3.931
 3675SOL    HW111924   0.034   1.692   3.848
 3675SOL    HW211925   6.933   1.776   3.912
 3676SOL     OW11926   5.008   2.618   2.738
 3676SOL    HW111927   4.952   2.694   2.707
 3676SOL    HW211928   5.075   2.594   2.668
 3677SOL     OW11929   2.334   0.752   4.152
 3677SOL    HW111930   2.285   0.839   4.163
 3677SOL    HW211931   2.426   0.770   4.116
 3678SOL     OW11932   1.529   0.576   3.795
 3678SOL    HW111933   1.491   0.591   3.886
 3678SOL    HW211934   1.599   0.505   3.798
 3679SOL     OW11935   4.647   0.404   2.972
 3679SOL    HW111936   4.744   0.381   2.971
 3679SOL    HW211937   4.609   0.387   3.063
 3680SOL     OW11938   4.848   1.495   3.517
 3680SOL    HW111939   4.910   1.418   3.499
 3680SOL    HW211940   4.870   1.535   3.606
 3681SOL     OW11941   1.232   0.617   4.895
 3681SOL    HW111942   1.248   0.520   4.875
 3681SOL    HW211943   1.263   0.638   4.988
 3682SOL     OW11944   5.619   2.398   0.763
 3682SOL    HW111945   5.677   2.474   0.793
 3682SOL    HW211946   5.601   2.338   0.840
 3683SOL     OW11947   0.133   0.820   4.794
 3683SOL    HW111948   0.189   0.823   4.877
 3683SOL    HW211949   0.040   0.795   4.818
 3684SOL     OW11950   1.837   6.854   5.604
 3684SOL    HW111951   1.892   6.840   5.522
 3684SOL    HW211952   1.883   6.919   5.665
 3685SOL     OW11953   2.198   6.002   5.491
 3685SOL    HW111954   2.232   5.968   5.403
 3685SOL    HW211955   2.212   5.932   5.561
 3686SOL     OW11956   6.470   3.868   3.303
 3686SOL    HW111957   6.474   3.787   3.244
 3686SOL    HW211958   6.513   3.945   3.256
 3687SOL     OW11959   4.583   5.947   3.288
 3687SOL    HW111960   4.632   6.009   3.228
 3687SOL    HW211961   4.539   5.998   3.362
 3688SOL     OW11962   5.984   3.090   7.006
 3688SOL    HW111963   5.889   3.066   6.987
 3688SOL    HW211964   5.994   3.111   0.079
 3689SOL     OW11965   2.009   1.065   5.468
 3689SOL    HW111966   2.003   1.138   5.401
 3689SOL    HW211967   1.944   0.992   5.445
 3690SOL     OW11968   5.258   4.896   1.100
 3690SOL    HW111969   5.306   4.872   1.184
 3690SOL    HW211970   5.317   4.876   1.022
 3691SOL     OW11971   3.073   1.597   7.004
 3691SOL    HW111972   3.092   1.598   6.906
 3691SOL    HW211973   2.984   1.640   7.022
 3692SOL     OW11974   0.358   3.870   6.025
 3692SOL    HW111975   0.271   3.855   5.978
 3692SOL    HW211976   0.395   3.781   6.054
 3693SOL     OW11977   1.052   2.149   2.671
 3693SOL    HW111978   1.140   2.184   2.703
 3693SOL    HW211979   1.057   2.132   2.572
 3694SOL     OW11980   0.791   0.709   2.010
 3694SOL    HW111981   0.691   0.717   2.007
 3694SOL    HW211982   0.816   0.632   2.068
 3695SOL     OW11983   6.479   2.269   2.750
 3695SOL    HW111984   6.386   2.241   2.728
 3695SOL    HW211985   6.526   2.299   2.666
 3696SOL     OW11986   4.692   0.817   5.148
 3696SOL    HW111987   4.696   0.824   5.248
 3696SOL    HW211988   4.782   0.796   5.112
 3697SOL     OW11989   6.220   6.022   3.438
 3697SOL    HW111990   6.297   6.066   3.484
 3697SOL    HW211991   6.161   5.979   3.506
 3698SOL     OW11992   1.836   0.258   3.079
 3698SOL    HW111993   1.909   0.321   3.051
 3698SOL    HW211994   1.872   0.166   3.087
 3699SOL     OW11995   2.767   2.100   4.142
 3699SOL    HW111996   2.710   2.069   4.219
 3699SOL    HW211997   2.812   2.186   4.167
 3700SOL     OW11998   1.298   5.205   4.605
 3700SOL    HW111999   1.316   5.297   4.568
 3700SOL    HW212000   1.354   5.190   4.686
 3701SOL     OW12001   0.994   6.646   2.970
 3701SOL    HW112002   1.079   6.640   2.918
 3701SOL    HW212003   1.012   6.621   3.066
 3702SOL     OW12004   5.135   4.815   3.618
 3702SOL    HW112005   5.108   4.865   3.700
 3702SOL    HW212006   5.232   4.834   3.598
 3703SOL     OW12007   1.519   1.817   5.570
 3703SOL    HW112008   1.593   1.750   5.570
 3703SOL    HW212009   1.431   1.769   5.563
 3704SOL     OW12010   6.328   2.536   1.142
 3704SOL    HW112011   6.231   2.510   1.133
 3704SOL    HW212012   6.346   2.617   1.086
 3705SOL     OW12013   4.850   4.567   3.834
 3705SOL    HW112014   4.944   4.534   3.833
 3705SOL    HW212015   4.839   4.636   3.762
 3706SOL     OW12016   1.030   3.810   0.515
 3706SOL    HW112017   0.992   3.729   0.472
 3706SOL    HW212018   0.980   3.891   0.484
 3707SOL     OW12019   2.527   4.916   3.901
 3707SOL    HW112020   2.441   4.884   3.942
 3707SOL    HW212021   2.514   4.933   3.804
 3708SOL     OW12022   3.741   6.744   1.104
 3708SOL    HW112023   3.699   6.734   1.014
 3708SOL    HW212024   3.800   6.825   1.104
 3709SOL     OW12025   1.852   0.303   2.200
 3709SOL    HW112026   1.807   0.251   2.273
 3709SOL    HW212027   1.801   0.387   2.183
 3710SOL     OW12028   0.559   5.109   5.440
 3710SOL    HW112029   0.509   5.073   5.361
 3710SOL    HW212030   0.584   5.204   5.422
 3711SOL     OW12031   1.733   6.371   4.826
 3711SOL    HW112032   1.818   6.384   4.877
 3711SOL    HW212033   1.738   6.286   4.775
 3712SOL     OW12034   1.858   5.712   5.226
 3712SOL    HW112035   1.879   5.747   5.135
 3712SOL    HW212036   1.942   5.680   5.269
 3713SOL     OW12037   6.751   6.697   5.161
 3713SOL    HW112038   6.802   6.779   5.188
 3713SOL    HW212039   6.791   6.617   5.205
 3714SOL     OW12040   1.298   4.933   0.358
 3714SOL    HW112041   1.345   5.007   0.405
 3714SOL    HW212042   1.344   4.914   0.271
 3715SOL     OW12043   0.047   6.035   3.065
 3715SOL    HW112044   0.078   5.942   3.084
 3715SOL    HW212045   0.093   6.099   3.127
 3716SOL     OW12046   5.568   5.648   4.027
 3716SOL    HW112047   5.666   5.659   4.042
 3716SOL    HW212048   5.548   5.654   3.930
 3717SOL     OW12049   4.758   1.410   1.035
 3717SOL    HW112050   4.856   1.400   1.022
 3717SOL    HW212051   4.740   1.489   1.094
 3718SOL     OW12052   7.000   6.684   6.508
 3718SOL    HW112053   0.061   6.682   6.455
 3718SOL    HW212054   6.931   6.628   6.463
 3719SOL     OW12055   4.584   3.861   6.630
 3719SOL    HW112056   4.670   3.826   6.667
 3719SOL    HW212057   4.561   3.948   6.674
 3720SOL     OW12058   6.408   3.161   0.993
 3720SOL    HW112059   6.459   3.176   1.077
 3720SOL    HW212060   6.443   3.081   0.946
 3721SOL     OW12061   6.471   4.752   6.688
 3721SOL    HW112062   6.551   4.785   6.738
 3721SOL    HW212063   6.470   4.791   6.596
 3722SOL     OW12064   4.230   0.093   2.367
 3722SOL    HW112065   4.217   0.136   2.277
 3722SOL    HW212066   4.247   0.163   2.436
 3723SOL     OW12067   4.338   5.398   0.203
 3723SOL    HW112068   4.308   5.401   0.298
 3723SOL    HW212069   4.313   5.483   0.158
 3724SOL     OW12070   1.460   5.188   4.847
 3724SOL    HW112071   1.449   5.088   4.849
 3724SOL    HW212072   1.553   5.212   4.874
 3725SOL     OW12073   0.069   6.522   0.311
 3725SOL    HW112074   0.008   6.573   0.372
 3725SOL    HW212075   0.024   6.509   0.223
 3726SOL     OW12076   5.631   3.899   3.709
 3726SOL    HW112077   5.547   3.875   3.756
 3726SOL    HW212078   5.610   3.937   3.619
 3727SOL     OW12079   7.005   2.686   4.086
 3727SOL    HW112080   0.061   2.645   4.131
 3727SOL    HW212081   0.010   2.764   4.030
 3728SOL     OW12082   2.975   3.835   0.155
 3728SOL    HW112083   3.034   3.786   0.220
 3728SOL    HW212084   3.006   3.817   0.062
 3729SOL     OW12085   0.576   0.203   5.318
 3729SOL    HW112086   0.514   0.231   5.244
 3729SOL    HW212087   0.670   0.203   5.284
 3730SOL     OW12088   4.427   6.320   6.018
 3730SOL    HW112089   4.387   6.409   6.042
 3730SOL    HW212090   4.366   6.271   5.956
 3731SOL     OW12091   0.111   1.720   6.459
 3731SOL    HW112092   0.088   1.778   6.537
 3731SOL    HW212093   0.211   1.713   6.451
 3732SOL     OW12094   2.521   2.165   0.207
 3732SOL    HW112095   2.466   2.209   0.135
 3732SOL    HW212096   2.616   2.162   0.178
 3733SOL     OW12097   1.903   2.739   3.625
 3733SOL    HW112098   1.812   2.706   3.600
 3733SOL    HW212099   1.930   2.700   3.713
 3734SOL     OW12100   4.192   0.067   1.521
 3734SOL    HW112101   4.142   0.106   1.598
 3734SOL    HW212102   4.132   0.004   1.471
 3735SOL     OW12103   4.225   6.849   2.346
 3735SOL    HW112104   4.214   6.948   2.350
 3735SOL    HW212105   4.321   6.826   2.362
 3736SOL     OW12106   6.840   1.261   1.294
 3736SOL    HW112107   6.872   1.306   1.377
 3736SOL    HW212108   6.783   1.182   1.319
 3737SOL     OW12109   0.254   2.391   3.495
 3737SOL    HW112110   0.288   2.401   3.401
 3737SOL    HW212111   0.299   2.458   3.554
 3738SOL     OW12112   6.703   6.415   0.744
 3738SOL    HW112113   6.703   6.504   0.789
 3738SOL    HW212114   6.637   6.355   0.789
 3739SOL     OW12115   2.912   4.682   1.484
 3739SOL    HW112116   2.919   4.689   1.385
 3739SOL    HW212117   2.850   4.753   1.518
 3740SOL     OW12118   5.623   5.538   6.637
 3740SOL    HW112119   5.531   5.505   6.615
 3740SOL    HW212120   5.618   5.635   6.663
 3741SOL     OW12121   5.354   2.640   0.290
 3741SOL    HW112122   5.400   2.699   0.225
 3741SOL    HW212123   5.337   2.691   0.375
 3742SOL     OW12124   4.298   5.474   0.463
 3742SOL    HW112125   4.290   5.568   0.431
 3742SOL    HW212126   4.381   5.465   0.518
 3743SOL     OW12127   3.982   3.644   1.290
 3743SOL    HW112128   4.036   3.645   1.375
 3743SOL    HW212129   3.933   3.557   1.283
 3744SOL     OW12130   1.085   6.110   2.008
 3744SOL    HW112131   0.990   6.135   2.026
 3744SOL    HW212132   1.099   6.014   2.030
 3745SOL     OW12133   4.877   3.779   2.323
 3745SOL    HW112134   4.872   3.703   2.389
 3745SOL    HW212135   4.875   3.742   2.230
 3746SOL     OW12136   6.328   0.301   3.511
 3746SOL    HW112137   6.380   0.383   3.536
 3746SOL    HW212138   6.386   0.220   3.523
 3747SOL     OW12139   4.907   6.665   6.464
 3747SOL    HW112140   4.929   6.752   6.420
 3747SOL    HW212141   4.830   6.677   6.526
 3748SOL     OW12142   5.382   1.083   2.570
 3748SOL    HW112143   5.385   1.031   2.485
 3748SOL    HW212144   5.288   1.115   2.586
 3749SOL     OW12145   0.867   5.070   2.761
 3749SOL    HW112146   0.846   5.138   2.832
 3749SOL    HW212147   0.793   5.003   2.756
 3750SOL     OW12148   5.566   3.941   0.054
 3750SOL    HW112149   5.625   3.971   0.129
 3750SOL    HW212150   5.556   3.841   0.057
 3751SOL     OW12151   1.909   3.183   1.011
 3751SOL    HW112152   1.942   3.094   1.042
 3751SOL    HW212153   1.919   3.250   1.085
 3752SOL     OW12154   0.323   0.027   6.754
 3752SOL    HW112155   0.378   0.036   6.671
 3752SOL    HW212156   0.364   6.980   6.812
 3753SOL     OW12157   0.429   6.256   4.406
 3753SOL    HW112158   0.437   6.233   4.309
 3753SOL    HW212159   0.341   6.301   4.422
 3754SOL     OW12160   5.523   6.716   0.665
 3754SOL    HW112161   5.457   6.720   0.740
 3754SOL    HW212162   5.611   6.753   0.695
 3755SOL     OW12163   5.141   4.600   3.463
 3755SOL    HW112164   5.136   4.687   3.512
 3755SOL    HW212165   5.132   4.616   3.365
 3756SOL     OW12166   1.881   2.412   6.209
 3756SOL    HW112167   1.800   2.369   6.247
 3756SOL    HW212168   1.854   2.485   6.146
 3757SOL     OW12169   2.959   5.822   5.882
 3757SOL    HW112170   2.953   5.884   5.803
 3757SOL    HW212171   2.907   5.739   5.863
 3758SOL     OW12172   2.661   1.073   4.688
 3758SOL    HW112173   2.697   1.067   4.595
 3758SOL    HW212174   2.619   0.986   4.714
 3759SOL     OW12175   5.055   5.238   6.039
 3759SOL    HW112176   5.075   5.141   6.049
 3759SOL    HW212177   5.056   5.262   5.941
 3760SOL     OW12178   1.404   2.989   4.306
 3760SOL    HW112179   1.456   2.904   4.297
 3760SOL    HW212180   1.420   3.029   4.396
 3761SOL     OW12181   0.768   6.690   5.121
 3761SOL    HW112182   0.744   6.596   5.098
 3761SOL    HW212183   0.821   6.729   5.045
 3762SOL     OW12184   0.602   4.059   0.303
 3762SOL    HW112185   0.644   4.124   0.240
 3762SOL    HW212186   0.539   4.107   0.364
 3763SOL     OW12187   6.057   3.334   6.113
 3763SOL    HW112188   6.081   3.292   6.200
 3763SOL    HW212189   6.073   3.268   6.039
 3764SOL     OW12190   2.267   0.174   4.351
 3764SOL    HW112191   2.270   0.188   4.252
 3764SOL    HW212192   2.316   0.248   4.396
 3765SOL     OW12193   4.979   0.954   3.666
 3765SOL    HW112194   4.924   1.037   3.661
 3765SOL    HW212195   4.948   0.889   3.597
 3766SOL     OW12196   0.657   0.907   3.980
 3766SOL    HW112197   0.729   0.845   3.947
 3766SOL    HW212198   0.698   0.983   4.030
 3767SOL     OW12199   1.379   5.135   6.911
 3767SOL    HW112200   1.323   5.210   6.877
 3767SOL    HW212201   1.356   5.051   6.862
 3768SOL     OW12202   4.487   6.333   6.929
 3768SOL    HW112203   4.435   6.257   6.967
 3768SOL    HW212204   4.458   6.350   6.834
 3769SOL     OW12205   5.694   6.113   4.621
 3769SOL    HW112206   5.624   6.045   4.598
 3769SOL    HW212207   5.744   6.084   4.702
 3770SOL     OW12208   1.810   1.719   6.127
 3770SOL    HW112209   1.779   1.812   6.105
 3770SOL    HW212210   1.907   1.721   6.151
 3771SOL     OW12211   4.875   2.423   0.689
 3771SOL    HW112212   4.957   2.369   0.672
 3771SOL    HW212213   4.897   2.521   0.681
 3772SOL     OW12214   6.082   0.854   1.493
 3772SOL    HW112215   6.024   0.902   1.559
 3772SOL    HW212216   6.154   0.916   1.461
 3773SOL     OW12217   5.631   3.230   5.769
 3773SOL    HW112218   5.651   3.295   5.843
 3773SOL    HW212219   5.575   3.276   5.700
 3774SOL     OW12220   0.786   0.293   6.598
 3774SOL    HW112221   0.870   0.318   6.647
 3774SOL    HW212222   0.792   0.325   6.504
 3775SOL     OW12223   5.325   3.799   2.868
 3775SOL    HW112224   5.285   3.791   2.959
 3775SOL    HW212225   5.281   3.734   2.806
 3776SOL     OW12226   2.295   2.483   1.465
 3776SOL    HW112227   2.269   2.475   1.369
 3776SOL    HW212228   2.219   2.521   1.518
 3777SOL     OW12229   2.948   5.419   4.615
 3777SOL    HW112230   2.900   5.333   4.597
 3777SOL    HW212231   2.944   5.440   4.713
 3778SOL     OW12232   2.894   5.866   2.750
 3778SOL    HW112233   2.941   5.955   2.750
 3778SOL    HW212234   2.911   5.821   2.837
 3779SOL     OW12235   2.491   4.345   0.205
 3779SOL    HW112236   2.492   4.258   0.255
 3779SOL    HW212237   2.397   4.366   0.178
 3780SOL     OW12238   3.173   5.705   5.191
 3780SOL    HW112239   3.216   5.771   5.252
 3780SOL    HW212240   3.205   5.613   5.213
 3781SOL     OW12241   3.106   6.663   4.187
 3781SOL    HW112242   3.174   6.712   4.133
 3781SOL    HW212243   3.080   6.579   4.139
 3782SOL     OW12244   2.458   1.536   4.407
 3782SOL    HW112245   2.548   1.515   4.445
 3782SOL    HW212246   2.438   1.474   4.332
 3783SOL     OW12247   5.807   6.097   4.900
 3783SOL    HW112248   5.805   5.997   4.897
 3783SOL    HW212249   5.724   6.130   4.946
 3784SOL     OW12250   5.909   1.259   3.649
 3784SOL    HW112251   5.837   1.248   3.581
 3784SOL    HW212252   5.879   1.219   3.736
 3785SOL     OW12253   2.638   2.065   0.811
 3785SOL    HW112254   2.709   2.130   0.784
 3785SOL    HW212255   2.595   2.096   0.896
 3786SOL     OW12256   2.745   4.770   3.716
 3786SOL    HW112257   2.703   4.848   3.670
 3786SOL    HW212258   2.812   4.803   3.783
 3787SOL     OW12259   5.357   1.257   4.221
 3787SOL    HW112260   5.352   1.158   4.232
 3787SOL    HW212261   5.360   1.301   4.311
 3788SOL     OW12262   6.370   2.875   3.745
 3788SOL    HW112263   6.397   2.966   3.713
 3788SOL    HW212264   6.292   2.843   3.691
 3789SOL     OW12265   1.396   4.259   4.258
 3789SOL    HW112266   1.452   4.282   4.178
 3789SOL    HW212267   1.351   4.342   4.291
 3790SOL     OW12268   2.133   3.442   4.602
 3790SOL    HW112269   2.096   3.350   4.618
 3790SOL    HW212270   2.150   3.486   4.690
 3791SOL     OW12271   5.282   6.772   1.210
 3791SOL    HW112272   5.345   6.781   1.287
 3791SOL    HW212273   5.333   6.777   1.124
 3792SOL     OW12274   6.282   0.024   5.105
 3792SOL    HW112275   6.200   0.039   5.051
 3792SOL    HW212276   6.345   6.989   5.055
 3793SOL     OW12277   2.191   1.507   2.476
 3793SOL    HW112278   2.101   1.525   2.514
 3793SOL    HW212279   2.221   1.585   2.420
 3794SOL     OW12280   4.105   5.723   1.571
 3794SOL    HW112281   4.011   5.752   1.588
 3794SOL    HW212282   4.162   5.744   1.650
 3795SOL     OW12283   5.024   0.811   6.966
 3795SOL    HW112284   5.054   0.756   6.888
 3795SOL    HW212285   4.946   0.766   7.010
 3796SOL     OW12286   1.242   2.024   1.298
 3796SOL    HW112287   1.293   2.110   1.307
 3796SOL    HW212288   1.270   1.977   1.214
 3797SOL     OW12289   1.039   5.192   2.150
 3797SOL    HW112290   1.095   5.168   2.230
 3797SOL    HW212291   1.054   5.125   2.077
 3798SOL     OW12292   2.846   4.766   3.038
 3798SOL    HW112293   2.824   4.852   2.993
 3798SOL    HW212294   2.812   4.768   3.133
 3799SOL     OW12295   0.875   1.354   4.933
 3799SOL    HW112296   0.864   1.305   4.847
 3799SOL    HW212297   0.839   1.447   4.925
 3800SOL     OW12298   4.997   2.367   4.730
 3800SOL    HW112299   4.919   2.334   4.677
 3800SOL    HW212300   4.965   2.426   4.804
 3801SOL     OW12301   6.761   6.469   5.392
 3801SOL    HW112302   6.680   6.449   5.448
 3801SOL    HW212303   6.779   6.393   5.330
 3802SOL     OW12304   1.019   1.733   4.774
 3802SOL    HW112305   1.027   1.663   4.703
 3802SOL    HW212306   1.012   1.823   4.732
 3803SOL     OW12307   4.361   7.023   1.756
 3803SOL    HW112308   4.311   0.017   1.672
 3803SOL    HW212309   4.359   0.080   1.815
 3804SOL     OW12310   4.235   1.973   4.456
 3804SOL    HW112311   4.173   1.959   4.379
 3804SOL    HW212312   4.219   2.063   4.497
 3805SOL     OW12313   3.043   4.299   1.721
 3805SOL    HW112314   3.056   4.354   1.804
 3805SOL    HW212315   2.972   4.340   1.665
 3806SOL     OW12316   3.163   3.026   6.980
 3806SOL    HW112317   3.139   2.944   0.009
 3806SOL    HW212318   3.220   3.000   6.902
 3807SOL     OW12319   0.908   6.861   3.923
 3807SOL    HW112320   0.904   6.763   3.944
 3807SOL    HW212321   1.003   6.892   3.925
 3808SOL     OW12322   3.024   0.464   1.914
 3808SOL    HW112323   3.084   0.475   1.993
 3808SOL    HW212324   2.933   0.438   1.945
 3809SOL     OW12325   6.186   1.847   6.847
 3809SOL    HW112326   6.286   1.840   6.842
 3809SOL    HW212327   6.156   1.925   6.793
 3810SOL     OW12328   3.331   3.029   5.514
 3810SOL    HW112329   3.320   3.123   5.481
 3810SOL    HW212330   3.244   2.995   5.549
 3811SOL     OW12331   0.626   4.160   4.523
 3811SOL    HW112332   0.543   4.216   4.525
 3811SOL    HW212333   0.660   4.147   4.616
 3812SOL     OW12334   6.444   2.049   5.738
 3812SOL    HW112335   6.346   2.066   5.750
 3812SOL    HW212336   6.480   2.000   5.817
 3813SOL     OW12337   3.479   5.488   0.650
 3813SOL    HW112338   3.532   5.559   0.603
 3813SOL    HW212339   3.523   5.465   0.737
 3814SOL     OW12340   6.234   6.053   1.538
 3814SOL    HW112341   6.283   6.141   1.538
 3814SOL    HW212342   6.286   5.987   1.592
 3815SOL     OW12343   5.317   2.464   1.279
 3815SOL    HW112344   5.223   2.438   1.303
 3815SOL    HW212345   5.374   2.382   1.275
 3816SOL     OW12346   0.140   6.457   1.820
 3816SOL    HW112347   0.093   6.543   1.841
 3816SOL    HW212348   0.237   6.467   1.842
 3817SOL     OW12349   4.437   2.398   4.159
 3817SOL    HW112350   4.533   2.375   4.147
 3817SOL    HW212351   4.403   2.443   4.076
 3818SOL     OW12352   4.141   5.803   2.758
 3818SOL    HW112353   4.203   5.827   2.683
 3818SOL    HW212354   4.189   5.815   2.845
 3819SOL     OW12355   5.432   5.229   0.390
 3819SOL    HW112356   5.513   5.272   0.430
 3819SOL    HW212357   5.350   5.280   0.417
 3820SOL     OW12358   4.353   5.567   4.628
 3820SOL    HW112359   4.384   5.585   4.535
 3820SOL    HW212360   4.287   5.636   4.656
 3821SOL     OW12361   1.884   3.864   2.128
 3821SOL    HW112362   1.885   3.797   2.202
 3821SOL    HW212363   1.883   3.956   2.167
 3822SOL     OW12364   2.157   4.919   1.792
 3822SOL    HW112365   2.163   5.015   1.819
 3822SOL    HW212366   2.242   4.872   1.815
 3823SOL     OW12367   3.833   2.219   5.823
 3823SOL    HW112368   3.864   2.294   5.765
 3823SOL    HW212369   3.875   2.228   5.914
 3824SOL     OW12370   6.015   2.143   6.008
 3824SOL    HW112371   6.044   2.207   6.079
 3824SOL    HW212372   5.925   2.107   6.031
 3825SOL     OW12373   0.004   0.081   6.931
 3825SOL    HW112374   7.000   0.155   6.992
 3825SOL    HW212375   0.018   0.117   6.839
 3826SOL     OW12376   7.015   3.472   0.894
 3826SOL    HW112377   6.969   3.552   0.931
 3826SOL    HW212378   6.947   3.405   0.865
 3827SOL     OW12379   3.331   3.862   0.452
 3827SOL    HW112380   3.423   3.891   0.428
 3827SOL    HW212381   3.311   3.889   0.546
 3828SOL     OW12382   4.481   2.559   1.818
 3828SOL    HW112383   4.391   2.526   1.789
 3828SOL    HW212384   4.547   2.547   1.744
 3829SOL     OW12385   2.095   5.280   3.623
 3829SOL    HW112386   2.079   5.324   3.535
 3829SOL    HW212387   2.123   5.185   3.608
 3830SOL     OW12388   2.302   6.959   5.156
 3830SOL    HW112389   2.397   6.942   5.129
 3830SOL    HW212390   2.297   6.967   5.255
 3831SOL     OW12391   4.068   2.032   2.338
 3831SOL    HW112392   4.003   1.957   2.329
 3831SOL    HW212393   4.161   1.998   2.324
 3832SOL     OW12394   6.441   0.722   1.561
 3832SOL    HW112395   6.436   0.632   1.605
 3832SOL    HW212396   6.398   0.718   1.471
 3833SOL     OW12397   0.701   4.972   1.209
 3833SOL    HW112398   0.665   4.940   1.121
 3833SOL    HW212399   0.775   5.038   1.192
 3834SOL     OW12400   3.332   1.859   0.860
 3834SOL    HW112401   3.421   1.874   0.818
 3834SOL    HW212402   3.301   1.765   0.841
 3835SOL     OW12403   3.846   5.630   6.265
 3835SOL    HW112404   3.912   5.629   6.190
 3835SOL    HW212405   3.788   5.711   6.257
 3836SOL     OW12406   1.616   4.226   5.753
 3836SOL    HW112407   1.541   4.292   5.752
 3836SOL    HW212408   1.673   4.241   5.833
 3837SOL     OW12409   4.782   3.870   6.994
 3837SOL    HW112410   4.774   3.773   6.974
 3837SOL    HW212411   4.719   3.895   0.043
 3838SOL     OW12412   5.612   2.414   4.259
 3838SOL    HW112413   5.689   2.430   4.321
 3838SOL    HW212414   5.534   2.377   4.311
 3839SOL     OW12415   5.773   6.791   5.370
 3839SOL    HW112416   5.780   6.836   5.280
 3839SOL    HW212417   5.854   6.812   5.424
 3840SOL     OW12418   1.836   1.143   4.068
 3840SOL    HW112419   1.774   1.074   4.030
 3840SOL    HW212420   1.901   1.171   3.998
 3841SOL     OW12421   1.232   3.645   5.110
 3841SOL    HW112422   1.323   3.675   5.139
 3841SOL    HW212423   1.162   3.697   5.159
 3842SOL     OW12424   0.744   5.373   0.276
 3842SOL    HW112425   0.795   5.449   0.237
 3842SOL    HW212426   0.731   5.388   0.374
 3843SOL     OW12427   6.573   3.360   0.243
 3843SOL    HW112428   6.626   3.308   0.311
 3843SOL    HW212429   6.516   3.298   0.190
 3844SOL     OW12430   1.838   5.157   5.889
 3844SOL    HW112431   1.788   5.126   5.809
 3844SOL    HW212432   1.814   5.251   5.910
 3845SOL     OW12433   3.223   3.540   3.039
 3845SOL    HW112434   3.225   3.469   2.969
 3845SOL    HW212435   3.316   3.556   3.072
 3846SOL     OW12436   0.256   4.069   4.488
 3846SOL    HW112437   0.292   4.160   4.508
 3846SOL    HW212438   0.254   4.056   4.388
 3847SOL     OW12439   6.746   0.307   6.102
 3847SOL    HW112440   6.687   0.226   6.101
 3847SOL    HW212441   6.821   0.292   6.166
 3848SOL     OW12442   2.935   4.915   1.753
 3848SOL    HW112443   2.968   5.007   1.734
 3848SOL    HW212444   3.007   4.863   1.799
 3849SOL     OW12445   0.910   1.913   5.880
 3849SOL    HW112446   0.998   1.958   5.871
 3849SOL    HW212447   0.920   1.816   5.857
 3850SOL     OW12448   3.329   3.947   1.872
 3850SOL    HW112449   3.407   4.008   1.858
 3850SOL    HW212450   3.286   3.968   1.959
 3851SOL     OW12451   1.805   3.409   3.209
 3851SOL    HW112452   1.858   3.324   3.205
 3851SOL    HW212453   1.840   3.467   3.283
 3852SOL     OW12454   4.277   0.498   4.887
 3852SOL    HW112455   4.377   0.498   4.899
 3852SOL    HW212456   4.242   0.406   4.903
 3853SOL     OW12457   0.873   3.585   2.290
 3853SOL    HW112458   0.879   3.681   2.315
 3853SOL    HW212459   0.884   3.576   2.191
 3854SOL     OW12460   0.842   3.624   4.445
 3854SOL    HW112461   0.776   3.556   4.412
 3854SOL    HW212462   0.815   3.655   4.536
 3855SOL     OW12463   6.147   3.725   5.796
 3855SOL    HW112464   6.204   3.744   5.716
 3855SOL    HW212465   6.075   3.794   5.803
 3856SOL     OW12466   6.516   6.864   5.805
 3856SOL    HW112467   6.564   6.940   5.762
 3856SOL    HW212468   6.568   6.780   5.793
 3857SOL     OW12469   1.260   6.554   4.994
 3857SOL    HW112470   1.242   6.644   4.956
 3857SOL    HW212471   1.358   6.534   4.989
 3858SOL     OW12472   1.877   5.685   6.392
 3858SOL    HW112473   1.945   5.698   6.465
 3858SOL    HW212474   1.803   5.627   6.426
 3859SOL     OW12475   0.107   3.201   2.812
 3859SOL    HW112476   0.144   3.292   2.790
 3859SOL    HW212477   0.014   3.210   2.846
 3860SOL     OW12478   2.378   6.374   5.672
 3860SOL    HW112479   2.297   6.333   5.631
 3860SOL    HW212480   2.460   6.329   5.637
 3861SOL     OW12481   4.568   4.384   1.277
 3861SOL    HW112482   4.531   4.408   1.367
 3861SOL    HW212483   4.573   4.285   1.268
 3862SOL     OW12484   0.945   6.052   6.016
 3862SOL    HW112485   0.970   6.143   6.049
 3862SOL    HW212486   0.859   6.024   6.057
 3863SOL     OW12487   3.392   3.779   1.657
 3863SOL    HW112488   3.304   3.761   1.613
 3863SOL    HW212489   3.383   3.856   1.719
 3864SOL     OW12490   3.567   1.910   6.841
 3864SOL    HW112491   3.627   1.908   6.762
 3864SOL    HW212492   3.502   1.834   6.836
 3865SOL     OW12493   4.498   0.312   2.275
 3865SOL    HW112494   4.560   0.282   2.202
 3865SOL    HW212495   4.504   0.249   2.352
 3866SOL     OW12496   3.997   0.104   0.568
 3866SOL    HW112497   4.078   0.076   0.518
 3866SOL    HW212498   3.928   0.032   0.564
 3867SOL     OW12499   2.131   3.342   3.262
 3867SOL    HW112500   2.176   3.265   3.219
 3867SOL    HW212501   2.103   3.317   3.355
 3868SOL     OW12502   2.433   6.961   2.507
 3868SOL    HW112503   2.505   6.980   2.441
 3868SOL    HW212504   2.346   6.948   2.459
 3869SOL     OW12505   0.685   3.109   3.249
 3869SOL    HW112506   0.612   3.169   3.217
 3869SOL    HW212507   0.741   3.158   3.316
 3870SOL     OW12508   2.961   5.292   0.546
 3870SOL    HW112509   3.036   5.257   0.603
 3870SOL    HW212510   2.875   5.282   0.596
 3871SOL     OW12511   2.898   0.211   3.535
 3871SOL    HW112512   2.844   0.295   3.534
 3871SOL    HW212513   2.940   0.199   3.625
 3872SOL     OW12514   4.247   3.509   0.947
 3872SOL    HW112515   4.303   3.510   1.030
 3872SOL    HW212516   4.150   3.511   0.972
 3873SOL     OW12517   5.748   4.538   1.548
 3873SOL    HW112518   5.846   4.548   1.569
 3873SOL    HW212519   5.724   4.441   1.552
 3874SOL     OW12520   4.474   0.423   0.106
 3874SOL    HW112521   4.416   0.445   0.027
 3874SOL    HW212522   4.503   0.328   0.100
 3875SOL     OW12523   1.280   4.717   1.306
 3875SOL    HW112524   1.240   4.790   1.251
 3875SOL    HW212525   1.235   4.631   1.285
 3876SOL     OW12526   5.292   3.607   3.644
 3876SOL    HW112527   5.314   3.675   3.713
 3876SOL    HW212528   5.323   3.638   3.554
 3877SOL     OW12529   6.227   1.438   2.393
 3877SOL    HW112530   6.183   1.481   2.314
 3877SOL    HW212531   6.160   1.383   2.443
 3878SOL     OW12532   3.838   6.661   5.956
 3878SOL    HW112533   3.739   6.669   5.971
 3878SOL    HW212534   3.885   6.739   5.996
 3879SOL     OW12535   4.340   5.614   1.979
 3879SOL    HW112536   4.404   5.539   1.964
 3879SOL    HW212537   4.385   5.687   2.029
 3880SOL     OW12538   5.367   3.224   3.253
 3880SOL    HW112539   5.379   3.318   3.287
 3880SOL    HW212540   5.273   3.195   3.267
 3881SOL     OW12541   1.023   3.808   0.816
 3881SOL    HW112542   1.104   3.865   0.830
 3881SOL    HW212543   1.005   3.799   0.718
 3882SOL     OW12544   0.126   1.038   5.283
 3882SOL    HW112545   0.064   0.972   5.327
 3882SOL    HW212546   0.219   1.000   5.282
 3883SOL     OW12547   4.089   0.333   5.628
 3883SOL    HW112548   4.064   0.415   5.576
 3883SOL    HW212549   4.008   0.276   5.643
 3884SOL     OW12550   1.623   5.750   6.053
 3884SOL    HW112551   1.590   5.742   5.959
 3884SOL    HW212552   1.623   5.660   6.095
 3885SOL     OW12553   6.688   1.160   4.113
 3885SOL    HW112554   6.601   1.128   4.152
 3885SOL    HW212555   6.688   1.260   4.109
 3886SOL     OW12556   6.405   6.652   5.411
 3886SOL    HW112557   6.382   6.570   5.464
 3886SOL    HW212558   6.462   6.712   5.468
 3887SOL     OW12559   4.238   2.214   5.767
 3887SOL    HW112560   4.268   2.288   5.706
 3887SOL    HW212561   4.290   2.131   5.746
 3888SOL     OW12562   0.129   2.209   1.099
 3888SOL    HW112563   0.193   2.222   1.174
 3888SOL    HW212564   0.081   2.122   1.111
 3889SOL     OW12565   0.700   6.392   6.477
 3889SOL    HW112566   0.685   6.472   6.420
 3889SOL    HW212567   0.642   6.317   6.444
 3890SOL     OW12568   5.658   4.130   3.147
 3890SOL    HW112569   5.656   4.073   3.064
 3890SOL    HW212570   5.571   4.178   3.155
 3891SOL     OW12571   5.260   4.997   4.671
 3891SOL    HW112572   5.203   4.917   4.684
 3891SOL    HW212573   5.320   5.010   4.750
 3892SOL     OW12574   4.870   6.878   3.048
 3892SOL    HW112575   4.905   6.794   3.090
 3892SOL    HW212576   4.845   6.860   2.953
 3893SOL     OW12577   3.203   6.000   4.095
 3893SOL    HW112578   3.126   5.974   4.038
 3893SOL    HW212579   3.248   5.918   4.130
 3894SOL     OW12580   4.966   3.990   6.828
 3894SOL    HW112581   4.893   3.959   6.888
 3894SOL    HW212582   5.050   4.006   6.881
 3895SOL     OW12583   2.803   2.263   5.546
 3895SOL    HW112584   2.875   2.326   5.574
 3895SOL    HW212585   2.715   2.309   5.547
 3896SOL     OW12586   6.198   2.825   5.203
 3896SOL    HW112587   6.251   2.758   5.255
 3896SOL    HW212588   6.257   2.901   5.178
 3897SOL     OW12589   3.812   7.016   1.902
 3897SOL    HW112590   3.732   7.000   1.960
 3897SOL    HW212591   3.811   0.086   1.869
 3898SOL     OW12592   3.685   4.126   4.200
 3898SOL    HW112593   3.726   4.211   4.234
 3898SOL    HW212594   3.586   4.131   4.207
 3899SOL     OW12595   4.225   1.390   5.473
 3899SOL    HW112596   4.153   1.329   5.505
 3899SOL    HW212597   4.262   1.356   5.387
 3900SOL     OW12598   6.784   2.645   3.226
 3900SOL    HW112599   6.718   2.668   3.298
 3900SOL    HW212600   6.830   2.728   3.195
 3901SOL     OW12601   1.452   6.357   5.798
 3901SOL    HW112602   1.404   6.338   5.713
 3901SOL    HW212603   1.405   6.311   5.874
 3902SOL     OW12604   4.267   4.823   1.585
 3902SOL    HW112605   4.217   4.821   1.672
 3902SOL    HW212606   4.207   4.792   1.511
 3903SOL     OW12607   4.198   2.584   6.740
 3903SOL    HW112608   4.171   2.514   6.807
 3903SOL    HW212609   4.127   2.655   6.736
 3904SOL     OW12610   1.233   6.587   1.235
 3904SOL    HW112611   1.273   6.506   1.191
 3904SOL    HW212612   1.184   6.559   1.317
 3905SOL     OW12613   6.758   0.301   4.942
 3905SOL    HW112614   6.813   0.236   4.891
 3905SOL    HW212615   6.784   0.300   5.038
 3906SOL     OW12616   1.093   5.352   3.667
 3906SOL    HW112617   1.174   5.353   3.609
 3906SOL    HW212618   1.058   5.258   3.673
 3907SOL     OW12619   0.608   0.833   4.324
 3907SOL    HW112620   0.525   0.870   4.283
 3907SOL    HW212621   0.594   0.821   4.423
 3908SOL     OW12622   1.210   0.888   4.817
 3908SOL    HW112623   1.207   0.807   4.875
 3908SOL    HW212624   1.250   0.865   4.729
 3909SOL     OW12625   5.721   2.510   6.360
 3909SOL    HW112626   5.810   2.478   6.391
 3909SOL    HW212627   5.668   2.543   6.438
 3910SOL     OW12628   3.660   1.653   0.148
 3910SOL    HW112629   3.717   1.678   0.070
 3910SOL    HW212630   3.638   1.735   0.200
 3911SOL     OW12631   0.030   1.492   0.845
 3911SOL    HW112632   0.010   1.565   0.910
 3911SOL    HW212633   0.128   1.489   0.826
 3912SOL     OW12634   3.821   1.461   0.305
 3912SOL    HW112635   3.810   1.524   0.382
 3912SOL    HW212636   3.732   1.447   0.261
 3913SOL     OW12637   5.595   5.265   0.746
 3913SOL    HW112638   5.611   5.281   0.844
 3913SOL    HW212639   5.498   5.247   0.731
 3914SOL     OW12640   6.467   1.727   0.131
 3914SOL    HW112641   6.497   1.644   0.085
 3914SOL    HW212642   6.367   1.728   0.138
 3915SOL     OW12643   4.938   5.518   6.783
 3915SOL    HW112644   4.997   5.567   6.847
 3915SOL    HW212645   4.980   5.431   6.758
 3916SOL     OW12646   2.096   1.955   2.124
 3916SOL    HW112647   2.167   1.929   2.058
 3916SOL    HW212648   2.132   2.024   2.186
 3917SOL     OW12649   3.455   5.174   1.611
 3917SOL    HW112650   3.554   5.166   1.610
 3917SOL    HW212651   3.416   5.104   1.672
 3918SOL     OW12652   5.528   1.297   0.742
 3918SOL    HW112653   5.487   1.313   0.651
 3918SOL    HW212654   5.581   1.213   0.740
 3919SOL     OW12655   3.192   0.215   2.342
 3919SOL    HW112656   3.188   0.211   2.242
 3919SOL    HW212657   3.230   0.303   2.370
 3920SOL     OW12658   2.914   1.648   5.693
 3920SOL    HW112659   2.976   1.656   5.771
 3920SOL    HW212660   2.858   1.730   5.686
 3921SOL     OW12661   6.699   2.880   5.993
 3921SOL    HW112662   6.673   2.952   5.928
 3921SOL    HW212663   6.791   2.847   5.971
 3922SOL     OW12664   5.566   4.310   2.848
 3922SOL    HW112665   5.588   4.213   2.854
 3922SOL    HW212666   5.486   4.322   2.788
 3923SOL     OW12667   5.072   1.287   1.739
 3923SOL    HW112668   4.982   1.269   1.777
 3923SOL    HW212669   5.064   1.351   1.663
 3924SOL     OW12670   5.722   4.773   4.100
 3924SOL    HW112671   5.685   4.863   4.124
 3924SOL    HW212672   5.746   4.723   4.183
 3925SOL     OW12673   4.683   3.710   0.493
 3925SOL    HW112674   4.760   3.744   0.548
 3925SOL    HW212675   4.616   3.783   0.480
 3926SOL     OW12676   0.388   6.393   6.322
 3926SOL    HW112677   0.439   6.314   6.356
 3926SOL    HW212678   0.428   6.425   6.237
 3927SOL     OW12679   5.814   2.337   5.731
 3927SOL    HW112680   5.756   2.370   5.656
 3927SOL    HW212681   5.774   2.255   5.771
 3928SOL     OW12682   3.112   5.913   2.144
 3928SOL    HW112683   3.035   5.925   2.206
 3928SOL    HW212684   3.165   5.832   2.172
 3929SOL     OW12685   6.908   2.051   5.030
 3929SOL    HW112686   7.000   2.055   4.990
 3929SOL    HW212687   6.872   2.144   5.040
 3930SOL     OW12688   0.992   4.535   4.324
 3930SOL    HW112689   1.022   4.630   4.330
 3930SOL    HW212690   0.914   4.529   4.261
 3931SOL     OW12691   1.865   2.487   1.401
 3931SOL    HW112692   1.888   2.495   1.304
 3931SOL    HW212693   1.792   2.552   1.424
 3932SOL     OW12694   2.355   5.374   3.930
 3932SOL    HW112695   2.442   5.371   3.977
 3932SOL    HW212696   2.303   5.454   3.959
 3933SOL     OW12697   2.335   5.590   0.997
 3933SOL    HW112698   2.346   5.621   1.092
 3933SOL    HW212699   2.353   5.492   0.992
 3934SOL     OW12700   0.246   1.409   1.522
 3934SOL    HW112701   0.229   1.504   1.549
 3934SOL    HW212702   0.340   1.399   1.490
 3935SOL     OW12703   6.293   3.156   6.057
 3935SOL    HW112704   6.335   3.201   6.136
 3935SOL    HW212705   6.321   3.203   5.973
 3936SOL     OW12706   0.556   5.067   5.695
 3936SOL    HW112707   0.568   5.098   5.600
 3936SOL    HW212708   0.484   5.120   5.739
 3937SOL     OW12709   0.700   6.744   1.876
 3937SOL    HW112710   0.770   6.815   1.886
 3937SOL    HW212711   0.703   6.707   1.783
 3938SOL     OW12712   0.522   3.548   2.736
 3938SOL    HW112713   0.618   3.528   2.717
 3938SOL    HW212714   0.471   3.552   2.650
 3939SOL     OW12715   1.764   1.202   2.499
 3939SOL    HW112716   1.753   1.271   2.427
 3939SOL    HW212717   1.832   1.235   2.565
 3940SOL     OW12718   3.259   5.534   1.055
 3940SOL    HW112719   3.324   5.581   0.995
 3940SOL    HW212720   3.243   5.590   1.136
 3941SOL     OW12721   5.026   5.860   3.227
 3941SOL    HW112722   5.038   5.895   3.319
 3941SOL    HW212723   5.045   5.933   3.161
 3942SOL     OW12724   6.524   5.854   5.380
 3942SOL    HW112725   6.558   5.946   5.361
 3942SOL    HW212726   6.426   5.858   5.401
 3943SOL     OW12727   1.464   2.905   0.143
 3943SOL    HW112728   1.483   2.944   0.233
 3943SOL    HW212729   1.487   2.808   0.144
 3944SOL     OW12730   5.698   2.192   6.572
 3944SOL    HW112731   5.643   2.114   6.601
 3944SOL    HW212732   5.715   2.252   6.651
 3945SOL     OW12733   6.429   0.780   3.374
 3945SOL    HW112734   6.514   0.799   3.325
 3945SOL    HW212735   6.447   0.775   3.472
 3946SOL     OW12736   1.214   2.935   0.385
 3946SOL    HW112737   1.313   2.943   0.381
 3946SOL    HW212738   1.188   2.838   0.381
 3947SOL     OW12739   6.300   4.828   2.554
 3947SOL    HW112740   6.284   4.879   2.469
 3947SOL    HW212741   6.324   4.893   2.627
 3948SOL     OW12742   0.893   2.744   6.420
 3948SOL    HW112743   0.915   2.676   6.350
 3948SOL    HW212744   0.820   2.709   6.479
 3949SOL     OW12745   5.962   0.088   1.523
 3949SOL    HW112746   5.927   0.097   1.430
 3949SOL    HW212747   6.048   0.036   1.521
 3950SOL     OW12748   3.090   4.659   1.689
 3950SOL    HW112749   3.053   4.621   1.774
 3950SOL    HW212750   3.016   4.670   1.622
 3951SOL     OW12751   0.772   2.170   4.988
 3951SOL    HW112752   0.837   2.102   5.022
 3951SOL    HW212753   0.807   2.210   4.903
 3952SOL     OW12754   5.841   3.101   6.360
 3952SOL    HW112755   5.923   3.131   6.409
 3952SOL    HW212756   5.827   3.158   6.279
 3953SOL     OW12757   3.231   4.388   6.377
 3953SOL    HW112758   3.256   4.381   6.474
 3953SOL    HW212759   3.212   4.296   6.341
 3954SOL     OW12760   0.440   3.428   5.239
 3954SOL    HW112761   0.502   3.489   5.189
 3954SOL    HW212762   0.358   3.413   5.184
 3955SOL     OW12763   7.019   4.434   0.197
 3955SOL    HW112764   6.949   4.431   0.126
 3955SOL    HW212765   0.001   4.345   0.242
 3956SOL     OW12766   1.028   2.957   5.644
 3956SOL    HW112767   1.068   2.976   5.734
 3956SOL    HW212768   1.102   2.942   5.578
 3957SOL     OW12769   1.085   1.383   2.888
 3957SOL    HW112770   1.104   1.286   2.895
 3957SOL    HW212771   0.986   1.398   2.879
 3958SOL     OW12772   5.878   6.105   5.956
 3958SOL    HW112773   5.891   6.006   5.946
 3958SOL    HW212774   5.963   6.152   5.934
 3959SOL     OW12775   2.596   4.913   0.743
 3959SOL    HW112776   2.692   4.890   0.730
 3959SOL    HW212777   2.581   4.946   0.836
 3960SOL     OW12778   4.535   3.962   0.460
 3960SOL    HW112779   4.553   4.057   0.433
 3960SOL    HW212780   4.440   3.938   0.437
 3961SOL     OW12781   5.474   0.761   2.509
 3961SOL    HW112782   5.417   0.739   2.430
 3961SOL    HW212783   5.418   0.755   2.592
 3962SOL     OW12784   0.601   6.832   5.874
 3962SOL    HW112785   0.595   6.877   5.964
 3962SOL    HW212786   0.623   6.900   5.805
 3963SOL     OW12787   4.952   5.413   3.251
 3963SOL    HW112788   4.934   5.317   3.272
 3963SOL    HW212789   4.877   5.469   3.286
 3964SOL     OW12790   5.765   6.341   6.150
 3964SOL    HW112791   5.763   6.249   6.112
 3964SOL    HW212792   5.689   6.351   6.215
 3965SOL     OW12793   3.725   3.414   0.132
 3965SOL    HW112794   3.632   3.398   0.100
 3965SOL    HW212795   3.737   3.374   0.223
 3966SOL     OW12796   5.591   4.251   5.035
 3966SOL    HW112797   5.539   4.264   5.120
 3966SOL    HW212798   5.532   4.207   4.967
 3967SOL     OW12799   0.802   5.451   6.518
 3967SOL    HW112800   0.703   5.465   6.523
 3967SOL    HW212801   0.845   5.534   6.482
 3968SOL     OW12802   5.794   0.636   1.625
 3968SOL    HW112803   5.873   0.667   1.573
 3968SOL    HW212804   5.722   0.606   1.562
 3969SOL     OW12805   0.157   5.372   1.652
 3969SOL    HW112806   0.218   5.420   1.590
 3969SOL    HW212807   0.122   5.435   1.721
 3970SOL     OW12808   4.162   4.777   3.510
 3970SOL    HW112809   4.260   4.765   3.525
 3970SOL    HW212810   4.112   4.738   3.587
 3971SOL     OW12811   1.692   5.765   4.109
 3971SOL    HW112812   1.687   5.762   4.208
 3971SOL    HW212813   1.602   5.789   4.071
 3972SOL     OW12814   1.474   0.168   0.425
 3972SOL    HW112815   1.389   0.165   0.478
 3972SOL    HW212816   1.484   0.084   0.373
 3973SOL     OW12817   3.193   3.388   3.410
 3973SOL    HW112818   3.099   3.421   3.418
 3973SOL    HW212819   3.197   3.319   3.337
 3974SOL     OW12820   6.183   1.462   6.541
 3974SOL    HW112821   6.120   1.433   6.612
 3974SOL    HW212822   6.227   1.381   6.500
 3975SOL     OW12823   6.853   0.815   5.911
 3975SOL    HW112824   6.766   0.771   5.933
 3975SOL    HW212825   6.838   0.890   5.847
 3976SOL     OW12826   0.801   3.525   6.803
 3976SOL    HW112827   0.900   3.513   6.809
 3976SOL    HW212828   0.767   3.559   6.891
 3977SOL     OW12829   3.888   6.532   6.528
 3977SOL    HW112830   3.926   6.604   6.587
 3977SOL    HW212831   3.862   6.453   6.584
 3978SOL     OW12832   5.608   2.948   5.956
 3978SOL    HW112833   5.543   2.981   6.024
 3978SOL    HW212834   5.567   2.952   5.865
 3979SOL     OW12835   1.047   0.096   3.170
 3979SOL    HW112836   1.005   0.187   3.171
 3979SOL    HW212837   1.061   0.065   3.264
 3980SOL     OW12838   5.371   3.400   4.796
 3980SOL    HW112839   5.450   3.371   4.849
 3980SOL    HW212840   5.320   3.469   4.846
 3981SOL     OW12841   6.435   1.619   5.866
 3981SOL    HW112842   6.338   1.646   5.866
 3981SOL    HW212843   6.472   1.632   5.958
 3982SOL     OW12844   3.502   1.758   3.960
 3982SOL    HW112845   3.516   1.659   3.949
 3982SOL    HW212846   3.526   1.804   3.875
 3983SOL     OW12847   3.328   6.223   3.735
 3983SOL    HW112848   3.329   6.174   3.648
 3983SOL    HW212849   3.342   6.159   3.810
 3984SOL     OW12850   1.476   6.771   1.718
 3984SOL    HW112851   1.430   6.829   1.652
 3984SOL    HW212852   1.411   6.707   1.758
 3985SOL     OW12853   1.736   3.427   1.996
 3985SOL    HW112854   1.803   3.498   2.018
 3985SOL    HW212855   1.757   3.387   1.907
 3986SOL     OW12856   0.896   3.092   2.483
 3986SOL    HW112857   0.971   3.120   2.543
 3986SOL    HW212858   0.932   3.070   2.393
 3987SOL     OW12859   2.342   4.890   0.013
 3987SOL    HW112860   2.405   4.872   6.961
 3987SOL    HW212861   2.306   4.804   0.048
 3988SOL     OW12862   4.051   2.264   0.746
 3988SOL    HW112863   4.078   2.219   0.832
 3988SOL    HW212864   3.996   2.344   0.767
 3989SOL     OW12865   4.416   0.302   6.739
 3989SOL    HW112866   4.473   0.311   6.657
 3989SOL    HW212867   4.320   0.296   6.713
 3990SOL     OW12868   0.930   3.219   3.836
 3990SOL    HW112869   1.007   3.208   3.899
 3990SOL    HW212870   0.910   3.131   3.792
 3991SOL     OW12871   0.266   1.800   4.004
 3991SOL    HW112872   0.279   1.890   4.045
 3991SOL    HW212873   0.180   1.799   3.952
 3992SOL     OW12874   4.603   3.958   6.259
 3992SOL    HW112875   4.615   3.872   6.308
 3992SOL    HW212876   4.689   3.983   6.215
 3993SOL     OW12877   2.380   1.948   3.326
 3993SOL    HW112878   2.431   1.902   3.399
 3993SOL    HW212879   2.282   1.941   3.344
 3994SOL     OW12880   2.633   2.179   3.661
 3994SOL    HW112881   2.651   2.155   3.566
 3994SOL    HW212882   2.534   2.176   3.678
 3995SOL     OW12883   1.640   4.059   2.887
 3995SOL    HW112884   1.680   4.096   2.803
 3995SOL    HW212885   1.701   3.990   2.925
 3996SOL     OW12886   5.776   0.030   3.306
 3996SOL    HW112887   5.777   0.074   3.216
 3996SOL    HW212888   5.798   0.098   3.376
 3997SOL     OW12889   5.779   3.795   2.394
 3997SOL    HW112890   5.758   3.851   2.474
 3997SOL    HW212891   5.694   3.760   2.354
 3998SOL     OW12892   6.336   2.064   3.037
 3998SOL    HW112893   6.422   2.022   3.007
 3998SOL    HW212894   6.313   2.031   3.129
 3999SOL     OW12895   5.188   3.036   1.735
 3999SOL    HW112896   5.219   2.945   1.710
 3999SOL    HW212897   5.091   3.034   1.759
 4000SOL     OW12898   3.548   5.454   2.331
 4000SOL    HW112899   3.645   5.457   2.354
 4000SOL    HW212900   3.508   5.545   2.343
 4001SOL     OW12901   1.995   4.315   5.119
 4001SOL    HW112902   2.093   4.324   5.138
 4001SOL    HW212903   1.965   4.392   5.063
 4002SOL     OW12904   3.561   3.328   3.663
 4002SOL    HW112905   3.639   3.368   3.616
 4002SOL    HW212906   3.594   3.268   3.737
 4003SOL     OW12907   2.302   0.754   4.961
 4003SOL    HW112908   2.318   0.752   5.059
 4003SOL    HW212909   2.234   0.685   4.937
 4004SOL     OW12910   0.428   3.986   3.300
 4004SOL    HW112911   0.521   4.017   3.315
 4004SOL    HW212912   0.395   3.937   3.381
 4005SOL     OW12913   5.102   2.896   1.217
 4005SOL    HW112914   5.027   2.904   1.151
 4005SOL    HW212915   5.187   2.925   1.175
 4006SOL     OW12916   5.470   5.073   3.025
 4006SOL    HW112917   5.548   5.121   2.984
 4006SOL    HW212918   5.393   5.137   3.033
 4007SOL     OW12919   6.795   1.291   2.782
 4007SOL    HW112920   6.878   1.336   2.748
 4007SOL    HW212921   6.733   1.275   2.706
 4008SOL     OW12922   2.158   0.184   0.807
 4008SOL    HW112923   2.135   0.254   0.876
 4008SOL    HW212924   2.257   0.168   0.808
 4009SOL     OW12925   4.031   1.760   1.221
 4009SOL    HW112926   4.122   1.728   1.194
 4009SOL    HW212927   4.036   1.856   1.247
 4010SOL     OW12928   2.356   5.230   1.674
 4010SOL    HW112929   2.387   5.323   1.653
 4010SOL    HW212930   2.414   5.190   1.745
 4011SOL     OW12931   6.087   6.098   6.836
 4011SOL    HW112932   5.992   6.068   6.833
 4011SOL    HW212933   6.140   6.036   6.893
 4012SOL     OW12934   3.915   0.311   2.057
 4012SOL    HW112935   3.855   0.306   1.977
 4012SOL    HW212936   3.859   0.306   2.140
 4013SOL     OW12937   0.924   1.320   6.674
 4013SOL    HW112938   0.915   1.226   6.640
 4013SOL    HW212939   0.837   1.368   6.662
 4014SOL     OW12940   2.656   5.489   3.057
 4014SOL    HW112941   2.723   5.548   3.102
 4014SOL    HW212942   2.622   5.535   2.974
 4015SOL     OW12943   4.053   5.351   6.156
 4015SOL    HW112944   3.965   5.353   6.107
 4015SOL    HW212945   4.038   5.321   6.250
 4016SOL     OW12946   4.204   5.917   6.065
 4016SOL    HW112947   4.254   5.999   6.092
 4016SOL    HW212948   4.209   5.907   5.965
 4017SOL     OW12949   1.054   4.799   5.930
 4017SOL    HW112950   1.071   4.791   5.831
 4017SOL    HW212951   1.076   4.712   5.974
 4018SOL     OW12952   4.462   6.376   1.927
 4018SOL    HW112953   4.466   6.436   1.847
 4018SOL    HW212954   4.476   6.281   1.897
 4019SOL     OW12955   5.139   3.154   3.030
 4019SOL    HW112956   5.188   3.067   3.041
 4019SOL    HW212957   5.046   3.135   3.000
 4020SOL     OW12958   6.756   4.456   4.462
 4020SOL    HW112959   6.817   4.509   4.521
 4020SOL    HW212960   6.769   4.484   4.367
 4021SOL     OW12961   3.265   3.685   5.611
 4021SOL    HW112962   3.196   3.684   5.539
 4021SOL    HW212963   3.307   3.775   5.618
 4022SOL     OW12964   2.443   0.373   0.322
 4022SOL    HW112965   2.419   0.276   0.316
 4022SOL    HW212966   2.360   0.428   0.330
 4023SOL     OW12967   0.369   2.256   5.503
 4023SOL    HW112968   0.359   2.205   5.418
 4023SOL    HW212969   0.462   2.292   5.510
 4024SOL     OW12970   0.790   4.697   3.927
 4024SOL    HW112971   0.772   4.640   4.008
 4024SOL    HW212972   0.889   4.705   3.914
 4025SOL     OW12973   1.280   5.724   3.767
 4025SOL    HW112974   1.207   5.743   3.702
 4025SOL    HW212975   1.245   5.665   3.840
 4026SOL     OW12976   6.639   6.126   3.319
 4026SOL    HW112977   6.647   6.034   3.281
 4026SOL    HW212978   6.724   6.153   3.362
 4027SOL     OW12979   2.541   3.856   5.509
 4027SOL    HW112980   2.461   3.915   5.502
 4027SOL    HW212981   2.592   3.857   5.423
 4028SOL     OW12982   4.523   1.804   2.524
 4028SOL    HW112983   4.453   1.866   2.558
 4028SOL    HW212984   4.556   1.747   2.600
 4029SOL     OW12985   2.222   4.976   6.559
 4029SOL    HW112986   2.177   5.008   6.642
 4029SOL    HW212987   2.314   4.943   6.581
 4030SOL     OW12988   0.482   1.222   2.729
 4030SOL    HW112989   0.456   1.142   2.782
 4030SOL    HW212990   0.468   1.304   2.783
 4031SOL     OW12991   5.364   0.161   1.413
 4031SOL    HW112992   5.442   0.196   1.360
 4031SOL    HW212993   5.306   0.105   1.355
 4032SOL     OW12994   6.251   7.021   1.548
 4032SOL    HW112995   6.351   7.016   1.548
 4032SOL    HW212996   6.218   0.017   1.640
 4033SOL     OW12997   3.024   2.195   2.767
 4033SOL    HW112998   3.009   2.197   2.668
 4033SOL    HW212999   3.071   2.110   2.791
 4034SOL     OW13000   0.152   3.340   4.752
 4034SOL    HW113001   0.233   3.287   4.779
 4034SOL    HW213002   0.164   3.435   4.778
 4035SOL     OW13003   6.802   2.058   0.999
 4035SOL    HW113004   6.790   1.973   0.947
 4035SOL    HW213005   6.763   2.134   0.947
 4036SOL     OW13006   2.736   5.387   3.648
 4036SOL    HW113007   2.642   5.355   3.639
 4036SOL    HW213008   2.791   5.317   3.691
 4037SOL     OW13009   1.641   1.006   5.601
 4037SOL    HW113010   1.641   1.064   5.520
 4037SOL    HW213011   1.548   0.971   5.617
 4038SOL     OW13012   3.702   4.570   5.857
 4038SOL    HW113013   3.637   4.640   5.887
 4038SOL    HW213014   3.666   4.523   5.777
 4039SOL     OW13015   5.469   4.531   1.397
 4039SOL    HW113016   5.455   4.445   1.446
 4039SOL    HW213017   5.423   4.527   1.309
 4040SOL     OW13018   3.712   5.084   5.365
 4040SOL    HW113019   3.776   5.082   5.442
 4040SOL    HW213020   3.619   5.066   5.399
 4041SOL     OW13021   2.173   6.730   1.270
 4041SOL    HW113022   2.241   6.800   1.248
 4041SOL    HW213023   2.085   6.754   1.229
 4042SOL     OW13024   6.736   0.577   3.418
 4042SOL    HW113025   6.788   0.492   3.425
 4042SOL    HW213026   6.644   0.563   3.456
 4043SOL     OW13027   5.574   3.558   6.176
 4043SOL    HW113028   5.502   3.492   6.193
 4043SOL    HW213029   5.625   3.575   6.260
 4044SOL     OW13030   4.166   4.702   3.242
 4044SOL    HW113031   4.162   4.725   3.339
 4044SOL    HW213032   4.260   4.713   3.209
 4045SOL     OW13033   5.257   6.973   6.056
 4045SOL    HW113034   5.244   6.949   6.152
 4045SOL    HW213035   5.169   6.991   6.014
 4046SOL     OW13036   0.099   1.682   3.687
 4046SOL    HW113037   0.064   1.773   3.667
 4046SOL    HW213038   0.183   1.666   3.635
 4047SOL     OW13039   2.824   3.152   6.648
 4047SOL    HW113040   2.874   3.207   6.581
 4047SOL    HW213041   2.862   3.169   6.739
 4048SOL     OW13042   4.974   1.177   2.080
 4048SOL    HW113043   4.967   1.180   2.180
 4048SOL    HW213044   5.056   1.225   2.051
 4049SOL     OW13045   3.740   5.623   6.749
 4049SOL    HW113046   3.661   5.658   6.798
 4049SOL    HW213047   3.723   5.530   6.719
 4050SOL     OW13048   0.975   5.916   2.761
 4050SOL    HW113049   0.947   5.898   2.667
 4050SOL    HW213050   1.003   6.012   2.769
 4051SOL     OW13051   4.833   1.044   6.788
 4051SOL    HW113052   4.843   1.116   6.719
 4051SOL    HW213053   4.875   0.960   6.755
 4052SOL     OW13054   6.196   1.724   3.302
 4052SOL    HW113055   6.158   1.776   3.378
 4052SOL    HW213056   6.296   1.731   3.304
 4053SOL     OW13057   0.857   5.580   4.808
 4053SOL    HW113058   0.879   5.567   4.904
 4053SOL    HW213059   0.840   5.491   4.766
 4054SOL     OW13060   4.613   4.115   0.922
 4054SOL    HW113061   4.573   4.202   0.950
 4054SOL    HW213062   4.698   4.100   0.972
 4055SOL     OW13063   1.308   3.924   2.216
 4055SOL    HW113064   1.270   3.938   2.307
 4055SOL    HW213065   1.401   3.888   2.224
 4056SOL     OW13066   5.407   3.409   0.601
 4056SOL    HW113067   5.323   3.430   0.550
 4056SOL    HW213068   5.423   3.481   0.669
 4057SOL     OW13069   6.193   3.483   6.544
 4057SOL    HW113070   6.269   3.533   6.586
 4057SOL    HW213071   6.176   3.520   6.452
 4058SOL     OW13072   2.852   5.436   4.881
 4058SOL    HW113073   2.820   5.352   4.924
 4058SOL    HW213074   2.799   5.514   4.915
 4059SOL     OW13075   0.552   2.202   4.172
 4059SOL    HW113076   0.617   2.126   4.172
 4059SOL    HW213077   0.601   2.288   4.155
 4060SOL     OW13078   6.690   5.628   4.873
 4060SOL    HW113079   6.603   5.677   4.881
 4060SOL    HW213080   6.673   5.534   4.846
 4061SOL     OW13081   2.508   5.389   2.029
 4061SOL    HW113082   2.444   5.316   2.054
 4061SOL    HW213083   2.565   5.411   2.108
 4062SOL     OW13084   2.643   1.501   1.869
 4062SOL    HW113085   2.590   1.515   1.952
 4062SOL    HW213086   2.669   1.590   1.831
 4063SOL     OW13087   5.882   0.310   0.968
 4063SOL    HW113088   5.923   0.346   1.051
 4063SOL    HW213089   5.846   0.386   0.913
 4064SOL     OW13090   2.086   2.342   4.331
 4064SOL    HW113091   2.165   2.291   4.364
 4064SOL    HW213092   2.002   2.298   4.363
 4065SOL     OW13093   1.424   6.971   0.237
 4065SOL    HW113094   1.418   0.028   0.179
 4065SOL    HW213095   1.466   6.895   0.186
 4066SOL     OW13096   6.456   4.268   2.986
 4066SOL    HW113097   6.380   4.222   2.941
 4066SOL    HW213098   6.542   4.223   2.960
 4067SOL     OW13099   5.874   4.148   2.463
 4067SOL    HW113100   5.808   4.086   2.505
 4067SOL    HW213101   5.967   4.117   2.485
 4068SOL     OW13102   1.513   2.465   5.058
 4068SOL    HW113103   1.471   2.554   5.072
 4068SOL    HW213104   1.592   2.455   5.118
 4069SOL     OW13105   3.884   6.516   6.902
 4069SOL    HW113106   3.962   6.474   6.948
 4069SOL    HW213107   3.916   6.591   6.843
 4070SOL     OW13108   1.073   3.171   3.146
 4070SOL    HW113109   1.017   3.096   3.112
 4070SOL    HW213110   1.102   3.150   3.240
 4071SOL     OW13111   1.092   0.533   3.822
 4071SOL    HW113112   1.160   0.603   3.846
 4071SOL    HW213113   1.079   0.471   3.900
 4072SOL     OW13114   1.121   5.820   4.424
 4072SOL    HW113115   1.099   5.870   4.508
 4072SOL    HW213116   1.166   5.734   4.447
 4073SOL     OW13117   2.146   5.242   0.389
 4073SOL    HW113118   2.174   5.296   0.468
 4073SOL    HW213119   2.201   5.267   0.310
 4074SOL     OW13120   1.393   4.843   1.830
 4074SOL    HW113121   1.335   4.840   1.912
 4074SOL    HW213122   1.419   4.751   1.804
 4075SOL     OW13123   5.108   1.119   0.560
 4075SOL    HW113124   5.119   1.216   0.539
 4075SOL    HW213125   5.117   1.104   0.659
 4076SOL     OW13126   3.399   3.427   5.595
 4076SOL    HW113127   3.354   3.399   5.511
 4076SOL    HW213128   3.368   3.519   5.621
 4077SOL     OW13129   4.481   1.754   1.624
 4077SOL    HW113130   4.523   1.842   1.605
 4077SOL    HW213131   4.415   1.732   1.552
 4078SOL     OW13132   2.917   4.799   2.510
 4078SOL    HW113133   2.895   4.767   2.602
 4078SOL    HW213134   2.986   4.872   2.516
 4079SOL     OW13135   1.613   2.250   4.193
 4079SOL    HW113136   1.583   2.345   4.193
 4079SOL    HW213137   1.543   2.193   4.235
 4080SOL     OW13138   4.878   1.822   5.281
 4080SOL    HW113139   4.817   1.844   5.205
 4080SOL    HW213140   4.972   1.818   5.248
 4081SOL     OW13141   1.805   2.914   4.346
 4081SOL    HW113142   1.804   3.011   4.373
 4081SOL    HW213143   1.817   2.857   4.428
 4082SOL     OW13144   1.379   3.295   0.928
 4082SOL    HW113145   1.371   3.392   0.953
 4082SOL    HW213146   1.432   3.286   0.844
 4083SOL     OW13147   5.927   2.865   3.718
 4083SOL    HW113148   5.931   2.808   3.800
 4083SOL    HW213149   5.887   2.813   3.643
 4084SOL     OW13150   6.161   2.006   4.084
 4084SOL    HW113151   6.065   2.026   4.066
 4084SOL    HW213152   6.211   2.092   4.097
 4085SOL     OW13153   4.308   5.997   0.849
 4085SOL    HW113154   4.234   5.991   0.915
 4085SOL    HW213155   4.382   6.053   0.886
 4086SOL     OW13156   2.044   5.050   1.519
 4086SOL    HW113157   2.101   4.976   1.555
 4086SOL    HW213158   1.956   5.013   1.490
 4087SOL     OW13159   2.216   2.431   3.311
 4087SOL    HW113160   2.315   2.443   3.321
 4087SOL    HW213161   2.170   2.455   3.397
 4088SOL     OW13162   6.388   1.680   1.360
 4088SOL    HW113163   6.437   1.632   1.433
 4088SOL    HW213164   6.301   1.715   1.396
 4089SOL     OW13165   0.663   0.109   3.523
 4089SOL    HW113166   0.590   0.119   3.591
 4089SOL    HW213167   0.744   0.070   3.566
 4090SOL     OW13168   2.998   4.238   6.791
 4090SOL    HW113169   3.041   4.307   6.734
 4090SOL    HW213170   2.951   4.171   6.733
 4091SOL     OW13171   5.246   6.895   0.175
 4091SOL    HW113172   5.298   6.904   0.090
 4091SOL    HW213173   5.158   6.852   0.156
 4092SOL     OW13174   0.167   3.036   5.207
 4092SOL    HW113175   0.095   3.042   5.277
 4092SOL    HW213176   0.254   3.013   5.252
 4093SOL     OW13177   5.487   0.395   3.763
 4093SOL    HW113178   5.450   0.397   3.856
 4093SOL    HW213179   5.471   0.305   3.723
 4094SOL     OW13180   1.862   4.678   5.145
 4094SOL    HW113181   1.895   4.596   5.099
 4094SOL    HW213182   1.906   4.685   5.235
 4095SOL     OW13183   0.965   3.919   6.071
 4095SOL    HW113184   0.984   3.822   6.057
 4095SOL    HW213185   1.004   3.972   5.996
 4096SOL     OW13186   4.874   5.543   1.197
 4096SOL    HW113187   4.816   5.596   1.259
 4096SOL    HW213188   4.866   5.446   1.218
 4097SOL     OW13189   2.867   4.502   5.983
 4097SOL    HW113190   2.932   4.453   6.041
 4097SOL    HW213191   2.850   4.593   6.022
 4098SOL     OW13192   0.271   2.829   2.911
 4098SOL    HW113193   0.278   2.732   2.886
 4098SOL    HW213194   0.262   2.884   2.829
 4099SOL     OW13195   3.061   5.172   1.699
 4099SOL    HW113196   3.000   5.234   1.749
 4099SOL    HW213197   3.149   5.167   1.747
 4100SOL     OW13198   4.975   5.421   3.994
 4100SOL    HW113199   4.927   5.345   4.037
 4100SOL    HW213200   5.035   5.387   3.922
 4101SOL     OW13201   5.701   1.605   0.302
 4101SOL    HW113202   5.671   1.513   0.279
 4101SOL    HW213203   5.667   1.630   0.392
 4102SOL     OW13204   6.520   0.370   1.252
 4102SOL    HW113205   6.617   0.393   1.264
 4102SOL    HW213206   6.475   0.442   1.200
 4103SOL     OW13207   0.819   1.106   1.975
 4103SOL    HW113208   0.918   1.091   1.974
 4103SOL    HW213209   0.795   1.164   2.053
 4104SOL     OW13210   1.763   4.238   2.695
 4104SOL    HW113211   1.728   4.198   2.610
 4104SOL    HW213212   1.752   4.338   2.692
 4105SOL     OW13213   3.910   5.816   0.863
 4105SOL    HW113214   3.946   5.904   0.892
 4105SOL    HW213215   3.940   5.796   0.770
 4106SOL     OW13216   7.022   3.933   4.871
 4106SOL    HW113217   0.080   3.950   4.925
 4106SOL    HW213218   6.976   3.851   4.904
 4107SOL     OW13219   0.488   6.060   1.350
 4107SOL    HW113220   0.445   6.125   1.411
 4107SOL    HW213221   0.471   5.967   1.383
 4108SOL     OW13222   0.077   4.778   6.453
 4108SOL    HW113223   0.029   4.797   6.538
 4108SOL    HW213224   0.022   4.810   6.376
 4109SOL     OW13225   4.148   6.496   4.177
 4109SOL    HW113226   4.091   6.551   4.116
 4109SOL    HW213227   4.243   6.526   4.169
 4110SOL     OW13228   3.747   4.176   6.473
 4110SOL    HW113229   3.691   4.201   6.394
 4110SOL    HW213230   3.776   4.259   6.521
 4111SOL     OW13231   3.619   3.207   6.967
 4111SOL    HW113232   3.661   3.138   0.002
 4111SOL    HW213233   3.522   3.214   6.988
 4112SOL     OW13234   4.776   1.428   5.188
 4112SOL    HW113235   4.784   1.495   5.262
 4112SOL    HW213236   4.867   1.399   5.159
 4113SOL     OW13237   3.521   5.339   4.886
 4113SOL    HW113238   3.445   5.316   4.825
 4113SOL    HW213239   3.543   5.261   4.944
 4114SOL     OW13240   3.198   1.456   4.125
 4114SOL    HW113241   3.151   1.534   4.168
 4114SOL    HW213242   3.188   1.462   4.026
 4115SOL     OW13243   4.862   6.044   2.317
 4115SOL    HW113244   4.959   6.068   2.309
 4115SOL    HW213245   4.814   6.071   2.234
 4116SOL     OW13246   4.234   1.673   1.458
 4116SOL    HW113247   4.221   1.768   1.488
 4116SOL    HW213248   4.172   1.614   1.510
 4117SOL     OW13249   0.560   5.277   1.520
 4117SOL    HW113250   0.650   5.311   1.546
 4117SOL    HW213251   0.507   5.255   1.602
 4118SOL     OW13252   1.097   6.713   0.999
 4118SOL    HW113253   1.089   6.628   0.947
 4118SOL    HW213254   1.098   6.693   1.097
 4119SOL     OW13255   3.802   1.427   4.632
 4119SOL    HW113256   3.833   1.363   4.562
 4119SOL    HW213257   3.716   1.395   4.671
 4120SOL     OW13258   4.468   6.794   2.483
 4120SOL    HW113259   4.482   6.820   2.578
 4120SOL    HW213260   4.504   6.702   2.467
 4121SOL     OW13261   6.204   2.035   4.608
 4121SOL    HW113262   6.245   2.079   4.687
 4121SOL    HW213263   6.169   1.945   4.633
 4122SOL     OW13264   0.405   6.269   5.171
 4122SOL    HW113265   0.482   6.206   5.170
 4122SOL    HW213266   0.415   6.333   5.247
 4123SOL     OW13267   5.879   4.259   5.940
 4123SOL    HW113268   5.925   4.334   5.988
 4123SOL    HW213269   5.813   4.217   6.001
 4124SOL     OW13270   5.580   5.837   4.530
 4124SOL    HW113271   5.566   5.833   4.431
 4124SOL    HW213272   5.561   5.748   4.570
 4125SOL     OW13273   4.739   0.357   1.771
 4125SOL    HW113274   4.704   0.450   1.765
 4125SOL    HW213275   4.811   0.353   1.840
 4126SOL     OW13276   1.196   4.084   4.338
 4126SOL    HW113277   1.258   4.149   4.295
 4126SOL    HW213278   1.211   3.993   4.298
 4127SOL     OW13279   5.109   3.272   3.966
 4127SOL    HW113280   5.029   3.308   4.015
 4127SOL    HW213281   5.191   3.286   4.022
 4128SOL     OW13282   2.200   3.866   2.553
 4128SOL    HW113283   2.185   3.789   2.615
 4128SOL    HW213284   2.183   3.837   2.459
 4129SOL     OW13285   5.291   1.627   6.470
 4129SOL    HW113286   5.209   1.639   6.526
 4129SOL    HW213287   5.372   1.647   6.525
 4130SOL     OW13288   7.014   3.272   5.668
 4130SOL    HW113289   0.000   3.205   5.741
 4130SOL    HW213290   6.982   3.359   5.706
 4131SOL     OW13291   0.647   5.842   3.960
 4131SOL    HW113292   0.669   5.745   3.964
 4131SOL    HW213293   0.727   5.894   3.930
 4132SOL     OW13294   5.738   3.418   3.276
 4132SOL    HW113295   5.827   3.451   3.245
 4132SOL    HW213296   5.676   3.412   3.197
 4133SOL     OW13297   3.299   0.364   0.964
 4133SOL    HW113298   3.343   0.405   0.884
 4133SOL    HW213299   3.210   0.325   0.937
 4134SOL     OW13300   2.169   2.263   0.832
 4134SOL    HW113301   2.097   2.255   0.901
 4134SOL    HW213302   2.127   2.286   0.744
 4135SOL     OW13303   2.011   0.869   1.952
 4135SOL    HW113304   2.054   0.915   2.030
 4135SOL    HW213305   2.014   0.770   1.965
 4136SOL     OW13306   0.177   2.206   3.794
 4136SOL    HW113307   0.128   2.123   3.768
 4136SOL    HW213308   0.120   2.286   3.774
 4137SOL     OW13309   2.796   3.877   0.605
 4137SOL    HW113310   2.894   3.858   0.618
 4137SOL    HW213311   2.760   3.817   0.534
 4138SOL     OW13312   4.001   4.827   4.186
 4138SOL    HW113313   4.061   4.815   4.107
 4138SOL    HW213314   4.044   4.788   4.267
 4139SOL     OW13315   2.029   2.194   5.932
 4139SOL    HW113316   1.973   2.238   5.861
 4139SOL    HW213317   1.991   2.104   5.953
 4140SOL     OW13318   3.471   0.815   5.657
 4140SOL    HW113319   3.475   0.909   5.623
 4140SOL    HW213320   3.384   0.799   5.702
 4141SOL     OW13321   4.844   4.901   1.255
 4141SOL    HW113322   4.847   4.821   1.315
 4141SOL    HW213323   4.928   4.954   1.267
 4142SOL     OW13324   6.700   5.499   1.237
 4142SOL    HW113325   6.719   5.409   1.278
 4142SOL    HW213326   6.626   5.490   1.170
 4143SOL     OW13327   6.919   3.211   0.503
 4143SOL    HW113328   6.980   3.148   0.551
 4143SOL    HW213329   6.945   3.215   0.406
 4144SOL     OW13330   5.949   1.998   0.900
 4144SOL    HW113331   5.978   2.010   0.995
 4144SOL    HW213332   6.000   2.061   0.841
 4145SOL     OW13333   6.783   6.506   1.643
 4145SOL    HW113334   6.704   6.524   1.583
 4145SOL    HW213335   6.795   6.407   1.652
 4146SOL     OW13336   5.838   0.318   6.053
 4146SOL    HW113337   5.918   0.278   6.009
 4146SOL    HW213338   5.861   0.344   6.147
 4147SOL     OW13339   3.204   2.040   6.354
 4147SOL    HW113340   3.253   2.125   6.338
 4147SOL    HW213341   3.256   1.963   6.317
 4148SOL     OW13342   0.485   0.520   3.942
 4148SOL    HW113343   0.571   0.528   3.991
 4148SOL    HW213344   0.481   0.590   3.870
 4149SOL     OW13345   6.795   2.998   6.973
 4149SOL    HW113346   6.817   2.988   0.046
 4149SOL    HW213347   6.861   3.060   6.930
 4150SOL     OW13348   5.979   0.537   6.308
 4150SOL    HW113349   6.015   0.495   6.392
 4150SOL    HW213350   6.055   0.577   6.256
 4151SOL     OW13351   5.541   6.145   0.119
 4151SOL    HW113352   5.447   6.178   0.115
 4151SOL    HW213353   5.575   6.155   0.212
 4152SOL     OW13354   3.477   5.129   2.006
 4152SOL    HW113355   3.471   5.073   2.089
 4152SOL    HW213356   3.550   5.094   1.947
 4153SOL     OW13357   5.478   5.481   6.034
 4153SOL    HW113358   5.457   5.578   6.022
 4153SOL    HW213359   5.402   5.435   6.080
 4154SOL     OW13360   6.421   3.665   4.811
 4154SOL    HW113361   6.339   3.721   4.800
 4154SOL    HW213362   6.398   3.580   4.859
 4155SOL     OW13363   0.367   3.463   2.949
 4155SOL    HW113364   0.279   3.506   2.927
 4155SOL    HW213365   0.431   3.480   2.874
 4156SOL     OW13366   5.754   0.133   4.898
 4156SOL    HW113367   5.772   0.231   4.910
 4156SOL    HW213368   5.841   0.084   4.892
 4157SOL     OW13369   3.706   0.410   3.829
 4157SOL    HW113370   3.741   0.503   3.837
 4157SOL    HW213371   3.660   0.384   3.914
 4158SOL     OW13372   0.659   5.178   3.819
 4158SOL    HW113373   0.641   5.111   3.746
 4158SOL    HW213374   0.644   5.135   3.908
 4159SOL     OW13375   1.948   3.032   3.636
 4159SOL    HW113376   1.937   2.935   3.618
 4159SOL    HW213377   1.896   3.085   3.570
 4160SOL     OW13378   6.246   0.419   1.440
 4160SOL    HW113379   6.345   0.428   1.453
 4160SOL    HW213380   6.227   0.338   1.385
 4161SOL     OW13381   1.535   0.595   6.362
 4161SOL    HW113382   1.562   0.686   6.331
 4161SOL    HW213383   1.614   0.534   6.359
 4162SOL     OW13384   5.848   0.369   4.942
 4162SOL    HW113385   5.920   0.371   5.011
 4162SOL    HW213386   5.875   0.425   4.864
 4163SOL     OW13387   5.813   1.431   3.155
 4163SOL    HW113388   5.860   1.385   3.230
 4163SOL    HW213389   5.714   1.421   3.166
 4164SOL     OW13390   1.425   0.194   6.669
 4164SOL    HW113391   1.337   0.212   6.714
 4164SOL    HW213392   1.408   0.168   6.574
 4165SOL     OW13393   4.362   6.659   0.889
 4165SOL    HW113394   4.278   6.707   0.915
 4165SOL    HW213395   4.441   6.705   0.929
 4166SOL     OW13396   4.035   2.531   1.277
 4166SOL    HW113397   3.975   2.570   1.348
 4166SOL    HW213398   4.098   2.602   1.245
 4167SOL     OW13399   2.566   2.466   1.224
 4167SOL    HW113400   2.646   2.488   1.167
 4167SOL    HW213401   2.585   2.489   1.319
 4168SOL     OW13402   0.074   5.376   1.329
 4168SOL    HW113403   0.078   5.380   1.429
 4168SOL    HW213404   0.134   5.446   1.291
 4169SOL     OW13405   5.009   3.869   4.050
 4169SOL    HW113406   4.943   3.901   4.119
 4169SOL    HW213407   5.010   3.932   3.972
 4170SOL     OW13408   4.066   2.535   5.551
 4170SOL    HW113409   3.977   2.515   5.510
 4170SOL    HW213410   4.061   2.525   5.650
 4171SOL     OW13411   5.275   3.660   0.846
 4171SOL    HW113412   5.180   3.630   0.839
 4171SOL    HW213413   5.277   3.755   0.876
 4172SOL     OW13414   0.220   2.217   0.170
 4172SOL    HW113415   0.279   2.136   0.170
 4172SOL    HW213416   0.244   2.277   0.246
 4173SOL     OW13417   5.992   2.990   5.203
 4173SOL    HW113418   6.080   2.945   5.190
 4173SOL    HW213419   5.961   2.975   5.297
 4174SOL     OW13420   4.485   0.413   4.088
 4174SOL    HW113421   4.402   0.464   4.112
 4174SOL    HW213422   4.513   0.439   3.995
 4175SOL     OW13423   3.593   6.863   3.824
 4175SOL    HW113424   3.517   6.798   3.832
 4175SOL    HW213425   3.561   6.947   3.782
 4176SOL     OW13426   4.491   0.120   2.522
 4176SOL    HW113427   4.411   0.087   2.573
 4176SOL    HW213428   4.573   0.073   2.556
 4177SOL     OW13429   0.483   5.381   4.651
 4177SOL    HW113430   0.561   5.385   4.713
 4177SOL    HW213431   0.418   5.454   4.674
 4178SOL     OW13432   3.139   1.279   6.118
 4178SOL    HW113433   3.128   1.180   6.117
 4178SOL    HW213434   3.140   1.314   6.024
 4179SOL     OW13435   5.584   3.345   4.593
 4179SOL    HW113436   5.511   3.339   4.661
 4179SOL    HW213437   5.581   3.434   4.548
 4180SOL     OW13438   5.565   4.436   1.832
 4180SOL    HW113439   5.589   4.347   1.870
 4180SOL    HW213440   5.585   4.437   1.734
 4181SOL     OW13441   1.115   2.154   6.379
 4181SOL    HW113442   1.162   2.146   6.468
 4181SOL    HW213443   1.069   2.242   6.374
 4182SOL     OW13444   0.602   0.157   2.719
 4182SOL    HW113445   0.518   0.199   2.753
 4182SOL    HW213446   0.678   0.179   2.780
 4183SOL     OW13447   2.718   1.744   1.825
 4183SOL    HW113448   2.809   1.761   1.862
 4183SOL    HW213449   2.654   1.813   1.858
 4184SOL     OW13450   3.898   5.459   1.145
 4184SOL    HW113451   3.955   5.528   1.100
 4184SOL    HW213452   3.814   5.503   1.179
 4185SOL     OW13453   0.664   6.237   3.374
 4185SOL    HW113454   0.667   6.145   3.334
 4185SOL    HW213455   0.700   6.303   3.308
 4186SOL     OW13456   2.214   4.114   6.841
 4186SOL    HW113457   2.282   4.041   6.841
 4186SOL    HW213458   2.261   4.203   6.847
 4187SOL     OW13459   3.358   3.305   6.358
 4187SOL    HW113460   3.375   3.388   6.411
 4187SOL    HW213461   3.288   3.324   6.288
 4188SOL     OW13462   4.710   0.677   4.415
 4188SOL    HW113463   4.764   0.759   4.396
 4188SOL    HW213464   4.771   0.601   4.436
 4189SOL     OW13465   2.890   1.272   4.478
 4189SOL    HW113466   2.947   1.310   4.550
 4189SOL    HW213467   2.945   1.214   4.418
 4190SOL     OW13468   2.100   0.428   6.520
 4190SOL    HW113469   2.132   0.522   6.512
 4190SOL    HW213470   2.042   0.420   6.602
 4191SOL     OW13471   5.792   3.014   2.996
 4191SOL    HW113472   5.811   2.989   3.091
 4191SOL    HW213473   5.699   3.048   2.988
 4192SOL     OW13474   6.035   1.297   3.082
 4192SOL    HW113475   6.030   1.248   3.169
 4192SOL    HW213476   5.954   1.355   3.071
 4193SOL     OW13477   2.339   0.199   2.134
 4193SOL    HW113478   2.244   0.229   2.138
 4193SOL    HW213479   2.344   0.101   2.152
 4194SOL     OW13480   6.799   1.920   4.388
 4194SOL    HW113481   6.789   2.011   4.348
 4194SOL    HW213482   6.851   1.862   4.325
 4195SOL     OW13483   4.643   0.238   1.405
 4195SOL    HW113484   4.704   0.159   1.392
 4195SOL    HW213485   4.688   0.320   1.370
 4196SOL     OW13486   5.232   2.639   3.921
 4196SOL    HW113487   5.269   2.578   3.992
 4196SOL    HW213488   5.132   2.638   3.926
 4197SOL     OW13489   5.297   4.435   4.527
 4197SOL    HW113490   5.347   4.407   4.445
 4197SOL    HW213491   5.325   4.528   4.552
 4198SOL     OW13492   5.711   3.062   6.986
 4198SOL    HW113493   5.638   3.111   0.009
 4198SOL    HW213494   5.672   3.007   6.912
 4199SOL     OW13495   3.259   3.328   5.325
 4199SOL    HW113496   3.213   3.397   5.269
 4199SOL    HW213497   3.327   3.281   5.269
 4200SOL     OW13498   2.185   6.832   5.872
 4200SOL    HW113499   2.216   6.783   5.954
 4200SOL    HW213500   2.085   6.841   5.874
 4201SOL     OW13501   6.321   6.716   2.929
 4201SOL    HW113502   6.356   6.646   2.991
 4201SOL    HW213503   6.230   6.689   2.897
 4202SOL     OW13504   5.250   4.665   5.666
 4202SOL    HW113505   5.239   4.714   5.579
 4202SOL    HW213506   5.295   4.724   5.732
 4203SOL     OW13507   4.755   5.774   3.199
 4203SOL    HW113508   4.679   5.824   3.239
 4203SOL    HW213509   4.833   5.836   3.189
 4204SOL     OW13510   3.063   3.293   1.390
 4204SOL    HW113511   3.086   3.389   1.407
 4204SOL    HW213512   3.125   3.234   1.441
 4205SOL     OW13513   3.085   5.240   4.916
 4205SOL    HW113514   3.089   5.338   4.937
 4205SOL    HW213515   2.994   5.216   4.881
 4206SOL     OW13516   4.629   0.047   5.256
 4206SOL    HW113517   4.638   0.040   5.156
 4206SOL    HW213518   4.571   6.997   5.290
 4207SOL     OW13519   1.217   1.201   1.820
 4207SOL    HW113520   1.147   1.262   1.783
 4207SOL    HW213521   1.300   1.253   1.840
 4208SOL     OW13522   1.833   2.897   1.305
 4208SOL    HW113523   1.762   2.964   1.328
 4208SOL    HW213524   1.792   2.822   1.252
 4209SOL     OW13525   1.723   6.876   4.688
 4209SOL    HW113526   1.710   6.825   4.603
 4209SOL    HW213527   1.802   6.936   4.679
 4210SOL     OW13528   3.782   3.447   1.389
 4210SOL    HW113529   3.798   3.538   1.427
 4210SOL    HW213530   3.834   3.380   1.443
 4211SOL     OW13531   4.896   4.886   5.111
 4211SOL    HW113532   4.816   4.907   5.166
 4211SOL    HW213533   4.976   4.931   5.151
 4212SOL     OW13534   6.396   1.090   2.540
 4212SOL    HW113535   6.390   1.056   2.633
 4212SOL    HW213536   6.310   1.135   2.515
 4213SOL     OW13537   1.737   0.992   2.137
 4213SOL    HW113538   1.818   1.051   2.129
 4213SOL    HW213539   1.760   0.909   2.187
 4214SOL     OW13540   0.905   3.206   5.676
 4214SOL    HW113541   0.842   3.225   5.601
 4214SOL    HW213542   0.944   3.114   5.664
 4215SOL     OW13543   0.818   5.712   4.523
 4215SOL    HW113544   0.865   5.658   4.593
 4215SOL    HW213545   0.817   5.662   4.437
 4216SOL     OW13546   0.961   2.351   4.493
 4216SOL    HW113547   0.936   2.431   4.438
 4216SOL    HW213548   1.052   2.319   4.467
 4217SOL     OW13549   0.441   0.203   2.291
 4217SOL    HW113550   0.487   0.174   2.207
 4217SOL    HW213551   0.487   0.284   2.327
 4218SOL     OW13552   4.908   0.070   2.099
 4218SOL    HW113553   5.002   0.091   2.076
 4218SOL    HW213554   4.846   0.132   2.051
 4219SOL     OW13555   3.805   4.875   5.216
 4219SOL    HW113556   3.794   4.962   5.265
 4219SOL    HW213557   3.770   4.885   5.123
 4220SOL     OW13558   6.894   3.408   3.563
 4220SOL    HW113559   6.813   3.460   3.536
 4220SOL    HW213560   6.935   3.366   3.482
 4221SOL     OW13561   5.250   5.293   6.227
 4221SOL    HW113562   5.190   5.250   6.160
 4221SOL    HW213563   5.196   5.326   6.304
 4222SOL     OW13564   5.734   2.203   1.600
 4222SOL    HW113565   5.644   2.219   1.560
 4222SOL    HW213566   5.767   2.288   1.643
 4223SOL     OW13567   3.463   3.953   2.507
 4223SOL    HW113568   3.395   3.948   2.581
 4223SOL    HW213569   3.459   3.869   2.453
 4224SOL     OW13570   4.472   2.575   4.873
 4224SOL    HW113571   4.547   2.638   4.892
 4224SOL    HW213572   4.412   2.614   4.804
 4225SOL     OW13573   6.034   0.466   4.227
 4225SOL    HW113574   6.067   0.450   4.134
 4225SOL    HW213575   5.992   0.382   4.262
 4226SOL     OW13576   0.817   1.291   3.417
 4226SOL    HW113577   0.903   1.246   3.394
 4226SOL    HW213578   0.822   1.325   3.511
 4227SOL     OW13579   3.915   4.894   0.346
 4227SOL    HW113580   3.894   4.935   0.256
 4227SOL    HW213581   3.840   4.915   0.409
 4228SOL     OW13582   5.771   5.525   3.791
 4228SOL    HW113583   5.812   5.481   3.712
 4228SOL    HW213584   5.674   5.501   3.797
 4229SOL     OW13585   4.497   4.977   6.122
 4229SOL    HW113586   4.593   4.991   6.145
 4229SOL    HW213587   4.446   4.955   6.205
 4230SOL     OW13588   2.933   0.402   5.237
 4230SOL    HW113589   2.980   0.470   5.181
 4230SOL    HW213590   2.983   0.315   5.234
 4231SOL     OW13591   5.104   6.647   5.433
 4231SOL    HW113592   5.152   6.718   5.383
 4231SOL    HW213593   5.040   6.689   5.497
 4232SOL     OW13594   1.860   5.230   2.815
 4232SOL    HW113595   1.789   5.166   2.786
 4232SOL    HW213596   1.851   5.315   2.762
 4233SOL     OW13597   6.258   0.616   6.803
 4233SOL    HW113598   6.198   0.568   6.867
 4233SOL    HW213599   6.226   0.601   6.710
 4234SOL     OW13600   3.021   5.220   6.622
 4234SOL    HW113601   2.952   5.154   6.591
 4234SOL    HW213602   3.101   5.214   6.562
 4235SOL     OW13603   6.186   4.504   5.525
 4235SOL    HW113604   6.208   4.406   5.526
 4235SOL    HW213605   6.099   4.518   5.573
 4236SOL     OW13606   0.263   2.507   3.889
 4236SOL    HW113607   0.187   2.479   3.830
 4236SOL    HW213608   0.276   2.440   3.962
 4237SOL     OW13609   5.163   3.929   5.012
 4237SOL    HW113610   5.153   3.865   5.087
 4237SOL    HW213611   5.112   3.896   4.932
 4238SOL     OW13612   4.035   5.337   3.740
 4238SOL    HW113613   4.039   5.238   3.726
 4238SOL    HW213614   3.992   5.356   3.829
 4239SOL     OW13615   4.311   6.486   5.525
 4239SOL    HW113616   4.388   6.434   5.563
 4239SOL    HW213617   4.272   6.544   5.596
 4240SOL     OW13618   2.692   4.883   0.447
 4240SOL    HW113619   2.664   4.794   0.413
 4240SOL    HW213620   2.749   4.872   0.528
 4241SOL     OW13621   5.222   0.482   1.163
 4241SOL    HW113622   5.225   0.482   1.263
 4241SOL    HW213623   5.127   0.482   1.132
 4242SOL     OW13624   2.443   0.261   2.710
 4242SOL    HW113625   2.417   0.172   2.747
 4242SOL    HW213626   2.419   0.265   2.613
 4243SOL     OW13627   0.617   3.623   2.396
 4243SOL    HW113628   0.575   3.533   2.409
 4243SOL    HW213629   0.707   3.611   2.353
 4244SOL     OW13630   4.880   6.581   1.038
 4244SOL    HW113631   4.863   6.679   1.027
 4244SOL    HW213632   4.794   6.534   1.055
 4245SOL     OW13633   6.440   3.107   0.619
 4245SOL    HW113634   6.372   3.060   0.562
 4245SOL    HW213635   6.432   3.206   0.605
 4246SOL     OW13636   5.081   2.531   3.460
 4246SOL    HW113637   5.093   2.439   3.423
 4246SOL    HW213638   5.170   2.574   3.473
 4247SOL     OW13639   1.772   4.769   4.873
 4247SOL    HW113640   1.800   4.749   4.967
 4247SOL    HW213641   1.833   4.722   4.809
 4248SOL     OW13642   1.984   0.874   2.685
 4248SOL    HW113643   1.991   0.774   2.697
 4248SOL    HW213644   1.889   0.899   2.669
 4249SOL     OW13645   6.989   0.498   4.767
 4249SOL    HW113646   6.959   0.565   4.835
 4249SOL    HW213647   6.939   0.512   4.682
 4250SOL     OW13648   6.710   6.142   4.291
 4250SOL    HW113649   6.619   6.171   4.260
 4250SOL    HW213650   6.711   6.042   4.302
 4251SOL     OW13651   6.038   2.341   6.199
 4251SOL    HW113652   6.077   2.417   6.251
 4251SOL    HW213653   5.970   2.376   6.135
 4252SOL     OW13654   6.326   6.056   5.609
 4252SOL    HW113655   6.278   6.140   5.584
 4252SOL    HW213656   6.395   6.076   5.679
 4253SOL     OW13657   4.320   5.900   2.527
 4253SOL    HW113658   4.360   5.991   2.533
 4253SOL    HW213659   4.264   5.893   2.445
 4254SOL     OW13660   2.119   3.589   6.411
 4254SOL    HW113661   2.052   3.654   6.445
 4254SOL    HW213662   2.211   3.625   6.424
 4255SOL     OW13663   0.304   3.723   2.351
 4255SOL    HW113664   0.395   3.750   2.323
 4255SOL    HW213665   0.302   3.709   2.450
 4256SOL     OW13666   0.528   5.306   2.426
 4256SOL    HW113667   0.508   5.248   2.346
 4256SOL    HW213668   0.626   5.323   2.430
 4257SOL     OW13669   6.078   0.854   4.900
 4257SOL    HW113670   6.054   0.920   4.971
 4257SOL    HW213671   6.144   0.788   4.935
 4258SOL     OW13672   3.978   5.950   0.204
 4258SOL    HW113673   3.901   5.955   0.268
 4258SOL    HW213674   4.063   5.969   0.253
 4259SOL     OW13675   1.075   6.656   2.215
 4259SOL    HW113676   0.999   6.593   2.229
 4259SOL    HW213677   1.081   6.720   2.292
 4260SOL     OW13678   5.390   0.023   5.171
 4260SOL    HW113679   5.330   0.092   5.131
 4260SOL    HW213680   5.477   0.065   5.197
 4261SOL     OW13681   1.864   6.919   3.816
 4261SOL    HW113682   1.798   6.854   3.853
 4261SOL    HW213683   1.845   7.010   3.852
 4262SOL     OW13684   1.524   4.538   6.665
 4262SOL    HW113685   1.446   4.502   6.716
 4262SOL    HW213686   1.552   4.471   6.596
 4263SOL     OW13687   2.794   1.927   3.686
 4263SOL    HW113688   2.727   2.000   3.675
 4263SOL    HW213689   2.847   1.917   3.602
 4264SOL     OW13690   5.572   1.375   4.120
 4264SOL    HW113691   5.581   1.470   4.150
 4264SOL    HW213692   5.487   1.337   4.158
 4265SOL     OW13693   2.879   0.329   1.124
 4265SOL    HW113694   2.831   0.318   1.037
 4265SOL    HW213695   2.818   0.370   1.191
 4266SOL     OW13696   1.291   6.257   0.526
 4266SOL    HW113697   1.272   6.344   0.571
 4266SOL    HW213698   1.389   6.239   0.529
 4267SOL     OW13699   1.812   4.314   4.735
 4267SOL    HW113700   1.738   4.359   4.786
 4267SOL    HW213701   1.830   4.365   4.651
 4268SOL     OW13702   1.403   4.776   6.527
 4268SOL    HW113703   1.496   4.769   6.562
 4268SOL    HW213704   1.399   4.741   6.434
 4269SOL     OW13705   3.396   1.677   4.383
 4269SOL    HW113706   3.443   1.726   4.456
 4269SOL    HW213707   3.371   1.741   4.310
 4270SOL     OW13708   3.771   2.344   0.566
 4270SOL    HW113709   3.672   2.342   0.556
 4270SOL    HW213710   3.795   2.398   0.647
 4271SOL     OW13711   6.698   0.379   0.948
 4271SOL    HW113712   6.765   0.412   1.015
 4271SOL    HW213713   6.693   0.279   0.952
 4272SOL     OW13714   6.289   2.400   5.974
 4272SOL    HW113715   6.348   2.393   5.893
 4272SOL    HW213716   6.196   2.370   5.951
 4273SOL     OW13717   4.316   5.497   5.119
 4273SOL    HW113718   4.287   5.567   5.053
 4273SOL    HW213719   4.405   5.460   5.091
 4274SOL     OW13720   6.536   0.171   1.963
 4274SOL    HW113721   6.590   0.102   2.010
 4274SOL    HW213722   6.479   0.220   2.030
 4275SOL     OW13723   0.874   2.859   3.334
 4275SOL    HW113724   0.812   2.932   3.305
 4275SOL    HW213725   0.942   2.844   3.263
 4276SOL     OW13726   2.966   5.930   3.935
 4276SOL    HW113727   2.869   5.922   3.955
 4276SOL    HW213728   2.999   5.845   3.893
 4277SOL     OW13729   6.473   5.693   4.198
 4277SOL    HW113730   6.514   5.717   4.110
 4277SOL    HW213731   6.395   5.632   4.183
 4278SOL     OW13732   1.258   6.921   1.978
 4278SOL    HW113733   1.336   6.896   2.035
 4278SOL    HW213734   1.202   6.988   2.026
 4279SOL     OW13735   2.062   2.612   3.121
 4279SOL    HW113736   2.130   2.574   3.184
 4279SOL    HW213737   2.001   2.673   3.171
 4280SOL     OW13738   6.665   0.056   6.163
 4280SOL    HW113739   6.693   7.022   6.240
 4280SOL    HW213740   6.723   0.035   6.084
 4281SOL     OW13741   4.584   5.552   4.064
 4281SOL    HW113742   4.643   5.633   4.070
 4281SOL    HW213743   4.631   5.479   4.016
 4282SOL     OW13744   3.608   4.148   1.072
 4282SOL    HW113745   3.621   4.224   1.008
 4282SOL    HW213746   3.643   4.064   1.031
 4283SOL     OW13747   4.831   1.179   3.694
 4283SOL    HW113748   4.871   1.238   3.624
 4283SOL    HW213749   4.745   1.219   3.727
 4284SOL     OW13750   5.087   5.862   6.795
 4284SOL    HW113751   5.005   5.826   6.839
 4284SOL    HW213752   5.105   5.955   6.828
 4285SOL     OW13753   3.054   0.600   6.054
 4285SOL    HW113754   3.028   0.696   6.054
 4285SOL    HW213755   3.001   0.551   5.984
 4286SOL     OW13756   6.570   1.203   6.526
 4286SOL    HW113757   6.656   1.245   6.556
 4286SOL    HW213758   6.512   1.273   6.484
 4287SOL     OW13759   4.810   0.687   0.043
 4287SOL    HW113760   4.791   0.785   0.056
 4287SOL    HW213761   4.778   0.637   0.124
 4288SOL     OW13762   6.775   6.306   2.057
 4288SOL    HW113763   6.770   6.217   2.010
 4288SOL    HW213764   6.852   6.306   2.120
 4289SOL     OW13765   0.344   3.145   4.830
 4289SOL    HW113766   0.319   3.078   4.761
 4289SOL    HW213767   0.389   3.100   4.907
 4290SOL     OW13768   0.426   0.668   3.062
 4290SOL    HW113769   0.464   0.719   2.985
 4290SOL    HW213770   0.349   0.612   3.031
 4291SOL     OW13771   4.924   3.258   5.810
 4291SOL    HW113772   4.954   3.208   5.728
 4291SOL    HW213773   5.003   3.279   5.867
 4292SOL     OW13774   5.525   1.992   0.710
 4292SOL    HW113775   5.488   1.916   0.657
 4292SOL    HW213776   5.596   1.958   0.772
 4293SOL     OW13777   4.422   4.022   6.812
 4293SOL    HW113778   4.333   3.982   6.832
 4293SOL    HW213779   4.460   4.063   6.895
 4294SOL     OW13780   2.934   2.012   6.404
 4294SOL    HW113781   2.900   1.960   6.326
 4294SOL    HW213782   3.030   2.038   6.388
 4295SOL     OW13783   4.156   6.276   3.224
 4295SOL    HW113784   4.180   6.319   3.311
 4295SOL    HW213785   4.194   6.330   3.148
 4296SOL     OW13786   2.801   6.533   1.198
 4296SOL    HW113787   2.714   6.486   1.186
 4296SOL    HW213788   2.846   6.501   1.282
 4297SOL     OW13789   5.577   5.508   0.963
 4297SOL    HW113790   5.612   5.438   1.025
 4297SOL    HW213791   5.609   5.598   0.993
 4298SOL     OW13792   3.308   6.478   1.449
 4298SOL    HW113793   3.369   6.449   1.523
 4298SOL    HW213794   3.321   6.576   1.431
 4299SOL     OW13795   0.954   2.351   0.329
 4299SOL    HW113796   0.966   2.252   0.331
 4299SOL    HW213797   1.044   2.395   0.325
 4300SOL     OW13798   3.979   0.251   1.197
 4300SOL    HW113799   4.070   0.278   1.166
 4300SOL    HW213800   3.910   0.310   1.155
 4301SOL     OW13801   3.553   6.980   2.015
 4301SOL    HW113802   3.498   6.901   2.043
 4301SOL    HW213803   3.494   0.036   2.005
 4302SOL     OW13804   1.888   5.793   6.135
 4302SOL    HW113805   1.799   5.802   6.089
 4302SOL    HW213806   1.873   5.768   6.230
 4303SOL     OW13807   6.031   4.298   4.039
 4303SOL    HW113808   6.094   4.235   4.082
 4303SOL    HW213809   6.043   4.295   3.939
 4304SOL     OW13810   3.484   3.495   1.637
 4304SOL    HW113811   3.561   3.556   1.657
 4304SOL    HW213812   3.407   3.518   1.697
 4305SOL     OW13813   1.013   0.387   5.325
 4305SOL    HW113814   1.026   0.401   5.423
 4305SOL    HW213815   1.101   0.395   5.278
 4306SOL     OW13816   5.069   3.822   4.390
 4306SOL    HW113817   5.063   3.920   4.368
 4306SOL    HW213818   5.017   3.804   4.474
 4307SOL     OW13819   6.222   1.902   5.283
 4307SOL    HW113820   6.311   1.876   5.321
 4307SOL    HW213821   6.150   1.852   5.331
 4308SOL     OW13822   4.903   4.564   1.011
 4308SOL    HW113823   4.833   4.560   1.083
 4308SOL    HW213824   4.990   4.589   1.052
 4309SOL     OW13825   1.442   3.630   0.297
 4309SOL    HW113826   1.531   3.584   0.291
 4309SOL    HW213827   1.420   3.646   0.394
 4310SOL     OW13828   0.107   1.783   2.331
 4310SOL    HW113829   0.156   1.867   2.310
 4310SOL    HW213830   0.021   1.780   2.279
 4311SOL     OW13831   1.048   6.125   2.499
 4311SOL    HW113832   1.063   6.214   2.455
 4311SOL    HW213833   0.959   6.125   2.544
 4312SOL     OW13834   0.325   4.648   2.287
 4312SOL    HW113835   0.276   4.612   2.366
 4312SOL    HW213836   0.353   4.742   2.304
 4313SOL     OW13837   6.082   1.502   6.834
 4313SOL    HW113838   6.163   1.502   6.892
 4313SOL    HW213839   6.067   1.410   6.798
 4314SOL     OW13840   6.587   2.711   4.945
 4314SOL    HW113841   6.683   2.684   4.937
 4314SOL    HW213842   6.543   2.653   5.014
 4315SOL     OW13843   2.602   1.436   4.048
 4315SOL    HW113844   2.679   1.417   4.110
 4315SOL    HW213845   2.591   1.360   3.985
 4316SOL     OW13846   5.340   6.823   2.115
 4316SOL    HW113847   5.311   6.801   2.208
 4316SOL    HW213848   5.337   6.740   2.059
 4317SOL     OW13849   4.900   0.922   5.967
 4317SOL    HW113850   4.890   0.968   6.055
 4317SOL    HW213851   4.836   0.845   5.962
 4318SOL     OW13852   1.365   1.728   3.790
 4318SOL    HW113853   1.302   1.651   3.797
 4318SOL    HW213854   1.339   1.785   3.712
 4319SOL     OW13855   1.089   4.635   2.174
 4319SOL    HW113856   1.008   4.633   2.232
 4319SOL    HW213857   1.076   4.573   2.097
 4320SOL     OW13858   3.413   6.246   0.189
 4320SOL    HW113859   3.464   6.276   0.108
 4320SOL    HW213860   3.448   6.293   0.270
 4321SOL     OW13861   6.288   6.862   2.465
 4321SOL    HW113862   6.294   6.771   2.424
 4321SOL    HW213863   6.301   6.855   2.564
 4322SOL     OW13864   0.917   3.020   5.061
 4322SOL    HW113865   0.834   3.055   5.017
 4322SOL    HW213866   0.929   3.064   5.150
 4323SOL     OW13867   3.754   5.591   0.096
 4323SOL    HW113868   3.657   5.612   0.106
 4323SOL    HW213869   3.765   5.504   0.050
 4324SOL     OW13870   7.000   3.534   5.784
 4324SOL    HW113871   6.960   3.615   5.741
 4324SOL    HW213872   0.051   3.562   5.843
 4325SOL     OW13873   2.792   0.971   2.887
 4325SOL    HW113874   2.725   1.023   2.834
 4325SOL    HW213875   2.817   0.888   2.837
 4326SOL     OW13876   5.076   2.304   2.708
 4326SOL    HW113877   5.071   2.323   2.610
 4326SOL    HW213878   5.158   2.251   2.728
 4327SOL     OW13879   3.699   5.772   4.213
 4327SOL    HW113880   3.760   5.694   4.201
 4327SOL    HW213881   3.627   5.749   4.278
 4328SOL     OW13882   5.546   5.446   5.072
 4328SOL    HW113883   5.580   5.469   5.164
 4328SOL    HW213884   5.544   5.528   5.016
 4329SOL     OW13885   6.028   2.646   6.030
 4329SOL    HW113886   6.080   2.642   6.116
 4329SOL    HW213887   6.084   2.688   5.959
 4330SOL     OW13888   2.737   5.083   5.290
 4330SOL    HW113889   2.781   5.003   5.249
 4330SOL    HW213890   2.739   5.158   5.225
 4331SOL     OW13891   6.400   0.494   1.691
 4331SOL    HW113892   6.310   0.483   1.732
 4331SOL    HW213893   6.448   0.406   1.695
 4332SOL     OW13894   6.872   4.940   2.590
 4332SOL    HW113895   6.899   4.855   2.635
 4332SOL    HW213896   6.946   4.970   2.530
 4333SOL     OW13897   4.045   1.874   5.176
 4333SOL    HW113898   4.023   1.829   5.090
 4333SOL    HW213899   4.137   1.849   5.205
 4334SOL     OW13900   1.195   2.743   3.735
 4334SOL    HW113901   1.174   2.663   3.679
 4334SOL    HW213902   1.211   2.714   3.830
 4335SOL     OW13903   3.580   3.600   1.286
 4335SOL    HW113904   3.634   3.521   1.317
 4335SOL    HW213905   3.491   3.598   1.331
 4336SOL     OW13906   2.447   5.914   6.014
 4336SOL    HW113907   2.398   5.976   6.075
 4336SOL    HW213908   2.471   5.962   5.930
 4337SOL     OW13909   1.475   5.405   2.715
 4337SOL    HW113910   1.533   5.459   2.776
 4337SOL    HW213911   1.451   5.459   2.634
 4338SOL     OW13912   4.848   0.576   5.837
 4338SOL    HW113913   4.931   0.586   5.891
 4338SOL    HW213914   4.781   0.644   5.865
 4339SOL     OW13915   4.259   2.745   5.879
 4339SOL    HW113916   4.286   2.766   5.973
 4339SOL    HW213917   4.324   2.680   5.840
 4340SOL     OW13918   6.565   3.514   0.995
 4340SOL    HW113919   6.559   3.520   1.095
 4340SOL    HW213920   6.486   3.463   0.961
 4341SOL     OW13921   1.108   5.892   2.322
 4341SOL    HW113922   1.125   5.823   2.392
 4341SOL    HW213923   1.079   5.977   2.365
 4342SOL     OW13924   5.274   4.019   2.626
 4342SOL    HW113925   5.277   3.946   2.558
 4342SOL    HW213926   5.305   3.984   2.714
 4343SOL     OW13927   3.827   0.183   6.217
 4343SOL    HW113928   3.904   0.152   6.272
 4343SOL    HW213929   3.781   0.105   6.176
 4344SOL     OW13930   0.055   2.426   3.745
 4344SOL    HW113931   0.041   2.475   3.659
 4344SOL    HW213932   7.001   2.441   3.805
 4345SOL     OW13933   2.967   3.489   2.405
 4345SOL    HW113934   2.942   3.392   2.415
 4345SOL    HW213935   3.037   3.512   2.472
 4346SOL     OW13936   1.848   3.403   1.722
 4346SOL    HW113937   1.913   3.437   1.790
 4346SOL    HW213938   1.831   3.475   1.654
 4347SOL     OW13939   5.787   4.925   1.751
 4347SOL    HW113940   5.878   4.897   1.781
 4347SOL    HW213941   5.738   4.846   1.714
 4348SOL     OW13942   6.244   6.130   4.107
 4348SOL    HW113943   6.335   6.151   4.145
 4348SOL    HW213944   6.227   6.032   4.114
 4349SOL     OW13945   0.318   3.882   3.953
 4349SOL    HW113946   0.254   3.916   3.884
 4349SOL    HW213947   0.332   3.784   3.940
 4350SOL     OW13948   4.808   1.127   5.114
 4350SOL    HW113949   4.891   1.173   5.144
 4350SOL    HW213950   4.739   1.195   5.089
 4351SOL     OW13951   1.239   6.940   0.936
 4351SOL    HW113952   1.201   6.848   0.942
 4351SOL    HW213953   1.262   6.961   0.841
 4352SOL     OW13954   4.194   3.736   1.140
 4352SOL    HW113955   4.268   3.715   1.204
 4352SOL    HW213956   4.106   3.732   1.189
 4353SOL     OW13957   2.849   2.871   0.435
 4353SOL    HW113958   2.896   2.784   0.451
 4353SOL    HW213959   2.836   2.884   0.337
 4354SOL     OW13960   6.072   0.098   4.487
 4354SOL    HW113961   6.104   0.116   4.394
 4354SOL    HW213962   6.054   0.001   4.498
 4355SOL     OW13963   1.845   6.304   3.452
 4355SOL    HW113964   1.870   6.352   3.368
 4355SOL    HW213965   1.928   6.276   3.501
 4356SOL     OW13966   5.154   2.371   6.677
 4356SOL    HW113967   5.151   2.321   6.591
 4356SOL    HW213968   5.061   2.389   6.709
 4357SOL     OW13969   6.544   0.674   1.856
 4357SOL    HW113970   6.637   0.668   1.818
 4357SOL    HW213971   6.483   0.616   1.802
 4358SOL     OW13972   0.962   0.820   0.254
 4358SOL    HW113973   0.907   0.738   0.273
 4358SOL    HW213974   0.901   0.896   0.232
 4359SOL     OW13975   2.083   1.274   6.292
 4359SOL    HW113976   2.180   1.290   6.275
 4359SOL    HW213977   2.032   1.359   6.280
 4360SOL     OW13978   1.295   3.096   3.712
 4360SOL    HW113979   1.224   3.070   3.647
 4360SOL    HW213980   1.256   3.097   3.805
 4361SOL     OW13981   1.073   2.176   0.966
 4361SOL    HW113982   1.009   2.223   0.905
 4361SOL    HW213983   1.076   2.079   0.941
 4362SOL     OW13984   1.296   5.856   4.226
 4362SOL    HW113985   1.371   5.838   4.289
 4362SOL    HW213986   1.211   5.868   4.278
 4363SOL     OW13987   4.756   0.618   2.513
 4363SOL    HW113988   4.715   0.573   2.593
 4363SOL    HW213989   4.726   0.572   2.430
 4364SOL     OW13990   3.196   3.756   2.877
 4364SOL    HW113991   3.217   3.667   2.917
 4364SOL    HW213992   3.097   3.767   2.868
 4365SOL     OW13993   3.064   2.108   1.899
 4365SOL    HW113994   3.130   2.137   1.830
 4365SOL    HW213995   3.014   2.187   1.934
 4366SOL     OW13996   4.891   6.358   5.148
 4366SOL    HW113997   4.826   6.331   5.219
 4366SOL    HW213998   4.984   6.347   5.182
 4367SOL     OW13999   3.010   5.546   4.042
 4367SOL    HW114000   2.985   5.623   4.099
 4367SOL    HW214001   2.960   5.465   4.072
 4368SOL     OW14002   4.837   4.548   2.354
 4368SOL    HW114003   4.916   4.501   2.393
 4368SOL    HW214004   4.783   4.590   2.427
 4369SOL     OW14005   4.284   5.006   2.942
 4369SOL    HW114006   4.305   5.103   2.942
 4369SOL    HW214007   4.193   4.991   2.982
 4370SOL     OW14008   3.604   4.789   1.596
 4370SOL    HW114009   3.568   4.741   1.676
 4370SOL    HW214010   3.540   4.779   1.520
 4371SOL     OW14011   2.526   0.489   1.540
 4371SOL    HW114012   2.619   0.513   1.567
 4371SOL    HW214013   2.529   0.409   1.479
 4372SOL     OW14014   1.943   2.850   4.891
 4372SOL    HW114015   1.887   2.768   4.875
 4372SOL    HW214016   1.903   2.905   4.964
 4373SOL     OW14017   4.419   0.674   6.101
 4373SOL    HW114018   4.410   0.733   6.181
 4373SOL    HW214019   4.332   0.673   6.051
 4374SOL     OW14020   2.455   1.255   1.073
 4374SOL    HW114021   2.430   1.338   1.123
 4374SOL    HW214022   2.468   1.277   0.977
 4375SOL     OW14023   4.032   0.797   3.293
 4375SOL    HW114024   3.972   0.733   3.245
 4375SOL    HW214025   4.094   0.840   3.228
 4376SOL     OW14026   5.975   6.647   1.231
 4376SOL    HW114027   5.995   6.720   1.295
 4376SOL    HW214028   6.059   6.596   1.211
 4377SOL     OW14029   6.067   6.604   6.644
 4377SOL    HW114030   6.128   6.606   6.564
 4377SOL    HW214031   6.044   6.510   6.666
 4378SOL     OW14032   1.950   6.014   2.150
 4378SOL    HW114033   1.943   6.087   2.219
 4378SOL    HW214034   1.888   5.940   2.174
 4379SOL     OW14035   0.966   1.435   1.435
 4379SOL    HW114036   1.026   1.507   1.400
 4379SOL    HW214037   0.943   1.372   1.360
 4380SOL     OW14038   1.912   6.385   5.204
 4380SOL    HW114039   1.944   6.408   5.296
 4380SOL    HW214040   1.812   6.374   5.205
 4381SOL     OW14041   3.564   0.088   4.844
 4381SOL    HW114042   3.499   0.156   4.810
 4381SOL    HW214043   3.555   0.003   4.791
 4382SOL     OW14044   5.188   4.093   4.586
 4382SOL    HW114045   5.225   4.004   4.611
 4382SOL    HW214046   5.234   4.165   4.639
 4383SOL     OW14047   1.069   2.778   6.035
 4383SOL    HW114048   1.121   2.702   5.995
 4383SOL    HW214049   1.068   2.855   5.970
 4384SOL     OW14050   3.988   6.815   1.390
 4384SOL    HW114051   3.948   6.824   1.299
 4384SOL    HW214052   3.928   6.759   1.447
 4385SOL     OW14053   0.502   1.670   3.179
 4385SOL    HW114054   0.429   1.664   3.248
 4385SOL    HW214055   0.550   1.758   3.190
 4386SOL     OW14056   0.736   3.858   6.562
 4386SOL    HW114057   0.670   3.804   6.614
 4386SOL    HW214058   0.816   3.877   6.619
 4387SOL     OW14059   6.520   3.246   1.224
 4387SOL    HW114060   6.550   3.332   1.265
 4387SOL    HW214061   6.555   3.169   1.278
 4388SOL     OW14062   3.330   0.605   5.972
 4388SOL    HW114063   3.234   0.606   5.999
 4388SOL    HW214064   3.353   0.691   5.927
 4389SOL     OW14065   5.887   2.843   1.874
 4389SOL    HW114066   5.947   2.901   1.819
 4389SOL    HW214067   5.927   2.752   1.883
 4390SOL     OW14068   4.789   2.773   2.182
 4390SOL    HW114069   4.749   2.695   2.134
 4390SOL    HW214070   4.779   2.855   2.126
 4391SOL     OW14071   0.694   5.494   0.553
 4391SOL    HW114072   0.641   5.482   0.638
 4391SOL    HW214073   0.664   5.577   0.507
 4392SOL     OW14074   4.929   3.278   4.370
 4392SOL    HW114075   4.921   3.378   4.371
 4392SOL    HW214076   4.877   3.241   4.448
 4393SOL     OW14077   4.902   0.067   3.273
 4393SOL    HW114078   4.881   0.019   3.188
 4393SOL    HW214079   4.881   0.008   3.351
 4394SOL     OW14080   5.297   6.716   2.381
 4394SOL    HW114081   5.210   6.669   2.393
 4394SOL    HW214082   5.337   6.736   2.471
 4395SOL     OW14083   4.934   1.559   1.585
 4395SOL    HW114084   4.909   1.483   1.645
 4395SOL    HW214085   4.885   1.642   1.612
 4396SOL     OW14086   0.826   0.983   4.231
 4396SOL    HW114087   0.765   0.904   4.231
 4396SOL    HW214088   0.917   0.955   4.261
 4397SOL     OW14089   0.019   0.338   5.306
 4397SOL    HW114090   0.090   0.286   5.353
 4397SOL    HW214091   0.041   0.436   5.308
 4398SOL     OW14092   0.467   4.451   4.099
 4398SOL    HW114093   0.417   4.365   4.087
 4398SOL    HW214094   0.462   4.504   4.014
 4399SOL     OW14095   1.721   1.404   0.657
 4399SOL    HW114096   1.742   1.352   0.574
 4399SOL    HW214097   1.642   1.363   0.703
 4400SOL     OW14098   2.800   6.678   4.303
 4400SOL    HW114099   2.873   6.741   4.279
 4400SOL    HW214100   2.828   6.585   4.283
 4401SOL     OW14101   5.851   6.054   4.212
 4401SOL    HW114102   5.912   5.996   4.159
 4401SOL    HW214103   5.893   6.076   4.300
 4402SOL     OW14104   1.316   5.780   2.747
 4402SOL    HW114105   1.411   5.782   2.777
 4402SOL    HW214106   1.283   5.874   2.734
 4403SOL     OW14107   0.074   0.009   3.122
 4403SOL    HW114108   0.118   0.030   3.209
 4403SOL    HW214109   0.124   6.961   3.075
 4404SOL     OW14110   0.381   3.980   2.744
 4404SOL    HW114111   0.443   3.996   2.667
 4404SOL    HW214112   0.434   3.961   2.826
 4405SOL     OW14113   2.853   4.943   5.990
 4405SOL    HW114114   2.827   4.908   5.900
 4405SOL    HW214115   2.771   4.979   6.037
 4406SOL     OW14116   5.800   4.104   0.966
 4406SOL    HW114117   5.701   4.121   0.969
 4406SOL    HW214118   5.846   4.184   0.928
 4407SOL     OW14119   6.759   6.480   0.461
 4407SOL    HW114120   6.676   6.520   0.422
 4407SOL    HW214121   6.740   6.448   0.554
 4408SOL     OW14122   5.301   0.405   0.113
 4408SOL    HW114123   5.326   0.386   0.208
 4408SOL    HW214124   5.273   0.320   0.069
 4409SOL     OW14125   3.410   0.395   2.164
 4409SOL    HW114126   3.482   0.337   2.204
 4409SOL    HW214127   3.372   0.454   2.235
 4410SOL     OW14128   2.387   5.319   1.056
 4410SOL    HW114129   2.370   5.251   0.985
 4410SOL    HW214130   2.414   5.274   1.140
 4411SOL     OW14131   3.441   3.262   2.831
 4411SOL    HW114132   3.450   3.164   2.818
 4411SOL    HW214133   3.346   3.289   2.813
 4412SOL     OW14134   3.969   0.940   6.363
 4412SOL    HW114135   3.936   1.034   6.368
 4412SOL    HW214136   4.023   0.919   6.445
 4413SOL     OW14137   3.865   5.546   4.177
 4413SOL    HW114138   3.928   5.572   4.103
 4413SOL    HW214139   3.917   5.527   4.260
 4414SOL     OW14140   4.077   4.847   1.831
 4414SOL    HW114141   4.112   4.776   1.891
 4414SOL    HW214142   4.007   4.808   1.771
 4415SOL     OW14143   5.013   3.497   6.224
 4415SOL    HW114144   5.068   3.509   6.141
 4415SOL    HW214145   4.969   3.407   6.222
 4416SOL     OW14146   2.965   0.875   4.520
 4416SOL    HW114147   2.875   0.844   4.490
 4416SOL    HW214148   3.036   0.826   4.469
 4417SOL     OW14149   0.116   5.229   2.146
 4417SOL    HW114150   0.052   5.270   2.080
 4417SOL    HW214151   0.108   5.277   2.234
 4418SOL     OW14152   4.513   5.951   4.371
 4418SOL    HW114153   4.597   5.903   4.397
 4418SOL    HW214154   4.436   5.888   4.375
 4419SOL     OW14155   6.548   5.300   0.434
 4419SOL    HW114156   6.586   5.296   0.526
 4419SOL    HW214157   6.450   5.280   0.438
 4420SOL     OW14158   5.195   1.334   0.187
 4420SOL    HW114159   5.225   1.426   0.158
 4420SOL    HW214160   5.252   1.265   0.142
 4421SOL     OW14161   1.850   1.561   3.055
 4421SOL    HW114162   1.879   1.656   3.041
 4421SOL    HW214163   1.930   1.501   3.052
 4422SOL     OW14164   2.578   4.147   6.247
 4422SOL    HW114165   2.588   4.075   6.178
 4422SOL    HW214166   2.578   4.237   6.202
 4423SOL     OW14167   1.382   2.589   6.538
 4423SOL    HW114168   1.461   2.630   6.584
 4423SOL    HW214169   1.324   2.662   6.502
 4424SOL     OW14170   6.140   6.570   3.168
 4424SOL    HW114171   6.233   6.547   3.139
 4424SOL    HW214172   6.100   6.633   3.101
 4425SOL     OW14173   3.814   5.379   6.594
 4425SOL    HW114174   3.795   5.416   6.503
 4425SOL    HW214175   3.870   5.444   6.645
 4426SOL     OW14176   0.001   0.187   5.753
 4426SOL    HW114177   0.034   0.271   5.796
 4426SOL    HW214178   6.960   0.210   5.680
 4427SOL     OW14179   0.863   0.615   3.310
 4427SOL    HW114180   0.835   0.631   3.215
 4427SOL    HW214181   0.815   0.534   3.345
 4428SOL     OW14182   1.724   5.254   4.549
 4428SOL    HW114183   1.668   5.201   4.485
 4428SOL    HW214184   1.820   5.237   4.531
 4429SOL     OW14185   3.197   7.007   3.798
 4429SOL    HW114186   3.144   0.065   3.779
 4429SOL    HW214187   3.175   6.936   3.731
 4430SOL     OW14188   3.168   1.533   2.992
 4430SOL    HW114189   3.125   1.623   2.996
 4430SOL    HW214190   3.189   1.510   2.897
 4431SOL     OW14191   3.265   1.364   3.599
 4431SOL    HW114192   3.277   1.451   3.648
 4431SOL    HW214193   3.247   1.383   3.503
 4432SOL     OW14194   3.207   3.388   2.803
 4432SOL    HW114195   3.229   3.453   2.731
 4432SOL    HW214196   3.119   3.345   2.783
 4433SOL     OW14197   6.352   6.331   2.797
 4433SOL    HW114198   6.258   6.351   2.769
 4433SOL    HW214199   6.368   6.232   2.792
 4434SOL     OW14200   5.505   1.502   3.653
 4434SOL    HW114201   5.440   1.569   3.689
 4434SOL    HW214202   5.597   1.524   3.686
 4435SOL     OW14203   3.340   2.958   1.668
 4435SOL    HW114204   3.312   2.876   1.717
 4435SOL    HW214205   3.423   2.996   1.710
 4436SOL     OW14206   3.778   1.780   6.957
 4436SOL    HW114207   3.729   1.867   6.954
 4436SOL    HW214208   3.875   1.796   6.977
 4437SOL     OW14209   3.826   0.590   4.778
 4437SOL    HW114210   3.830   0.583   4.877
 4437SOL    HW214211   3.856   0.681   4.749
 4438SOL     OW14212   4.087   2.366   6.867
 4438SOL    HW114213   4.128   2.275   6.871
 4438SOL    HW214214   4.023   2.370   6.790
 4439SOL     OW14215   1.190   5.368   2.448
 4439SOL    HW114216   1.191   5.269   2.451
 4439SOL    HW214217   1.117   5.402   2.508
 4440SOL     OW14218   1.498   6.125   6.927
 4440SOL    HW114219   1.556   6.165   6.856
 4440SOL    HW214220   1.403   6.152   6.910
 4441SOL     OW14221   5.401   2.473   2.399
 4441SOL    HW114222   5.373   2.505   2.490
 4441SOL    HW214223   5.385   2.375   2.391
 4442SOL     OW14224   4.036   5.718   3.752
 4442SOL    HW114225   4.001   5.801   3.708
 4442SOL    HW214226   3.996   5.637   3.708
 4443SOL     OW14227   2.231   2.105   5.778
 4443SOL    HW114228   2.192   2.172   5.842
 4443SOL    HW214229   2.236   2.016   5.822
 4444SOL     OW14230   4.557   6.802   0.984
 4444SOL    HW114231   4.624   6.863   0.941
 4444SOL    HW214232   4.600   6.757   1.062
 4445SOL     OW14233   1.283   1.055   6.432
 4445SOL    HW114234   1.379   1.054   6.403
 4445SOL    HW214235   1.234   1.127   6.383
 4446SOL     OW14236   5.944   0.257   3.120
 4446SOL    HW114237   5.986   0.304   3.042
 4446SOL    HW214238   5.912   0.325   3.186
 4447SOL     OW14239   5.540   2.494   5.837
 4447SOL    HW114240   5.488   2.445   5.906
 4447SOL    HW214241   5.616   2.543   5.879
 4448SOL     OW14242   2.254   3.711   0.233
 4448SOL    HW114243   2.200   3.639   0.188
 4448SOL    HW214244   2.349   3.680   0.240
 4449SOL     OW14245   2.417   0.451   5.163
 4449SOL    HW114246   2.442   0.538   5.205
 4449SOL    HW214247   2.500   0.398   5.145
 4450SOL     OW14248   3.374   3.117   3.226
 4450SOL    HW114249   3.284   3.129   3.183
 4450SOL    HW214250   3.441   3.175   3.179
 4451SOL     OW14251   6.523   4.650   2.060
 4451SOL    HW114252   6.432   4.626   2.025
 4451SOL    HW214253   6.516   4.677   2.156
 4452SOL     OW14254   6.248   6.101   6.185
 4452SOL    HW114255   6.180   6.057   6.243
 4452SOL    HW214256   6.265   6.044   6.105
 4453SOL     OW14257   5.044   2.440   1.711
 4453SOL    HW114258   5.074   2.472   1.801
 4453SOL    HW214259   4.948   2.465   1.697
 4454SOL     OW14260   4.943   2.953   0.990
 4454SOL    HW114261   5.000   2.948   0.908
 4454SOL    HW214262   4.934   3.049   1.019
 4455SOL     OW14263   3.481   0.436   2.830
 4455SOL    HW114264   3.548   0.393   2.891
 4455SOL    HW214265   3.434   0.365   2.778
 4456SOL     OW14266   1.657   5.316   2.983
 4456SOL    HW114267   1.569   5.274   2.961
 4456SOL    HW214268   1.728   5.276   2.925
 4457SOL     OW14269   5.085   1.900   6.549
 4457SOL    HW114270   5.012   1.930   6.488
 4457SOL    HW214271   5.073   1.803   6.569
 4458SOL     OW14272   2.646   2.347   6.577
 4458SOL    HW114273   2.676   2.437   6.606
 4458SOL    HW214274   2.601   2.300   6.653
 4459SOL     OW14275   4.653   6.666   4.966
 4459SOL    HW114276   4.724   6.603   4.936
 4459SOL    HW214277   4.689   6.759   4.969
 4460SOL     OW14278   2.584   3.267   6.555
 4460SOL    HW114279   2.593   3.317   6.469
 4460SOL    HW214280   2.655   3.197   6.561
 4461SOL     OW14281   1.626   6.834   2.536
 4461SOL    HW114282   1.615   6.924   2.578
 4461SOL    HW214283   1.543   6.811   2.484
 4462SOL     OW14284   6.384   5.530   0.734
 4462SOL    HW114285   6.310   5.597   0.736
 4462SOL    HW214286   6.350   5.444   0.696
 4463SOL     OW14287   1.963   3.227   6.241
 4463SOL    HW114288   2.022   3.300   6.206
 4463SOL    HW214289   1.867   3.256   6.233
 4464SOL     OW14290   5.458   4.047   6.044
 4464SOL    HW114291   5.513   3.965   6.029
 4464SOL    HW214292   5.370   4.037   5.997
 4465SOL     OW14293   1.976   6.310   2.018
 4465SOL    HW114294   1.921   6.270   2.091
 4465SOL    HW214295   2.073   6.300   2.040
 4466SOL     OW14296   1.030   1.788   2.471
 4466SOL    HW114297   1.028   1.792   2.571
 4466SOL    HW214298   1.125   1.797   2.439
 4467SOL     OW14299   1.365   6.943   2.828
 4467SOL    HW114300   1.392   7.005   2.754
 4467SOL    HW214301   1.445   6.892   2.859
 4468SOL     OW14302   1.060   2.705   0.391
 4468SOL    HW114303   0.971   2.691   0.349
 4468SOL    HW214304   1.104   2.616   0.406
 4469SOL     OW14305   3.268   0.146   1.297
 4469SOL    HW114306   3.273   0.162   1.396
 4469SOL    HW214307   3.337   0.201   1.250
 4470SOL     OW14308   4.924   3.583   1.487
 4470SOL    HW114309   5.011   3.621   1.516
 4470SOL    HW214310   4.936   3.488   1.459
 4471SOL     OW14311   6.943   2.469   1.794
 4471SOL    HW114312   6.899   2.493   1.880
 4471SOL    HW214313   0.018   2.484   1.801
 4472SOL     OW14314   1.874   4.106   2.256
 4472SOL    HW114315   1.814   4.161   2.198
 4472SOL    HW214316   1.948   4.163   2.292
 4473SOL     OW14317   0.112   6.640   4.419
 4473SOL    HW114318   0.146   6.548   4.400
 4473SOL    HW214319   0.117   6.696   4.336
 4474SOL     OW14320   3.853   0.002   2.822
 4474SOL    HW114321   3.903   6.940   2.836
 4474SOL    HW214322   3.757   7.013   2.849
 4475SOL     OW14323   1.685   4.254   1.020
 4475SOL    HW114324   1.741   4.175   0.995
 4475SOL    HW214325   1.642   4.238   1.109
 4476SOL     OW14326   4.656   6.402   2.123
 4476SOL    HW114327   4.586   6.367   2.060
 4476SOL    HW214328   4.625   6.490   2.161
 4477SOL     OW14329   2.154   1.438   7.014
 4477SOL    HW114330   2.077   1.389   0.031
 4477SOL    HW214331   2.120   1.502   6.945
 4478SOL     OW14332   2.180   7.005   2.447
 4478SOL    HW114333   2.093   0.029   2.442
 4478SOL    HW214334   2.164   6.907   2.457
 4479SOL     OW14335   0.960   0.368   5.602
 4479SOL    HW114336   1.046   0.382   5.650
 4479SOL    HW214337   0.933   0.272   5.610
 4480SOL     OW14338   1.071   5.072   4.586
 4480SOL    HW114339   1.071   5.005   4.660
 4480SOL    HW214340   1.156   5.125   4.589
 4481SOL     OW14341   1.269   6.065   4.006
 4481SOL    HW114342   1.282   5.988   4.067
 4481SOL    HW214343   1.191   6.120   4.037
 4482SOL     OW14344   0.401   4.418   3.402
 4482SOL    HW114345   0.470   4.489   3.418
 4482SOL    HW214346   0.381   4.371   3.488
 4483SOL     OW14347   5.945   3.001   1.377
 4483SOL    HW114348   6.017   3.014   1.308
 4483SOL    HW214349   5.901   3.089   1.396
 4484SOL     OW14350   3.841   2.513   5.370
 4484SOL    HW114351   3.744   2.533   5.353
 4484SOL    HW214352   3.897   2.579   5.321
 4485SOL     OW14353   4.864   1.605   6.917
 4485SOL    HW114354   4.944   1.663   6.932
 4485SOL    HW214355   4.887   1.511   6.942
 4486SOL     OW14356   6.783   4.007   5.058
 4486SOL    HW114357   6.794   4.020   4.960
 4486SOL    HW214358   6.689   3.976   5.077
 4487SOL     OW14359   2.788   3.642   6.256
 4487SOL    HW114360   2.755   3.584   6.182
 4487SOL    HW214361   2.827   3.726   6.217
 4488SOL     OW14362   6.419   1.728   5.391
 4488SOL    HW114363   6.501   1.693   5.437
 4488SOL    HW214364   6.344   1.662   5.403
 4489SOL     OW14365   5.579   5.560   4.408
 4489SOL    HW114366   5.616   5.552   4.316
 4489SOL    HW214367   5.502   5.497   4.419
 4490SOL     OW14368   6.013   1.785   2.254
 4490SOL    HW114369   6.038   1.832   2.339
 4490SOL    HW214370   5.998   1.688   2.273
 4491SOL     OW14371   1.464   4.142   3.085
 4491SOL    HW114372   1.542   4.113   3.031
 4491SOL    HW214373   1.389   4.169   3.025
 4492SOL     OW14374   4.960   2.450   0.385
 4492SOL    HW114375   4.917   2.528   0.430
 4492SOL    HW214376   5.008   2.482   0.303
 4493SOL     OW14377   5.072   5.120   5.135
 4493SOL    HW114378   5.046   5.115   5.039
 4493SOL    HW214379   5.008   5.179   5.184
 4494SOL     OW14380   0.254   4.029   5.336
 4494SOL    HW114381   0.280   3.936   5.310
 4494SOL    HW214382   0.179   4.060   5.277
 4495SOL     OW14383   5.211   6.508   2.096
 4495SOL    HW114384   5.143   6.574   2.066
 4495SOL    HW214385   5.172   6.450   2.168
 4496SOL     OW14386   5.394   3.738   6.075
 4496SOL    HW114387   5.319   3.698   6.023
 4496SOL    HW214388   5.456   3.666   6.106
 4497SOL     OW14389   5.763   5.168   6.867
 4497SOL    HW114390   5.772   5.268   6.870
 4497SOL    HW214391   5.685   5.144   6.809
 4498SOL     OW14392   0.241   3.571   6.571
 4498SOL    HW114393   0.315   3.567   6.503
 4498SOL    HW214394   0.280   3.589   6.661
 4499SOL     OW14395   6.709   3.600   4.997
 4499SOL    HW114396   6.646   3.678   5.000
 4499SOL    HW214397   6.803   3.634   4.994
 4500SOL     OW14398   2.904   3.569   4.616
 4500SOL    HW114399   2.840   3.553   4.692
 4500SOL    HW214400   2.915   3.486   4.563
 4501SOL     OW14401   0.603   4.628   5.117
 4501SOL    HW114402   0.636   4.658   5.206
 4501SOL    HW214403   0.681   4.604   5.059
 4502SOL     OW14404   1.560   2.665   0.183
 4502SOL    HW114405   1.567   2.569   0.154
 4502SOL    HW214406   1.612   2.677   0.268
 4503SOL     OW14407   2.068   1.224   3.908
 4503SOL    HW114408   2.033   1.228   3.814
 4503SOL    HW214409   2.166   1.242   3.907
 4504SOL     OW14410   6.094   2.606   5.599
 4504SOL    HW114411   6.072   2.512   5.626
 4504SOL    HW214412   6.066   2.621   5.504
 4505SOL     OW14413   1.591   6.261   5.306
 4505SOL    HW114414   1.518   6.208   5.350
 4505SOL    HW214415   1.676   6.248   5.357
 4506SOL     OW14416   4.151   1.102   5.376
 4506SOL    HW114417   4.060   1.124   5.341
 4506SOL    HW214418   4.220   1.148   5.320
 4507SOL     OW14419   4.734   4.466   0.835
 4507SOL    HW114420   4.810   4.484   0.898
 4507SOL    HW214421   4.727   4.541   0.770
 4508SOL     OW14422   1.212   4.035   0.028
 4508SOL    HW114423   1.151   3.985   0.090
 4508SOL    HW214424   1.184   4.131   0.024
 4509SOL     OW14425   3.847   1.935   4.785
 4509SOL    HW114426   3.830   1.885   4.700
 4509SOL    HW214427   3.922   1.892   4.834
 4510SOL     OW14428   5.444   0.285   5.275
 4510SOL    HW114429   5.502   0.223   5.328
 4510SOL    HW214430   5.492   0.313   5.192
 4511SOL     OW14431   6.687   3.080   0.450
 4511SOL    HW114432   6.758   3.107   0.515
 4511SOL    HW214433   6.601   3.064   0.499
 4512SOL     OW14434   1.993   6.053   6.839
 4512SOL    HW114435   2.028   6.120   6.905
 4512SOL    HW214436   1.959   5.973   6.887
 4513SOL     OW14437   4.797   6.619   1.828
 4513SOL    HW114438   4.870   6.591   1.766
 4513SOL    HW214439   4.831   6.620   1.922
 4514SOL     OW14440   3.228   1.122   5.317
 4514SOL    HW114441   3.268   1.033   5.294
 4514SOL    HW214442   3.281   1.163   5.391
 4515SOL     OW14443   6.949   4.842   0.459
 4515SOL    HW114444   6.936   4.775   0.386
 4515SOL    HW214445   6.883   4.916   0.448
 4516SOL     OW14446   0.678   1.228   5.057
 4516SOL    HW114447   0.740   1.255   4.983
 4516SOL    HW214448   0.658   1.308   5.114
 4517SOL     OW14449   3.403   6.634   6.452
 4517SOL    HW114450   3.337   6.632   6.527
 4517SOL    HW214451   3.357   6.610   6.367
 4518SOL     OW14452   0.769   2.155   3.741
 4518SOL    HW114453   0.798   2.201   3.657
 4518SOL    HW214454   0.670   2.167   3.753
 4519SOL     OW14455   6.854   2.648   3.692
 4519SOL    HW114456   6.949   2.679   3.691
 4519SOL    HW214457   6.793   2.726   3.674
 4520SOL     OW14458   6.329   4.289   2.660
 4520SOL    HW114459   6.293   4.339   2.739
 4520SOL    HW214460   6.413   4.334   2.628
 4521SOL     OW14461   4.776   2.598   6.576
 4521SOL    HW114462   4.772   2.504   6.612
 4521SOL    HW214463   4.753   2.597   6.479
 4522SOL     OW14464   5.988   6.490   3.385
 4522SOL    HW114465   6.018   6.519   3.294
 4522SOL    HW214466   5.900   6.532   3.406
 4523SOL     OW14467   2.893   4.586   0.540
 4523SOL    HW114468   2.811   4.529   0.537
 4523SOL    HW214469   2.899   4.640   0.457
 4524SOL     OW14470   5.019   1.371   5.124
 4524SOL    HW114471   5.079   1.304   5.081
 4524SOL    HW214472   5.041   1.377   5.222
 4525SOL     OW14473   6.357   1.403   4.356
 4525SOL    HW114474   6.268   1.393   4.400
 4525SOL    HW214475   6.374   1.324   4.297
 4526SOL     OW14476   4.830   6.851   0.969
 4526SOL    HW114477   4.807   6.848   0.871
 4526SOL    HW214478   4.861   6.944   0.992
 4527SOL     OW14479   5.078   1.408   2.762
 4527SOL    HW114480   5.091   1.354   2.844
 4527SOL    HW214481   5.111   1.357   2.682
 4528SOL     OW14482   5.722   0.322   0.191
 4528SOL    HW114483   5.656   0.300   0.120
 4528SOL    HW214484   5.813   0.294   0.161
 4529SOL     OW14485   2.681   0.600   2.904
 4529SOL    HW114486   2.626   0.581   2.823
 4529SOL    HW214487   2.631   0.660   2.966
 4530SOL     OW14488   0.774   3.497   5.376
 4530SOL    HW114489   0.836   3.542   5.440
 4530SOL    HW214490   0.826   3.454   5.302
 4531SOL     OW14491   0.983   3.528   3.959
 4531SOL    HW114492   0.955   3.439   3.921
 4531SOL    HW214493   1.062   3.515   4.019
 4532SOL     OW14494   6.332   1.491   1.180
 4532SOL    HW114495   6.357   1.532   1.268
 4532SOL    HW214496   6.332   1.562   1.109
 4533SOL     OW14497   2.163   6.315   2.750
 4533SOL    HW114498   2.202   6.403   2.776
 4533SOL    HW214499   2.063   6.323   2.745
 4534SOL     OW14500   6.014   3.938   4.993
 4534SOL    HW114501   6.016   3.847   4.951
 4534SOL    HW214502   5.946   3.939   5.066
 4535SOL     OW14503   5.233   3.439   2.101
 4535SOL    HW114504   5.149   3.387   2.092
 4535SOL    HW214505   5.267   3.431   2.195
 4536SOL     OW14506   5.578   1.059   4.717
 4536SOL    HW114507   5.596   1.070   4.814
 4536SOL    HW214508   5.660   1.081   4.664
 4537SOL     OW14509   3.811   3.361   6.856
 4537SOL    HW114510   3.874   3.295   6.817
 4537SOL    HW214511   3.730   3.314   6.890
 4538SOL     OW14512   3.683   1.757   2.882
 4538SOL    HW114513   3.702   1.760   2.980
 4538SOL    HW214514   3.769   1.763   2.830
 4539SOL     OW14515   2.127   2.203   3.524
 4539SOL    HW114516   2.143   2.244   3.434
 4539SOL    HW214517   2.081   2.115   3.512
 4540SOL     OW14518   3.197   2.967   4.806
 4540SOL    HW114519   3.181   3.063   4.830
 4540SOL    HW214520   3.182   2.954   4.708
 4541SOL     OW14521   4.874   1.667   0.652
 4541SOL    HW114522   4.884   1.660   0.752
 4541SOL    HW214523   4.886   1.577   0.611
 4542SOL     OW14524   6.074   6.098   1.879
 4542SOL    HW114525   6.100   6.002   1.890
 4542SOL    HW214526   6.155   6.154   1.864
 4543SOL     OW14527   4.901   2.078   1.036
 4543SOL    HW114528   4.855   2.004   0.986
 4543SOL    HW214529   4.979   2.111   0.982
 4544SOL     OW14530   2.594   5.875   6.825
 4544SOL    HW114531   2.614   5.934   6.746
 4544SOL    HW214532   2.597   5.780   6.796
 4545SOL     OW14533   4.290   1.984   5.287
 4545SOL    HW114534   4.335   1.908   5.240
 4545SOL    HW214535   4.357   2.056   5.306
 4546SOL     OW14536   0.738   6.476   6.747
 4546SOL    HW114537   0.713   6.468   6.651
 4546SOL    HW214538   0.655   6.472   6.803
 4547SOL     OW14539   5.912   2.723   1.349
 4547SOL    HW114540   6.011   2.717   1.363
 4547SOL    HW214541   5.882   2.817   1.363
 4548SOL     OW14542   0.398   4.265   3.648
 4548SOL    HW114543   0.302   4.264   3.676
 4548SOL    HW214544   0.428   4.172   3.627
 4549SOL     OW14545   6.523   3.497   2.949
 4549SOL    HW114546   6.482   3.409   2.924
 4549SOL    HW214547   6.622   3.488   2.953
 4550SOL     OW14548   1.136   5.917   3.110
 4550SOL    HW114549   1.137   5.850   3.035
 4550SOL    HW214550   1.168   5.873   3.194
 4551SOL     OW14551   0.851   2.692   5.276
 4551SOL    HW114552   0.810   2.772   5.320
 4551SOL    HW214553   0.855   2.616   5.341
 4552SOL     OW14554   0.582   3.404   4.841
 4552SOL    HW114555   0.521   3.326   4.826
 4552SOL    HW214556   0.631   3.425   4.757
 4553SOL     OW14557   4.527   4.867   0.676
 4553SOL    HW114558   4.554   4.914   0.760
 4553SOL    HW214559   4.448   4.914   0.636
 4554SOL     OW14560   3.957   6.801   2.875
 4554SOL    HW114561   3.898   6.722   2.894
 4554SOL    HW214562   4.034   6.773   2.819
 4555SOL     OW14563   4.750   2.039   6.699
 4555SOL    HW114564   4.658   2.075   6.686
 4555SOL    HW214565   4.768   2.030   6.797
 4556SOL     OW14566   4.501   0.502   3.832
 4556SOL    HW114567   4.427   0.436   3.822
 4556SOL    HW214568   4.541   0.520   3.742
 4557SOL     OW14569   5.455   0.418   5.748
 4557SOL    HW114570   5.485   0.508   5.715
 4557SOL    HW214571   5.499   0.347   5.694
 4558SOL     OW14572   5.917   3.775   6.264
 4558SOL    HW114573   5.825   3.807   6.283
 4558SOL    HW214574   5.975   3.790   6.344
 4559SOL     OW14575   1.370   6.909   1.483
 4559SOL    HW114576   1.413   6.835   1.432
 4559SOL    HW214577   1.410   6.997   1.456
 4560SOL     OW14578   5.122   2.867   2.545
 4560SOL    HW114579   5.106   2.870   2.446
 4560SOL    HW214580   5.170   2.950   2.573
 4561SOL     OW14581   3.144   1.402   0.132
 4561SOL    HW114582   3.117   1.482   0.079
 4561SOL    HW214583   3.065   1.340   0.140
 4562SOL     OW14584   3.207   5.790   6.360
 4562SOL    HW114585   3.220   5.772   6.458
 4562SOL    HW214586   3.204   5.888   6.344
 4563SOL     OW14587   5.592   1.683   0.551
 4563SOL    HW114588   5.507   1.726   0.582
 4563SOL    HW214589   5.651   1.663   0.629
 4564SOL     OW14590   0.962   5.434   0.544
 4564SOL    HW114591   0.973   5.335   0.533
 4564SOL    HW214592   0.864   5.456   0.548
 4565SOL     OW14593   0.455   1.264   4.792
 4565SOL    HW114594   0.503   1.180   4.766
 4565SOL    HW214595   0.395   1.245   4.870
 4566SOL     OW14596   0.171   0.374   6.669
 4566SOL    HW114597   0.240   0.354   6.739
 4566SOL    HW214598   0.208   0.438   6.602
 4567SOL     OW14599   0.016   1.286   0.689
 4567SOL    HW114600   6.958   1.261   0.636
 4567SOL    HW214601   0.003   1.378   0.727
 4568SOL     OW14602   2.965   4.398   5.732
 4568SOL    HW114603   2.928   4.305   5.740
 4568SOL    HW214604   2.930   4.455   5.806
 4569SOL     OW14605   1.184   1.727   4.129
 4569SOL    HW114606   1.102   1.713   4.073
 4569SOL    HW214607   1.224   1.638   4.152
 4570SOL     OW14608   0.139   5.764   3.141
 4570SOL    HW114609   0.121   5.727   3.233
 4570SOL    HW214610   0.140   5.688   3.075
 4571SOL     OW14611   2.923   3.346   4.467
 4571SOL    HW114612   2.869   3.262   4.475
 4571SOL    HW214613   2.948   3.361   4.372
 4572SOL     OW14614   1.080   0.045   1.166
 4572SOL    HW114615   1.067   0.141   1.141
 4572SOL    HW214616   1.128   7.021   1.092
 4573SOL     OW14617   6.053   5.837   1.431
 4573SOL    HW114618   5.974   5.861   1.374
 4573SOL    HW214619   6.085   5.919   1.479
 4574SOL     OW14620   6.961   4.605   1.406
 4574SOL    HW114621   6.968   4.506   1.404
 4574SOL    HW214622   6.891   4.635   1.341
 4575SOL     OW14623   6.605   1.715   1.216
 4575SOL    HW114624   6.635   1.626   1.180
 4575SOL    HW214625   6.543   1.701   1.293
 4576SOL     OW14626   3.012   6.088   6.731
 4576SOL    HW114627   3.082   6.107   6.661
 4576SOL    HW214628   3.046   6.019   6.794
 4577SOL     OW14629   0.921   3.695   3.095
 4577SOL    HW114630   0.875   3.609   3.073
 4577SOL    HW214631   0.874   3.770   3.050
 4578SOL     OW14632   0.248   3.360   3.470
 4578SOL    HW114633   0.162   3.311   3.455
 4578SOL    HW214634   0.324   3.306   3.435
 4579SOL     OW14635   4.834   1.826   3.066
 4579SOL    HW114636   4.869   1.735   3.043
 4579SOL    HW214637   4.875   1.894   3.005
 4580SOL     OW14638   5.887   5.560   0.834
 4580SOL    HW114639   5.835   5.608   0.763
 4580SOL    HW214640   5.880   5.461   0.819
 4581SOL     OW14641   3.354   5.433   3.560
 4581SOL    HW114642   3.385   5.349   3.515
 4581SOL    HW214643   3.416   5.508   3.536
 4582SOL     OW14644   5.082   6.823   3.349
 4582SOL    HW114645   5.166   6.857   3.393
 4582SOL    HW214646   5.002   6.859   3.398
 4583SOL     OW14647   2.818   1.880   5.386
 4583SOL    HW114648   2.847   1.918   5.299
 4583SOL    HW214649   2.841   1.783   5.390
 4584SOL     OW14650   6.998   5.680   6.088
 4584SOL    HW114651   6.977   5.627   6.170
 4584SOL    HW214652   7.005   5.777   6.112
 4585SOL     OW14653   3.272   6.171   3.428
 4585SOL    HW114654   3.309   6.081   3.405
 4585SOL    HW214655   3.318   6.241   3.373
 4586SOL     OW14656   3.461   5.790   2.011
 4586SOL    HW114657   3.426   5.720   1.948
 4586SOL    HW214658   3.534   5.751   2.067
 4587SOL     OW14659   3.659   3.209   1.259
 4587SOL    HW114660   3.661   3.211   1.159
 4587SOL    HW214661   3.630   3.298   1.293
 4588SOL     OW14662   4.084   3.753   4.901
 4588SOL    HW114663   4.089   3.740   4.802
 4588SOL    HW214664   4.167   3.718   4.944
 4589SOL     OW14665   6.006   2.252   3.033
 4589SOL    HW114666   5.981   2.340   2.990
 4589SOL    HW214667   6.030   2.187   2.961
 4590SOL     OW14668   4.258   5.290   2.504
 4590SOL    HW114669   4.290   5.357   2.437
 4590SOL    HW214670   4.305   5.305   2.591
 4591SOL     OW14671   6.254   5.470   5.437
 4591SOL    HW114672   6.334   5.494   5.491
 4591SOL    HW214673   6.174   5.461   5.496
 4592SOL     OW14674   4.232   2.668   0.502
 4592SOL    HW114675   4.149   2.691   0.450
 4592SOL    HW214676   4.252   2.571   0.490
 4593SOL     OW14677   3.919   5.918   2.663
 4593SOL    HW114678   4.011   5.888   2.685
 4593SOL    HW214679   3.909   6.015   2.688
 4594SOL     OW14680   3.073   1.426   1.603
 4594SOL    HW114681   2.976   1.452   1.609
 4594SOL    HW214682   3.107   1.404   1.694
 4595SOL     OW14683   3.526   3.098   6.293
 4595SOL    HW114684   3.478   3.183   6.316
 4595SOL    HW214685   3.570   3.107   6.204
 4596SOL     OW14686   5.733   6.357   2.543
 4596SOL    HW114687   5.824   6.396   2.526
 4596SOL    HW214688   5.728   6.266   2.501
 4597SOL     OW14689   5.363   4.467   6.023
 4597SOL    HW114690   5.437   4.527   6.054
 4597SOL    HW214691   5.311   4.435   6.103
 4598SOL     OW14692   2.016   5.462   6.844
 4598SOL    HW114693   1.971   5.415   6.768
 4598SOL    HW214694   1.984   5.424   6.930
 4599SOL     OW14695   1.512   4.576   1.277
 4599SOL    HW114696   1.553   4.599   1.189
 4599SOL    HW214697   1.427   4.628   1.290
 4600SOL     OW14698   3.215   5.827   0.434
 4600SOL    HW114699   3.125   5.798   0.404
 4600SOL    HW214700   3.266   5.749   0.469
 4601SOL     OW14701   2.226   1.236   4.793
 4601SOL    HW114702   2.280   1.262   4.713
 4601SOL    HW214703   2.279   1.254   4.876
 4602SOL     OW14704   1.834   0.033   1.463
 4602SOL    HW114705   1.787   6.992   1.404
 4602SOL    HW214706   1.923   0.057   1.423
 4603SOL     OW14707   3.163   6.995   1.847
 4603SOL    HW114708   3.188   6.956   1.759
 4603SOL    HW214709   3.199   6.937   1.920
 4604SOL     OW14710   3.806   0.310   2.459
 4604SOL    HW114711   3.895   0.326   2.416
 4604SOL    HW214712   3.799   0.363   2.544
 4605SOL     OW14713   4.765   0.959   4.653
 4605SOL    HW114714   4.705   0.880   4.665
 4605SOL    HW214715   4.804   0.984   4.742
 4606SOL     OW14716   6.314   6.567   4.782
 4606SOL    HW114717   6.398   6.574   4.728
 4606SOL    HW214718   6.239   6.535   4.723
 4607SOL     OW14719   3.058   1.639   1.398
 4607SOL    HW114720   3.149   1.613   1.431
 4607SOL    HW214721   2.994   1.644   1.474
 4608SOL     OW14722   1.197   5.321   4.866
 4608SOL    HW114723   1.287   5.281   4.854
 4608SOL    HW214724   1.204   5.403   4.923
 4609SOL     OW14725   4.501   5.942   0.266
 4609SOL    HW114726   4.552   5.901   0.342
 4609SOL    HW214727   4.563   5.993   0.207
 4610SOL     OW14728   0.525   2.559   0.178
 4610SOL    HW114729   0.482   2.640   0.219
 4610SOL    HW214730   0.494   2.549   0.084
 4611SOL     OW14731   0.367   3.638   6.809
 4611SOL    HW114732   0.392   3.592   6.895
 4611SOL    HW214733   0.290   3.699   6.825
 4612SOL     OW14734   1.881   6.252   6.207
 4612SOL    HW114735   1.886   6.193   6.287
 4612SOL    HW214736   1.841   6.340   6.233
 4613SOL     OW14737   3.104   5.593   2.478
 4613SOL    HW114738   3.031   5.546   2.428
 4613SOL    HW214739   3.158   5.526   2.529
 4614SOL     OW14740   2.187   5.524   0.289
 4614SOL    HW114741   2.131   5.510   0.207
 4614SOL    HW214742   2.282   5.538   0.261
 4615SOL     OW14743   1.451   2.136   0.122
 4615SOL    HW114744   1.363   2.103   0.090
 4615SOL    HW214745   1.512   2.148   0.044
 4616SOL     OW14746   6.059   0.068   6.842
 4616SOL    HW114747   6.085   0.006   6.916
 4616SOL    HW214748   6.007   0.018   6.773
 4617SOL     OW14749   0.684   2.712   2.538
 4617SOL    HW114750   0.761   2.685   2.596
 4617SOL    HW214751   0.668   2.641   2.469
 4618SOL     OW14752   0.840   2.762   5.735
 4618SOL    HW114753   0.920   2.810   5.699
 4618SOL    HW214754   0.764   2.771   5.671
 4619SOL     OW14755   4.879   1.172   3.967
 4619SOL    HW114756   4.848   1.137   3.878
 4619SOL    HW214757   4.893   1.095   4.030
 4620SOL     OW14758   3.166   4.464   0.251
 4620SOL    HW114759   3.122   4.380   0.283
 4620SOL    HW214760   3.206   4.448   0.161
 4621SOL     OW14761   6.659   1.155   4.868
 4621SOL    HW114762   6.618   1.064   4.879
 4621SOL    HW214763   6.695   1.186   4.956
 4622SOL     OW14764   2.097   3.356   0.571
 4622SOL    HW114765   2.173   3.420   0.586
 4622SOL    HW214766   2.043   3.348   0.655
 4623SOL     OW14767   0.143   4.840   0.816
 4623SOL    HW114768   0.172   4.854   0.721
 4623SOL    HW214769   0.090   4.919   0.846
 4624SOL     OW14770   4.582   1.178   3.878
 4624SOL    HW114771   4.590   1.110   3.951
 4624SOL    HW214772   4.501   1.235   3.895
 4625SOL     OW14773   0.888   3.917   6.931
 4625SOL    HW114774   0.878   4.013   6.905
 4625SOL    HW214775   0.937   3.868   6.858
 4626SOL     OW14776   6.475   4.959   1.646
 4626SOL    HW114777   6.485   4.885   1.713
 4626SOL    HW214778   6.545   5.028   1.662
 4627SOL     OW14779   3.695   5.530   5.231
 4627SOL    HW114780   3.785   5.520   5.189
 4627SOL    HW214781   3.692   5.479   5.317
 4628SOL     OW14782   6.460   4.666   2.354
 4628SOL    HW114783   6.409   4.583   2.374
 4628SOL    HW214784   6.427   4.741   2.412
 4629SOL     OW14785   2.133   5.459   5.477
 4629SOL    HW114786   2.117   5.448   5.575
 4629SOL    HW214787   2.216   5.411   5.450
 4630SOL     OW14788   2.567   5.640   3.456
 4630SOL    HW114789   2.561   5.721   3.398
 4630SOL    HW214790   2.479   5.625   3.502
 4631SOL     OW14791   2.678   6.473   3.486
 4631SOL    HW114792   2.745   6.401   3.470
 4631SOL    HW214793   2.602   6.436   3.539
 4632SOL     OW14794   4.700   5.304   4.467
 4632SOL    HW114795   4.603   5.283   4.480
 4632SOL    HW214796   4.746   5.304   4.555
 4633SOL     OW14797   6.243   1.929   5.000
 4633SOL    HW114798   6.302   1.857   4.963
 4633SOL    HW214799   6.232   1.916   5.098
 4634SOL     OW14800   2.672   4.423   0.594
 4634SOL    HW114801   2.636   4.346   0.541
 4634SOL    HW214802   2.714   4.389   0.678
 4635SOL     OW14803   5.146   3.292   2.377
 4635SOL    HW114804   5.168   3.209   2.326
 4635SOL    HW214805   5.069   3.273   2.439
 4636SOL     OW14806   2.736   5.258   0.751
 4636SOL    HW114807   2.654   5.206   0.727
 4636SOL    HW214808   2.763   5.235   0.845
 4637SOL     OW14809   1.003   0.402   6.110
 4637SOL    HW114810   1.019   0.487   6.060
 4637SOL    HW214811   1.008   0.325   6.047
 4638SOL     OW14812   3.830   3.436   5.832
 4638SOL    HW114813   3.774   3.450   5.750
 4638SOL    HW214814   3.807   3.348   5.874
 4639SOL     OW14815   0.555   4.321   5.650
 4639SOL    HW114816   0.611   4.255   5.699
 4639SOL    HW214817   0.518   4.278   5.567
 4640SOL     OW14818   5.364   4.435   3.487
 4640SOL    HW114819   5.404   4.441   3.395
 4640SOL    HW214820   5.274   4.478   3.487
 4641SOL     OW14821   2.640   4.719   4.429
 4641SOL    HW114822   2.606   4.626   4.444
 4641SOL    HW214823   2.654   4.734   4.332
 4642SOL     OW14824   5.998   5.508   4.274
 4642SOL    HW114825   5.927   5.439   4.282
 4642SOL    HW214826   5.989   5.555   4.185
 4643SOL     OW14827   4.028   2.054   1.669
 4643SOL    HW114828   4.037   2.113   1.750
 4643SOL    HW214829   3.960   2.094   1.607
 4644SOL     OW14830   1.393   6.558   4.618
 4644SOL    HW114831   1.335   6.634   4.587
 4644SOL    HW214832   1.335   6.478   4.638
 4645SOL     OW14833   2.206   6.485   4.240
 4645SOL    HW114834   2.145   6.563   4.257
 4645SOL    HW214835   2.299   6.510   4.264
 4646SOL     OW14836   2.921   0.301   2.146
 4646SOL    HW114837   2.852   0.325   2.077
 4646SOL    HW214838   2.988   0.238   2.105
 4647SOL     OW14839   0.475   0.107   3.743
 4647SOL    HW114840   0.438   0.014   3.739
 4647SOL    HW214841   0.421   0.166   3.684
 4648SOL     OW14842   2.576   6.371   2.647
 4648SOL    HW114843   2.559   6.443   2.714
 4648SOL    HW214844   2.669   6.381   2.611
 4649SOL     OW14845   5.400   0.869   5.863
 4649SOL    HW114846   5.309   0.849   5.828
 4649SOL    HW214847   5.404   0.964   5.894
 4650SOL     OW14848   4.453   6.120   2.904
 4650SOL    HW114849   4.355   6.134   2.916
 4650SOL    HW214850   4.484   6.170   2.822
 4651SOL     OW14851   6.962   2.109   1.855
 4651SOL    HW114852   7.022   2.136   1.779
 4651SOL    HW214853   6.872   2.151   1.844
 4652SOL     OW14854   6.851   0.584   4.455
 4652SOL    HW114855   6.922   0.599   4.386
 4652SOL    HW214856   6.856   0.656   4.524
 4653SOL     OW14857   6.825   6.631   0.039
 4653SOL    HW114858   6.863   6.722   0.052
 4653SOL    HW214859   6.731   6.628   0.074
 4654SOL     OW14860   0.727   6.943   0.662
 4654SOL    HW114861   0.801   6.913   0.722
 4654SOL    HW214862   0.680   6.863   0.624
 4655SOL     OW14863   0.249   4.212   2.680
 4655SOL    HW114864   0.264   4.259   2.767
 4655SOL    HW214865   0.293   4.122   2.683
 4656SOL     OW14866   0.997   0.788   2.976
 4656SOL    HW114867   1.049   0.859   3.024
 4656SOL    HW214868   1.051   0.754   2.899
 4657SOL     OW14869   5.039   6.441   1.650
 4657SOL    HW114870   5.070   6.352   1.616
 4657SOL    HW214871   5.084   6.513   1.598
 4658SOL     OW14872   4.193   0.251   3.162
 4658SOL    HW114873   4.129   0.194   3.110
 4658SOL    HW214874   4.275   0.199   3.184
 4659SOL     OW14875   1.751   2.726   5.169
 4659SOL    HW114876   1.706   2.716   5.080
 4659SOL    HW214877   1.755   2.822   5.194
 4660SOL     OW14878   0.209   1.477   5.530
 4660SOL    HW114879   0.207   1.481   5.430
 4660SOL    HW214880   0.231   1.384   5.559
 4661SOL     OW14881   3.420   4.149   4.262
 4661SOL    HW114882   3.342   4.141   4.199
 4661SOL    HW214883   3.410   4.081   4.334
 4662SOL     OW14884   5.026   0.579   5.446
 4662SOL    HW114885   4.954   0.549   5.508
 4662SOL    HW214886   5.103   0.516   5.451
 4663SOL     OW14887   6.790   2.024   2.172
 4663SOL    HW114888   6.761   2.052   2.264
 4663SOL    HW214889   6.817   2.105   2.120
 4664SOL     OW14890   2.631   2.636   6.584
 4664SOL    HW114891   2.553   2.644   6.522
 4664SOL    HW214892   2.672   2.726   6.598
 4665SOL     OW14893   5.015   0.268   6.568
 4665SOL    HW114894   4.995   0.196   6.634
 4665SOL    HW214895   5.052   0.347   6.615
 4666SOL     OW14896   1.971   2.104   6.994
 4666SOL    HW114897   2.009   2.168   6.927
 4666SOL    HW214898   2.035   2.091   0.045
 4667SOL     OW14899   0.031   4.918   6.719
 4667SOL    HW114900   0.039   4.832   6.770
 4667SOL    HW214901   6.959   4.933   6.695
 4668SOL     OW14902   6.426   1.333   4.770
 4668SOL    HW114903   6.338   1.373   4.795
 4668SOL    HW214904   6.489   1.340   4.848
 4669SOL     OW14905   1.701   6.251   0.233
 4669SOL    HW114906   1.626   6.202   0.188
 4669SOL    HW214907   1.687   6.349   0.223
 4670SOL     OW14908   2.208   1.666   5.103
 4670SOL    HW114909   2.154   1.740   5.063
 4670SOL    HW214910   2.219   1.682   5.201
 4671SOL     OW14911   6.124   3.099   1.848
 4671SOL    HW114912   6.039   3.146   1.872
 4671SOL    HW214913   6.103   3.025   1.784
 4672SOL     OW14914   1.621   4.087   6.380
 4672SOL    HW114915   1.709   4.047   6.403
 4672SOL    HW214916   1.590   4.053   6.291
 4673SOL     OW14917   3.290   0.463   2.441
 4673SOL    HW114918   3.212   0.513   2.404
 4673SOL    HW214919   3.282   0.456   2.540
 4674SOL     OW14920   4.951   5.400   5.456
 4674SOL    HW114921   4.925   5.495   5.437
 4674SOL    HW214922   4.944   5.347   5.372
 4675SOL     OW14923   1.151   4.019   1.028
 4675SOL    HW114924   1.217   3.997   1.100
 4675SOL    HW214925   1.068   3.965   1.042
 4676SOL     OW14926   1.716   5.813   3.319
 4676SOL    HW114927   1.634   5.757   3.325
 4676SOL    HW214928   1.708   5.892   3.381
 4677SOL     OW14929   1.756   2.432   0.602
 4677SOL    HW114930   1.749   2.523   0.642
 4677SOL    HW214931   1.848   2.396   0.618
 4678SOL     OW14932   1.693   4.481   2.835
 4678SOL    HW114933   1.615   4.543   2.828
 4678SOL    HW214934   1.683   4.423   2.916
 4679SOL     OW14935   5.457   6.267   1.704
 4679SOL    HW114936   5.475   6.343   1.643
 4679SOL    HW214937   5.361   6.269   1.733
 4680SOL     OW14938   2.804   1.622   1.583
 4680SOL    HW114939   2.788   1.660   1.674
 4680SOL    HW214940   2.770   1.686   1.514
 4681SOL     OW14941   5.362   4.234   0.198
 4681SOL    HW114942   5.401   4.164   0.258
 4681SOL    HW214943   5.404   4.323   0.218
 4682SOL     OW14944   4.680   3.404   6.431
 4682SOL    HW114945   4.701   3.329   6.494
 4682SOL    HW214946   4.722   3.489   6.464
 4683SOL     OW14947   5.633   4.283   3.891
 4683SOL    HW114948   5.600   4.350   3.825
 4683SOL    HW214949   5.561   4.216   3.909
 4684SOL     OW14950   4.214   6.343   0.262
 4684SOL    HW114951   4.296   6.299   0.298
 4684SOL    HW214952   4.134   6.308   0.311
 4685SOL     OW14953   2.462   3.676   6.164
 4685SOL    HW114954   2.422   3.590   6.134
 4685SOL    HW214955   2.404   3.718   6.233
 4686SOL     OW14956   3.624   6.438   1.188
 4686SOL    HW114957   3.526   6.426   1.207
 4686SOL    HW214958   3.647   6.393   1.101
 4687SOL     OW14959   3.001   1.592   3.364
 4687SOL    HW114960   2.991   1.676   3.419
 4687SOL    HW214961   3.097   1.567   3.360
 4688SOL     OW14962   5.371   2.389   6.005
 4688SOL    HW114963   5.378   2.354   6.098
 4688SOL    HW214964   5.274   2.401   5.981
 4689SOL     OW14965   5.510   0.844   0.778
 4689SOL    HW114966   5.451   0.890   0.845
 4689SOL    HW214967   5.497   0.745   0.785
 4690SOL     OW14968   2.349   1.559   0.736
 4690SOL    HW114969   2.254   1.535   0.714
 4690SOL    HW214970   2.380   1.632   0.676
 4691SOL     OW14971   5.273   4.259   6.975
 4691SOL    HW114972   5.309   4.188   6.914
 4691SOL    HW214973   5.307   4.244   0.044
 4692SOL     OW14974   6.566   4.430   3.163
 4692SOL    HW114975   6.577   4.374   3.245
 4692SOL    HW214976   6.510   4.380   3.096
 4693SOL     OW14977   1.505   0.911   3.604
 4693SOL    HW114978   1.436   0.840   3.622
 4693SOL    HW214979   1.459   1.000   3.597
 4694SOL     OW14980   2.516   1.047   0.648
 4694SOL    HW114981   2.586   1.041   0.720
 4694SOL    HW214982   2.552   1.010   0.563
 4695SOL     OW14983   1.407   5.634   0.954
 4695SOL    HW114984   1.491   5.682   0.977
 4695SOL    HW214985   1.335   5.700   0.931
 4696SOL     OW14986   1.179   5.373   5.948
 4696SOL    HW114987   1.241   5.418   6.013
 4696SOL    HW214988   1.197   5.275   5.948
 4697SOL     OW14989   1.779   3.882   1.275
 4697SOL    HW114990   1.812   3.808   1.216
 4697SOL    HW214991   1.716   3.844   1.343
 4698SOL     OW14992   4.561   0.411   3.243
 4698SOL    HW114993   4.629   0.363   3.299
 4698SOL    HW214994   4.530   0.493   3.291
 4699SOL     OW14995   0.376   0.535   2.218
 4699SOL    HW114996   0.363   0.476   2.298
 4699SOL    HW214997   0.294   0.534   2.162
 4700SOL     OW14998   6.308   1.980   2.771
 4700SOL    HW114999   6.292   2.027   2.858
 4700SOL    HW215000   6.399   2.004   2.737
 4701SOL     OW15001   3.467   1.917   2.121
 4701SOL    HW115002   3.467   1.845   2.052
 4701SOL    HW215003   3.381   1.968   2.117
 4702SOL     OW15004   4.944   5.095   6.972
 4702SOL    HW115005   4.891   5.126   6.894
 4702SOL    HW215006   5.037   5.074   6.943
 4703SOL     OW15007   1.072   4.786   2.520
 4703SOL    HW115008   1.164   4.770   2.484
 4703SOL    HW215009   1.006   4.787   2.446
 4704SOL     OW15010   7.009   5.933   6.002
 4704SOL    HW115011   0.069   5.889   5.969
 4704SOL    HW215012   6.951   5.957   5.924
 4705SOL     OW15013   3.063   2.458   1.077
 4705SOL    HW115014   3.129   2.403   1.128
 4705SOL    HW215015   3.032   2.535   1.133
 4706SOL     OW15016   1.096   0.472   0.794
 4706SOL    HW115017   1.044   0.387   0.789
 4706SOL    HW215018   1.183   0.460   0.746
 4707SOL     OW15019   1.724   6.411   1.029
 4707SOL    HW115020   1.714   6.432   1.126
 4707SOL    HW215021   1.684   6.485   0.974
 4708SOL     OW15022   1.454   2.263   4.481
 4708SOL    HW115023   1.495   2.173   4.490
 4708SOL    HW215024   1.514   2.331   4.524
 4709SOL     OW15025   5.085   4.785   4.807
 4709SOL    HW115026   5.167   4.792   4.864
 4709SOL    HW215027   5.036   4.701   4.829
 4710SOL     OW15028   5.261   6.659   4.568
 4710SOL    HW115029   5.357   6.666   4.544
 4710SOL    HW215030   5.225   6.750   4.588
 4711SOL     OW15031   6.136   3.011   3.380
 4711SOL    HW115032   6.156   2.919   3.412
 4711SOL    HW215033   6.056   3.009   3.319
 4712SOL     OW15034   4.308   4.494   5.588
 4712SOL    HW115035   4.381   4.499   5.655
 4712SOL    HW215036   4.234   4.436   5.622
 4713SOL     OW15037   5.515   4.140   0.969
 4713SOL    HW115038   5.437   4.155   0.908
 4713SOL    HW215039   5.483   4.140   1.064
 4714SOL     OW15040   6.258   1.603   6.301
 4714SOL    HW115041   6.278   1.533   6.233
 4714SOL    HW215042   6.208   1.563   6.378
 4715SOL     OW15043   6.290   1.728   2.228
 4715SOL    HW115044   6.330   1.727   2.137
 4715SOL    HW215045   6.200   1.771   2.225
 4716SOL     OW15046   3.859   5.572   5.559
 4716SOL    HW115047   3.907   5.589   5.646
 4716SOL    HW215048   3.858   5.657   5.506
 4717SOL     OW15049   2.740   5.441   5.612
 4717SOL    HW115050   2.823   5.419   5.560
 4717SOL    HW215051   2.686   5.358   5.625
 4718SOL     OW15052   5.410   2.888   0.739
 4718SOL    HW115053   5.466   2.854   0.815
 4718SOL    HW215054   5.431   2.984   0.723
 4719SOL     OW15055   6.197   3.128   3.119
 4719SOL    HW115056   6.191   3.038   3.077
 4719SOL    HW215057   6.160   3.124   3.212
 4720SOL     OW15058   3.154   5.181   0.706
 4720SOL    HW115059   3.240   5.232   0.714
 4720SOL    HW215060   3.123   5.154   0.798
 4721SOL     OW15061   6.373   3.567   1.857
 4721SOL    HW115062   6.454   3.557   1.800
 4721SOL    HW215063   6.398   3.611   1.944
 4722SOL     OW15064   1.067   4.509   6.764
 4722SOL    HW115065   1.068   4.410   6.769
 4722SOL    HW215066   0.986   4.539   6.713
 4723SOL     OW15067   3.917   4.701   5.705
 4723SOL    HW115068   3.850   4.658   5.765
 4723SOL    HW215069   3.959   4.779   5.752
 4724SOL     OW15070   6.976   6.464   4.185
 4724SOL    HW115071   0.044   6.492   4.155
 4724SOL    HW215072   6.974   6.365   4.199
 4725SOL     OW15073   5.330   5.210   0.815
 4725SOL    HW115074   5.309   5.271   0.891
 4725SOL    HW215075   5.278   5.125   0.824
 4726SOL     OW15076   2.314   2.959   6.244
 4726SOL    HW115077   2.328   2.930   6.149
 4726SOL    HW215078   2.380   3.031   6.266
 4727SOL     OW15079   0.653   5.501   0.936
 4727SOL    HW115080   0.717   5.572   0.907
 4727SOL    HW215081   0.703   5.415   0.953
 4728SOL     OW15082   6.369   1.031   2.807
 4728SOL    HW115083   6.271   1.050   2.813
 4728SOL    HW215084   6.385   0.933   2.819
 4729SOL     OW15085   5.832   0.415   6.875
 4729SOL    HW115086   5.799   0.399   6.782
 4729SOL    HW215087   5.760   0.394   6.940
 4730SOL     OW15088   3.536   6.848   4.768
 4730SOL    HW115089   3.496   6.760   4.793
 4730SOL    HW215090   3.594   6.837   4.687
 4731SOL     OW15091   3.053   0.262   0.917
 4731SOL    HW115092   3.009   0.266   1.007
 4731SOL    HW215093   2.992   0.303   0.849
 4732SOL     OW15094   0.510   4.148   4.892
 4732SOL    HW115095   0.423   4.186   4.925
 4732SOL    HW215096   0.494   4.099   4.807
 4733SOL     OW15097   2.104   3.804   3.078
 4733SOL    HW115098   2.141   3.711   3.070
 4733SOL    HW215099   2.170   3.869   3.040
 4734SOL     OW15100   5.388   3.904   5.686
 4734SOL    HW115101   5.369   3.808   5.705
 4734SOL    HW215102   5.335   3.962   5.748
 4735SOL     OW15103   0.163   6.351   4.438
 4735SOL    HW115104   0.096   6.278   4.442
 4735SOL    HW215105   0.164   6.401   4.525
 4736SOL     OW15106   6.643   1.864   3.473
 4736SOL    HW115107   6.584   1.935   3.511
 4736SOL    HW215108   6.714   1.907   3.417
 4737SOL     OW15109   1.826   5.225   1.275
 4737SOL    HW115110   1.771   5.294   1.320
 4737SOL    HW215111   1.921   5.233   1.306
 4738SOL     OW15112   2.572   0.529   3.901
 4738SOL    HW115113   2.595   0.554   3.996
 4738SOL    HW215114   2.498   0.588   3.869
 4739SOL     OW15115   5.839   3.021   4.854
 4739SOL    HW115116   5.849   3.085   4.929
 4739SOL    HW215117   5.899   2.942   4.868
 4740SOL     OW15118   0.669   1.346   1.726
 4740SOL    HW115119   0.609   1.359   1.805
 4740SOL    HW215120   0.648   1.258   1.683
 4741SOL     OW15121   3.919   4.513   1.021
 4741SOL    HW115122   3.962   4.434   1.066
 4741SOL    HW215123   3.888   4.578   1.091
 4742SOL     OW15124   2.714   5.896   1.451
 4742SOL    HW115125   2.788   5.918   1.514
 4742SOL    HW215126   2.646   5.969   1.452
 4743SOL     OW15127   2.579   1.457   5.872
 4743SOL    HW115128   2.532   1.510   5.802
 4743SOL    HW215129   2.667   1.426   5.836
 4744SOL     OW15130   1.723   3.676   5.420
 4744SOL    HW115131   1.719   3.646   5.516
 4744SOL    HW215132   1.805   3.638   5.377
 4745SOL     OW15133   2.967   5.363   5.483
 4745SOL    HW115134   2.953   5.356   5.385
 4745SOL    HW215135   3.064   5.380   5.502
 4746SOL     OW15136   6.250   5.608   0.226
 4746SOL    HW115137   6.334   5.582   0.274
 4746SOL    HW215138   6.266   5.605   0.127
 4747SOL     OW15139   0.059   2.367   0.027
 4747SOL    HW115140   0.120   2.294   0.056
 4747SOL    HW215141   0.047   2.363   6.951
 4748SOL     OW15142   1.006   0.903   1.327
 4748SOL    HW115143   1.034   0.901   1.423
 4748SOL    HW215144   0.987   0.809   1.296
 4749SOL     OW15145   1.898   6.103   0.107
 4749SOL    HW115146   1.958   6.170   0.064
 4749SOL    HW215147   1.822   6.151   0.151
 4750SOL     OW15148   0.258   1.548   4.093
 4750SOL    HW115149   0.205   1.505   4.020
 4750SOL    HW215150   0.277   1.643   4.070
 4751SOL     OW15151   1.364   4.385   6.862
 4751SOL    HW115152   1.336   4.424   6.950
 4751SOL    HW215153   1.286   4.340   6.819
 4752SOL     OW15154   2.277   6.110   1.316
 4752SOL    HW115155   2.214   6.177   1.356
 4752SOL    HW215156   2.314   6.052   1.388
 4753SOL     OW15157   5.616   0.068   5.368
 4753SOL    HW115158   5.671   0.038   5.290
 4753SOL    HW215159   5.573   7.013   5.411
 4754SOL     OW15160   6.890   6.902   6.593
 4754SOL    HW115161   6.965   6.960   6.624
 4754SOL    HW215162   6.925   6.812   6.568
 4755SOL     OW15163   2.683   1.353   6.219
 4755SOL    HW115164   2.681   1.395   6.129
 4755SOL    HW215165   2.656   1.420   6.288
 4756SOL     OW15166   4.755   2.506   1.681
 4756SOL    HW115167   4.741   2.576   1.611
 4756SOL    HW215168   4.769   2.551   1.770
 4757SOL     OW15169   2.482   2.589   2.093
 4757SOL    HW115170   2.512   2.497   2.067
 4757SOL    HW215171   2.400   2.582   2.149
 4758SOL     OW15172   4.426   5.113   5.774
 4758SOL    HW115173   4.421   5.198   5.721
 4758SOL    HW215174   4.405   5.035   5.715
 4759SOL     OW15175   5.521   5.752   5.050
 4759SOL    HW115176   5.557   5.843   5.027
 4759SOL    HW215177   5.430   5.742   5.011
 4760SOL     OW15178   1.637   1.135   1.374
 4760SOL    HW115179   1.714   1.193   1.347
 4760SOL    HW215180   1.599   1.168   1.461
 4761SOL     OW15181   6.905   0.390   6.870
 4761SOL    HW115182   6.947   0.349   6.951
 4761SOL    HW215183   6.963   0.465   6.837
 4762SOL     OW15184   2.292   4.660   2.045
 4762SOL    HW115185   2.369   4.598   2.063
 4762SOL    HW215186   2.328   4.748   2.014
 4763SOL     OW15187   6.162   5.910   2.840
 4763SOL    HW115188   6.234   5.976   2.821
 4763SOL    HW215189   6.171   5.876   2.934
 4764SOL     OW15190   4.546   3.729   5.362
 4764SOL    HW115191   4.548   3.660   5.290
 4764SOL    HW215192   4.620   3.712   5.427
 4765SOL     OW15193   5.075   5.964   5.289
 4765SOL    HW115194   5.045   5.998   5.199
 4765SOL    HW215195   5.039   6.025   5.360
 4766SOL     OW15196   2.817   1.009   3.217
 4766SOL    HW115197   2.807   0.910   3.219
 4766SOL    HW215198   2.803   1.042   3.123
 4767SOL     OW15199   4.097   6.846   0.881
 4767SOL    HW115200   4.076   6.944   0.882
 4767SOL    HW215201   4.075   6.808   0.791
 4768SOL     OW15202   4.951   1.290   4.772
 4768SOL    HW115203   5.010   1.283   4.853
 4768SOL    HW215204   4.955   1.204   4.721
 4769SOL     OW15205   3.713   5.644   1.532
 4769SOL    HW115206   3.763   5.705   1.594
 4769SOL    HW215207   3.763   5.558   1.523
 4770SOL     OW15208   2.100   0.627   3.005
 4770SOL    HW115209   2.179   0.579   3.043
 4770SOL    HW215210   2.032   0.642   3.076
 4771SOL     OW15211   3.258   4.842   6.495
 4771SOL    HW115212   3.256   4.928   6.546
 4771SOL    HW215213   3.169   4.797   6.501
 4772SOL     OW15214   2.625   0.360   1.282
 4772SOL    HW115215   2.593   0.292   1.217
 4772SOL    HW215216   2.601   0.452   1.249
 4773SOL     OW15217   0.285   5.897   4.184
 4773SOL    HW115218   0.245   5.805   4.189
 4773SOL    HW215219   0.216   5.965   4.210
 4774SOL     OW15220   0.699   3.288   2.543
 4774SOL    HW115221   0.610   3.249   2.520
 4774SOL    HW215222   0.772   3.227   2.511
 4775SOL     OW15223   4.679   0.415   2.712
 4775SOL    HW115224   4.752   0.349   2.696
 4775SOL    HW215225   4.654   0.413   2.809
 4776SOL     OW15226   2.893   5.994   2.318
 4776SOL    HW115227   2.795   5.973   2.329
 4776SOL    HW215228   2.936   5.996   2.408
 4777SOL     OW15229   2.788   4.290   0.880
 4777SOL    HW115230   2.747   4.198   0.884
 4777SOL    HW215231   2.793   4.328   0.972
 4778SOL     OW15232   4.867   3.554   1.834
 4778SOL    HW115233   4.922   3.556   1.751
 4778SOL    HW215234   4.791   3.489   1.821
 4779SOL     OW15235   6.701   0.132   3.145
 4779SOL    HW115236   6.660   0.191   3.215
 4779SOL    HW215237   6.628   0.092   3.090
 4780SOL     OW15238   0.657   0.607   6.132
 4780SOL    HW115239   0.600   0.688   6.120
 4780SOL    HW215240   0.713   0.594   6.050
 4781SOL     OW15241   2.415   5.657   1.249
 4781SOL    HW115242   2.325   5.697   1.263
 4781SOL    HW215243   2.485   5.723   1.276
 4782SOL     OW15244   5.594   0.814   6.358
 4782SOL    HW115245   5.518   0.755   6.390
 4782SOL    HW215246   5.574   0.847   6.266
 4783SOL     OW15247   4.739   4.218   0.679
 4783SOL    HW115248   4.718   4.157   0.755
 4783SOL    HW215249   4.774   4.304   0.714
 4784SOL     OW15250   5.905   4.621   5.316
 4784SOL    HW115251   5.843   4.595   5.242
 4784SOL    HW215252   5.957   4.702   5.289
 4785SOL     OW15253   6.526   6.591   1.027
 4785SOL    HW115254   6.565   6.595   1.118
 4785SOL    HW215255   6.594   6.558   0.962
 4786SOL     OW15256   2.019   2.814   2.388
 4786SOL    HW115257   2.069   2.863   2.316
 4786SOL    HW215258   1.977   2.881   2.449
 4787SOL     OW15259   3.026   2.254   3.863
 4787SOL    HW115260   3.082   2.201   3.800
 4787SOL    HW215261   3.025   2.209   3.953
 4788SOL     OW15262   1.583   5.679   5.796
 4788SOL    HW115263   1.591   5.617   5.719
 4788SOL    HW215264   1.639   5.760   5.780
 4789SOL     OW15265   5.567   0.386   7.017
 4789SOL    HW115266   5.477   0.359   0.026
 4789SOL    HW215267   5.559   0.416   6.921
 4790SOL     OW15268   5.413   2.031   6.408
 4790SOL    HW115269   5.431   2.129   6.412
 4790SOL    HW215270   5.319   2.014   6.439
 4791SOL     OW15271   5.634   6.859   2.221
 4791SOL    HW115272   5.602   6.933   2.280
 4791SOL    HW215273   5.565   6.841   2.150
 4792SOL     OW15274   2.210   2.869   2.945
 4792SOL    HW115275   2.265   2.833   3.020
 4792SOL    HW215276   2.158   2.795   2.902
 4793SOL     OW15277   1.257   0.219   5.655
 4793SOL    HW115278   1.299   0.304   5.687
 4793SOL    HW215279   1.208   0.175   5.729
 4794SOL     OW15280   3.258   6.540   2.756
 4794SOL    HW115281   3.287   6.548   2.852
 4794SOL    HW215282   3.333   6.568   2.697
 4795SOL     OW15283   6.347   2.818   4.833
 4795SOL    HW115284   6.437   2.783   4.859
 4795SOL    HW215285   6.321   2.781   4.744
 4796SOL     OW15286   5.163   3.105   0.143
 4796SOL    HW115287   5.079   3.052   0.140
 4796SOL    HW215288   5.214   3.092   0.058
 4797SOL     OW15289   1.206   5.116   5.961
 4797SOL    HW115290   1.230   5.132   6.057
 4797SOL    HW215291   1.289   5.099   5.908
 4798SOL     OW15292   0.388   4.318   4.534
 4798SOL    HW115293   0.382   4.377   4.453
 4798SOL    HW215294   0.399   4.375   4.616
 4799SOL     OW15295   5.595   1.289   5.051
 4799SOL    HW115296   5.507   1.325   5.018
 4799SOL    HW215297   5.659   1.364   5.063
 4800SOL     OW15298   2.836   2.748   5.940
 4800SOL    HW115299   2.930   2.777   5.959
 4800SOL    HW215300   2.773   2.806   5.992
 4801SOL     OW15301   1.862   1.953   0.320
 4801SOL    HW115302   1.769   1.989   0.324
 4801SOL    HW215303   1.881   1.898   0.401
 4802SOL     OW15304   2.304   6.573   1.913
 4802SOL    HW115305   2.257   6.658   1.937
 4802SOL    HW215306   2.242   6.513   1.864
 4803SOL     OW15307   0.886   0.092   0.918
 4803SOL    HW115308   0.939   0.169   0.953
 4803SOL    HW215309   0.825   0.057   0.989
 4804SOL     OW15310   4.259   5.412   6.868
 4804SOL    HW115311   4.344   5.359   6.867
 4804SOL    HW215312   4.250   5.458   6.956
 4805SOL     OW15313   6.797   0.421   0.480
 4805SOL    HW115314   6.753   0.467   0.557
 4805SOL    HW215315   6.747   0.442   0.396
 4806SOL     OW15316   6.701   4.137   2.914
 4806SOL    HW115317   6.745   4.195   2.845
 4806SOL    HW215318   6.765   4.118   2.988
 4807SOL     OW15319   0.723   5.894   1.816
 4807SOL    HW115320   0.696   5.961   1.747
 4807SOL    HW215321   0.821   5.877   1.808
 4808SOL     OW15322   5.631   3.420   0.438
 4808SOL    HW115323   5.652   3.333   0.393
 4808SOL    HW215324   5.553   3.407   0.500
 4809SOL     OW15325   3.039   5.041   0.068
 4809SOL    HW115326   2.999   4.974   0.005
 4809SOL    HW215327   2.967   5.100   0.104
 4810SOL     OW15328   0.763   5.536   1.805
 4810SOL    HW115329   0.790   5.502   1.715
 4810SOL    HW215330   0.721   5.626   1.795
 4811SOL     OW15331   3.073   5.060   2.032
 4811SOL    HW115332   3.139   5.083   1.960
 4811SOL    HW215333   3.056   4.962   2.032
 4812SOL     OW15334   6.821   5.208   4.073
 4812SOL    HW115335   6.793   5.266   3.996
 4812SOL    HW215336   6.889   5.256   4.128
 4813SOL     OW15337   4.980   1.631   2.411
 4813SOL    HW115338   5.049   1.693   2.374
 4813SOL    HW215339   4.997   1.615   2.508
 4814SOL     OW15340   6.886   3.984   0.540
 4814SOL    HW115341   6.884   3.955   0.444
 4814SOL    HW215342   6.977   3.966   0.578
 4815SOL     OW15343   5.112   5.152   2.172
 4815SOL    HW115344   5.195   5.113   2.133
 4815SOL    HW215345   5.124   5.250   2.186
 4816SOL     OW15346   5.314   5.339   2.565
 4816SOL    HW115347   5.216   5.324   2.554
 4816SOL    HW215348   5.364   5.277   2.505
 4817SOL     OW15349   0.968   2.118   5.672
 4817SOL    HW115350   1.004   2.198   5.624
 4817SOL    HW215351   0.884   2.144   5.721
 4818SOL     OW15352   0.040   0.113   3.656
 4818SOL    HW115353   0.048   0.211   3.672
 4818SOL    HW215354   0.047   0.064   3.743
 4819SOL     OW15355   1.526   3.306   0.114
 4819SOL    HW115356   1.514   3.250   0.032
 4819SOL    HW215357   1.521   3.402   0.090
 4820SOL     OW15358   0.124   3.426   1.693
 4820SOL    HW115359   0.150   3.411   1.598
 4820SOL    HW215360   0.080   3.516   1.702
 4821SOL     OW15361   0.079   5.812   2.190
 4821SOL    HW115362   0.047   5.721   2.166
 4821SOL    HW215363   0.173   5.807   2.221
 4822SOL     OW15364   0.818   3.836   4.263
 4822SOL    HW115365   0.815   3.754   4.319
 4822SOL    HW215366   0.872   3.819   4.180
 4823SOL     OW15367   1.199   3.007   2.683
 4823SOL    HW115368   1.146   3.091   2.689
 4823SOL    HW215369   1.294   3.028   2.660
 4824SOL     OW15370   5.027   0.920   5.211
 4824SOL    HW115371   4.949   0.887   5.264
 4824SOL    HW215372   5.035   0.866   5.127
 4825SOL     OW15373   1.544   0.444   4.296
 4825SOL    HW115374   1.555   0.355   4.342
 4825SOL    HW215375   1.626   0.464   4.243
 4826SOL     OW15376   4.816   0.012   1.437
 4826SOL    HW115377   4.730   6.990   1.462
 4826SOL    HW215378   4.850   0.063   1.516
 4827SOL     OW15379   6.902   2.146   0.206
 4827SOL    HW115380   6.972   2.216   0.190
 4827SOL    HW215381   6.898   2.085   0.127
 4828SOL     OW15382   4.785   6.816   2.794
 4828SOL    HW115383   4.800   6.783   2.701
 4828SOL    HW215384   4.723   6.895   2.791
 4829SOL     OW15385   4.200   6.705   5.685
 4829SOL    HW115386   4.136   6.740   5.616
 4829SOL    HW215387   4.267   6.777   5.707
 4830SOL     OW15388   3.872   5.544   3.426
 4830SOL    HW115389   3.838   5.553   3.520
 4830SOL    HW215390   3.796   5.550   3.362
 4831SOL     OW15391   3.357   5.507   6.016
 4831SOL    HW115392   3.445   5.489   5.973
 4831SOL    HW215393   3.368   5.577   6.086
 4832SOL     OW15394   3.000   3.250   5.067
 4832SOL    HW115395   2.926   3.318   5.064
 4832SOL    HW215396   2.997   3.202   5.154
 4833SOL     OW15397   5.843   2.819   4.336
 4833SOL    HW115398   5.893   2.903   4.317
 4833SOL    HW215399   5.827   2.811   4.434
 4834SOL     OW15400   2.287   5.315   2.381
 4834SOL    HW115401   2.229   5.258   2.438
 4834SOL    HW215402   2.307   5.268   2.295
 4835SOL     OW15403   6.777   3.277   5.480
 4835SOL    HW115404   6.868   3.282   5.521
 4835SOL    HW215405   6.710   3.252   5.551
 4836SOL     OW15406   4.799   0.873   5.395
 4836SOL    HW115407   4.858   0.838   5.468
 4836SOL    HW215408   4.705   0.879   5.429
 4837SOL     OW15409   6.733   3.214   3.979
 4837SOL    HW115410   6.751   3.161   4.061
 4837SOL    HW215411   6.635   3.235   3.973
 4838SOL     OW15412   1.349   4.739   6.050
 4838SOL    HW115413   1.416   4.725   6.123
 4838SOL    HW215414   1.277   4.801   6.083
 4839SOL     OW15415   2.316   1.999   0.928
 4839SOL    HW115416   2.291   2.089   0.964
 4839SOL    HW215417   2.306   1.999   0.828
 4840SOL     OW15418   4.937   3.688   5.287
 4840SOL    HW115419   4.861   3.672   5.350
 4840SOL    HW215420   4.903   3.684   5.193
 4841SOL     OW15421   2.885   5.086   3.524
 4841SOL    HW115422   2.794   5.076   3.484
 4841SOL    HW215423   2.878   5.129   3.614
 4842SOL     OW15424   2.705   5.250   2.867
 4842SOL    HW115425   2.711   5.350   2.867
 4842SOL    HW215426   2.777   5.212   2.808
 4843SOL     OW15427   0.252   2.515   2.085
 4843SOL    HW115428   0.181   2.445   2.081
 4843SOL    HW215429   0.219   2.594   2.137
 4844SOL     OW15430   1.268   5.433   5.213
 4844SOL    HW115431   1.252   5.480   5.127
 4844SOL    HW215432   1.287   5.499   5.285
 4845SOL     OW15433   4.552   4.430   5.414
 4845SOL    HW115434   4.558   4.436   5.315
 4845SOL    HW215435   4.536   4.521   5.452
 4846SOL     OW15436   0.253   2.964   4.639
 4846SOL    HW115437   0.155   2.979   4.652
 4846SOL    HW215438   0.270   2.945   4.542
 4847SOL     OW15439   2.665   6.402   5.994
 4847SOL    HW115440   2.722   6.417   5.912
 4847SOL    HW215441   2.571   6.431   5.975
 4848SOL     OW15442   2.530   0.847   3.987
 4848SOL    HW115443   2.459   0.903   3.945
 4848SOL    HW215444   2.620   0.880   3.957
 4849SOL     OW15445   2.114   0.414   0.610
 4849SOL    HW115446   2.025   0.458   0.614
 4849SOL    HW215447   2.124   0.352   0.688
 4850SOL     OW15448   4.762   0.883   1.089
 4850SOL    HW115449   4.752   0.983   1.083
 4850SOL    HW215450   4.671   0.842   1.100
 4851SOL     OW15451   3.018   6.327   6.970
 4851SOL    HW115452   2.937   6.386   6.974
 4851SOL    HW215453   3.088   6.369   6.912
 4852SOL     OW15454   4.239   5.320   5.327
 4852SOL    HW115455   4.149   5.341   5.366
 4852SOL    HW215456   4.268   5.395   5.267
 4853SOL     OW15457   3.827   0.685   3.017
 4853SOL    HW115458   3.819   0.627   2.936
 4853SOL    HW215459   3.824   0.628   3.100
 4854SOL     OW15460   6.128   6.069   1.251
 4854SOL    HW115461   6.154   6.030   1.339
 4854SOL    HW215462   6.050   6.130   1.262
 4855SOL     OW15463   6.334   4.591   4.870
 4855SOL    HW115464   6.308   4.615   4.777
 4855SOL    HW215465   6.433   4.600   4.880
 4856SOL     OW15466   0.418   4.018   2.459
 4856SOL    HW115467   0.472   3.981   2.383
 4856SOL    HW215468   0.325   3.980   2.456
 4857SOL     OW15469   3.088   2.199   4.149
 4857SOL    HW115470   3.169   2.174   4.202
 4857SOL    HW215471   3.035   2.267   4.200
 4858SOL     OW15472   0.780   6.932   4.786
 4858SOL    HW115473   0.696   6.986   4.794
 4858SOL    HW215474   0.758   6.844   4.744
 4859SOL     OW15475   0.691   5.771   2.054
 4859SOL    HW115476   0.772   5.727   2.093
 4859SOL    HW215477   0.710   5.799   1.960
 4860SOL     OW15478   5.025   5.289   0.978
 4860SOL    HW115479   5.019   5.356   0.905
 4860SOL    HW215480   4.973   5.321   1.057
 4861SOL     OW15481   6.930   4.960   6.312
 4861SOL    HW115482   6.932   5.042   6.369
 4861SOL    HW215483   6.997   4.969   6.238
 4862SOL     OW15484   2.600   4.907   5.005
 4862SOL    HW115485   2.552   4.821   4.984
 4862SOL    HW215486   2.689   4.885   5.045
 4863SOL     OW15487   4.579   2.574   3.032
 4863SOL    HW115488   4.611   2.644   2.967
 4863SOL    HW215489   4.654   2.545   3.090
 4864SOL     OW15490   3.147   0.968   2.196
 4864SOL    HW115491   3.147   0.948   2.294
 4864SOL    HW215492   3.054   0.988   2.166
 4865SOL     OW15493   3.670   5.393   5.635
 4865SOL    HW115494   3.745   5.459   5.637
 4865SOL    HW215495   3.631   5.390   5.543
 4866SOL     OW15496   6.003   4.783   1.838
 4866SOL    HW115497   5.972   4.691   1.818
 4866SOL    HW215498   6.057   4.782   1.922
 4867SOL     OW15499   5.024   5.380   2.478
 4867SOL    HW115500   5.015   5.461   2.535
 4867SOL    HW215501   5.054   5.407   2.386
 4868SOL     OW15502   0.652   5.698   1.177
 4868SOL    HW115503   0.627   5.649   1.093
 4868SOL    HW215504   0.672   5.793   1.155
 4869SOL     OW15505   6.962   1.769   6.951
 4869SOL    HW115506   7.013   1.683   6.960
 4869SOL    HW215507   6.925   1.795   0.017
 4870SOL     OW15508   4.648   6.478   1.635
 4870SOL    HW115509   4.667   6.540   1.712
 4870SOL    HW215510   4.557   6.498   1.598
 4871SOL     OW15511   0.974   2.327   3.829
 4871SOL    HW115512   1.061   2.284   3.856
 4871SOL    HW215513   0.908   2.256   3.804
 4872SOL     OW15514   1.409   0.126   2.652
 4872SOL    HW115515   1.317   0.114   2.613
 4872SOL    HW215516   1.442   0.218   2.632
 4873SOL     OW15517   6.983   5.603   4.772
 4873SOL    HW115518   6.895   5.565   4.801
 4873SOL    HW215519   7.020   5.663   4.844
 4874SOL     OW15520   5.550   3.680   3.011
 4874SOL    HW115521   5.542   3.581   3.011
 4874SOL    HW215522   5.475   3.719   2.957
 4875SOL     OW15523   5.627   1.698   1.081
 4875SOL    HW115524   5.570   1.622   1.049
 4875SOL    HW215525   5.568   1.776   1.103
 4876SOL     OW15526   6.936   1.409   0.015
 4876SOL    HW115527   6.908   1.352   6.962
 4876SOL    HW215528   0.012   1.421   0.014
 4877SOL     OW15529   6.426   1.263   1.300
 4877SOL    HW115530   6.441   1.323   1.378
 4877SOL    HW215531   6.401   1.317   1.220
 4878SOL     OW15532   0.017   1.800   1.636
 4878SOL    HW115533   6.982   1.866   1.589
 4878SOL    HW215534   0.002   1.805   1.734
 4879SOL     OW15535   4.080   5.052   3.666
 4879SOL    HW115536   4.072   5.061   3.567
 4879SOL    HW215537   4.015   4.983   3.699
 4880SOL     OW15538   5.616   1.501   7.013
 4880SOL    HW115539   5.606   1.472   0.084
 4880SOL    HW215540   5.610   1.601   7.007
 4881SOL     OW15541   3.408   6.173   6.239
 4881SOL    HW115542   3.333   6.110   6.261
 4881SOL    HW215543   3.427   6.170   6.141
 4882SOL     OW15544   5.905   1.245   5.229
 4882SOL    HW115545   5.875   1.229   5.323
 4882SOL    HW215546   5.851   1.319   5.189
 4883SOL     OW15547   6.564   4.763   1.824
 4883SOL    HW115548   6.560   4.686   1.760
 4883SOL    HW215549   6.573   4.729   1.917
 4884SOL     OW15550   3.522   6.229   1.911
 4884SOL    HW115551   3.536   6.320   1.949
 4884SOL    HW215552   3.439   6.189   1.951
 4885SOL     OW15553   1.842   0.134   0.925
 4885SOL    HW115554   1.837   0.231   0.945
 4885SOL    HW215555   1.935   0.101   0.942
 4886SOL     OW15556   6.312   0.529   0.216
 4886SOL    HW115557   6.252   0.496   0.289
 4886SOL    HW215558   6.264   0.602   0.166
 4887SOL     OW15559   7.002   1.909   3.666
 4887SOL    HW115560   6.920   1.887   3.719
 4887SOL    HW215561   6.975   1.948   3.578
 4888SOL     OW15562   2.202   5.923   2.868
 4888SOL    HW115563   2.200   5.989   2.943
 4888SOL    HW215564   2.172   5.834   2.901
 4889SOL     OW15565   1.210   2.033   0.059
 4889SOL    HW115566   1.147   2.110   0.057
 4889SOL    HW215567   1.204   1.981   6.998
 4890SOL     OW15568   1.090   0.911   4.281
 4890SOL    HW115569   1.131   0.983   4.224
 4890SOL    HW215570   1.133   0.912   4.371
 4891SOL     OW15571   0.977   4.657   0.571
 4891SOL    HW115572   0.985   4.596   0.492
 4891SOL    HW215573   0.908   4.621   0.634
 4892SOL     OW15574   0.801   5.422   1.565
 4892SOL    HW115575   0.765   5.442   1.474
 4892SOL    HW215576   0.900   5.411   1.560
 4893SOL     OW15577   0.584   4.008   6.419
 4893SOL    HW115578   0.614   4.005   6.324
 4893SOL    HW215579   0.651   3.963   6.478
 4894SOL     OW15580   2.334   0.964   3.569
 4894SOL    HW115581   2.385   0.929   3.490
 4894SOL    HW215582   2.264   1.028   3.537
 4895SOL     OW15583   0.968   3.017   0.301
 4895SOL    HW115584   0.895   3.017   0.368
 4895SOL    HW215585   1.052   2.981   0.342
 4896SOL     OW15586   3.618   4.938   4.871
 4896SOL    HW115587   3.570   4.878   4.934
 4896SOL    HW215588   3.561   4.953   4.790
 4897SOL     OW15589   3.325   5.316   0.518
 4897SOL    HW115590   3.390   5.372   0.570
 4897SOL    HW215591   3.323   5.347   0.423
 4898SOL     OW15592   5.481   1.388   5.505
 4898SOL    HW115593   5.471   1.352   5.412
 4898SOL    HW215594   5.521   1.480   5.501
 4899SOL     OW15595   6.414   4.666   3.782
 4899SOL    HW115596   6.493   4.661   3.720
 4899SOL    HW215597   6.333   4.694   3.731
 4900SOL     OW15598   0.424   6.398   5.972
 4900SOL    HW115599   0.393   6.458   5.898
 4900SOL    HW215600   0.402   6.303   5.949
 4901SOL     OW15601   0.705   6.384   4.098
 4901SOL    HW115602   0.652   6.340   4.026
 4901SOL    HW215603   0.646   6.444   4.151
 4902SOL     OW15604   2.765   4.921   1.532
 4902SOL    HW115605   2.686   4.980   1.547
 4902SOL    HW215606   2.830   4.933   1.607
 4903SOL     OW15607   4.396   0.011   6.615
 4903SOL    HW115608   4.427   0.081   6.551
 4903SOL    HW215609   4.466   7.020   6.685
 4904SOL     OW15610   2.345   5.997   4.221
 4904SOL    HW115611   2.428   6.038   4.259
 4904SOL    HW215612   2.312   5.926   4.283
 4905SOL     OW15613   4.694   3.183   1.685
 4905SOL    HW115614   4.668   3.120   1.758
 4905SOL    HW215615   4.612   3.233   1.654
 4906SOL     OW15616   5.188   0.215   0.428
 4906SOL    HW115617   5.259   0.262   0.376
 4906SOL    HW215618   5.203   0.229   0.526
 4907SOL     OW15619   3.926   0.354   3.451
 4907SOL    HW115620   3.830   0.357   3.480
 4907SOL    HW215621   3.941   0.273   3.395
 4908SOL     OW15622   3.562   6.430   6.564
 4908SOL    HW115623   3.594   6.355   6.505
 4908SOL    HW215624   3.503   6.491   6.511
 4909SOL     OW15625   6.621   6.123   5.392
 4909SOL    HW115626   6.588   6.184   5.465
 4909SOL    HW215627   6.677   6.174   5.328
 4910SOL     OW15628   5.114   0.590   5.185
 4910SOL    HW115629   5.087   0.628   5.273
 4910SOL    HW215630   5.071   0.500   5.173
 4911SOL     OW15631   0.013   2.522   5.763
 4911SOL    HW115632   0.111   2.507   5.751
 4911SOL    HW215633   7.019   2.555   5.856
 4912SOL     OW15634   3.865   1.859   2.265
 4912SOL    HW115635   3.813   1.937   2.229
 4912SOL    HW215636   3.906   1.809   2.189
 4913SOL     OW15637   3.558   3.824   3.232
 4913SOL    HW115638   3.465   3.802   3.202
 4913SOL    HW215639   3.597   3.744   3.278
 4914SOL     OW15640   2.287   6.751   3.417
 4914SOL    HW115641   2.358   6.743   3.347
 4914SOL    HW215642   2.203   6.788   3.376
 4915SOL     OW15643   4.032   6.322   3.952
 4915SOL    HW115644   3.938   6.337   3.921
 4915SOL    HW215645   4.037   6.338   4.050
 4916SOL     OW15646   2.402   2.286   3.077
 4916SOL    HW115647   2.355   2.214   3.128
 4916SOL    HW215648   2.338   2.330   3.015
 4917SOL     OW15649   1.898   4.625   0.833
 4917SOL    HW115650   1.922   4.693   0.902
 4917SOL    HW215651   1.800   4.631   0.813
 4918SOL     OW15652   2.062   0.194   2.075
 4918SOL    HW115653   2.043   0.100   2.105
 4918SOL    HW215654   1.988   0.254   2.106
 4919SOL     OW15655   1.686   2.803   2.313
 4919SOL    HW115656   1.765   2.752   2.345
 4919SOL    HW215657   1.602   2.759   2.345
 4920SOL     OW15658   4.184   0.574   1.092
 4920SOL    HW115659   4.190   0.487   1.042
 4920SOL    HW215660   4.245   0.641   1.050
 4921SOL     OW15661   1.895   4.069   1.748
 4921SOL    HW115662   1.961   4.129   1.793
 4921SOL    HW215663   1.808   4.118   1.736
 4922SOL     OW15664   1.601   3.085   5.288
 4922SOL    HW115665   1.563   3.159   5.233
 4922SOL    HW215666   1.531   3.016   5.305
 4923SOL     OW15667   5.057   0.435   1.633
 4923SOL    HW115668   4.997   0.514   1.642
 4923SOL    HW215669   5.072   0.415   1.536
 4924SOL     OW15670   0.827   4.078   4.758
 4924SOL    HW115671   0.776   4.000   4.793
 4924SOL    HW215672   0.882   4.050   4.680
 4925SOL     OW15673   4.960   6.369   0.485
 4925SOL    HW115674   5.056   6.348   0.505
 4925SOL    HW215675   4.949   6.468   0.477
 4926SOL     OW15676   4.711   2.486   2.153
 4926SOL    HW115677   4.766   2.444   2.081
 4926SOL    HW215678   4.743   2.453   2.242
 4927SOL     OW15679   3.110   3.149   3.081
 4927SOL    HW115680   3.046   3.208   3.031
 4927SOL    HW215681   3.073   3.129   3.172
 4928SOL     OW15682   0.726   6.222   0.070
 4928SOL    HW115683   0.764   6.178   0.150
 4928SOL    HW215684   0.630   6.245   0.086
 4929SOL     OW15685   1.176   4.775   4.349
 4929SOL    HW115686   1.113   4.799   4.423
 4929SOL    HW215687   1.245   4.847   4.340
 4930SOL     OW15688   0.666   2.043   0.770
 4930SOL    HW115689   0.570   2.068   0.757
 4930SOL    HW215690   0.683   2.023   0.866
 4931SOL     OW15691   0.371   0.377   0.702
 4931SOL    HW115692   0.448   0.314   0.707
 4931SOL    HW215693   0.359   0.410   0.608
 4932SOL     OW15694   2.709   1.977   1.298
 4932SOL    HW115695   2.666   2.057   1.256
 4932SOL    HW215696   2.673   1.894   1.256
 4933SOL     OW15697   2.808   0.894   3.959
 4933SOL    HW115698   2.857   0.841   3.889
 4933SOL    HW215699   2.870   0.961   4.000
 4934SOL     OW15700   0.753   6.197   4.318
 4934SOL    HW115701   0.672   6.198   4.377
 4934SOL    HW215702   0.747   6.273   4.253
 4935SOL     OW15703   1.766   1.587   6.984
 4935SOL    HW115704   1.800   1.556   6.895
 4935SOL    HW215705   1.701   1.661   6.970
 4936SOL     OW15706   3.906   5.964   1.477
 4936SOL    HW115707   3.914   6.003   1.385
 4936SOL    HW215708   3.816   5.922   1.488
 4937SOL     OW15709   0.796   2.544   5.923
 4937SOL    HW115710   0.813   2.621   5.861
 4937SOL    HW215711   0.756   2.578   6.008
 4938SOL     OW15712   3.287   4.528   1.526
 4938SOL    HW115713   3.366   4.505   1.583
 4938SOL    HW215714   3.219   4.574   1.583
 4939SOL     OW15715   1.381   2.248   1.377
 4939SOL    HW115716   1.340   2.256   1.468
 4939SOL    HW215717   1.425   2.334   1.352
 4940SOL     OW15718   0.146   2.921   4.041
 4940SOL    HW115719   0.169   3.018   4.030
 4940SOL    HW215720   0.223   2.865   4.010
 4941SOL     OW15721   4.178   2.305   5.308
 4941SOL    HW115722   4.147   2.330   5.400
 4941SOL    HW215723   4.183   2.388   5.251
 4942SOL     OW15724   5.576   2.519   3.518
 4942SOL    HW115725   5.624   2.545   3.601
 4942SOL    HW215726   5.588   2.421   3.501
 4943SOL     OW15727   5.164   3.061   6.350
 4943SOL    HW115728   5.199   3.088   6.440
 4943SOL    HW215729   5.083   3.003   6.361
 4944SOL     OW15730   1.566   5.403   1.091
 4944SOL    HW115731   1.590   5.391   1.187
 4944SOL    HW215732   1.618   5.480   1.053
 4945SOL     OW15733   2.148   1.007   5.088
 4945SOL    HW115734   2.242   1.041   5.091
 4945SOL    HW215735   2.144   0.915   5.126
 4946SOL     OW15736   1.457   5.194   0.377
 4946SOL    HW115737   1.410   5.263   0.431
 4946SOL    HW215738   1.466   5.226   0.282
 4947SOL     OW15739   1.641   1.099   1.868
 4947SOL    HW115740   1.709   1.074   1.799
 4947SOL    HW215741   1.641   1.030   1.940
 4948SOL     OW15742   1.622   2.587   1.453
 4948SOL    HW115743   1.612   2.536   1.368
 4948SOL    HW215744   1.541   2.645   1.467
 4949SOL     OW15745   6.556   3.231   6.237
 4949SOL    HW115746   6.621   3.160   6.209
 4949SOL    HW215747   6.574   3.315   6.185
 4950SOL     OW15748   2.510   4.795   5.396
 4950SOL    HW115749   2.440   4.774   5.328
 4950SOL    HW215750   2.597   4.756   5.366
 4951SOL     OW15751   5.197   5.381   3.748
 4951SOL    HW115752   5.213   5.446   3.822
 4951SOL    HW215753   5.239   5.415   3.664
 4952SOL     OW15754   0.347   0.180   6.000
 4952SOL    HW115755   0.423   0.123   6.031
 4952SOL    HW215756   0.305   0.139   5.920
 4953SOL     OW15757   1.206   2.074   4.823
 4953SOL    HW115758   1.207   2.008   4.747
 4953SOL    HW215759   1.296   2.075   4.867
 4954SOL     OW15760   3.072   4.131   5.283
 4954SOL    HW115761   3.125   4.155   5.202
 4954SOL    HW215762   3.035   4.215   5.325
 4955SOL     OW15763   3.072   6.327   0.213
 4955SOL    HW115764   3.026   6.348   0.127
 4955SOL    HW215765   3.128   6.245   0.202
 4956SOL     OW15766   2.153   0.445   5.266
 4956SOL    HW115767   2.143   0.473   5.361
 4956SOL    HW215768   2.243   0.404   5.252
 4957SOL     OW15769   6.410   4.119   6.324
 4957SOL    HW115770   6.496   4.170   6.326
 4957SOL    HW215771   6.385   4.092   6.418
 4958SOL     OW15772   2.502   0.324   6.644
 4958SOL    HW115773   2.600   0.307   6.658
 4958SOL    HW215774   2.469   0.388   6.714
 4959SOL     OW15775   0.153   3.066   1.637
 4959SOL    HW115776   0.069   3.092   1.685
 4959SOL    HW215777   0.186   3.144   1.584
 4960SOL     OW15778   4.177   4.796   4.405
 4960SOL    HW115779   4.259   4.814   4.350
 4960SOL    HW215780   4.203   4.743   4.486
 4961SOL     OW15781   3.122   0.859   0.016
 4961SOL    HW115782   3.131   0.763   7.014
 4961SOL    HW215783   3.074   0.866   0.103
 4962SOL     OW15784   0.351   3.676   1.115
 4962SOL    HW115785   0.383   3.745   1.050
 4962SOL    HW215786   0.328   3.592   1.067
 4963SOL     OW15787   0.472   4.043   6.857
 4963SOL    HW115788   0.484   4.141   6.873
 4963SOL    HW215789   0.434   4.029   6.765
 4964SOL     OW15790   2.499   6.697   4.862
 4964SOL    HW115791   2.593   6.666   4.878
 4964SOL    HW215792   2.442   6.674   4.941
 4965SOL     OW15793   1.408   6.466   2.873
 4965SOL    HW115794   1.481   6.494   2.934
 4965SOL    HW215795   1.351   6.545   2.850
 4966SOL     OW15796   3.282   6.442   3.895
 4966SOL    HW115797   3.194   6.470   3.933
 4966SOL    HW215798   3.269   6.363   3.836
 4967SOL     OW15799   3.913   4.662   5.431
 4967SOL    HW115800   3.834   4.708   5.391
 4967SOL    HW215801   3.907   4.666   5.531
 4968SOL     OW15802   0.396   1.577   3.766
 4968SOL    HW115803   0.382   1.641   3.842
 4968SOL    HW215804   0.412   1.629   3.682
 4969SOL     OW15805   0.569   6.246   2.607
 4969SOL    HW115806   0.549   6.265   2.511
 4969SOL    HW215807   0.483   6.227   2.655
 4970SOL     OW15808   1.535   1.177   1.618
 4970SOL    HW115809   1.576   1.156   1.707
 4970SOL    HW215810   1.493   1.268   1.622
 4971SOL     OW15811   6.397   6.058   2.785
 4971SOL    HW115812   6.442   6.055   2.874
 4971SOL    HW215813   6.464   6.034   2.714
 4972SOL     OW15814   1.362   4.245   1.127
 4972SOL    HW115815   1.374   4.316   1.057
 4972SOL    HW215816   1.426   4.261   1.202
 4973SOL     OW15817   0.129   1.074   0.846
 4973SOL    HW115818   0.144   1.118   0.934
 4973SOL    HW215819   0.105   1.142   0.778
 4974SOL     OW15820   3.579   4.810   5.946
 4974SOL    HW115821   3.510   4.814   6.018
 4974SOL    HW215822   3.662   4.857   5.976
 4975SOL     OW15823   5.826   3.749   0.043
 4975SOL    HW115824   5.861   3.719   0.132
 4975SOL    HW215825   5.741   3.701   0.023
 4976SOL     OW15826   1.292   6.755   4.423
 4976SOL    HW115827   1.347   6.817   4.367
 4976SOL    HW215828   1.201   6.795   4.436
 4977SOL     OW15829   2.686   5.288   6.406
 4977SOL    HW115830   2.631   5.356   6.456
 4977SOL    HW215831   2.712   5.326   6.317
 4978SOL     OW15832   5.123   4.537   5.219
 4978SOL    HW115833   5.069   4.469   5.270
 4978SOL    HW215834   5.079   4.556   5.132
 4979SOL     OW15835   1.647   6.914   6.491
 4979SOL    HW115836   1.734   6.962   6.482
 4979SOL    HW215837   1.606   6.936   6.580
 4980SOL     OW15838   6.181   3.766   3.024
 4980SOL    HW115839   6.213   3.852   2.986
 4980SOL    HW215840   6.182   3.696   2.952
 4981SOL     OW15841   3.641   4.986   1.804
 4981SOL    HW115842   3.631   4.955   1.710
 4981SOL    HW215843   3.628   4.909   1.866
 4982SOL     OW15844   4.869   1.313   6.921
 4982SOL    HW115845   4.801   1.324   6.848
 4982SOL    HW215846   4.958   1.291   6.880
 4983SOL     OW15847   6.752   5.257   3.577
 4983SOL    HW115848   6.744   5.341   3.523
 4983SOL    HW215849   6.741   5.279   3.674
 4984SOL     OW15850   4.913   4.239   2.873
 4984SOL    HW115851   4.852   4.291   2.813
 4984SOL    HW215852   4.927   4.289   2.958
 4985SOL     OW15853   5.907   5.694   3.056
 4985SOL    HW115854   5.905   5.747   3.141
 4985SOL    HW215855   5.967   5.615   3.066
 4986SOL     OW15856   0.904   4.760   1.846
 4986SOL    HW115857   0.846   4.688   1.886
 4986SOL    HW215858   0.981   4.718   1.798
 4987SOL     OW15859   1.059   0.390   2.485
 4987SOL    HW115860   1.009   0.335   2.552
 4987SOL    HW215861   0.995   0.453   2.439
 4988SOL     OW15862   5.749   6.785   3.260
 4988SOL    HW115863   5.733   6.879   3.291
 4988SOL    HW215864   5.729   6.721   3.334
 4989SOL     OW15865   5.050   1.367   2.358
 4989SOL    HW115866   5.032   1.463   2.380
 4989SOL    HW215867   5.130   1.361   2.298
 4990SOL     OW15868   4.215   1.383   6.248
 4990SOL    HW115869   4.279   1.456   6.273
 4990SOL    HW215870   4.242   1.298   6.292
 4991SOL     OW15871   1.074   5.925   5.189
 4991SOL    HW115872   1.059   5.960   5.097
 4991SOL    HW215873   1.141   5.850   5.186
 4992SOL     OW15874   0.032   0.865   3.652
 4992SOL    HW115875   6.999   0.947   3.655
 4992SOL    HW215876   0.019   0.812   3.736
 4993SOL     OW15877   4.591   6.059   5.491
 4993SOL    HW115878   4.495   6.059   5.463
 4993SOL    HW215879   4.596   6.066   5.590
 4994SOL     OW15880   2.977   5.130   5.652
 4994SOL    HW115881   2.984   5.209   5.591
 4994SOL    HW215882   2.933   5.157   5.738
 4995SOL     OW15883   0.160   0.485   4.572
 4995SOL    HW115884   0.246   0.503   4.620
 4995SOL    HW215885   0.083   0.516   4.628
 4996SOL     OW15886   0.511   1.895   4.415
 4996SOL    HW115887   0.444   1.953   4.370
 4996SOL    HW215888   0.590   1.950   4.442
 4997SOL     OW15889   3.580   1.945   1.387
 4997SOL    HW115890   3.653   1.908   1.445
 4997SOL    HW215891   3.509   1.876   1.375
 4998SOL     OW15892   0.935   3.411   3.627
 4998SOL    HW115893   1.029   3.446   3.624
 4998SOL    HW215894   0.926   3.345   3.702
 4999SOL     OW15895   0.982   3.734   4.825
 4999SOL    HW115896   0.891   3.696   4.811
 4999SOL    HW215897   1.016   3.772   4.739
 5000SOL     OW15898   3.044   5.731   3.316
 5000SOL    HW115899   3.129   5.710   3.268
 5000SOL    HW215900   3.009   5.648   3.360
 5001SOL     OW15901   1.204   5.180   3.081
 5001SOL    HW115902   1.205   5.235   2.998
 5001SOL    HW215903   1.294   5.184   3.125
 5002SOL     OW15904   0.685   4.311   2.527
 5002SOL    HW115905   0.619   4.380   2.556
 5002SOL    HW215906   0.680   4.232   2.589
 5003SOL     OW15907   4.190   6.141   2.917
 5003SOL    HW115908   4.169   6.203   2.993
 5003SOL    HW215909   4.109   6.128   2.861
 5004SOL     OW15910   3.176   6.046   6.264
 5004SOL    HW115911   3.129   6.043   6.176
 5004SOL    HW215912   3.114   6.085   6.333
 5005SOL     OW15913   3.115   3.103   6.229
 5005SOL    HW115914   3.018   3.116   6.250
 5005SOL    HW215915   3.147   3.177   6.170
 5006SOL     OW15916   5.366   1.439   1.763
 5006SOL    HW115917   5.323   1.496   1.693
 5006SOL    HW215918   5.323   1.349   1.764
 5007SOL     OW15919   6.324   0.724   1.288
 5007SOL    HW115920   6.242   0.728   1.231
 5007SOL    HW215921   6.396   0.780   1.246
 5008SOL     OW15922   6.605   0.022   1.558
 5008SOL    HW115923   6.599   6.986   1.638
 5008SOL    HW215924   6.599   6.992   1.474
 5009SOL     OW15925   0.644   2.736   0.741
 5009SOL    HW115926   0.580   2.808   0.714
 5009SOL    HW215927   0.735   2.759   0.707
 5010SOL     OW15928   3.529   2.718   7.022
 5010SOL    HW115929   3.438   2.718   6.979
 5010SOL    HW215930   3.550   2.626   0.031
 5011SOL     OW15931   1.991   3.699   0.086
 5011SOL    HW115932   2.071   3.722   0.142
 5011SOL    HW215933   1.929   3.777   0.083
 5012SOL     OW15934   5.286   2.070   5.866
 5012SOL    HW115935   5.244   2.158   5.842
 5012SOL    HW215936   5.362   2.087   5.930
 5013SOL     OW15937   6.323   0.476   5.256
 5013SOL    HW115938   6.316   0.428   5.168
 5013SOL    HW215939   6.398   0.438   5.309
 5014SOL     OW15940   6.732   4.023   0.775
 5014SOL    HW115941   6.756   4.004   0.680
 5014SOL    HW215942   6.669   3.953   0.809
 5015SOL     OW15943   5.678   0.476   4.387
 5015SOL    HW115944   5.674   0.380   4.416
 5015SOL    HW215945   5.711   0.532   4.463
 5016SOL     OW15946   1.332   3.197   4.919
 5016SOL    HW115947   1.236   3.223   4.910
 5016SOL    HW215948   1.381   3.221   4.836
 5017SOL     OW15949   0.909   2.631   1.063
 5017SOL    HW115950   0.810   2.639   1.062
 5017SOL    HW215951   0.943   2.644   1.156
 5018SOL     OW15952   0.407   5.212   2.115
 5018SOL    HW115953   0.309   5.204   2.099
 5018SOL    HW215954   0.446   5.281   2.054
 5019SOL     OW15955   1.838   5.873   5.465
 5019SOL    HW115956   1.915   5.830   5.513
 5019SOL    HW215957   1.824   5.829   5.377
 5020SOL     OW15958   0.333   6.616   5.303
 5020SOL    HW115959   0.399   6.684   5.270
 5020SOL    HW215960   0.383   6.541   5.346
 5021SOL     OW15961   1.665   0.909   0.818
 5021SOL    HW115962   1.630   0.829   0.867
 5021SOL    HW215963   1.695   0.977   0.884
 5022SOL     OW15964   0.202   2.848   1.455
 5022SOL    HW115965   0.194   2.933   1.507
 5022SOL    HW215966   0.297   2.817   1.456
 5023SOL     OW15967   6.969   3.653   1.528
 5023SOL    HW115968   7.002   3.622   1.439
 5023SOL    HW215969   6.884   3.704   1.515
 5024SOL     OW15970   5.125   3.928   0.585
 5024SOL    HW115971   5.199   3.984   0.547
 5024SOL    HW215972   5.047   3.987   0.607
 5025SOL     OW15973   4.268   1.710   4.309
 5025SOL    HW115974   4.270   1.794   4.362
 5025SOL    HW215975   4.182   1.703   4.259
 5026SOL     OW15976   6.037   5.803   4.735
 5026SOL    HW115977   6.043   5.738   4.660
 5026SOL    HW215978   6.121   5.857   4.739
 5027SOL     OW15979   5.128   0.852   0.821
 5027SOL    HW115980   5.175   0.778   0.773
 5027SOL    HW215981   5.050   0.815   0.871
 5028SOL     OW15982   0.316   2.192   3.001
 5028SOL    HW115983   0.240   2.208   3.065
 5028SOL    HW215984   0.290   2.224   2.910
 5029SOL     OW15985   6.414   2.685   2.019
 5029SOL    HW115986   6.384   2.613   2.081
 5029SOL    HW215987   6.497   2.728   2.055
 5030SOL     OW15988   6.921   5.935   6.437
 5030SOL    HW115989   6.966   5.986   6.510
 5030SOL    HW215990   6.846   5.991   6.399
 5031SOL     OW15991   6.919   1.293   5.072
 5031SOL    HW115992   6.901   1.375   5.018
 5031SOL    HW215993   7.000   1.246   5.036
 5032SOL     OW15994   3.311   2.276   6.245
 5032SOL    HW115995   3.264   2.348   6.194
 5032SOL    HW215996   3.391   2.245   6.194
 5033SOL     OW15997   2.445   1.287   0.286
 5033SOL    HW115998   2.506   1.315   0.361
 5033SOL    HW215999   2.351   1.284   0.320
 5034SOL     OW16000   4.391   6.628   4.210
 5034SOL    HW116001   4.450   6.547   4.208
 5034SOL    HW216002   4.388   6.665   4.303
 5035SOL     OW16003   6.706   4.166   4.820
 5035SOL    HW116004   6.659   4.221   4.890
 5035SOL    HW216005   6.792   4.210   4.795
 5036SOL     OW16006   7.001   4.233   5.716
 5036SOL    HW116007   7.004   4.269   5.623
 5036SOL    HW216008   6.933   4.285   5.769
 5037SOL     OW16009   4.139   4.425   1.373
 5037SOL    HW116010   4.187   4.419   1.286
 5037SOL    HW216011   4.203   4.407   1.448
 5038SOL     OW16012   3.566   3.385   4.265
 5038SOL    HW116013   3.615   3.415   4.183
 5038SOL    HW216014   3.520   3.299   4.247
 5039SOL     OW16015   1.907   3.393   5.987
 5039SOL    HW116016   1.989   3.387   6.045
 5039SOL    HW216017   1.926   3.349   5.900
 5040SOL     OW16018   1.387   5.225   5.371
 5040SOL    HW116019   1.450   5.163   5.324
 5040SOL    HW216020   1.339   5.281   5.303
 5041SOL     OW16021   0.802   3.253   1.899
 5041SOL    HW116022   0.811   3.287   1.993
 5041SOL    HW216023   0.796   3.330   1.836
 5042SOL     OW16024   0.156   3.895   6.511
 5042SOL    HW116025   0.179   3.968   6.446
 5042SOL    HW216026   0.175   3.806   6.470
 5043SOL     OW16027   4.224   0.725   0.173
 5043SOL    HW116028   4.205   0.633   0.208
 5043SOL    HW216029   4.322   0.734   0.155
 5044SOL     OW16030   6.949   6.311   1.312
 5044SOL    HW116031   6.974   6.225   1.355
 5044SOL    HW216032   6.990   6.387   1.363
 5045SOL     OW16033   6.397   4.587   5.904
 5045SOL    HW116034   6.331   4.656   5.877
 5045SOL    HW216035   6.473   4.630   5.953
 5046SOL     OW16036   3.612   3.700   4.114
 5046SOL    HW116037   3.679   3.766   4.148
 5046SOL    HW216038   3.659   3.624   4.069
 5047SOL     OW16039   2.179   3.127   3.103
 5047SOL    HW116040   2.215   3.191   3.035
 5047SOL    HW216041   2.198   3.034   3.074
 5048SOL     OW16042   1.769   0.789   5.054
 5048SOL    HW116043   1.850   0.732   5.041
 5048SOL    HW216044   1.783   0.847   5.134
 5049SOL     OW16045   6.254   0.958   6.039
 5049SOL    HW116046   6.323   0.925   6.103
 5049SOL    HW216047   6.186   0.886   6.024
 5050SOL     OW16048   1.557   1.489   6.586
 5050SOL    HW116049   1.500   1.538   6.652
 5050SOL    HW216050   1.617   1.425   6.635
 5051SOL     OW16051   3.774   4.466   1.383
 5051SOL    HW116052   3.805   4.501   1.472
 5051SOL    HW216053   3.763   4.542   1.319
 5052SOL     OW16054   3.639   1.949   6.229
 5052SOL    HW116055   3.621   1.860   6.270
 5052SOL    HW216056   3.738   1.965   6.225
 5053SOL     OW16057   1.113   4.919   3.168
 5053SOL    HW116058   1.185   4.986   3.146
 5053SOL    HW216059   1.048   4.961   3.231
 5054SOL     OW16060   3.369   4.864   5.524
 5054SOL    HW116061   3.375   4.766   5.509
 5054SOL    HW216062   3.276   4.895   5.503
 5055SOL     OW16063   0.494   2.696   5.858
 5055SOL    HW116064   0.411   2.751   5.849
 5055SOL    HW216065   0.544   2.696   5.771
 5056SOL     OW16066   4.891   4.113   5.248
 5056SOL    HW116067   4.830   4.158   5.182
 5056SOL    HW216068   4.877   4.014   5.244
 5057SOL     OW16069   1.096   0.052   2.136
 5057SOL    HW116070   1.035   7.021   2.194
 5057SOL    HW216071   1.142   0.120   2.192
 5058SOL     OW16072   3.525   4.731   6.870
 5058SOL    HW116073   3.510   4.693   6.961
 5058SOL    HW216074   3.508   4.830   6.872
 5059SOL     OW16075   6.848   6.854   3.229
 5059SOL    HW116076   6.939   6.813   3.220
 5059SOL    HW216077   6.857   6.951   3.250
 5060SOL     OW16078   7.016   1.769   5.985
 5060SOL    HW116079   6.983   1.807   5.899
 5060SOL    HW216080   6.939   1.740   6.041
 5061SOL     OW16081   4.766   2.344   6.999
 5061SOL    HW116082   4.821   2.357   6.917
 5061SOL    HW216083   4.750   2.433   0.019
 5062SOL     OW16084   0.599   0.096   2.051
 5062SOL    HW116085   0.618   0.018   2.111
 5062SOL    HW216086   0.682   0.151   2.042
 5063SOL     OW16087   0.820   6.558   2.021
 5063SOL    HW116088   0.800   6.475   1.969
 5063SOL    HW216089   0.792   6.638   1.969
 5064SOL     OW16090   4.784   3.284   0.186
 5064SOL    HW116091   4.831   3.294   0.274
 5064SOL    HW216092   4.703   3.343   0.186
 5065SOL     OW16093   3.290   0.046   5.095
 5065SOL    HW116094   3.350   0.127   5.097
 5065SOL    HW216095   3.306   7.020   5.010
 5066SOL     OW16096   5.411   4.286   1.507
 5066SOL    HW116097   5.497   4.239   1.530
 5066SOL    HW216098   5.348   4.279   1.583
 5067SOL     OW16099   5.339   1.611   0.113
 5067SOL    HW116100   5.432   1.647   0.109
 5067SOL    HW216101   5.276   1.682   0.144
 5068SOL     OW16102   3.345   4.507   0.628
 5068SOL    HW116103   3.276   4.580   0.625
 5068SOL    HW216104   3.299   4.419   0.642
 5069SOL     OW16105   1.144   4.423   3.165
 5069SOL    HW116106   1.169   4.449   3.072
 5069SOL    HW216107   1.167   4.497   3.228
 5070SOL     OW16108   4.977   3.587   3.867
 5070SOL    HW116109   5.028   3.661   3.911
 5070SOL    HW216110   4.953   3.518   3.934
 5071SOL     OW16111   4.103   2.154   5.038
 5071SOL    HW116112   4.104   2.104   4.951
 5071SOL    HW216113   4.153   2.240   5.027
 5072SOL     OW16114   0.044   5.357   0.714
 5072SOL    HW116115   0.103   5.437   0.718
 5072SOL    HW216116   0.099   5.273   0.722
 5073SOL     OW16117   6.798   6.564   2.240
 5073SOL    HW116118   6.724   6.564   2.174
 5073SOL    HW216119   6.816   6.471   2.270
 5074SOL     OW16120   2.806   3.873   6.914
 5074SOL    HW116121   2.814   3.939   6.988
 5074SOL    HW216122   2.878   3.805   6.922
 5075SOL     OW16123   6.967   0.877   5.388
 5075SOL    HW116124   6.938   0.800   5.445
 5075SOL    HW216125   6.893   0.944   5.382
 5076SOL     OW16126   3.447   0.413   0.733
 5076SOL    HW116127   3.529   0.356   0.737
 5076SOL    HW216128   3.384   0.377   0.664
 5077SOL     OW16129   1.607   2.422   3.788
 5077SOL    HW116130   1.637   2.352   3.724
 5077SOL    HW216131   1.540   2.482   3.744
 5078SOL     OW16132   1.712   2.151   3.319
 5078SOL    HW116133   1.652   2.230   3.328
 5078SOL    HW216134   1.752   2.150   3.227
 5079SOL     OW16135   2.844   5.444   6.195
 5079SOL    HW116136   2.899   5.392   6.131
 5079SOL    HW216137   2.897   5.522   6.229
 5080SOL     OW16138   5.868   6.527   4.881
 5080SOL    HW116139   5.788   6.511   4.940
 5080SOL    HW216140   5.940   6.461   4.904
 5081SOL     OW16141   2.991   3.866   3.450
 5081SOL    HW116142   3.063   3.935   3.448
 5081SOL    HW216143   2.912   3.898   3.397
 5082SOL     OW16144   5.978   6.674   5.928
 5082SOL    HW116145   5.935   6.584   5.925
 5082SOL    HW216146   6.072   6.668   5.894
 5083SOL     OW16147   1.453   0.114   2.249
 5083SOL    HW116148   1.525   0.150   2.307
 5083SOL    HW216149   1.369   0.167   2.263
 5084SOL     OW16150   1.200   4.983   4.015
 5084SOL    HW116151   1.264   5.044   4.064
 5084SOL    HW216152   1.249   4.901   3.986
 5085SOL     OW16153   5.911   1.219   6.456
 5085SOL    HW116154   5.943   1.230   6.551
 5085SOL    HW216155   5.816   1.248   6.449
 5086SOL     OW16156   6.796   4.864   3.397
 5086SOL    HW116157   6.699   4.885   3.386
 5086SOL    HW216158   6.824   4.882   3.492
 5087SOL     OW16159   6.235   6.166   4.489
 5087SOL    HW116160   6.178   6.084   4.488
 5087SOL    HW216161   6.179   6.246   4.466
 5088SOL     OW16162   6.473   0.806   6.168
 5088SOL    HW116163   6.539   0.849   6.229
 5088SOL    HW216164   6.520   0.765   6.090
 5089SOL     OW16165   6.300   3.149   2.389
 5089SOL    HW116166   6.263   3.131   2.480
 5089SOL    HW216167   6.334   3.243   2.384
 5090SOL     OW16168   2.173   4.608   1.380
 5090SOL    HW116169   2.163   4.559   1.467
 5090SOL    HW216170   2.144   4.549   1.305
 5091SOL     OW16171   1.469   6.035   3.014
 5091SOL    HW116172   1.375   6.002   3.027
 5091SOL    HW216173   1.499   6.016   2.921
 5092SOL     OW16174   3.635   2.466   1.441
 5092SOL    HW116175   3.537   2.468   1.461
 5092SOL    HW216176   3.682   2.410   1.509
 5093SOL     OW16177   1.551   2.485   2.066
 5093SOL    HW116178   1.462   2.513   2.030
 5093SOL    HW216179   1.560   2.386   2.055
 5094SOL     OW16180   1.217   6.881   5.824
 5094SOL    HW116181   1.143   6.848   5.766
 5094SOL    HW216182   1.297   6.821   5.814
 5095SOL     OW16183   1.790   0.729   4.546
 5095SOL    HW116184   1.710   0.695   4.596
 5095SOL    HW216185   1.760   0.774   4.462
 5096SOL     OW16186   5.010   3.710   0.473
 5096SOL    HW116187   5.051   3.795   0.505
 5096SOL    HW216188   4.981   3.720   0.378
 5097SOL     OW16189   1.431   0.604   5.515
 5097SOL    HW116190   1.421   0.542   5.593
 5097SOL    HW216191   1.528   0.613   5.491
 5098SOL     OW16192   0.743   1.184   2.230
 5098SOL    HW116193   0.815   1.135   2.280
 5098SOL    HW216194   0.656   1.173   2.277
 5099SOL     OW16195   0.747   0.461   5.345
 5099SOL    HW116196   0.693   0.392   5.396
 5099SOL    HW216197   0.844   0.444   5.360
 5100SOL     OW16198   5.460   6.731   6.501
 5100SOL    HW116199   5.460   6.744   6.401
 5100SOL    HW216200   5.369   6.753   6.536
 5101SOL     OW16201   4.358   6.617   0.426
 5101SOL    HW116202   4.309   6.703   0.440
 5101SOL    HW216203   4.312   6.544   0.477
 5102SOL     OW16204   5.401   1.015   5.449
 5102SOL    HW116205   5.397   1.100   5.395
 5102SOL    HW216206   5.422   1.037   5.544
 5103SOL     OW16207   0.409   0.567   4.305
 5103SOL    HW116208   0.432   0.564   4.207
 5103SOL    HW216209   0.338   0.636   4.320
 5104SOL     OW16210   2.528   1.264   1.853
 5104SOL    HW116211   2.578   1.351   1.858
 5104SOL    HW216212   2.588   1.194   1.813
 5105SOL     OW16213   4.401   4.248   6.193
 5105SOL    HW116214   4.354   4.169   6.153
 5105SOL    HW216215   4.341   4.328   6.188
 5106SOL     OW16216   3.362   0.190   2.702
 5106SOL    HW116217   3.264   0.183   2.725
 5106SOL    HW216218   3.391   0.106   2.656
 5107SOL     OW16219   2.973   0.278   6.910
 5107SOL    HW116220   3.067   0.256   6.883
 5107SOL    HW216221   2.911   0.256   6.835
 5108SOL     OW16222   2.973   3.887   3.891
 5108SOL    HW116223   2.997   3.961   3.828
 5108SOL    HW216224   2.948   3.926   3.980
 5109SOL     OW16225   0.309   1.498   0.753
 5109SOL    HW116226   0.348   1.477   0.842
 5109SOL    HW216227   0.356   1.446   0.682
 5110SOL     OW16228   2.130   6.551   5.788
 5110SOL    HW116229   2.113   6.488   5.863
 5110SOL    HW216230   2.203   6.516   5.731
 5111SOL     OW16231   1.337   1.688   6.525
 5111SOL    HW116232   1.413   1.624   6.518
 5111SOL    HW216233   1.258   1.652   6.475
 5112SOL     OW16234   0.257   6.357   3.908
 5112SOL    HW116235   0.311   6.301   3.845
 5112SOL    HW216236   0.183   6.401   3.858
 5113SOL     OW16237   1.372   0.997   0.369
 5113SOL    HW116238   1.331   1.087   0.354
 5113SOL    HW216239   1.446   1.005   0.436
 5114SOL     OW16240   3.495   4.916   0.389
 5114SOL    HW116241   3.438   4.938   0.468
 5114SOL    HW216242   3.445   4.854   0.328
 5115SOL     OW16243   1.192   3.747   6.509
 5115SOL    HW116244   1.201   3.808   6.431
 5115SOL    HW216245   1.219   3.654   6.483
 5116SOL     OW16246   5.173   4.747   6.659
 5116SOL    HW116247   5.109   4.735   6.735
 5116SOL    HW216248   5.173   4.665   6.602
 5117SOL     OW16249   2.651   4.795   4.158
 5117SOL    HW116250   2.640   4.730   4.084
 5117SOL    HW216251   2.575   4.860   4.158
 5118SOL     OW16252   4.862   5.766   0.441
 5118SOL    HW116253   4.860   5.746   0.343
 5118SOL    HW216254   4.903   5.856   0.455
 5119SOL     OW16255   5.626   0.947   2.376
 5119SOL    HW116256   5.697   0.878   2.362
 5119SOL    HW216257   5.563   0.915   2.447
 5120SOL     OW16258   5.364   0.930   2.804
 5120SOL    HW116259   5.395   0.985   2.882
 5120SOL    HW216260   5.398   0.971   2.719
 5121SOL     OW16261   0.280   3.290   5.621
 5121SOL    HW116262   0.330   3.375   5.605
 5121SOL    HW216263   0.184   3.303   5.595
 5122SOL     OW16264   2.368   0.198   3.099
 5122SOL    HW116265   2.452   0.235   3.060
 5122SOL    HW216266   2.386   0.107   3.136
 5123SOL     OW16267   4.835   3.854   2.999
 5123SOL    HW116268   4.840   3.810   2.910
 5123SOL    HW216269   4.914   3.915   3.011
 5124SOL     OW16270   2.878   6.555   7.002
 5124SOL    HW116271   2.953   6.549   0.043
 5124SOL    HW216272   2.815   6.628   0.006
 5125SOL     OW16273   0.367   3.570   3.948
 5125SOL    HW116274   0.296   3.499   3.950
 5125SOL    HW216275   0.411   3.571   3.858
 5126SOL     OW16276   5.983   5.096   6.329
 5126SOL    HW116277   5.980   5.021   6.263
 5126SOL    HW216278   5.924   5.075   6.406
 5127SOL     OW16279   5.399   3.368   6.493
 5127SOL    HW116280   5.471   3.416   6.543
 5127SOL    HW216281   5.321   3.429   6.480
 5128SOL     OW16282   0.971   0.886   6.798
 5128SOL    HW116283   0.986   0.906   6.895
 5128SOL    HW216284   1.056   0.900   6.748
 5129SOL     OW16285   5.313   0.424   2.293
 5129SOL    HW116286   5.309   0.440   2.391
 5129SOL    HW216287   5.380   0.487   2.251
 5130SOL     OW16288   1.060   5.398   4.667
 5130SOL    HW116289   1.115   5.361   4.742
 5130SOL    HW216290   1.101   5.484   4.636
 5131SOL     OW16291   3.086   5.207   3.378
 5131SOL    HW116292   3.168   5.154   3.395
 5131SOL    HW216293   3.006   5.155   3.407
 5132SOL     OW16294   3.287   1.154   6.454
 5132SOL    HW116295   3.382   1.169   6.484
 5132SOL    HW216296   3.285   1.082   6.384
 5133SOL     OW16297   4.037   5.498   6.725
 5133SOL    HW116298   4.127   5.479   6.763
 5133SOL    HW216299   4.046   5.562   6.649
 5134SOL     OW16300   6.626   6.861   1.358
 5134SOL    HW116301   6.564   6.889   1.285
 5134SOL    HW216302   6.719   6.853   1.321
 5135SOL     OW16303   6.522   3.012   1.744
 5135SOL    HW116304   6.430   2.974   1.752
 5135SOL    HW216305   6.523   3.082   1.673
 5136SOL     OW16306   1.134   0.955   6.148
 5136SOL    HW116307   1.175   0.901   6.221
 5136SOL    HW216308   1.141   1.052   6.170
 5137SOL     OW16309   5.187   1.962   5.341
 5137SOL    HW116310   5.236   1.909   5.410
 5137SOL    HW216311   5.119   2.021   5.385
 5138SOL     OW16312   3.832   3.433   4.443
 5138SOL    HW116313   3.778   3.515   4.424
 5138SOL    HW216314   3.929   3.456   4.441
 5139SOL     OW16315   1.929   0.285   5.185
 5139SOL    HW116316   2.007   0.346   5.192
 5139SOL    HW216317   1.852   0.334   5.143
 5140SOL     OW16318   4.291   2.019   6.005
 5140SOL    HW116319   4.315   1.998   5.910
 5140SOL    HW216320   4.231   2.099   6.007
 5141SOL     OW16321   6.758   3.006   2.127
 5141SOL    HW116322   6.837   2.999   2.189
 5141SOL    HW216323   6.734   3.103   2.115
 5142SOL     OW16324   0.011   6.832   3.632
 5142SOL    HW116325   6.940   6.808   3.654
 5142SOL    HW216326   0.013   6.924   3.594
 5143SOL     OW16327   0.679   4.931   4.304
 5143SOL    HW116328   0.689   5.031   4.298
 5143SOL    HW216329   0.757   4.887   4.260
 5144SOL     OW16330   1.660   3.584   6.279
 5144SOL    HW116331   1.729   3.512   6.268
 5144SOL    HW216332   1.573   3.553   6.240
 5145SOL     OW16333   2.361   6.459   6.775
 5145SOL    HW116334   2.264   6.482   6.787
 5145SOL    HW216335   2.418   6.527   6.821
 5146SOL     OW16336   4.901   4.653   6.196
 5146SOL    HW116337   4.815   4.609   6.173
 5146SOL    HW216338   4.970   4.632   6.126
 5147SOL     OW16339   4.830   3.054   3.373
 5147SOL    HW116340   4.800   2.972   3.324
 5147SOL    HW216341   4.851   3.031   3.467
 5148SOL     OW16342   0.650   0.422   1.798
 5148SOL    HW116343   0.655   0.382   1.890
 5148SOL    HW216344   0.741   0.455   1.772
 5149SOL     OW16345   5.701   4.523   3.351
 5149SOL    HW116346   5.762   4.562   3.283
 5149SOL    HW216347   5.696   4.583   3.431
 5150SOL     OW16348   0.942   5.118   3.732
 5150SOL    HW116349   0.849   5.155   3.742
 5150SOL    HW216350   0.938   5.030   3.685
 5151SOL     OW16351   6.322   4.437   2.317
 5151SOL    HW116352   6.301   4.430   2.219
 5151SOL    HW216353   6.367   4.353   2.347
 5152SOL     OW16354   1.213   0.338   6.318
 5152SOL    HW116355   1.147   0.353   6.244
 5152SOL    HW216356   1.299   0.384   6.296
 5153SOL     OW16357   1.382   2.137   0.488
 5153SOL    HW116358   1.345   2.225   0.460
 5153SOL    HW216359   1.423   2.144   0.578
 5154SOL     OW16360   0.232   2.837   6.669
 5154SOL    HW116361   0.332   2.840   6.672
 5154SOL    HW216362   0.202   2.800   6.581
 5155SOL     OW16363   2.189   1.249   0.381
 5155SOL    HW116364   2.167   1.165   0.330
 5155SOL    HW216365   2.168   1.236   0.477
 5156SOL     OW16366   5.895   5.025   5.666
 5156SOL    HW116367   5.813   4.986   5.625
 5156SOL    HW216368   5.878   5.121   5.689
 5157SOL     OW16369   4.006   0.752   2.111
 5157SOL    HW116370   4.099   0.766   2.147
 5157SOL    HW216371   3.957   0.839   2.110
 5158SOL     OW16372   3.955   1.238   2.802
 5158SOL    HW116373   3.930   1.293   2.722
 5158SOL    HW216374   4.048   1.261   2.830
 5159SOL     OW16375   5.728   3.642   5.784
 5159SOL    HW116376   5.679   3.623   5.699
 5159SOL    HW216377   5.765   3.735   5.781
 5160SOL     OW16378   6.834   6.450   3.144
 5160SOL    HW116379   6.932   6.446   3.125
 5160SOL    HW216380   6.815   6.409   3.233
 5161SOL     OW16381   0.946   3.128   0.054
 5161SOL    HW116382   0.945   3.084   0.144
 5161SOL    HW216383   0.853   3.156   0.029
 5162SOL     OW16384   6.872   6.567   2.580
 5162SOL    HW116385   6.894   6.494   2.515
 5162SOL    HW216386   6.845   6.527   2.667
 5163SOL     OW16387   3.111   6.556   1.793
 5163SOL    HW116388   3.028   6.586   1.840
 5163SOL    HW216389   3.087   6.509   1.708
 5164SOL     OW16390   2.945   3.796   1.189
 5164SOL    HW116391   2.946   3.818   1.091
 5164SOL    HW216392   2.853   3.767   1.216
 5165SOL     OW16393   1.279   4.825   6.997
 5165SOL    HW116394   1.206   4.890   7.015
 5165SOL    HW216395   1.280   4.802   6.899
 5166SOL     OW16396   2.035   5.532   1.680
 5166SOL    HW116397   2.077   5.513   1.591
 5166SOL    HW216398   1.994   5.448   1.715
 5167SOL     OW16399   4.945   2.875   5.271
 5167SOL    HW116400   4.971   2.947   5.207
 5167SOL    HW216401   4.851   2.890   5.302
 5168SOL     OW16402   4.468   2.446   2.374
 5168SOL    HW116403   4.481   2.465   2.277
 5168SOL    HW216404   4.462   2.348   2.389
 5169SOL     OW16405   3.873   7.014   3.811
 5169SOL    HW116406   3.816   6.998   3.892
 5169SOL    HW216407   3.953   6.954   3.814
 5170SOL     OW16408   1.351   3.509   6.440
 5170SOL    HW116409   1.387   3.562   6.364
 5170SOL    HW216410   1.379   3.413   6.431
 5171SOL     OW16411   1.801   6.136   5.424
 5171SOL    HW116412   1.811   6.038   5.443
 5171SOL    HW216413   1.823   6.188   5.507
 5172SOL     OW16414   0.234   5.589   3.553
 5172SOL    HW116415   0.230   5.615   3.650
 5172SOL    HW216416   0.304   5.644   3.507
 5173SOL     OW16417   4.703   3.532   5.769
 5173SOL    HW116418   4.698   3.490   5.859
 5173SOL    HW216419   4.652   3.476   5.703
 5174SOL     OW16420   2.685   6.851   3.623
 5174SOL    HW116421   2.605   6.809   3.666
 5174SOL    HW216422   2.657   6.934   3.574
 5175SOL     OW16423   2.931   4.418   7.002
 5175SOL    HW116424   2.961   4.358   6.928
 5175SOL    HW216425   2.960   4.512   6.984
 5176SOL     OW16426   5.488   5.490   0.223
 5176SOL    HW116427   5.441   5.562   0.274
 5176SOL    HW216428   5.583   5.486   0.251
 5177SOL     OW16429   4.751   0.613   0.723
 5177SOL    HW116430   4.790   0.644   0.810
 5177SOL    HW216431   4.727   0.692   0.667
 5178SOL     OW16432   0.973   3.638   1.750
 5178SOL    HW116433   0.910   3.562   1.759
 5178SOL    HW216434   0.942   3.698   1.676
 5179SOL     OW16435   6.181   4.257   3.385
 5179SOL    HW116436   6.211   4.185   3.322
 5179SOL    HW216437   6.207   4.346   3.348
 5180SOL     OW16438   2.410   0.032   1.352
 5180SOL    HW116439   2.455   0.087   1.281
 5180SOL    HW216440   2.413   0.081   1.439
 5181SOL     OW16441   0.575   0.555   6.389
 5181SOL    HW116442   0.597   0.569   6.293
 5181SOL    HW216443   0.492   0.605   6.412
 5182SOL     OW16444   4.351   5.307   2.943
 5182SOL    HW116445   4.267   5.342   2.984
 5182SOL    HW216446   4.349   5.321   2.844
 5183SOL     OW16447   4.398   1.735   3.562
 5183SOL    HW116448   4.397   1.750   3.463
 5183SOL    HW216449   4.422   1.820   3.608
 5184SOL     OW16450   2.091   1.510   3.958
 5184SOL    HW116451   2.084   1.410   3.951
 5184SOL    HW216452   2.004   1.546   3.992
 5185SOL     OW16453   5.543   0.605   1.814
 5185SOL    HW116454   5.482   0.683   1.831
 5185SOL    HW216455   5.633   0.638   1.787
 5186SOL     OW16456   6.658   3.112   5.791
 5186SOL    HW116457   6.683   3.205   5.819
 5186SOL    HW216458   6.565   3.112   5.755
 5187SOL     OW16459   2.014   4.950   5.267
 5187SOL    HW116460   2.006   4.904   5.178
 5187SOL    HW216461   2.070   4.894   5.328
 5188SOL     OW16462   0.032   6.712   1.917
 5188SOL    HW116463   6.958   6.689   1.919
 5188SOL    HW216464   0.044   6.802   1.874
 5189SOL     OW16465   5.654   0.130   6.067
 5189SOL    HW116466   5.723   0.202   6.074
 5189SOL    HW216467   5.588   0.140   6.142
 5190SOL     OW16468   1.506   3.409   1.626
 5190SOL    HW116469   1.526   3.356   1.709
 5190SOL    HW216470   1.558   3.370   1.549
 5191SOL     OW16471   3.194   5.673   2.249
 5191SOL    HW116472   3.171   5.654   2.344
 5191SOL    HW216473   3.213   5.587   2.201
 5192SOL     OW16474   2.118   5.399   2.015
 5192SOL    HW116475   2.042   5.433   2.069
 5192SOL    HW216476   2.199   5.455   2.031
 5193SOL     OW16477   6.406   0.950   6.790
 5193SOL    HW116478   6.375   0.930   6.697
 5193SOL    HW216479   6.384   0.873   6.849
 5194SOL     OW16480   4.416   2.271   6.946
 5194SOL    HW116481   4.380   2.350   6.996
 5194SOL    HW216482   4.416   2.191   7.006
 5195SOL     OW16483   6.886   0.966   4.094
 5195SOL    HW116484   6.802   1.021   4.091
 5195SOL    HW216485   6.866   0.879   4.139
 5196SOL     OW16486   4.858   6.341   3.420
 5196SOL    HW116487   4.847   6.277   3.496
 5196SOL    HW216488   4.820   6.430   3.446
 5197SOL     OW16489   1.496   4.538   5.477
 5197SOL    HW116490   1.469   4.532   5.381
 5197SOL    HW216491   1.508   4.634   5.502
 5198SOL     OW16492   5.129   5.484   2.931
 5198SOL    HW116493   5.085   5.394   2.936
 5198SOL    HW216494   5.121   5.530   3.020
 5199SOL     OW16495   6.735   5.230   1.270
 5199SOL    HW116496   6.663   5.225   1.339
 5199SOL    HW216497   6.695   5.246   1.180
 5200SOL     OW16498   0.395   3.543   5.605
 5200SOL    HW116499   0.333   3.619   5.624
 5200SOL    HW216500   0.453   3.527   5.685
 5201SOL     OW16501   1.478   5.543   4.286
 5201SOL    HW116502   1.481   5.511   4.192
 5201SOL    HW216503   1.483   5.643   4.288
 5202SOL     OW16504   6.982   3.665   6.642
 5202SOL    HW116505   6.945   3.737   6.583
 5202SOL    HW216506   6.992   3.581   6.588
 5203SOL     OW16507   0.520   2.348   6.661
 5203SOL    HW116508   0.600   2.319   6.714
 5203SOL    HW216509   0.443   2.288   6.683
 5204SOL     OW16510   4.218   5.133   0.198
 5204SOL    HW116511   4.257   5.224   0.185
 5204SOL    HW216512   4.143   5.120   0.133
 5205SOL     OW16513   1.914   1.214   1.347
 5205SOL    HW116514   1.966   1.181   1.426
 5205SOL    HW216515   1.963   1.192   1.263
 5206SOL     OW16516   0.386   4.457   0.011
 5206SOL    HW116517   0.466   4.417   0.055
 5206SOL    HW216518   0.414   4.504   6.951
 5207SOL     OW16519   1.588   5.488   4.527
 5207SOL    HW116520   1.643   5.405   4.542
 5207SOL    HW216521   1.552   5.487   4.434
 5208SOL     OW16522   3.923   0.460   6.969
 5208SOL    HW116523   3.847   0.510   6.927
 5208SOL    HW216524   3.961   0.515   0.020
 5209SOL     OW16525   6.164   5.806   3.292
 5209SOL    HW116526   6.070   5.783   3.314
 5209SOL    HW216527   6.187   5.895   3.332
 5210SOL     OW16528   5.048   3.833   3.695
 5210SOL    HW116529   4.986   3.834   3.617
 5210SOL    HW216530   5.096   3.745   3.699
 5211SOL     OW16531   2.908   3.601   3.398
 5211SOL    HW116532   2.935   3.684   3.446
 5211SOL    HW216533   2.956   3.595   3.311
 5212SOL     OW16534   0.931   2.179   0.698
 5212SOL    HW116535   0.834   2.155   0.705
 5212SOL    HW216536   0.940   2.265   0.647
 5213SOL     OW16537   4.865   2.440   5.605
 5213SOL    HW116538   4.785   2.385   5.580
 5213SOL    HW216539   4.835   2.530   5.636
 5214SOL     OW16540   5.421   1.800   5.182
 5214SOL    HW116541   5.392   1.855   5.104
 5214SOL    HW216542   5.495   1.847   5.231
 5215SOL     OW16543   4.939   4.320   3.150
 5215SOL    HW116544   4.987   4.400   3.114
 5215SOL    HW216545   4.955   4.313   3.248
 5216SOL     OW16546   5.064   4.511   1.359
 5216SOL    HW116547   5.069   4.602   1.317
 5216SOL    HW216548   4.988   4.460   1.319
 5217SOL     OW16549   3.406   5.323   3.881
 5217SOL    HW116550   3.411   5.318   3.980
 5217SOL    HW216551   3.407   5.419   3.852
 5218SOL     OW16552   1.790   6.291   3.780
 5218SOL    HW116553   1.836   6.323   3.697
 5218SOL    HW216554   1.856   6.242   3.837
 5219SOL     OW16555   3.059   6.808   6.263
 5219SOL    HW116556   3.026   6.722   6.302
 5219SOL    HW216557   3.090   6.869   6.337
 5220SOL     OW16558   1.146   5.854   2.055
 5220SOL    HW116559   1.120   5.852   2.151
 5220SOL    HW216560   1.210   5.780   2.036
 5221SOL     OW16561   5.182   0.910   4.428
 5221SOL    HW116562   5.224   0.947   4.345
 5221SOL    HW216563   5.236   0.938   4.508
 5222SOL     OW16564   2.137   0.552   3.698
 5222SOL    HW116565   2.192   0.558   3.781
 5222SOL    HW216566   2.196   0.555   3.617
 5223SOL     OW16567   4.903   0.186   1.603
 5223SOL    HW116568   4.945   0.244   1.533
 5223SOL    HW216569   4.846   0.242   1.663
 5224SOL     OW16570   6.505   2.016   2.493
 5224SOL    HW116571   6.496   1.920   2.467
 5224SOL    HW216572   6.602   2.036   2.511
 5225SOL     OW16573   6.562   6.832   4.155
 5225SOL    HW116574   6.659   6.810   4.170
 5225SOL    HW216575   6.520   6.760   4.100
 5226SOL     OW16576   1.021   6.304   4.254
 5226SOL    HW116577   0.976   6.295   4.343
 5226SOL    HW216578   0.962   6.264   4.183
 5227SOL     OW16579   6.844   5.687   3.602
 5227SOL    HW116580   6.896   5.610   3.639
 5227SOL    HW216581   6.897   5.731   3.529
 5228SOL     OW16582   5.368   1.827   0.561
 5228SOL    HW116583   5.329   1.897   0.501
 5228SOL    HW216584   5.303   1.805   0.633
 5229SOL     OW16585   0.992   3.832   6.681
 5229SOL    HW116586   1.068   3.895   6.699
 5229SOL    HW216587   1.026   3.753   6.631
 5230SOL     OW16588   0.163   0.772   1.062
 5230SOL    HW116589   0.236   0.830   1.024
 5230SOL    HW216590   0.186   0.746   1.155
 5231SOL     OW16591   3.824   3.208   4.271
 5231SOL    HW116592   3.903   3.236   4.216
 5231SOL    HW216593   3.794   3.285   4.327
 5232SOL     OW16594   4.770   2.310   6.630
 5232SOL    HW116595   4.784   2.211   6.634
 5232SOL    HW216596   4.689   2.334   6.684
 5233SOL     OW16597   6.490   6.063   1.694
 5233SOL    HW116598   6.577   6.081   1.741
 5233SOL    HW216599   6.470   6.139   1.632
 5234SOL     OW16600   3.246   0.301   0.598
 5234SOL    HW116601   3.251   0.326   0.502
 5234SOL    HW216602   3.252   0.202   0.608
 5235SOL     OW16603   1.956   3.354   0.796
 5235SOL    HW116604   1.904   3.277   0.834
 5235SOL    HW216605   1.955   3.430   0.861
 5236SOL     OW16606   5.382   3.215   1.024
 5236SOL    HW116607   5.287   3.244   1.012
 5236SOL    HW216608   5.431   3.226   0.937
 5237SOL     OW16609   2.492   1.765   5.077
 5237SOL    HW116610   2.578   1.815   5.066
 5237SOL    HW216611   2.416   1.830   5.079
 5238SOL     OW16612   0.986   5.214   0.224
 5238SOL    HW116613   1.038   5.195   0.308
 5238SOL    HW216614   0.919   5.286   0.242
 5239SOL     OW16615   3.210   3.150   3.998
 5239SOL    HW116616   3.113   3.169   3.982
 5239SOL    HW216617   3.264   3.192   3.926
 5240SOL     OW16618   2.956   2.430   5.311
 5240SOL    HW116619   2.869   2.416   5.263
 5240SOL    HW216620   3.032   2.413   5.248
 5241SOL     OW16621   0.991   6.297   6.397
 5241SOL    HW116622   0.936   6.302   6.313
 5241SOL    HW216623   0.948   6.234   6.462
 5242SOL     OW16624   5.932   1.290   5.769
 5242SOL    HW116625   5.929   1.196   5.803
 5242SOL    HW216626   5.842   1.333   5.782
 5243SOL     OW16627   0.914   5.908   1.292
 5243SOL    HW116628   0.932   5.979   1.360
 5243SOL    HW216629   0.996   5.852   1.281
 5244SOL     OW16630   3.836   3.972   5.982
 5244SOL    HW116631   3.769   3.920   6.036
 5244SOL    HW216632   3.911   3.913   5.955
 5245SOL     OW16633   4.331   3.976   5.680
 5245SOL    HW116634   4.268   3.995   5.605
 5245SOL    HW216635   4.424   3.966   5.644
 5246SOL     OW16636   0.523   3.110   2.863
 5246SOL    HW116637   0.551   3.146   2.951
 5246SOL    HW216638   0.555   3.015   2.854
 5247SOL     OW16639   6.925   5.323   0.464
 5247SOL    HW116640   6.993   5.333   0.537
 5247SOL    HW216641   6.959   5.367   0.381
 5248SOL     OW16642   5.186   0.790   6.176
 5248SOL    HW116643   5.089   0.766   6.183
 5248SOL    HW216644   5.198   0.886   6.201
 5249SOL     OW16645   0.828   5.125   4.455
 5249SOL    HW116646   0.830   5.157   4.360
 5249SOL    HW216647   0.914   5.148   4.500
 5250SOL     OW16648   0.206   1.408   6.338
 5250SOL    HW116649   0.221   1.408   6.437
 5250SOL    HW216650   0.232   1.496   6.300
 5251SOL     OW16651   6.438   3.741   0.762
 5251SOL    HW116652   6.373   3.757   0.837
 5251SOL    HW216653   6.531   3.760   0.794
 5252SOL     OW16654   2.842   6.339   0.918
 5252SOL    HW116655   2.781   6.374   0.989
 5252SOL    HW216656   2.821   6.383   0.831
 5253SOL     OW16657   5.701   3.704   4.376
 5253SOL    HW116658   5.628   3.686   4.442
 5253SOL    HW216659   5.689   3.795   4.337
 5254SOL     OW16660   4.371   1.290   4.124
 5254SOL    HW116661   4.364   1.218   4.193
 5254SOL    HW216662   4.306   1.363   4.145
 5255SOL     OW16663   3.407   0.343   4.767
 5255SOL    HW116664   3.335   0.364   4.701
 5255SOL    HW216665   3.406   0.410   4.841
 5256SOL     OW16666   5.396   1.180   3.500
 5256SOL    HW116667   5.472   1.225   3.453
 5256SOL    HW216668   5.316   1.179   3.441
 5257SOL     OW16669   3.799   6.955   0.550
 5257SOL    HW116670   3.749   6.967   0.636
 5257SOL    HW216671   3.749   6.890   0.492
 5258SOL     OW16672   5.041   4.186   2.631
 5258SOL    HW116673   5.124   4.131   2.635
 5258SOL    HW216674   4.991   4.177   2.717
 5259SOL     OW16675   4.488   6.257   2.666
 5259SOL    HW116676   4.554   6.273   2.593
 5259SOL    HW216677   4.400   6.232   2.626
 5260SOL     OW16678   5.613   3.693   0.544
 5260SOL    HW116679   5.699   3.742   0.552
 5260SOL    HW216680   5.630   3.601   0.507
 5261SOL     OW16681   6.937   2.294   5.213
 5261SOL    HW116682   6.985   2.354   5.277
 5261SOL    HW216683   6.934   2.201   5.251
 5262SOL     OW16684   2.946   0.388   2.607
 5262SOL    HW116685   2.896   0.323   2.551
 5262SOL    HW216686   2.924   0.481   2.577
 5263SOL     OW16687   1.472   0.302   6.180
 5263SOL    HW116688   1.443   0.211   6.151
 5263SOL    HW216689   1.568   0.316   6.155
 5264SOL     OW16690   6.402   1.430   1.554
 5264SOL    HW116691   6.478   1.375   1.590
 5264SOL    HW216692   6.318   1.408   1.604
 5265SOL     OW16693   5.622   4.496   2.127
 5265SOL    HW116694   5.605   4.489   2.029
 5265SOL    HW216695   5.718   4.520   2.142
 5266SOL     OW16696   1.701   6.412   1.734
 5266SOL    HW116697   1.679   6.502   1.695
 5266SOL    HW216698   1.757   6.361   1.670
 5267SOL     OW16699   5.098   5.077   5.631
 5267SOL    HW116700   5.010   5.105   5.592
 5267SOL    HW216701   5.171   5.094   5.565
 5268SOL     OW16702   6.741   5.416   5.234
 5268SOL    HW116703   6.806   5.461   5.295
 5268SOL    HW216704   6.787   5.391   5.149
 5269SOL     OW16705   1.725   5.633   3.837
 5269SOL    HW116706   1.780   5.689   3.776
 5269SOL    HW216707   1.732   5.668   3.930
 5270SOL     OW16708   5.737   2.366   1.350
 5270SOL    HW116709   5.710   2.436   1.416
 5270SOL    HW216710   5.700   2.277   1.377
 5271SOL     OW16711   4.839   4.966   5.406
 5271SOL    HW116712   4.875   4.876   5.431
 5271SOL    HW216713   4.839   5.025   5.487
 5272SOL     OW16714   0.515   5.799   5.044
 5272SOL    HW116715   0.543   5.859   5.118
 5272SOL    HW216716   0.416   5.785   5.048
 5273SOL     OW16717   0.457   2.177   3.797
 5273SOL    HW116718   0.366   2.200   3.762
 5273SOL    HW216719   0.450   2.141   3.890
 5274SOL     OW16720   6.980   5.124   3.563
 5274SOL    HW116721   7.023   5.125   3.654
 5274SOL    HW216722   6.887   5.161   3.570
 5275SOL     OW16723   2.866   6.965   6.510
 5275SOL    HW116724   2.925   6.921   6.577
 5275SOL    HW216725   2.804   6.897   6.470
 5276SOL     OW16726   0.128   6.892   1.309
 5276SOL    HW116727   0.044   6.904   1.362
 5276SOL    HW216728   0.128   6.802   1.265
 5277SOL     OW16729   1.425   2.020   3.679
 5277SOL    HW116730   1.349   1.984   3.626
 5277SOL    HW216731   1.404   2.113   3.710
 5278SOL     OW16732   6.404   6.879   6.042
 5278SOL    HW116733   6.482   6.880   5.979
 5278SOL    HW216734   6.382   6.972   6.070
 5279SOL     OW16735   1.331   5.711   6.135
 5279SOL    HW116736   1.417   5.758   6.119
 5279SOL    HW216737   1.277   5.762   6.201
 5280SOL     OW16738   3.640   6.213   5.062
 5280SOL    HW116739   3.562   6.160   5.095
 5280SOL    HW216740   3.660   6.186   4.967
 5281SOL     OW16741   1.283   0.353   4.887
 5281SOL    HW116742   1.352   0.338   4.816
 5281SOL    HW216743   1.223   0.273   4.892
 5282SOL     OW16744   1.588   0.185   2.928
 5282SOL    HW116745   1.543   0.121   2.992
 5282SOL    HW216746   1.675   0.215   2.967
 5283SOL     OW16747   0.807   0.634   3.826
 5283SOL    HW116748   0.776   0.545   3.859
 5283SOL    HW216749   0.896   0.624   3.783
 5284SOL     OW16750   5.093   2.279   2.435
 5284SOL    HW116751   5.021   2.218   2.403
 5284SOL    HW216752   5.182   2.238   2.417
 5285SOL     OW16753   0.863   2.996   3.033
 5285SOL    HW116754   0.790   2.999   3.101
 5285SOL    HW216755   0.856   2.912   2.980
 5286SOL     OW16756   6.851   3.630   0.440
 5286SOL    HW116757   6.774   3.691   0.460
 5286SOL    HW216758   6.881   3.643   0.346
 5287SOL     OW16759   3.296   5.383   2.243
 5287SOL    HW116760   3.380   5.408   2.292
 5287SOL    HW216761   3.244   5.319   2.299
 5288SOL     OW16762   5.162   0.146   2.026
 5288SOL    HW116763   5.159   0.245   2.013
 5288SOL    HW216764   5.256   0.117   2.044
 5289SOL     OW16765   2.142   5.409   6.484
 5289SOL    HW116766   2.165   5.504   6.461
 5289SOL    HW216767   2.222   5.365   6.525
 5290SOL     OW16768   1.909   4.408   5.733
 5290SOL    HW116769   1.863   4.461   5.662
 5290SOL    HW216770   1.856   4.413   5.818
 5291SOL     OW16771   2.759   4.826   5.749
 5291SOL    HW116772   2.747   4.740   5.699
 5291SOL    HW216773   2.725   4.902   5.693
 5292SOL     OW16774   6.562   3.886   6.274
 5292SOL    HW116775   6.510   3.801   6.258
 5292SOL    HW216776   6.498   3.961   6.291
 5293SOL     OW16777   2.160   5.325   4.326
 5293SOL    HW116778   2.205   5.241   4.296
 5293SOL    HW216779   2.078   5.303   4.378
 5294SOL     OW16780   4.514   0.598   5.536
 5294SOL    HW116781   4.518   0.572   5.439
 5294SOL    HW216782   4.591   0.556   5.585
 5295SOL     OW16783   3.985   0.947   3.504
 5295SOL    HW116784   4.031   0.903   3.581
 5295SOL    HW216785   4.015   0.904   3.419
 5296SOL     OW16786   3.735   3.993   0.654
 5296SOL    HW116787   3.800   4.011   0.580
 5296SOL    HW216788   3.651   4.045   0.638
 5297SOL     OW16789   2.324   3.520   0.536
 5297SOL    HW116790   2.323   3.611   0.577
 5297SOL    HW216791   2.330   3.529   0.436
 5298SOL     OW16792   2.423   6.067   6.922
 5298SOL    HW116793   2.442   5.975   6.888
 5298SOL    HW216794   2.404   6.128   6.845
 5299SOL     OW16795   3.175   2.320   0.616
 5299SOL    HW116796   3.154   2.403   0.669
 5299SOL    HW216797   3.165   2.240   0.675
 5300SOL     OW16798   1.030   5.086   0.884
 5300SOL    HW116799   1.006   5.093   0.787
 5300SOL    HW216800   1.023   4.990   0.913
 5301SOL     OW16801   4.115   7.005   6.606
 5301SOL    HW116802   4.213   6.990   6.621
 5301SOL    HW216803   4.076   0.031   6.683
 5302SOL     OW16804   5.040   5.745   3.936
 5302SOL    HW116805   4.954   5.760   3.985
 5302SOL    HW216806   5.020   5.709   3.845
 5303SOL     OW16807   6.992   5.306   5.860
 5303SOL    HW116808   6.923   5.278   5.927
 5303SOL    HW216809   6.953   5.299   5.768
 5304SOL     OW16810   6.402   0.961   0.807
 5304SOL    HW116811   6.393   0.978   0.905
 5304SOL    HW216812   6.446   1.040   0.764
 5305SOL     OW16813   1.621   5.170   2.682
 5305SOL    HW116814   1.557   5.247   2.688
 5305SOL    HW216815   1.635   5.146   2.586
 5306SOL     OW16816   0.230   4.537   5.866
 5306SOL    HW116817   0.326   4.512   5.865
 5306SOL    HW216818   0.192   4.526   5.774
 5307SOL     OW16819   4.543   1.928   0.480
 5307SOL    HW116820   4.626   1.934   0.536
 5307SOL    HW216821   4.479   1.999   0.508
 5308SOL     OW16822   1.247   4.510   2.904
 5308SOL    HW116823   1.294   4.430   2.866
 5308SOL    HW216824   1.304   4.591   2.894
 5309SOL     OW16825   3.753   6.060   2.058
 5309SOL    HW116826   3.756   6.051   2.158
 5309SOL    HW216827   3.661   6.086   2.031
 5310SOL     OW16828   6.175   3.149   2.684
 5310SOL    HW116829   6.125   3.066   2.710
 5310SOL    HW216830   6.127   3.194   2.609
 5311SOL     OW16831   5.884   0.684   6.894
 5311SOL    HW116832   5.859   0.693   6.797
 5311SOL    HW216833   5.862   0.592   6.926
 5312SOL     OW16834   0.433   5.914   1.969
 5312SOL    HW116835   0.428   6.012   1.954
 5312SOL    HW216836   0.529   5.885   1.975
 5313SOL     OW16837   0.680   4.727   5.386
 5313SOL    HW116838   0.631   4.663   5.446
 5313SOL    HW216839   0.720   4.800   5.442
 5314SOL     OW16840   4.959   0.256   0.756
 5314SOL    HW116841   4.962   0.163   0.794
 5314SOL    HW216842   4.869   0.271   0.713
 5315SOL     OW16843   5.005   2.691   3.134
 5315SOL    HW116844   4.950   2.654   3.209
 5315SOL    HW216845   5.016   2.621   3.063
 5316SOL     OW16846   1.064   4.046   5.217
 5316SOL    HW116847   1.155   4.080   5.238
 5316SOL    HW216848   1.001   4.124   5.207
 5317SOL     OW16849   6.492   1.377   5.317
 5317SOL    HW116850   6.542   1.328   5.245
 5317SOL    HW216851   6.450   1.459   5.278
 5318SOL     OW16852   0.650   2.816   1.244
 5318SOL    HW116853   0.635   2.765   1.159
 5318SOL    HW216854   0.570   2.808   1.303
 5319SOL     OW16855   4.673   6.496   1.177
 5319SOL    HW116856   4.716   6.491   1.267
 5319SOL    HW216857   4.594   6.435   1.174
 5320SOL     OW16858   4.217   5.588   1.338
 5320SOL    HW116859   4.175   5.635   1.416
 5320SOL    HW216860   4.236   5.654   1.266
 5321SOL     OW16861   2.348   4.516   5.033
 5321SOL    HW116862   2.265   4.571   5.024
 5321SOL    HW216863   2.325   4.419   5.032
 5322SOL     OW16864   5.905   0.062   0.366
 5322SOL    HW116865   5.935   0.067   0.462
 5322SOL    HW216866   5.941   0.140   0.316
 5323SOL     OW16867   4.223   1.029   5.888
 5323SOL    HW116868   4.192   0.934   5.876
 5323SOL    HW216869   4.237   1.071   5.798
 5324SOL     OW16870   2.925   2.296   0.276
 5324SOL    HW116871   3.024   2.295   0.287
 5324SOL    HW216872   2.881   2.321   0.362
 5325SOL     OW16873   2.985   1.415   4.904
 5325SOL    HW116874   3.027   1.499   4.937
 5325SOL    HW216875   3.027   1.337   4.950
 5326SOL     OW16876   6.683   5.828   3.312
 5326SOL    HW116877   6.730   5.816   3.400
 5326SOL    HW216878   6.751   5.840   3.239
 5327SOL     OW16879   5.885   2.602   4.661
 5327SOL    HW116880   5.970   2.648   4.637
 5327SOL    HW216881   5.892   2.564   4.753
 5328SOL     OW16882   3.518   3.482   5.945
 5328SOL    HW116883   3.505   3.488   6.044
 5328SOL    HW216884   3.614   3.500   5.923
 5329SOL     OW16885   0.599   5.302   6.794
 5329SOL    HW116886   0.549   5.315   6.708
 5329SOL    HW216887   0.637   5.210   6.797
 5330SOL     OW16888   3.684   4.710   0.248
 5330SOL    HW116889   3.716   4.804   0.256
 5330SOL    HW216890   3.697   4.661   0.334
 5331SOL     OW16891   6.134   2.132   6.771
 5331SOL    HW116892   6.082   2.217   6.766
 5331SOL    HW216893   6.208   2.142   6.837
 5332SOL     OW16894   1.272   3.822   1.603
 5332SOL    HW116895   1.359   3.785   1.636
 5332SOL    HW216896   1.220   3.750   1.558
 5333SOL     OW16897   1.489   1.035   3.142
 5333SOL    HW116898   1.504   1.126   3.181
 5333SOL    HW216899   1.484   1.042   3.042
 5334SOL     OW16900   3.102   0.559   5.090
 5334SOL    HW116901   3.149   0.536   5.005
 5334SOL    HW216902   3.079   0.656   5.090
 5335SOL     OW16903   6.481   6.022   0.942
 5335SOL    HW116904   6.381   6.016   0.949
 5335SOL    HW216905   6.522   5.937   0.975
 5336SOL     OW16906   1.751   3.545   2.331
 5336SOL    HW116907   1.819   3.580   2.395
 5336SOL    HW216908   1.785   3.462   2.288
 5337SOL     OW16909   4.916   3.853   1.389
 5337SOL    HW116910   4.900   3.814   1.299
 5337SOL    HW216911   4.918   3.780   1.458
 5338SOL     OW16912   5.554   1.350   6.715
 5338SOL    HW116913   5.484   1.393   6.772
 5338SOL    HW216914   5.634   1.330   6.772
 5339SOL     OW16915   6.715   1.152   3.752
 5339SOL    HW116916   6.808   1.121   3.775
 5339SOL    HW216917   6.699   1.242   3.794
 5340SOL     OW16918   6.107   3.218   0.213
 5340SOL    HW116919   6.032   3.208   0.278
 5340SOL    HW216920   6.191   3.182   0.255
 5341SOL     OW16921   3.911   2.221   6.073
 5341SOL    HW116922   3.909   2.147   6.140
 5341SOL    HW216923   3.968   2.295   6.108
 5342SOL     OW16924   3.812   0.381   5.072
 5342SOL    HW116925   3.773   0.473   5.071
 5342SOL    HW216926   3.782   0.331   4.991
 5343SOL     OW16927   3.172   3.532   3.698
 5343SOL    HW116928   3.184   3.606   3.765
 5343SOL    HW216929   3.228   3.550   3.618
 5344SOL     OW16930   1.824   2.663   2.665
 5344SOL    HW116931   1.733   2.628   2.642
 5344SOL    HW216932   1.836   2.755   2.626
 5345SOL     OW16933   4.503   5.727   1.568
 5345SOL    HW116934   4.483   5.712   1.471
 5345SOL    HW216935   4.518   5.639   1.613
 5346SOL     OW16936   3.043   6.158   3.591
 5346SOL    HW116937   3.135   6.178   3.557
 5346SOL    HW216938   3.023   6.061   3.578
 5347SOL     OW16939   6.965   2.158   2.428
 5347SOL    HW116940   0.002   2.096   2.479
 5347SOL    HW216941   6.993   2.252   2.443
 5348SOL     OW16942   0.951   1.705   0.682
 5348SOL    HW116943   1.020   1.778   0.677
 5348SOL    HW216944   0.918   1.684   0.590
 5349SOL     OW16945   1.221   2.323   0.754
 5349SOL    HW116946   1.130   2.333   0.794
 5349SOL    HW216947   1.214   2.317   0.654
 5350SOL     OW16948   2.114   0.257   6.320
 5350SOL    HW116949   2.144   0.335   6.375
 5350SOL    HW216950   2.194   0.211   6.281
 5351SOL     OW16951   5.340   5.617   1.639
 5351SOL    HW116952   5.386   5.577   1.719
 5351SOL    HW216953   5.365   5.566   1.557
 5352SOL     OW16954   1.964   5.781   3.673
 5352SOL    HW116955   1.982   5.701   3.731
 5352SOL    HW216956   1.918   5.852   3.726
 5353SOL     OW16957   3.884   5.922   4.582
 5353SOL    HW116958   3.899   5.832   4.622
 5353SOL    HW216959   3.936   5.990   4.633
 5354SOL     OW16960   2.303   4.556   2.310
 5354SOL    HW116961   2.255   4.587   2.228
 5354SOL    HW216962   2.322   4.635   2.369
 5355SOL     OW16963   4.947   2.507   3.962
 5355SOL    HW116964   4.949   2.569   3.884
 5355SOL    HW216965   4.897   2.424   3.938
 5356SOL     OW16966   5.838   4.045   1.430
 5356SOL    HW116967   5.787   3.998   1.358
 5356SOL    HW216968   5.894   4.117   1.390
 5357SOL     OW16969   3.845   0.469   1.111
 5357SOL    HW116970   3.754   0.511   1.108
 5357SOL    HW216971   3.881   0.474   1.204
 5358SOL     OW16972   4.355   2.104   1.372
 5358SOL    HW116973   4.450   2.131   1.387
 5358SOL    HW216974   4.308   2.174   1.319
 5359SOL     OW16975   2.191   1.837   0.141
 5359SOL    HW116976   2.274   1.782   0.136
 5359SOL    HW216977   2.111   1.778   0.130
 5360SOL     OW16978   3.917   6.571   4.770
 5360SOL    HW116979   3.841   6.585   4.706
 5360SOL    HW216980   3.984   6.645   4.760
 5361SOL     OW16981   2.344   0.110   4.930
 5361SOL    HW116982   2.313   0.199   4.896
 5361SOL    HW216983   2.275   0.072   4.991
 5362SOL     OW16984   4.975   4.405   3.413
 5362SOL    HW116985   4.994   4.322   3.465
 5362SOL    HW216986   5.045   4.474   3.433
 5363SOL     OW16987   0.784   6.261   6.177
 5363SOL    HW116988   0.746   6.174   6.211
 5363SOL    HW216989   0.723   6.336   6.204
 5364SOL     OW16990   6.567   5.801   1.042
 5364SOL    HW116991   6.569   5.725   0.977
 5364SOL    HW216992   6.521   5.773   1.126
 5365SOL     OW16993   3.952   3.177   6.734
 5365SOL    HW116994   3.983   3.098   6.788
 5365SOL    HW216995   4.026   3.208   6.674
 5366SOL     OW16996   5.115   4.652   1.136
 5366SOL    HW116997   5.113   4.751   1.149
 5366SOL    HW216998   5.210   4.620   1.135
 5367SOL     OW16999   0.237   5.192   0.579
 5367SOL    HW117000   0.268   5.212   0.673
 5367SOL    HW217001   0.218   5.278   0.532
 5368SOL     OW17002   5.038   1.499   3.137
 5368SOL    HW117003   5.059   1.410   3.097
 5368SOL    HW217004   4.945   1.499   3.172
 5369SOL     OW17005   2.854   6.265   3.422
 5369SOL    HW117006   2.912   6.310   3.354
 5369SOL    HW217007   2.911   6.221   3.491
 5370SOL     OW17008   3.896   3.259   1.695
 5370SOL    HW117009   3.798   3.269   1.677
 5370SOL    HW217010   3.910   3.231   1.790
 5371SOL     OW17011   1.904   3.746   4.452
 5371SOL    HW117012   1.984   3.800   4.480
 5371SOL    HW217013   1.893   3.668   4.514
 5372SOL     OW17014   2.318   5.636   2.462
 5372SOL    HW117015   2.271   5.694   2.529
 5372SOL    HW217016   2.251   5.582   2.412
 5373SOL     OW17017   3.123   4.888   4.081
 5373SOL    HW117018   3.078   4.976   4.096
 5373SOL    HW217019   3.219   4.893   4.109
 5374SOL     OW17020   1.115   3.500   6.912
 5374SOL    HW117021   1.157   3.562   6.846
 5374SOL    HW217022   1.138   3.528   7.005
 5375SOL     OW17023   1.110   4.768   5.031
 5375SOL    HW117024   1.062   4.817   5.103
 5375SOL    HW217025   1.102   4.669   5.047
 5376SOL     OW17026   1.617   3.056   1.333
 5376SOL    HW117027   1.547   3.077   1.265
 5376SOL    HW217028   1.620   3.129   1.401
 5377SOL     OW17029   0.066   6.927   1.733
 5377SOL    HW117030   0.162   6.954   1.730
 5377SOL    HW217031   0.035   6.906   1.640
 5378SOL     OW17032   6.739   0.423   1.575
 5378SOL    HW117033   6.683   0.377   1.643
 5378SOL    HW217034   6.714   0.519   1.570
 5379SOL     OW17035   0.574   5.398   4.388
 5379SOL    HW117036   0.541   5.359   4.475
 5379SOL    HW217037   0.549   5.494   4.383
 5380SOL     OW17038   1.780   1.061   3.309
 5380SOL    HW117039   1.753   1.042   3.404
 5380SOL    HW217040   1.710   1.026   3.247
 5381SOL     OW17041   6.621   3.782   0.132
 5381SOL    HW117042   6.572   3.718   0.191
 5381SOL    HW217043   6.569   3.797   0.048
 5382SOL     OW17044   3.159   0.153   2.071
 5382SOL    HW117045   3.243   0.163   2.018
 5382SOL    HW217046   3.105   0.077   2.033
 5383SOL     OW17047   2.901   2.167   5.116
 5383SOL    HW117048   2.949   2.144   5.200
 5383SOL    HW217049   2.964   2.210   5.052
 5384SOL     OW17050   6.333   1.140   3.932
 5384SOL    HW117051   6.246   1.188   3.917
 5384SOL    HW217052   6.369   1.109   3.844
 5385SOL     OW17053   3.104   4.055   3.156
 5385SOL    HW117054   3.097   4.094   3.247
 5385SOL    HW217055   3.182   4.096   3.108
 5386SOL     OW17056   4.945   6.472   3.851
 5386SOL    HW117057   5.005   6.521   3.788
 5386SOL    HW217058   4.885   6.537   3.898
 5387SOL     OW17059   2.037   5.695   3.408
 5387SOL    HW117060   2.013   5.696   3.505
 5387SOL    HW217061   1.956   5.717   3.353
 5388SOL     OW17062   5.100   6.614   3.180
 5388SOL    HW117063   5.186   6.567   3.198
 5388SOL    HW217064   5.096   6.698   3.234
 5389SOL     OW17065   4.893   0.657   1.658
 5389SOL    HW117066   4.915   0.741   1.607
 5389SOL    HW217067   4.822   0.678   1.725
 5390SOL     OW17068   4.450   5.201   4.138
 5390SOL    HW117069   4.350   5.191   4.136
 5390SOL    HW217070   4.487   5.144   4.212
 5391SOL     OW17071   2.413   2.007   0.654
 5391SOL    HW117072   2.490   2.033   0.712
 5391SOL    HW217073   2.437   1.925   0.601
 5392SOL     OW17074   6.392   3.922   0.413
 5392SOL    HW117075   6.429   4.013   0.392
 5392SOL    HW217076   6.306   3.909   0.364
 5393SOL     OW17077   6.299   6.652   6.905
 5393SOL    HW117078   6.322   6.597   6.824
 5393SOL    HW217079   6.258   6.592   6.975
 5394SOL     OW17080   6.862   3.703   6.028
 5394SOL    HW117081   6.859   3.778   6.093
 5394SOL    HW217082   6.793   3.716   5.958
 5395SOL     OW17083   4.631   0.837   1.776
 5395SOL    HW117084   4.545   0.887   1.759
 5395SOL    HW217085   4.671   0.870   1.862
 5396SOL     OW17086   4.900   3.477   2.896
 5396SOL    HW117087   4.904   3.379   2.915
 5396SOL    HW217088   4.911   3.528   2.981
 5397SOL     OW17089   6.847   3.022   1.580
 5397SOL    HW117090   6.820   2.954   1.649
 5397SOL    HW217091   6.856   3.112   1.623
 5398SOL     OW17092   3.681   1.462   1.707
 5398SOL    HW117093   3.670   1.499   1.799
 5398SOL    HW217094   3.755   1.510   1.660
 5399SOL     OW17095   1.996   6.395   0.410
 5399SOL    HW117096   2.041   6.437   0.331
 5399SOL    HW217097   1.924   6.457   0.444
 5400SOL     OW17098   2.935   3.851   0.922
 5400SOL    HW117099   2.969   3.848   0.828
 5400SOL    HW217100   2.860   3.917   0.928
 5401SOL     OW17101   5.748   3.426   1.175
 5401SOL    HW117102   5.727   3.478   1.258
 5401SOL    HW217103   5.743   3.486   1.095
 5402SOL     OW17104   2.453   5.871   1.935
 5402SOL    HW117105   2.367   5.867   1.986
 5402SOL    HW217106   2.442   5.827   1.846
 5403SOL     OW17107   6.365   3.057   6.432
 5403SOL    HW117108   6.367   2.959   6.415
 5403SOL    HW217109   6.456   3.096   6.417
 5404SOL     OW17110   0.983   2.036   3.447
 5404SOL    HW117111   0.921   2.114   3.447
 5404SOL    HW217112   1.048   2.045   3.372
 5405SOL     OW17113   6.494   5.856   0.362
 5405SOL    HW117114   6.434   5.875   0.439
 5405SOL    HW217115   6.577   5.811   0.395
 5406SOL     OW17116   2.400   1.693   6.342
 5406SOL    HW117117   2.411   1.645   6.255
 5406SOL    HW217118   2.437   1.786   6.333
 5407SOL     OW17119   4.776   3.598   0.262
 5407SOL    HW117120   4.714   3.655   0.316
 5407SOL    HW217121   4.804   3.519   0.316
 5408SOL     OW17122   2.902   1.406   5.891
 5408SOL    HW117123   2.967   1.448   5.828
 5408SOL    HW217124   2.942   1.401   5.983
 5409SOL     OW17125   5.194   0.083   3.702
 5409SOL    HW117126   5.152   0.097   3.613
 5409SOL    HW217127   5.286   0.123   3.702
 5410SOL     OW17128   2.702   2.368   1.749
 5410SOL    HW117129   2.788   2.378   1.799
 5410SOL    HW217130   2.642   2.305   1.798
 5411SOL     OW17131   6.823   4.789   5.858
 5411SOL    HW117132   6.905   4.746   5.896
 5411SOL    HW217133   6.849   4.873   5.810
 5412SOL     OW17134   5.135   2.076   0.912
 5412SOL    HW117135   5.154   1.999   0.851
 5412SOL    HW217136   5.205   2.146   0.899
 5413SOL     OW17137   3.025   1.310   1.148
 5413SOL    HW117138   3.054   1.271   1.235
 5413SOL    HW217139   3.094   1.291   1.078
 5414SOL     OW17140   5.200   2.162   4.754
 5414SOL    HW117141   5.154   2.246   4.723
 5414SOL    HW217142   5.295   2.182   4.777
 5415SOL     OW17143   0.519   5.791   1.454
 5415SOL    HW117144   0.597   5.805   1.515
 5415SOL    HW217145   0.551   5.764   1.363
 5416SOL     OW17146   5.139   5.587   5.912
 5416SOL    HW117147   5.135   5.514   5.844
 5416SOL    HW217148   5.051   5.633   5.916
 5417SOL     OW17149   3.409   6.740   5.589
 5417SOL    HW117150   3.414   6.831   5.549
 5417SOL    HW217151   3.469   6.678   5.539
 5418SOL     OW17152   3.443   0.603   3.552
 5418SOL    HW117153   3.452   0.672   3.481
 5418SOL    HW217154   3.425   0.514   3.511
 5419SOL     OW17155   3.315   5.397   0.254
 5419SOL    HW117156   3.244   5.461   0.226
 5419SOL    HW217157   3.383   5.388   0.181
 5420SOL     OW17158   1.861   3.300   2.731
 5420SOL    HW117159   1.921   3.307   2.651
 5420SOL    HW217160   1.874   3.211   2.775
 5421SOL     OW17161   1.463   3.655   1.947
 5421SOL    HW117162   1.478   3.670   2.044
 5421SOL    HW217163   1.367   3.672   1.925
 5422SOL     OW17164   0.197   4.911   0.544
 5422SOL    HW117165   0.129   4.863   0.488
 5422SOL    HW217166   0.175   5.009   0.548
 5423SOL     OW17167   6.933   3.370   6.741
 5423SOL    HW117168   6.842   3.354   6.703
 5423SOL    HW217169   7.001   3.327   6.681
 5424SOL     OW17170   5.521   2.967   3.440
 5424SOL    HW117171   5.457   2.989   3.513
 5424SOL    HW217172   5.597   3.032   3.442
 5425SOL     OW17173   4.188   1.008   4.709
 5425SOL    HW117174   4.278   0.969   4.688
 5425SOL    HW217175   4.193   1.107   4.705
 5426SOL     OW17176   6.038   5.639   4.509
 5426SOL    HW117177   6.025   5.581   4.429
 5426SOL    HW217178   6.134   5.664   4.517
 5427SOL     OW17179   5.066   5.369   6.408
 5427SOL    HW117180   5.115   5.319   6.479
 5427SOL    HW217181   5.020   5.448   6.448
 5428SOL     OW17182   6.940   6.944   1.483
 5428SOL    HW117183   6.880   6.890   1.543
 5428SOL    HW217184   6.906   0.014   1.478
 5429SOL     OW17185   2.319   2.121   6.550
 5429SOL    HW117186   2.339   2.050   6.483
 5429SOL    HW217187   2.295   2.206   6.504
 5430SOL     OW17188   0.277   2.860   5.774
 5430SOL    HW117189   0.307   2.955   5.785
 5430SOL    HW217190   0.193   2.857   5.721
 5431SOL     OW17191   3.071   6.280   1.080
 5431SOL    HW117192   3.086   6.185   1.053
 5431SOL    HW217193   2.987   6.314   1.038
 5432SOL     OW17194   5.527   0.754   6.690
 5432SOL    HW117195   5.609   0.812   6.692
 5432SOL    HW217196   5.453   0.803   6.643
 5433SOL     OW17197   0.268   1.890   4.714
 5433SOL    HW117198   0.300   1.950   4.641
 5433SOL    HW217199   0.197   1.828   4.678
 5434SOL     OW17200   3.085   0.746   5.638
 5434SOL    HW117201   3.086   0.666   5.578
 5434SOL    HW217202   3.078   0.829   5.582
 5435SOL     OW17203   6.004   6.757   1.901
 5435SOL    HW117204   6.017   6.673   1.952
 5435SOL    HW217205   6.093   6.795   1.876
 5436SOL     OW17206   5.248   3.745   3.981
 5436SOL    HW117207   5.174   3.785   4.034
 5436SOL    HW217208   5.327   3.731   4.039
 5437SOL     OW17209   2.711   3.836   0.290
 5437SOL    HW117210   2.800   3.855   0.249
 5437SOL    HW217211   2.714   3.747   0.336
 5438SOL     OW17212   6.689   2.736   2.149
 5438SOL    HW117213   6.708   2.834   2.147
 5438SOL    HW217214   6.648   2.712   2.237
 5439SOL     OW17215   1.127   2.468   1.555
 5439SOL    HW117216   1.126   2.413   1.471
 5439SOL    HW217217   1.147   2.564   1.532
 5440SOL     OW17218   1.082   1.362   0.791
 5440SOL    HW117219   1.156   1.320   0.739
 5440SOL    HW217220   1.043   1.438   0.740
 5441SOL     OW17221   4.368   2.417   3.259
 5441SOL    HW117222   4.385   2.503   3.212
 5441SOL    HW217223   4.279   2.380   3.232
 5442SOL     OW17224   3.754   6.460   3.250
 5442SOL    HW117225   3.807   6.545   3.247
 5442SOL    HW217226   3.656   6.483   3.256
 5443SOL     OW17227   3.926   0.177   4.294
 5443SOL    HW117228   3.948   0.237   4.217
 5443SOL    HW217229   3.957   0.084   4.274
 5444SOL     OW17230   1.131   0.614   4.289
 5444SOL    HW117231   1.049   0.567   4.257
 5444SOL    HW217232   1.121   0.712   4.274
 5445SOL     OW17233   6.425   3.918   3.551
 5445SOL    HW117234   6.434   3.910   3.452
 5445SOL    HW217235   6.351   3.858   3.582
 5446SOL     OW17236   6.574   5.072   4.562
 5446SOL    HW117237   6.542   4.986   4.521
 5446SOL    HW217238   6.500   5.139   4.559
 5447SOL     OW17239   2.919   2.224   6.912
 5447SOL    HW117240   2.953   2.318   6.905
 5447SOL    HW217241   2.853   2.207   6.839
 5448SOL     OW17242   4.150   3.099   5.407
 5448SOL    HW117243   4.080   3.081   5.476
 5448SOL    HW217244   4.137   3.038   5.330
 5449SOL     OW17245   1.647   3.172   6.456
 5449SOL    HW117246   1.669   3.110   6.381
 5449SOL    HW217247   1.575   3.235   6.427
 5450SOL     OW17248   1.855   0.993   1.710
 5450SOL    HW117249   1.927   1.004   1.642
 5450SOL    HW217250   1.894   0.955   1.794
 5451SOL     OW17251   1.895   6.010   3.196
 5451SOL    HW117252   1.842   5.935   3.237
 5451SOL    HW217253   1.832   6.078   3.158
 5452SOL     OW17254   2.334   4.623   0.108
 5452SOL    HW117255   2.431   4.600   0.120
 5452SOL    HW217256   2.280   4.539   0.110
 5453SOL     OW17257   6.103   4.156   0.537
 5453SOL    HW117258   6.174   4.221   0.510
 5453SOL    HW217259   6.136   4.102   0.615
 5454SOL     OW17260   0.264   4.265   6.884
 5454SOL    HW117261   0.309   4.328   6.948
 5454SOL    HW217262   0.236   4.315   6.802
 5455SOL     OW17263   6.326   3.321   6.870
 5455SOL    HW117264   6.269   3.297   6.791
 5455SOL    HW217265   6.402   3.379   6.839
 5456SOL     OW17266   3.464   6.540   0.042
 5456SOL    HW117267   3.560   6.555   0.065
 5456SOL    HW217268   3.458   6.487   6.981
 5457SOL     OW17269   5.638   2.426   0.473
 5457SOL    HW117270   5.609   2.430   0.569
 5457SOL    HW217271   5.691   2.343   0.458
 5458SOL     OW17272   0.588   4.693   0.149
 5458SOL    HW117273   0.514   4.733   0.095
 5458SOL    HW217274   0.635   4.765   0.200
 5459SOL     OW17275   1.978   4.591   6.944
 5459SOL    HW117276   1.922   4.509   6.932
 5459SOL    HW217277   2.001   4.602   0.017
 5460SOL     OW17278   3.104   0.131   2.593
 5460SOL    HW117279   3.156   0.141   2.508
 5460SOL    HW217280   3.049   0.213   2.609
 5461SOL     OW17281   6.281   6.278   5.221
 5461SOL    HW117282   6.295   6.181   5.201
 5461SOL    HW217283   6.329   6.334   5.153
 5462SOL     OW17284   1.036   0.391   0.254
 5462SOL    HW117285   0.985   0.358   0.333
 5462SOL    HW217286   1.131   0.409   0.280
 5463SOL     OW17287   6.294   2.025   0.002
 5463SOL    HW117288   6.260   1.941   6.986
 5463SOL    HW217289   6.223   2.067   0.060
 5464SOL     OW17290   1.752   0.557   4.154
 5464SOL    HW117291   1.706   0.636   4.113
 5464SOL    HW217292   1.835   0.586   4.200
 5465SOL     OW17293   3.530   6.989   3.340
 5465SOL    HW117294   3.507   0.041   3.278
 5465SOL    HW217295   3.622   6.955   3.318
 5466SOL     OW17296   5.776   4.495   5.052
 5466SOL    HW117297   5.780   4.396   5.039
 5466SOL    HW217298   5.682   4.526   5.039
 5467SOL     OW17299   5.182   2.283   3.343
 5467SOL    HW117300   5.255   2.245   3.400
 5467SOL    HW217301   5.222   2.324   3.261
 5468SOL     OW17302   5.336   1.744   4.770
 5468SOL    HW117303   5.287   1.661   4.795
 5468SOL    HW217304   5.302   1.778   4.683
 5469SOL     OW17305   3.839   5.402   6.939
 5469SOL    HW117306   3.903   5.466   6.896
 5469SOL    HW217307   3.765   5.381   6.874
 5470SOL     OW17308   2.290   5.372   3.114
 5470SOL    HW117309   2.202   5.417   3.127
 5470SOL    HW217310   2.283   5.307   3.038
 5471SOL     OW17311   5.685   6.812   1.235
 5471SOL    HW117312   5.686   6.739   1.303
 5471SOL    HW217313   5.620   6.790   1.162
 5472SOL     OW17314   3.953   4.213   5.971
 5472SOL    HW117315   4.050   4.200   5.950
 5472SOL    HW217316   3.906   4.125   5.969
 5473SOL     OW17317   0.665   3.704   3.327
 5473SOL    HW117318   0.640   3.800   3.342
 5473SOL    HW217319   0.739   3.679   3.390
 5474SOL     OW17320   1.278   4.481   4.344
 5474SOL    HW117321   1.189   4.512   4.314
 5474SOL    HW217322   1.296   4.515   4.437
 5475SOL     OW17323   3.255   2.680   0.304
 5475SOL    HW117324   3.258   2.664   0.403
 5475SOL    HW217325   3.290   2.599   0.257
 5476SOL     OW17326   2.370   3.712   6.418
 5476SOL    HW117327   2.364   3.811   6.407
 5476SOL    HW217328   2.465   3.687   6.438
 5477SOL     OW17329   1.919   3.518   3.436
 5477SOL    HW117330   1.969   3.605   3.433
 5477SOL    HW217331   1.982   3.445   3.459
 5478SOL     OW17332   5.299   5.455   5.239
 5478SOL    HW117333   5.371   5.516   5.272
 5478SOL    HW217334   5.294   5.460   5.139
 5479SOL     OW17335   4.539   0.923   5.398
 5479SOL    HW117336   4.475   0.846   5.408
 5479SOL    HW217337   4.521   0.970   5.312
 5480SOL     OW17338   0.148   3.375   3.937
 5480SOL    HW117339   0.069   3.356   3.879
 5480SOL    HW217340   0.154   3.306   4.009
 5481SOL     OW17341   3.370   0.732   4.264
 5481SOL    HW117342   3.464   0.753   4.238
 5481SOL    HW217343   3.308   0.750   4.187
 5482SOL     OW17344   3.726   4.313   1.668
 5482SOL    HW117345   3.773   4.388   1.620
 5482SOL    HW217346   3.752   4.226   1.626
 5483SOL     OW17347   0.984   3.151   5.293
 5483SOL    HW117348   1.041   3.233   5.301
 5483SOL    HW217349   1.028   3.074   5.339
 5484SOL     OW17350   4.724   0.309   5.035
 5484SOL    HW117351   4.738   0.352   5.124
 5484SOL    HW217352   4.652   0.240   5.042
 5485SOL     OW17353   3.406   6.589   5.253
 5485SOL    HW117354   3.396   6.575   5.154
 5485SOL    HW217355   3.323   6.557   5.300
 5486SOL     OW17356   2.544   5.712   5.092
 5486SOL    HW117357   2.445   5.725   5.094
 5486SOL    HW217358   2.579   5.735   5.001
 5487SOL     OW17359   2.830   4.724   6.156
 5487SOL    HW117360   2.770   4.709   6.235
 5487SOL    HW217361   2.816   4.817   6.121
 5488SOL     OW17362   0.160   1.308   0.411
 5488SOL    HW117363   0.151   1.297   0.510
 5488SOL    HW217364   0.076   1.278   0.366
 5489SOL     OW17365   6.394   3.416   2.364
 5489SOL    HW117366   6.338   3.490   2.402
 5489SOL    HW217367   6.491   3.441   2.368
 5490SOL     OW17368   2.075   6.787   2.725
 5490SOL    HW117369   2.128   6.795   2.641
 5490SOL    HW217370   2.064   6.877   2.767
 5491SOL     OW17371   6.821   2.787   0.940
 5491SOL    HW117372   6.813   2.885   0.921
 5491SOL    HW217373   6.731   2.744   0.931
 5492SOL     OW17374   1.307   3.749   5.802
 5492SOL    HW117375   1.371   3.690   5.850
 5492SOL    HW217376   1.213   3.727   5.831
 5493SOL     OW17377   4.120   3.695   2.185
 5493SOL    HW117378   4.098   3.654   2.273
 5493SOL    HW217379   4.166   3.783   2.200
 5494SOL     OW17380   5.928   4.373   5.440
 5494SOL    HW117381   5.834   4.354   5.466
 5494SOL    HW217382   5.930   4.443   5.368
 5495SOL     OW17383   6.025   0.986   0.504
 5495SOL    HW117384   5.990   1.079   0.497
 5495SOL    HW217385   5.990   0.932   0.427
 5496SOL     OW17386   4.054   0.667   4.297
 5496SOL    HW117387   4.095   0.754   4.324
 5496SOL    HW217388   4.050   0.606   4.376
 5497SOL     OW17389   0.056   1.046   5.715
 5497SOL    HW117390   0.080   0.950   5.707
 5497SOL    HW217391   0.078   1.078   5.807
 5498SOL     OW17392   0.325   5.026   1.793
 5498SOL    HW117393   0.366   5.117   1.806
 5498SOL    HW217394   0.253   5.032   1.724
 5499SOL     OW17395   0.395   0.852   3.866
 5499SOL    HW117396   0.492   0.841   3.887
 5499SOL    HW217397   0.384   0.866   3.767
 5500SOL     OW17398   1.918   1.284   0.048
 5500SOL    HW117399   1.946   1.196   0.088
 5500SOL    HW217400   1.836   1.316   0.094
 5501SOL     OW17401   4.091   2.234   0.149
 5501SOL    HW117402   4.058   2.229   0.243
 5501SOL    HW217403   4.171   2.295   0.145
 5502SOL     OW17404   4.908   3.604   6.468
 5502SOL    HW117405   4.898   3.696   6.430
 5502SOL    HW217406   4.949   3.544   6.400
 5503SOL     OW17407   0.456   3.846   0.334
 5503SOL    HW117408   0.456   3.841   0.434
 5503SOL    HW217409   0.515   3.921   0.305
 5504SOL     OW17410   4.137   0.929   6.624
 5504SOL    HW117411   4.087   0.893   6.704
 5504SOL    HW217412   4.191   0.855   6.583
 5505SOL     OW17413   2.232   4.106   3.838
 5505SOL    HW117414   2.329   4.122   3.818
 5505SOL    HW217415   2.186   4.077   3.754
 5506SOL     OW17416   7.011   3.478   6.153
 5506SOL    HW117417   6.947   3.537   6.104
 5506SOL    HW217418   0.017   3.404   6.093
 5507SOL     OW17419   3.582   0.507   5.899
 5507SOL    HW117420   3.485   0.523   5.920
 5507SOL    HW217421   3.619   0.586   5.851
 5508SOL     OW17422   1.258   1.249   6.911
 5508SOL    HW117423   1.345   1.212   6.878
 5508SOL    HW217424   1.213   1.299   6.837
 5509SOL     OW17425   0.417   5.258   1.289
 5509SOL    HW117426   0.357   5.195   1.338
 5509SOL    HW217427   0.482   5.299   1.353
 5510SOL     OW17428   5.182   5.529   0.282
 5510SOL    HW117429   5.132   5.488   0.359
 5510SOL    HW217430   5.210   5.457   0.219
 5511SOL     OW17431   0.429   1.584   5.265
 5511SOL    HW117432   0.450   1.681   5.275
 5511SOL    HW217433   0.349   1.573   5.207
 5512SOL     OW17434   3.322   0.919   1.738
 5512SOL    HW117435   3.266   0.879   1.811
 5512SOL    HW217436   3.280   0.899   1.649
 5513SOL     OW17437   4.010   5.033   6.217
 5513SOL    HW117438   4.011   5.128   6.249
 5513SOL    HW217439   4.052   4.974   6.286
 5514SOL     OW17440   3.143   6.398   5.372
 5514SOL    HW117441   3.161   6.356   5.283
 5514SOL    HW217442   3.094   6.484   5.359
 5515SOL     OW17443   2.209   5.651   2.067
 5515SOL    HW117444   2.156   5.725   2.025
 5515SOL    HW217445   2.179   5.637   2.161
 5516SOL     OW17446   2.424   2.688   5.143
 5516SOL    HW117447   2.381   2.635   5.070
 5516SOL    HW217448   2.436   2.783   5.112
 5517SOL     OW17449   1.754   3.924   2.514
 5517SOL    HW117450   1.843   3.960   2.541
 5517SOL    HW217451   1.683   3.988   2.543
 5518SOL     OW17452   5.060   4.470   5.711
 5518SOL    HW117453   4.984   4.523   5.673
 5518SOL    HW217454   5.146   4.519   5.695
 5519SOL     OW17455   4.647   2.608   3.677
 5519SOL    HW117456   4.598   2.597   3.590
 5519SOL    HW217457   4.742   2.578   3.666
 5520SOL     OW17458   5.744   6.301   2.233
 5520SOL    HW117459   5.735   6.212   2.279
 5520SOL    HW217460   5.801   6.291   2.151
 5521SOL     OW17461   6.065   4.774   2.114
 5521SOL    HW117462   6.090   4.861   2.155
 5521SOL    HW217463   6.148   4.720   2.096
 5522SOL     OW17464   5.806   5.404   1.633
 5522SOL    HW117465   5.799   5.370   1.540
 5522SOL    HW217466   5.860   5.489   1.634
 5523SOL     OW17467   5.687   0.915   2.906
 5523SOL    HW117468   5.777   0.931   2.946
 5523SOL    HW217469   5.687   0.830   2.853
 5524SOL     OW17470   3.388   0.667   5.191
 5524SOL    HW117471   3.337   0.740   5.146
 5524SOL    HW217472   3.429   0.704   5.275
 5525SOL     OW17473   6.294   2.741   0.952
 5525SOL    HW117474   6.307   2.840   0.955
 5525SOL    HW217475   6.317   2.707   0.861
 5526SOL     OW17476   4.602   4.329   3.068
 5526SOL    HW117477   4.586   4.367   2.977
 5526SOL    HW217478   4.656   4.246   3.061
 5527SOL     OW17479   4.949   2.803   3.847
 5527SOL    HW117480   5.019   2.868   3.877
 5527SOL    HW217481   4.859   2.839   3.871
 5528SOL     OW17482   1.170   1.992   1.540
 5528SOL    HW117483   1.209   1.989   1.448
 5528SOL    HW217484   1.086   2.046   1.539
 5529SOL     OW17485   2.502   1.005   2.722
 5529SOL    HW117486   2.465   1.022   2.813
 5529SOL    HW217487   2.492   0.907   2.700
 5530SOL     OW17488   6.323   2.407   1.404
 5530SOL    HW117489   6.328   2.454   1.316
 5530SOL    HW217490   6.310   2.309   1.389
 5531SOL     OW17491   3.762   3.793   1.214
 5531SOL    HW117492   3.678   3.739   1.215
 5531SOL    HW217493   3.841   3.733   1.227
 5532SOL     OW17494   2.214   2.314   1.181
 5532SOL    HW117495   2.254   2.228   1.215
 5532SOL    HW217496   2.283   2.366   1.131
 5533SOL     OW17497   4.401   1.213   4.374
 5533SOL    HW117498   4.401   1.313   4.371
 5533SOL    HW217499   4.489   1.181   4.410
 5534SOL     OW17500   0.820   1.120   5.394
 5534SOL    HW117501   0.836   1.062   5.314
 5534SOL    HW217502   0.800   1.062   5.473
 5535SOL     OW17503   1.169   1.858   2.705
 5535SOL    HW117504   1.245   1.797   2.683
 5535SOL    HW217505   1.155   1.861   2.804
 5536SOL     OW17506   2.619   1.205   5.322
 5536SOL    HW117507   2.542   1.193   5.259
 5536SOL    HW217508   2.684   1.270   5.283
 5537SOL     OW17509   3.712   1.385   2.904
 5537SOL    HW117510   3.732   1.467   2.850
 5537SOL    HW217511   3.788   1.320   2.894
 5538SOL     OW17512   4.631   5.843   4.750
 5538SOL    HW117513   4.714   5.791   4.770
 5538SOL    HW217514   4.618   5.850   4.651
 5539SOL     OW17515   2.381   2.609   0.773
 5539SOL    HW117516   2.461   2.667   0.761
 5539SOL    HW217517   2.308   2.638   0.711
 5540SOL     OW17518   5.195   4.918   2.881
 5540SOL    HW117519   5.289   4.908   2.849
 5540SOL    HW217520   5.173   5.015   2.891
 5541SOL     OW17521   4.931   1.467   6.164
 5541SOL    HW117522   4.963   1.450   6.071
 5541SOL    HW217523   4.989   1.537   6.206
 5542SOL     OW17524   3.548   5.030   6.437
 5542SOL    HW117525   3.507   5.057   6.350
 5542SOL    HW217526   3.602   4.947   6.425
 5543SOL     OW17527   6.142   3.219   6.357
 5543SOL    HW117528   6.130   3.258   6.449
 5543SOL    HW217529   6.217   3.152   6.360
 5544SOL     OW17530   5.849   1.129   5.513
 5544SOL    HW117531   5.877   1.201   5.576
 5544SOL    HW217532   5.900   1.045   5.532
 5545SOL     OW17533   3.973   2.196   2.540
 5545SOL    HW117534   4.047   2.256   2.570
 5545SOL    HW217535   4.004   2.140   2.463
 5546SOL     OW17536   1.777   5.433   5.872
 5546SOL    HW117537   1.854   5.491   5.846
 5546SOL    HW217538   1.743   5.461   5.961
 5547SOL     OW17539   3.288   5.206   5.651
 5547SOL    HW117540   3.190   5.183   5.643
 5547SOL    HW217541   3.335   5.132   5.699
 5548SOL     OW17542   6.179   3.665   5.167
 5548SOL    HW117543   6.260   3.609   5.184
 5548SOL    HW217544   6.139   3.640   5.079
 5549SOL     OW17545   2.802   4.732   0.062
 5549SOL    HW117546   2.839   4.714   0.153
 5549SOL    HW217547   2.751   4.652   0.030
 5550SOL     OW17548   3.555   6.140   1.221
 5550SOL    HW117549   3.513   6.081   1.289
 5550SOL    HW217550   3.516   6.232   1.227
 5551SOL     OW17551   1.462   1.985   3.270
 5551SOL    HW117552   1.527   2.011   3.342
 5551SOL    HW217553   1.508   1.924   3.205
 5552SOL     OW17554   0.072   2.473   1.392
 5552SOL    HW117555   0.071   2.373   1.402
 5552SOL    HW217556   0.137   2.498   1.320
 5553SOL     OW17557   4.993   6.019   0.513
 5553SOL    HW117558   4.915   6.070   0.547
 5553SOL    HW217559   5.029   5.961   0.586
 5554SOL     OW17560   2.859   1.898   5.055
 5554SOL    HW117561   2.880   1.995   5.064
 5554SOL    HW217562   2.789   1.885   4.984
 5555SOL     OW17563   0.104   5.043   3.361
 5555SOL    HW117564   0.035   5.059   3.432
 5555SOL    HW217565   0.070   4.973   3.298
 5556SOL     OW17566   0.688   2.086   5.500
 5556SOL    HW117567   0.745   2.032   5.439
 5556SOL    HW217568   0.610   2.032   5.530
 5557SOL     OW17569   1.911   6.614   3.945
 5557SOL    HW117570   1.956   6.567   4.021
 5557SOL    HW217571   1.970   6.613   3.865
 5558SOL     OW17572   5.067   3.054   5.079
 5558SOL    HW117573   5.152   3.004   5.098
 5558SOL    HW217574   5.087   3.133   5.021
 5559SOL     OW17575   1.900   0.595   0.753
 5559SOL    HW117576   1.952   0.678   0.775
 5559SOL    HW217577   1.807   0.620   0.725
 5560SOL     OW17578   0.291   0.957   3.640
 5560SOL    HW117579   0.260   1.045   3.675
 5560SOL    HW217580   0.218   0.889   3.651
 5561SOL     OW17581   1.551   2.977   3.701
 5561SOL    HW117582   1.603   2.966   3.617
 5561SOL    HW217583   1.466   3.026   3.683
 5562SOL     OW17584   2.691   3.264   6.080
 5562SOL    HW117585   2.694   3.362   6.060
 5562SOL    HW217586   2.705   3.213   5.995
 5563SOL     OW17587   4.965   5.721   2.203
 5563SOL    HW117588   5.056   5.739   2.241
 5563SOL    HW217589   4.901   5.707   2.278
 5564SOL     OW17590   5.198   3.646   1.662
 5564SOL    HW117591   5.162   3.727   1.708
 5564SOL    HW217592   5.251   3.591   1.727
 5565SOL     OW17593   3.247   2.533   5.659
 5565SOL    HW117594   3.250   2.576   5.749
 5565SOL    HW217595   3.310   2.455   5.658
 5566SOL     OW17596   1.805   4.761   1.228
 5566SOL    HW117597   1.760   4.677   1.197
 5566SOL    HW217598   1.888   4.777   1.174
 5567SOL     OW17599   1.533   5.423   2.088
 5567SOL    HW117600   1.491   5.337   2.061
 5567SOL    HW217601   1.531   5.487   2.011
 5568SOL     OW17602   3.418   1.174   1.812
 5568SOL    HW117603   3.458   1.150   1.900
 5568SOL    HW217604   3.376   1.093   1.772
 5569SOL     OW17605   4.355   2.091   0.107
 5569SOL    HW117606   4.360   2.005   0.056
 5569SOL    HW217607   4.259   2.117   0.118
 5570SOL     OW17608   6.831   4.426   5.830
 5570SOL    HW117609   6.850   4.462   5.921
 5570SOL    HW217610   6.746   4.465   5.796
 5571SOL     OW17611   6.760   5.535   7.003
 5571SOL    HW117612   6.818   5.462   0.016
 5571SOL    HW217613   6.787   5.622   0.020
 5572SOL     OW17614   4.729   2.589   6.315
 5572SOL    HW117615   4.676   2.508   6.338
 5572SOL    HW217616   4.727   2.604   6.217
 5573SOL     OW17617   1.455   3.619   0.604
 5573SOL    HW117618   1.503   3.536   0.575
 5573SOL    HW217619   1.375   3.595   0.659
 5574SOL     OW17620   0.770   5.860   5.476
 5574SOL    HW117621   0.757   5.947   5.524
 5574SOL    HW217622   0.848   5.812   5.515
 5575SOL     OW17623   1.359   1.533   0.893
 5575SOL    HW117624   1.417   1.454   0.874
 5575SOL    HW217625   1.415   1.616   0.895
 5576SOL     OW17626   6.164   6.477   0.295
 5576SOL    HW117627   6.191   6.573   0.294
 5576SOL    HW217628   6.246   6.419   0.292
 5577SOL     OW17629   1.793   3.992   5.267
 5577SOL    HW117630   1.826   3.998   5.361
 5577SOL    HW217631   1.860   4.033   5.205
 5578SOL     OW17632   4.220   2.677   0.164
 5578SOL    HW117633   4.147   2.704   0.226
 5578SOL    HW217634   4.281   2.755   0.150
 5579SOL     OW17635   4.774   4.122   6.707
 5579SOL    HW117636   4.841   4.052   6.733
 5579SOL    HW217637   4.710   4.136   6.783
 5580SOL     OW17638   5.936   1.541   0.448
 5580SOL    HW117639   5.953   1.615   0.514
 5580SOL    HW217640   5.866   1.569   0.383
 5581SOL     OW17641   2.535   1.905   6.528
 5581SOL    HW117642   2.495   1.947   6.446
 5581SOL    HW217643   2.625   1.945   6.546
 5582SOL     OW17644   3.815   3.083   3.698
 5582SOL    HW117645   3.820   3.161   3.636
 5582SOL    HW217646   3.768   3.007   3.652
 5583SOL     OW17647   3.746   7.000   1.399
 5583SOL    HW117648   3.832   6.950   1.403
 5583SOL    HW217649   3.764   0.075   1.398
 5584SOL     OW17650   6.440   3.063   3.255
 5584SOL    HW117651   6.377   3.098   3.186
 5584SOL    HW217652   6.410   2.972   3.284
 5585SOL     OW17653   5.883   0.248   4.300
 5585SOL    HW117654   5.829   0.171   4.266
 5585SOL    HW217655   5.867   0.260   4.397
 5586SOL     OW17656   1.775   0.963   5.834
 5586SOL    HW117657   1.746   1.007   5.749
 5586SOL    HW217658   1.695   0.937   5.887
 5587SOL     OW17659   3.504   0.098   4.055
 5587SOL    HW117660   3.429   0.131   4.111
 5587SOL    HW217661   3.492   0.128   3.961
 5588SOL     OW17662   3.218   0.114   5.846
 5588SOL    HW117663   3.257   0.022   5.855
 5588SOL    HW217664   3.287   0.182   5.868
 5589SOL     OW17665   4.468   2.823   6.535
 5589SOL    HW117666   4.534   2.853   6.604
 5589SOL    HW217667   4.492   2.863   6.446
 5590SOL     OW17668   6.844   6.142   3.530
 5590SOL    HW117669   6.933   6.156   3.573
 5590SOL    HW217670   6.814   6.048   3.547
 5591SOL     OW17671   5.215   0.882   0.452
 5591SOL    HW117672   5.186   0.893   0.357
 5591SOL    HW217673   5.168   0.948   0.509
 5592SOL     OW17674   1.720   3.521   2.687
 5592SOL    HW117675   1.761   3.433   2.712
 5592SOL    HW217676   1.780   3.567   2.621
 5593SOL     OW17677   1.808   3.056   5.914
 5593SOL    HW117678   1.735   3.064   5.982
 5593SOL    HW217679   1.889   3.016   5.957
 5594SOL     OW17680   1.793   1.018   6.934
 5594SOL    HW117681   1.841   0.966   6.863
 5594SOL    HW217682   1.849   1.021   7.017
 5595SOL     OW17683   6.879   2.259   5.781
 5595SOL    HW117684   6.938   2.269   5.862
 5595SOL    HW217685   6.783   2.264   5.809
 5596SOL     OW17686   4.912   0.788   3.438
 5596SOL    HW117687   4.975   0.711   3.451
 5596SOL    HW217688   4.832   0.757   3.388
 5597SOL     OW17689   0.127   0.819   6.364
 5597SOL    HW117690   0.096   0.874   6.287
 5597SOL    HW217691   0.056   0.753   6.389
 5598SOL     OW17692   6.307   1.710   3.747
 5598SOL    HW117693   6.308   1.611   3.736
 5598SOL    HW217694   6.401   1.744   3.756
 5599SOL     OW17695   4.868   3.121   3.011
 5599SOL    HW117696   4.847   3.029   3.045
 5599SOL    HW217697   4.857   3.187   3.085
 5600SOL     OW17698   2.482   1.530   2.074
 5600SOL    HW117699   2.388   1.531   2.106
 5600SOL    HW217700   2.541   1.571   2.144
 5601SOL     OW17701   5.613   2.469   5.571
 5601SOL    HW117702   5.584   2.491   5.664
 5601SOL    HW217703   5.534   2.436   5.518
 5602SOL     OW17704   0.364   2.003   2.668
 5602SOL    HW117705   0.297   1.951   2.614
 5602SOL    HW217706   0.371   1.963   2.759
 5603SOL     OW17707   3.940   2.170   4.654
 5603SOL    HW117708   3.900   2.202   4.568
 5603SOL    HW217709   3.904   2.079   4.676
 5604SOL     OW17710   0.973   0.361   4.291
 5604SOL    HW117711   0.931   0.379   4.380
 5604SOL    HW217712   1.039   0.285   4.300
 5605SOL     OW17713   2.741   6.238   4.325
 5605SOL    HW117714   2.807   6.313   4.318
 5605SOL    HW217715   2.733   6.193   4.236
 5606SOL     OW17716   4.645   2.306   0.790
 5606SOL    HW117717   4.731   2.349   0.762
 5606SOL    HW217718   4.569   2.346   0.740
 5607SOL     OW17719   6.241   2.346   2.596
 5607SOL    HW117720   6.249   2.279   2.522
 5607SOL    HW217721   6.162   2.323   2.653
 5608SOL     OW17722   4.983   0.812   3.922
 5608SOL    HW117723   4.946   0.860   4.001
 5608SOL    HW217724   4.962   0.862   3.839
 5609SOL     OW17725   6.488   0.010   0.754
 5609SOL    HW117726   6.416   0.071   0.721
 5609SOL    HW217727   6.557   7.022   0.682
 5610SOL     OW17728   5.241   4.656   6.987
 5610SOL    HW117729   5.304   4.595   6.937
 5610SOL    HW217730   5.208   4.609   0.045
 5611SOL     OW17731   6.929   4.781   1.060
 5611SOL    HW117732   6.928   4.682   1.046
 5611SOL    HW217733   6.891   4.802   1.150
 5612SOL     OW17734   2.990   1.360   0.556
 5612SOL    HW117735   3.012   1.438   0.497
 5612SOL    HW217736   3.074   1.311   0.580
 5613SOL     OW17737   6.796   5.612   5.674
 5613SOL    HW117738   6.850   5.603   5.758
 5613SOL    HW217739   6.732   5.688   5.684
 5614SOL     OW17740   5.400   2.424   4.065
 5614SOL    HW117741   5.490   2.413   4.106
 5614SOL    HW217742   5.332   2.376   4.120
 5615SOL     OW17743   0.090   3.046   3.226
 5615SOL    HW117744   0.156   3.040   3.302
 5615SOL    HW217745   0.133   3.091   3.148
 5616SOL     OW17746   1.501   3.685   2.772
 5616SOL    HW117747   1.470   3.643   2.857
 5616SOL    HW217748   1.593   3.651   2.750
 5617SOL     OW17749   1.702   5.107   6.282
 5617SOL    HW117750   1.772   5.176   6.261
 5617SOL    HW217751   1.627   5.115   6.216
 5618SOL     OW17752   6.816   5.944   3.046
 5618SOL    HW117753   6.745   6.014   3.037
 5618SOL    HW217754   6.906   5.988   3.047
 5619SOL     OW17755   3.739   2.963   4.154
 5619SOL    HW117756   3.772   3.055   4.174
 5619SOL    HW217757   3.721   2.915   4.240
 5620SOL     OW17758   4.660   4.724   5.187
 5620SOL    HW117759   4.679   4.654   5.118
 5620SOL    HW217760   4.691   4.691   5.276
 5621SOL     OW17761   1.379   2.227   5.546
 5621SOL    HW117762   1.334   2.316   5.541
 5621SOL    HW217763   1.348   2.179   5.629
 5622SOL     OW17764   4.329   6.027   4.661
 5622SOL    HW117765   4.298   6.016   4.566
 5622SOL    HW217766   4.424   6.058   4.661
 5623SOL     OW17767   4.940   5.696   3.640
 5623SOL    HW117768   4.938   5.658   3.547
 5623SOL    HW217769   4.906   5.628   3.705
 5624SOL     OW17770   6.626   5.451   4.158
 5624SOL    HW117771   6.552   5.515   4.179
 5624SOL    HW217772   6.592   5.381   4.096
 5625SOL     OW17773   0.759   6.121   5.589
 5625SOL    HW117774   0.720   6.152   5.675
 5625SOL    HW217775   0.854   6.151   5.582
 5626SOL     OW17776   1.244   4.254   4.985
 5626SOL    HW117777   1.241   4.206   4.897
 5626SOL    HW217778   1.335   4.241   5.026
 5627SOL     OW17779   1.168   5.634   6.600
 5627SOL    HW117780   1.209   5.676   6.681
 5627SOL    HW217781   1.096   5.694   6.565
 5628SOL     OW17782   2.203   2.300   1.949
 5628SOL    HW117783   2.144   2.267   1.875
 5628SOL    HW217784   2.257   2.224   1.986
 5629SOL     OW17785   5.222   3.782   1.390
 5629SOL    HW117786   5.177   3.854   1.338
 5629SOL    HW217787   5.188   3.782   1.484
 5630SOL     OW17788   1.347   4.575   0.066
 5630SOL    HW117789   1.342   4.675   0.059
 5630SOL    HW217790   1.387   4.550   0.155
 5631SOL     OW17791   3.985   0.955   1.571
 5631SOL    HW117792   3.897   1.002   1.573
 5631SOL    HW217793   4.022   0.951   1.664
 5632SOL     OW17794   5.685   6.747   5.870
 5632SOL    HW117795   5.660   6.798   5.787
 5632SOL    HW217796   5.784   6.751   5.884
 5633SOL     OW17797   0.804   5.489   6.142
 5633SOL    HW117798   0.838   5.398   6.118
 5633SOL    HW217799   0.850   5.558   6.084
 5634SOL     OW17800   2.334   6.931   0.764
 5634SOL    HW117801   2.354   7.013   0.712
 5634SOL    HW217802   2.324   6.853   0.702
 5635SOL     OW17803   1.626   0.822   6.257
 5635SOL    HW117804   1.713   0.829   6.208
 5635SOL    HW217805   1.603   0.910   6.298
 5636SOL     OW17806   6.036   1.372   5.495
 5636SOL    HW117807   6.043   1.394   5.593
 5636SOL    HW217808   6.112   1.312   5.469
 5637SOL     OW17809   4.499   6.210   4.882
 5637SOL    HW117810   4.528   6.245   4.971
 5637SOL    HW217811   4.578   6.209   4.820
 5638SOL     OW17812   5.885   5.551   1.098
 5638SOL    HW117813   5.911   5.561   1.002
 5638SOL    HW217814   5.813   5.483   1.106
 5639SOL     OW17815   1.178   0.501   1.080
 5639SOL    HW117816   1.222   0.587   1.106
 5639SOL    HW217817   1.169   0.497   0.981
 5640SOL     OW17818   2.665   5.822   3.066
 5640SOL    HW117819   2.621   5.851   2.980
 5640SOL    HW217820   2.600   5.833   3.141
 5641SOL     OW17821   0.787   4.511   4.146
 5641SOL    HW117822   0.762   4.586   4.207
 5641SOL    HW217823   0.705   4.466   4.112
 5642SOL     OW17824   1.479   4.955   0.131
 5642SOL    HW117825   1.418   4.915   0.062
 5642SOL    HW217826   1.520   5.038   0.094
 5643SOL     OW17827   4.231   1.914   4.741
 5643SOL    HW117828   4.192   1.929   4.650
 5643SOL    HW217829   4.323   1.952   4.745
 5644SOL     OW17830   4.084   0.661   4.961
 5644SOL    HW117831   4.057   0.616   5.046
 5644SOL    HW217832   4.167   0.619   4.925
 5645SOL     OW17833   5.491   5.057   3.982
 5645SOL    HW117834   5.507   5.011   3.894
 5645SOL    HW217835   5.406   5.109   3.977
 5646SOL     OW17836   0.721   6.632   4.748
 5646SOL    HW117837   0.750   6.550   4.797
 5646SOL    HW217838   0.622   6.643   4.756
 5647SOL     OW17839   5.718   5.591   5.839
 5647SOL    HW117840   5.659   5.615   5.916
 5647SOL    HW217841   5.703   5.657   5.765
 5648SOL     OW17842   1.614   1.806   4.159
 5648SOL    HW117843   1.710   1.805   4.130
 5648SOL    HW217844   1.561   1.863   4.096
 5649SOL     OW17845   0.450   1.141   5.255
 5649SOL    HW117846   0.519   1.206   5.287
 5649SOL    HW217847   0.445   1.143   5.156
 5650SOL     OW17848   6.415   5.085   6.538
 5650SOL    HW117849   6.476   5.128   6.471
 5650SOL    HW217850   6.320   5.103   6.513
 5651SOL     OW17851   7.012   0.413   2.768
 5651SOL    HW117852   7.012   0.512   2.783
 5651SOL    HW217853   6.940   0.390   2.703
 5652SOL     OW17854   4.694   5.088   0.808
 5652SOL    HW117855   4.767   5.035   0.850
 5652SOL    HW217856   4.728   5.133   0.725
 5653SOL     OW17857   0.580   5.819   6.506
 5653SOL    HW117858   0.610   5.764   6.428
 5653SOL    HW217859   0.510   5.770   6.557
 5654SOL     OW17860   6.569   6.895   5.473
 5654SOL    HW117861   6.526   6.975   5.513
 5654SOL    HW217862   6.583   6.910   5.375
 5655SOL     OW17863   6.749   3.328   4.329
 5655SOL    HW117864   6.693   3.369   4.400
 5655SOL    HW217865   6.693   3.308   4.249
 5656SOL     OW17866   3.263   4.694   0.344
 5656SOL    HW117867   3.231   4.601   0.323
 5656SOL    HW217868   3.258   4.709   0.443
 5657SOL     OW17869   3.811   0.266   1.816
 5657SOL    HW117870   3.855   0.321   1.745
 5657SOL    HW217871   3.722   0.233   1.782
 5658SOL     OW17872   3.574   0.056   5.797
 5658SOL    HW117873   3.514   0.129   5.764
 5658SOL    HW217874   3.531   0.010   5.875
 5659SOL     OW17875   3.087   3.842   2.601
 5659SOL    HW117876   3.032   3.861   2.519
 5659SOL    HW217877   3.109   3.928   2.646
 5660SOL     OW17878   5.106   6.676   6.871
 5660SOL    HW117879   5.190   6.655   6.821
 5660SOL    HW217880   5.077   6.596   6.922
 5661SOL     OW17881   5.729   5.454   4.169
 5661SOL    HW117882   5.790   5.522   4.127
 5661SOL    HW217883   5.687   5.398   4.098
 5662SOL     OW17884   2.053   4.744   4.034
 5662SOL    HW117885   2.030   4.828   4.083
 5662SOL    HW217886   1.983   4.725   3.966
 5663SOL     OW17887   1.446   4.377   0.876
 5663SOL    HW117888   1.431   4.475   0.893
 5663SOL    HW217889   1.521   4.366   0.811
 5664SOL     OW17890   0.014   4.665   2.175
 5664SOL    HW117891   7.016   4.634   2.082
 5664SOL    HW217892   0.046   4.760   2.172
 5665SOL     OW17893   2.488   3.185   5.617
 5665SOL    HW117894   2.506   3.087   5.606
 5665SOL    HW217895   2.502   3.211   5.713
 5666SOL     OW17896   5.694   4.473   0.988
 5666SOL    HW117897   5.766   4.431   1.043
 5666SOL    HW217898   5.729   4.555   0.943
 5667SOL     OW17899   0.011   4.903   2.891
 5667SOL    HW117900   6.970   4.973   2.861
 5667SOL    HW217901   0.088   4.948   2.938
 5668SOL     OW17902   5.795   1.797   6.558
 5668SOL    HW117903   5.871   1.775   6.619
 5668SOL    HW217904   5.823   1.870   6.496
 5669SOL     OW17905   0.628   4.658   6.265
 5669SOL    HW117906   0.640   4.756   6.248
 5669SOL    HW217907   0.613   4.611   6.178
 5670SOL     OW17908   0.425   3.637   4.197
 5670SOL    HW117909   0.462   3.730   4.200
 5670SOL    HW217910   0.400   3.614   4.104
 5671SOL     OW17911   1.348   0.473   5.747
 5671SOL    HW117912   1.258   0.506   5.719
 5671SOL    HW217913   1.362   0.491   5.844
 5672SOL     OW17914   4.887   4.683   5.667
 5672SOL    HW117915   4.805   4.737   5.681
 5672SOL    HW217916   4.957   4.712   5.732
 5673SOL     OW17917   0.602   0.432   2.085
 5673SOL    HW117918   0.669   0.446   2.158
 5673SOL    HW217919   0.516   0.477   2.110
 5674SOL     OW17920   6.559   3.454   1.406
 5674SOL    HW117921   6.539   3.525   1.339
 5674SOL    HW217922   6.549   3.491   1.499
 5675SOL     OW17923   4.428   2.230   5.270
 5675SOL    HW117924   4.337   2.245   5.308
 5675SOL    HW217925   4.452   2.306   5.210
 5676SOL     OW17926   2.036   0.602   2.025
 5676SOL    HW117927   1.954   0.605   2.082
 5676SOL    HW217928   2.018   0.545   1.944
 5677SOL     OW17929   6.499   1.060   3.446
 5677SOL    HW117930   6.468   0.983   3.390
 5677SOL    HW217931   6.531   1.133   3.386
 5678SOL     OW17932   3.074   0.023   3.154
 5678SOL    HW117933   3.133   6.997   3.091
 5678SOL    HW217934   3.121   0.032   3.242
 5679SOL     OW17935   1.905   6.760   4.887
 5679SOL    HW117936   1.837   6.794   4.822
 5679SOL    HW217937   1.979   6.716   4.837
 5680SOL     OW17938   1.915   5.264   6.261
 5680SOL    HW117939   1.963   5.184   6.299
 5680SOL    HW217940   1.974   5.344   6.265
 5681SOL     OW17941   1.450   3.145   6.928
 5681SOL    HW117942   1.473   3.048   6.921
 5681SOL    HW217943   1.366   3.163   6.877
 5682SOL     OW17944   1.220   3.205   5.595
 5682SOL    HW117945   1.179   3.220   5.685
 5682SOL    HW217946   1.253   3.292   5.559
 5683SOL     OW17947   3.575   2.356   6.078
 5683SOL    HW117948   3.587   2.296   6.000
 5683SOL    HW217949   3.627   2.441   6.064
 5684SOL     OW17950   3.692   3.956   3.754
 5684SOL    HW117951   3.623   3.905   3.805
 5684SOL    HW217952   3.648   4.030   3.702
 5685SOL     OW17953   0.086   4.954   2.102
 5685SOL    HW117954   0.091   5.052   2.124
 5685SOL    HW217955   0.140   4.936   2.020
 5686SOL     OW17956   3.645   0.228   0.667
 5686SOL    HW117957   3.651   0.131   0.693
 5686SOL    HW217958   3.674   0.239   0.572
 5687SOL     OW17959   5.476   5.330   5.565
 5687SOL    HW117960   5.465   5.312   5.663
 5687SOL    HW217961   5.518   5.250   5.521
 5688SOL     OW17962   5.826   1.920   1.336
 5688SOL    HW117963   5.893   1.972   1.389
 5688SOL    HW217964   5.748   1.979   1.314
 5689SOL     OW17965   3.969   1.957   0.753
 5689SOL    HW117966   3.887   2.014   0.754
 5689SOL    HW217967   3.943   1.862   0.739
 5690SOL     OW17968   4.110   5.837   1.187
 5690SOL    HW117969   4.155   5.901   1.250
 5690SOL    HW217970   4.027   5.801   1.231
 5691SOL     OW17971   1.939   0.154   1.703
 5691SOL    HW117972   1.938   0.158   1.603
 5691SOL    HW217973   2.034   0.156   1.735
 5692SOL     OW17974   6.665   3.060   6.541
 5692SOL    HW117975   6.754   3.017   6.555
 5692SOL    HW217976   6.641   3.113   6.623
 5693SOL     OW17977   4.545   2.396   2.824
 5693SOL    HW117978   4.473   2.328   2.839
 5693SOL    HW217979   4.547   2.458   2.903
 5694SOL     OW17980   0.456   0.880   3.429
 5694SOL    HW117981   0.404   0.927   3.358
 5694SOL    HW217982   0.412   0.895   3.518
 5695SOL     OW17983   1.598   3.342   3.347
 5695SOL    HW117984   1.659   3.372   3.274
 5695SOL    HW217985   1.547   3.420   3.382
 5696SOL     OW17986   2.692   0.738   5.004
 5696SOL    HW117987   2.756   0.690   4.945
 5696SOL    HW217988   2.690   0.694   5.094
 5697SOL     OW17989   6.739   2.751   0.184
 5697SOL    HW117990   6.776   2.842   0.200
 5697SOL    HW217991   6.812   2.684   0.186
 5698SOL     OW17992   0.626   3.647   1.953
 5698SOL    HW117993   0.551   3.648   2.018
 5698SOL    HW217994   0.593   3.612   1.865
 5699SOL     OW17995   5.813   0.763   4.940
 5699SOL    HW117996   5.777   0.763   5.033
 5699SOL    HW217997   5.902   0.810   4.938
 5700SOL     OW17998   1.662   6.148   5.038
 5700SOL    HW117999   1.692   6.139   5.133
 5700SOL    HW218000   1.701   6.074   4.983
 5701SOL     OW18001   6.454   5.597   2.320
 5701SOL    HW118002   6.378   5.585   2.256
 5701SOL    HW218003   6.540   5.576   2.275
 5702SOL     OW18004   2.265   6.523   6.465
 5702SOL    HW118005   2.253   6.597   6.531
 5702SOL    HW218006   2.327   6.454   6.503
 5703SOL     OW18007   4.101   4.665   0.305
 5703SOL    HW118008   4.120   4.653   0.207
 5703SOL    HW218009   4.029   4.733   0.317
 5704SOL     OW18010   4.589   5.231   3.917
 5704SOL    HW118011   4.531   5.212   3.996
 5704SOL    HW218012   4.531   5.252   3.838
 5705SOL     OW18013   6.117   0.216   1.284
 5705SOL    HW118014   6.071   0.139   1.240
 5705SOL    HW218015   6.073   0.301   1.257
 5706SOL     OW18016   1.375   1.575   6.870
 5706SOL    HW118017   1.288   1.548   6.829
 5706SOL    HW218018   1.379   1.541   6.964
 5707SOL     OW18019   1.814   1.179   6.135
 5707SOL    HW118020   1.803   1.236   6.216
 5707SOL    HW218021   1.827   1.083   6.163
 5708SOL     OW18022   5.200   6.926   2.695
 5708SOL    HW118023   5.153   6.934   2.783
 5708SOL    HW218024   5.238   6.834   2.686
 5709SOL     OW18025   0.467   6.464   3.197
 5709SOL    HW118026   0.566   6.462   3.198
 5709SOL    HW218027   0.432   6.377   3.163
 5710SOL     OW18028   3.069   3.117   5.895
 5710SOL    HW118029   3.105   3.210   5.903
 5710SOL    HW218030   3.074   3.087   5.800
 5711SOL     OW18031   4.811   1.394   4.124
 5711SOL    HW118032   4.714   1.414   4.114
 5711SOL    HW218033   4.836   1.318   4.064
 5712SOL     OW18034   0.107   6.345   5.744
 5712SOL    HW118035   0.134   6.401   5.822
 5712SOL    HW218036   0.119   6.397   5.660
 5713SOL     OW18037   7.021   2.778   2.464
 5713SOL    HW118038   0.082   2.725   2.454
 5713SOL    HW218039   7.012   2.810   2.558
 5714SOL     OW18040   1.103   0.594   5.752
 5714SOL    HW118041   1.106   0.617   5.849
 5714SOL    HW218042   1.043   0.657   5.704
 5715SOL     OW18043   1.656   6.498   2.498
 5715SOL    HW118044   1.646   6.570   2.566
 5715SOL    HW218045   1.623   6.531   2.409
 5716SOL     OW18046   1.604   4.009   6.060
 5716SOL    HW118047   1.587   3.990   5.963
 5716SOL    HW218048   1.651   3.931   6.101
 5717SOL     OW18049   1.036   4.311   0.989
 5717SOL    HW118050   1.069   4.217   0.995
 5717SOL    HW218051   1.029   4.339   0.893
 5718SOL     OW18052   2.761   4.893   6.688
 5718SOL    HW118053   2.743   4.805   6.645
 5718SOL    HW218054   2.770   4.963   6.618
 5719SOL     OW18055   3.426   0.367   6.786
 5719SOL    HW118056   3.438   0.328   6.694
 5719SOL    HW218057   3.512   0.358   6.837
 5720SOL     OW18058   1.387   5.588   5.467
 5720SOL    HW118059   1.377   5.493   5.498
 5720SOL    HW218060   1.479   5.603   5.433
 5721SOL     OW18061   0.713   3.296   1.503
 5721SOL    HW118062   0.648   3.359   1.461
 5721SOL    HW218063   0.688   3.202   1.479
 5722SOL     OW18064   5.474   6.992   4.874
 5722SOL    HW118065   5.453   6.950   4.963
 5722SOL    HW218066   5.442   0.062   4.874
 5723SOL     OW18067   3.635   5.677   0.519
 5723SOL    HW118068   3.694   5.618   0.464
 5723SOL    HW218069   3.583   5.737   0.458
 5724SOL     OW18070   5.485   2.097   6.049
 5724SOL    HW118071   5.509   2.194   6.052
 5724SOL    HW218072   5.456   2.067   6.141
 5725SOL     OW18073   5.353   4.908   4.936
 5725SOL    HW118074   5.346   4.937   5.031
 5725SOL    HW218075   5.446   4.875   4.918
 5726SOL     OW18076   5.907   3.895   5.773
 5726SOL    HW118077   5.889   3.924   5.867
 5726SOL    HW218078   5.824   3.907   5.718
 5727SOL     OW18079   5.684   1.855   3.622
 5727SOL    HW118080   5.638   1.925   3.677
 5727SOL    HW218081   5.698   1.773   3.678
 5728SOL     OW18082   5.951   0.687   5.321
 5728SOL    HW118083   5.982   0.608   5.268
 5728SOL    HW218084   5.875   0.731   5.274
 5729SOL     OW18085   6.919   1.371   6.325
 5729SOL    HW118086   6.930   1.342   6.421
 5729SOL    HW218087   7.009   1.387   6.284
 5730SOL     OW18088   3.989   5.312   5.840
 5730SOL    HW118089   4.043   5.231   5.819
 5730SOL    HW218090   3.924   5.291   5.912
 5731SOL     OW18091   2.866   1.078   4.214
 5731SOL    HW118092   2.942   1.015   4.227
 5731SOL    HW218093   2.806   1.075   4.295
 5732SOL     OW18094   6.281   4.925   5.094
 5732SOL    HW118095   6.373   4.918   5.055
 5732SOL    HW218096   6.277   5.004   5.154
 5733SOL     OW18097   3.534   0.747   6.788
 5733SOL    HW118098   3.436   0.763   6.791
 5733SOL    HW218099   3.574   0.772   6.876
 5734SOL     OW18100   1.537   6.963   5.688
 5734SOL    HW118101   1.548   6.933   5.783
 5734SOL    HW218102   1.582   0.027   5.676
 5735SOL     OW18103   4.265   0.779   2.146
 5735SOL    HW118104   4.318   0.696   2.165
 5735SOL    HW218105   4.267   0.839   2.226
 5736SOL     OW18106   4.634   4.238   6.963
 5736SOL    HW118107   4.671   4.274   0.024
 5736SOL    HW218108   4.572   4.305   6.922
 5737SOL     OW18109   4.840   5.282   1.505
 5737SOL    HW118110   4.929   5.323   1.485
 5737SOL    HW218111   4.777   5.301   1.429
 5738SOL     OW18112   3.541   1.284   6.497
 5738SOL    HW118113   3.633   1.266   6.531
 5738SOL    HW218114   3.539   1.272   6.398
 5739SOL     OW18115   2.820   0.769   6.071
 5739SOL    HW118116   2.841   0.765   5.974
 5739SOL    HW218117   2.748   0.702   6.093
 5740SOL     OW18118   5.530   3.654   0.801
 5740SOL    HW118119   5.551   3.704   0.717
 5740SOL    HW218120   5.431   3.656   0.817
 5741SOL     OW18121   0.622   3.506   4.346
 5741SOL    HW118122   0.557   3.547   4.283
 5741SOL    HW218123   0.573   3.463   4.422
 5742SOL     OW18124   4.391   0.139   3.406
 5742SOL    HW118125   4.445   0.149   3.323
 5742SOL    HW218126   4.348   0.227   3.427
 5743SOL     OW18127   3.513   3.997   5.436
 5743SOL    HW118128   3.588   4.063   5.429
 5743SOL    HW218129   3.436   4.027   5.380
 5744SOL     OW18130   5.697   6.255   2.987
 5744SOL    HW118131   5.686   6.192   3.063
 5744SOL    HW218132   5.720   6.346   3.022
 5745SOL     OW18133   2.343   2.581   3.699
 5745SOL    HW118134   2.259   2.555   3.653
 5745SOL    HW218135   2.328   2.666   3.751
 5746SOL     OW18136   4.283   0.387   3.693
 5746SOL    HW118137   4.274   0.390   3.593
 5746SOL    HW218138   4.211   0.330   3.732
 5747SOL     OW18139   1.001   5.776   1.815
 5747SOL    HW118140   1.008   5.676   1.816
 5747SOL    HW218141   1.065   5.815   1.880
 5748SOL     OW18142   0.420   6.190   0.846
 5748SOL    HW118143   0.485   6.188   0.921
 5748SOL    HW218144   0.334   6.231   0.877
 5749SOL     OW18145   1.543   6.419   5.029
 5749SOL    HW118146   1.542   6.371   5.116
 5749SOL    HW218147   1.588   6.361   4.960
 5750SOL     OW18148   0.005   4.160   4.302
 5750SOL    HW118149   0.045   4.069   4.287
 5750SOL    HW218150   6.971   4.158   4.383
 5751SOL     OW18151   2.100   3.756   4.241
 5751SOL    HW118152   2.104   3.656   4.242
 5751SOL    HW218153   2.099   3.790   4.335
 5752SOL     OW18154   5.655   0.317   0.782
 5752SOL    HW118155   5.656   0.273   0.693
 5752SOL    HW218156   5.701   0.258   0.849
 5753SOL     OW18157   3.181   4.127   5.004
 5753SOL    HW118158   3.155   4.048   4.948
 5753SOL    HW218159   3.163   4.211   4.953
 5754SOL     OW18160   1.144   6.147   1.715
 5754SOL    HW118161   1.099   6.155   1.805
 5754SOL    HW218162   1.111   6.064   1.670
 5755SOL     OW18163   2.316   2.209   0.024
 5755SOL    HW118164   2.291   2.189   6.953
 5755SOL    HW218165   2.267   2.147   0.086
 5756SOL     OW18166   5.873   6.261   1.779
 5756SOL    HW118167   5.898   6.281   1.684
 5756SOL    HW218168   5.951   6.219   1.826
 5757SOL     OW18169   0.064   6.495   3.720
 5757SOL    HW118170   6.992   6.523   3.730
 5757SOL    HW218171   0.100   6.529   3.633
 5758SOL     OW18172   1.531   6.521   3.301
 5758SOL    HW118173   1.525   6.436   3.354
 5758SOL    HW218174   1.597   6.509   3.227
 5759SOL     OW18175   4.247   6.640   2.063
 5759SOL    HW118176   4.254   6.550   2.107
 5759SOL    HW218177   4.151   6.667   2.057
 5760SOL     OW18178   6.522   3.120   1.978
 5760SOL    HW118179   6.496   3.215   1.963
 5760SOL    HW218180   6.534   3.075   1.889
 5761SOL     OW18181   5.453   5.607   4.720
 5761SOL    HW118182   5.383   5.572   4.658
 5761SOL    HW218183   5.519   5.535   4.740
 5762SOL     OW18184   5.786   4.291   6.768
 5762SOL    HW118185   5.757   4.244   6.851
 5762SOL    HW218186   5.879   4.263   6.745
 5763SOL     OW18187   5.407   0.389   0.360
 5763SOL    HW118188   5.384   0.460   0.427
 5763SOL    HW218189   5.504   0.365   0.367
 5764SOL     OW18190   4.400   5.018   3.513
 5764SOL    HW118191   4.452   5.079   3.453
 5764SOL    HW218192   4.304   5.015   3.482
 5765SOL     OW18193   6.235   5.297   1.173
 5765SOL    HW118194   6.307   5.229   1.186
 5765SOL    HW218195   6.182   5.306   1.257
 5766SOL     OW18196   1.021   1.556   4.556
 5766SOL    HW118197   0.958   1.609   4.500
 5766SOL    HW218198   0.991   1.461   4.560
 5767SOL     OW18199   1.942   0.604   0.272
 5767SOL    HW118200   1.875   0.533   0.247
 5767SOL    HW218201   1.910   0.652   0.353
 5768SOL     OW18202   6.596   6.334   3.954
 5768SOL    HW118203   6.633   6.242   3.964
 5768SOL    HW218204   6.569   6.349   3.859
 5769SOL     OW18205   1.590   5.122   6.526
 5769SOL    HW118206   1.654   5.072   6.468
 5769SOL    HW218207   1.604   5.096   6.622
 5770SOL     OW18208   0.775   5.942   1.058
 5770SOL    HW118209   0.841   5.957   1.132
 5770SOL    HW218210   0.707   6.015   1.059
 5771SOL     OW18211   1.868   5.396   3.962
 5771SOL    HW118212   1.826   5.477   3.920
 5771SOL    HW218213   1.882   5.413   4.060
 5772SOL     OW18214   4.354   0.222   1.901
 5772SOL    HW118215   4.397   0.309   1.925
 5772SOL    HW218216   4.270   0.211   1.955
 5773SOL     OW18217   4.316   1.894   1.932
 5773SOL    HW118218   4.329   1.894   2.031
 5773SOL    HW218219   4.289   1.985   1.901
 5774SOL     OW18220   1.099   6.526   3.881
 5774SOL    HW118221   1.185   6.475   3.882
 5774SOL    HW218222   1.061   6.527   3.789
 5775SOL     OW18223   0.926   5.518   3.060
 5775SOL    HW118224   0.852   5.577   3.092
 5775SOL    HW218225   1.004   5.574   3.031
 5776SOL     OW18226   2.145   0.335   3.124
 5776SOL    HW118227   2.220   0.270   3.116
 5776SOL    HW218228   2.131   0.359   3.220
 5777SOL     OW18229   1.505   0.332   3.252
 5777SOL    HW118230   1.465   0.343   3.343
 5777SOL    HW218231   1.547   0.241   3.245
 5778SOL     OW18232   0.898   1.735   6.797
 5778SOL    HW118233   0.928   1.703   6.886
 5778SOL    HW218234   0.938   1.678   6.725
 5779SOL     OW18235   4.549   2.411   6.771
 5779SOL    HW118236   4.514   2.373   6.856
 5779SOL    HW218237   4.503   2.497   6.751
 5780SOL     OW18238   5.191   5.190   4.319
 5780SOL    HW118239   5.160   5.215   4.411
 5780SOL    HW218240   5.289   5.172   4.320
 5781SOL     OW18241   0.004   4.385   4.981
 5781SOL    HW118242   7.018   4.429   5.071
 5781SOL    HW218243   0.072   4.434   4.927
 5782SOL     OW18244   1.162   1.686   0.397
 5782SOL    HW118245   1.188   1.779   0.373
 5782SOL    HW218246   1.229   1.647   0.459
 5783SOL     OW18247   1.678   1.715   1.836
 5783SOL    HW118248   1.673   1.640   1.770
 5783SOL    HW218249   1.707   1.680   1.925
 5784SOL     OW18250   0.324   6.176   6.909
 5784SOL    HW118251   0.229   6.207   6.912
 5784SOL    HW218252   0.364   6.197   6.820
 5785SOL     OW18253   2.491   1.734   0.574
 5785SOL    HW118254   2.506   1.791   0.493
 5785SOL    HW218255   2.578   1.695   0.604
 5786SOL     OW18256   0.087   4.057   6.945
 5786SOL    HW118257   0.125   4.142   6.908
 5786SOL    HW218258   0.154   4.015   7.007
 5787SOL     OW18259   2.022   2.075   5.566
 5787SOL    HW118260   1.997   2.061   5.662
 5787SOL    HW218261   2.090   2.147   5.559
 5788SOL     OW18262   2.226   1.187   2.705
 5788SOL    HW118263   2.307   1.168   2.650
 5788SOL    HW218264   2.212   1.113   2.771
 5789SOL     OW18265   3.290   5.569   6.717
 5789SOL    HW118266   3.261   5.482   6.759
 5789SOL    HW218267   3.215   5.605   6.662
 5790SOL     OW18268   0.158   3.393   4.471
 5790SOL    HW118269   0.125   3.386   4.565
 5790SOL    HW218270   0.096   3.344   4.410
 5791SOL     OW18271   3.058   0.364   2.857
 5791SOL    HW118272   3.000   0.372   2.776
 5791SOL    HW218273   3.003   0.331   2.934
 5792SOL     OW18274   0.123   2.286   3.171
 5792SOL    HW118275   0.151   2.243   3.257
 5792SOL    HW218276   0.032   2.326   3.181
 5793SOL     OW18277   6.938   1.040   3.836
 5793SOL    HW118278   7.007   1.111   3.827
 5793SOL    HW218279   6.954   0.988   3.920
 5794SOL     OW18280   3.735   2.748   0.318
 5794SOL    HW118281   3.748   2.839   0.280
 5794SOL    HW218282   3.643   2.740   0.356
 5795SOL     OW18283   6.260   5.011   5.633
 5795SOL    HW118284   6.263   4.927   5.688
 5795SOL    HW218285   6.218   5.084   5.687
 5796SOL     OW18286   3.340   0.676   0.526
 5796SOL    HW118287   3.320   0.699   0.621
 5796SOL    HW218288   3.277   0.605   0.495
 5797SOL     OW18289   3.695   1.975   5.227
 5797SOL    HW118290   3.703   1.875   5.223
 5797SOL    HW218291   3.734   2.015   5.145
 5798SOL     OW18292   0.579   4.379   5.219
 5798SOL    HW118293   0.624   4.312   5.160
 5798SOL    HW218294   0.590   4.471   5.180
 5799SOL     OW18295   5.747   0.493   3.785
 5799SOL    HW118296   5.789   0.429   3.849
 5799SOL    HW218297   5.648   0.478   3.784
 5800SOL     OW18298   5.645   5.776   1.007
 5800SOL    HW118299   5.741   5.797   0.988
 5800SOL    HW218300   5.591   5.860   1.004
 5801SOL     OW18301   1.005   1.992   3.850
 5801SOL    HW118302   0.945   2.043   3.788
 5801SOL    HW218303   1.007   1.896   3.824
 5802SOL     OW18304   0.561   4.390   6.480
 5802SOL    HW118305   0.475   4.373   6.433
 5802SOL    HW218306   0.551   4.471   6.538
 5803SOL     OW18307   1.669   5.065   1.704
 5803SOL    HW118308   1.674   4.972   1.738
 5803SOL    HW218309   1.676   5.065   1.604
 5804SOL     OW18310   6.263   4.145   4.114
 5804SOL    HW118311   6.346   4.141   4.058
 5804SOL    HW218312   6.265   4.071   4.182
 5805SOL     OW18313   3.794   4.428   6.595
 5805SOL    HW118314   3.700   4.446   6.566
 5805SOL    HW218315   3.793   4.387   6.687
 5806SOL     OW18316   0.839   6.833   0.213
 5806SOL    HW118317   0.911   6.821   0.145
 5806SOL    HW218318   0.796   6.745   0.232
 5807SOL     OW18319   1.237   4.099   1.604
 5807SOL    HW118320   1.250   4.000   1.599
 5807SOL    HW218321   1.215   4.134   1.513
 5808SOL     OW18322   5.544   3.728   2.600
 5808SOL    HW118323   5.532   3.759   2.505
 5808SOL    HW218324   5.495   3.642   2.613
 5809SOL     OW18325   6.283   2.721   4.015
 5809SOL    HW118326   6.324   2.807   3.982
 5809SOL    HW218327   6.223   2.740   4.092
 5810SOL     OW18328   3.115   1.220   4.307
 5810SOL    HW118329   3.101   1.142   4.246
 5810SOL    HW218330   3.158   1.295   4.257
 5811SOL     OW18331   2.920   0.269   4.929
 5811SOL    HW118332   2.951   0.306   5.016
 5811SOL    HW218333   2.952   0.327   4.854
 5812SOL     OW18334   5.208   0.067   4.490
 5812SOL    HW118335   5.308   0.071   4.492
 5812SOL    HW218336   5.177   0.063   4.395
 5813SOL     OW18337   1.088   0.896   5.861
 5813SOL    HW118338   1.106   0.927   5.954
 5813SOL    HW218339   1.140   0.812   5.843
 5814SOL     OW18340   6.521   4.161   0.365
 5814SOL    HW118341   6.585   4.233   0.393
 5814SOL    HW218342   6.548   4.125   0.277
 5815SOL     OW18343   4.603   2.150   3.223
 5815SOL    HW118344   4.626   2.241   3.188
 5815SOL    HW218345   4.687   2.099   3.242
 5816SOL     OW18346   6.058   6.855   0.383
 5816SOL    HW118347   6.013   6.766   0.395
 5816SOL    HW218348   5.994   6.921   0.344
 5817SOL     OW18349   5.932   2.921   5.472
 5817SOL    HW118350   5.838   2.954   5.487
 5817SOL    HW218351   5.992   2.959   5.542
 5818SOL     OW18352   6.450   5.768   4.825
 5818SOL    HW118353   6.453   5.867   4.812
 5818SOL    HW218354   6.397   5.747   4.908
 5819SOL     OW18355   4.365   0.377   0.874
 5819SOL    HW118356   4.327   0.297   0.826
 5819SOL    HW218357   4.405   0.440   0.807
 5820SOL     OW18358   5.004   0.008   3.903
 5820SOL    HW118359   4.935   0.079   3.913
 5820SOL    HW218360   5.082   0.043   3.852
 5821SOL     OW18361   2.236   0.709   1.727
 5821SOL    HW118362   2.161   0.649   1.755
 5821SOL    HW218363   2.218   0.803   1.757
 5822SOL     OW18364   0.630   2.568   1.949
 5822SOL    HW118365   0.610   2.579   1.852
 5822SOL    HW218366   0.558   2.514   1.992
 5823SOL     OW18367   0.825   0.743   5.344
 5823SOL    HW118368   0.761   0.805   5.299
 5823SOL    HW218369   0.780   0.656   5.362
 5824SOL     OW18370   6.753   6.593   2.898
 5824SOL    HW118371   6.753   6.693   2.899
 5824SOL    HW218372   6.777   6.560   2.989
 5825SOL     OW18373   1.705   1.995   6.120
 5825SOL    HW118374   1.688   2.077   6.175
 5825SOL    HW218375   1.734   2.023   6.028
 5826SOL     OW18376   6.804   6.049   5.588
 5826SOL    HW118377   6.734   6.052   5.516
 5826SOL    HW218378   6.895   6.048   5.546
 5827SOL     OW18379   0.911   5.548   5.065
 5827SOL    HW118380   0.820   5.567   5.101
 5827SOL    HW218381   0.947   5.465   5.107
 5828SOL     OW18382   0.515   3.564   1.709
 5828SOL    HW118383   0.512   3.556   1.609
 5828SOL    HW218384   0.424   3.585   1.744
 5829SOL     OW18385   2.763   1.331   2.559
 5829SOL    HW118386   2.858   1.309   2.534
 5829SOL    HW218387   2.709   1.247   2.562
 5830SOL     OW18388   3.794   0.299   5.968
 5830SOL    HW118389   3.737   0.381   5.962
 5830SOL    HW218390   3.806   0.274   6.064
 5831SOL     OW18391   6.005   6.365   3.803
 5831SOL    HW118392   6.097   6.406   3.801
 5831SOL    HW218393   5.996   6.310   3.885
 5832SOL     OW18394   4.263   3.549   5.210
 5832SOL    HW118395   4.247   3.643   5.240
 5832SOL    HW218396   4.245   3.542   5.111
 5833SOL     OW18397   3.266   3.414   4.189
 5833SOL    HW118398   3.289   3.375   4.100
 5833SOL    HW218399   3.309   3.504   4.198
 5834SOL     OW18400   5.912   1.788   0.605
 5834SOL    HW118401   5.850   1.832   0.540
 5834SOL    HW218402   5.862   1.765   0.688
 5835SOL     OW18403   5.432   2.872   3.213
 5835SOL    HW118404   5.479   2.919   3.287
 5835SOL    HW218405   5.333   2.887   3.221
 5836SOL     OW18406   2.923   5.722   2.973
 5836SOL    HW118407   2.831   5.751   3.000
 5836SOL    HW218408   2.970   5.684   3.053
 5837SOL     OW18409   4.397   4.591   6.771
 5837SOL    HW118410   4.315   4.638   6.738
 5837SOL    HW218411   4.370   4.510   6.824
 5838SOL     OW18412   1.569   1.748   6.298
 5838SOL    HW118413   1.630   1.731   6.221
 5838SOL    HW218414   1.624   1.760   6.382
 5839SOL     OW18415   0.244   2.631   2.463
 5839SOL    HW118416   0.283   2.687   2.390
 5839SOL    HW218417   0.319   2.592   2.517
 5840SOL     OW18418   1.175   5.516   0.112
 5840SOL    HW118419   1.225   5.594   0.074
 5840SOL    HW218420   1.131   5.543   0.197
 5841SOL     OW18421   5.916   3.055   2.310
 5841SOL    HW118422   5.871   3.039   2.398
 5841SOL    HW218423   5.895   2.980   2.247
 5842SOL     OW18424   3.869   3.010   0.523
 5842SOL    HW118425   3.790   3.016   0.584
 5842SOL    HW218426   3.942   3.069   0.557
 5843SOL     OW18427   2.065   3.750   2.333
 5843SOL    HW118428   2.011   3.723   2.413
 5843SOL    HW218429   2.115   3.671   2.297
 5844SOL     OW18430   0.224   6.734   6.136
 5844SOL    HW118431   0.150   6.800   6.143
 5844SOL    HW218432   0.267   6.723   6.226
 5845SOL     OW18433   0.856   1.124   3.004
 5845SOL    HW118434   0.872   1.201   3.067
 5845SOL    HW218435   0.859   1.038   3.055
 5846SOL     OW18436   6.677   2.947   5.072
 5846SOL    HW118437   6.619   2.884   5.021
 5846SOL    HW218438   6.770   2.943   5.036
 5847SOL     OW18439   1.980   1.813   2.422
 5847SOL    HW118440   2.008   1.908   2.406
 5847SOL    HW218441   2.015   1.784   2.511
 5848SOL     OW18442   2.346   4.675   3.434
 5848SOL    HW118443   2.247   4.682   3.420
 5848SOL    HW218444   2.392   4.747   3.382
 5849SOL     OW18445   0.783   0.510   5.786
 5849SOL    HW118446   0.861   0.506   5.724
 5849SOL    HW218447   0.718   0.579   5.753
 5850SOL     OW18448   0.885   3.569   2.036
 5850SOL    HW118449   0.790   3.568   2.005
 5850SOL    HW218450   0.943   3.607   1.964
 5851SOL     OW18451   5.443   3.229   2.640
 5851SOL    HW118452   5.438   3.164   2.564
 5851SOL    HW218453   5.529   3.279   2.635
 5852SOL     OW18454   4.173   6.433   2.804
 5852SOL    HW118455   4.259   6.482   2.797
 5852SOL    HW218456   4.188   6.336   2.781
 5853SOL     OW18457   2.767   5.845   6.164
 5853SOL    HW118458   2.786   5.936   6.126
 5853SOL    HW218459   2.704   5.796   6.104
 5854SOL     OW18460   6.493   3.291   5.618
 5854SOL    HW118461   6.455   3.327   5.703
 5854SOL    HW218462   6.421   3.243   5.567
 5855SOL     OW18463   1.203   1.037   4.496
 5855SOL    HW118464   1.125   1.039   4.559
 5855SOL    HW218465   1.236   1.130   4.481
 5856SOL     OW18466   2.098   5.350   3.359
 5856SOL    HW118467   2.068   5.414   3.289
 5856SOL    HW218468   2.043   5.267   3.354
 5857SOL     OW18469   6.048   2.855   4.892
 5857SOL    HW118470   6.057   2.761   4.926
 5857SOL    HW218471   6.139   2.897   4.889
 5858SOL     OW18472   2.592   1.960   1.933
 5858SOL    HW118473   2.590   2.052   1.892
 5858SOL    HW218474   2.670   1.954   1.995
 5859SOL     OW18475   5.882   6.312   0.947
 5859SOL    HW118476   5.813   6.343   0.881
 5859SOL    HW218477   5.881   6.212   0.952
 5860SOL     OW18478   2.128   4.218   1.829
 5860SOL    HW118479   2.128   4.317   1.842
 5860SOL    HW218480   2.198   4.177   1.888
 5861SOL     OW18481   4.927   1.583   3.764
 5861SOL    HW118482   4.972   1.494   3.754
 5861SOL    HW218483   4.989   1.655   3.734
 5862SOL     OW18484   4.102   5.372   3.024
 5862SOL    HW118485   4.092   5.445   2.956
 5862SOL    HW218486   4.100   5.412   3.115
 5863SOL     OW18487   2.449   0.786   5.239
 5863SOL    HW118488   2.534   0.735   5.252
 5863SOL    HW218489   2.389   0.772   5.318
 5864SOL     OW18490   4.272   3.743   1.703
 5864SOL    HW118491   4.250   3.692   1.787
 5864SOL    HW218492   4.365   3.720   1.674
 5865SOL     OW18493   5.495   0.660   4.095
 5865SOL    HW118494   5.460   0.617   4.179
 5865SOL    HW218495   5.449   0.619   4.016
 5866SOL     OW18496   4.227   6.156   6.653
 5866SOL    HW118497   4.221   6.114   6.562
 5866SOL    HW218498   4.140   6.200   6.674
 5867SOL     OW18499   0.319   2.784   0.908
 5867SOL    HW118500   0.315   2.684   0.915
 5867SOL    HW218501   0.283   2.813   0.819
 5868SOL     OW18502   0.351   0.260   5.163
 5868SOL    HW118503   0.324   0.351   5.131
 5868SOL    HW218504   0.300   0.237   5.246
 5869SOL     OW18505   2.247   4.966   3.759
 5869SOL    HW118506   2.267   4.868   3.755
 5869SOL    HW218507   2.232   5.000   3.666
 5870SOL     OW18508   4.954   5.002   4.865
 5870SOL    HW118509   4.894   4.977   4.941
 5870SOL    HW218510   4.987   4.918   4.820
 5871SOL     OW18511   3.732   4.331   0.071
 5871SOL    HW118512   3.801   4.403   0.063
 5871SOL    HW218513   3.648   4.369   0.110
 5872SOL     OW18514   4.222   5.628   0.046
 5872SOL    HW118515   4.280   5.708   0.029
 5872SOL    HW218516   4.127   5.651   0.025
 5873SOL     OW18517   2.197   2.883   0.373
 5873SOL    HW118518   2.160   2.868   0.282
 5873SOL    HW218519   2.142   2.951   0.421
 5874SOL     OW18520   2.661   3.269   1.267
 5874SOL    HW118521   2.714   3.302   1.190
 5874SOL    HW218522   2.602   3.193   1.238
 5875SOL     OW18523   3.622   1.298   0.186
 5875SOL    HW118524   3.645   1.255   0.098
 5875SOL    HW218525   3.653   1.240   0.261
 5876SOL     OW18526   3.173   3.273   6.653
 5876SOL    HW118527   3.138   3.334   6.583
 5876SOL    HW218528   3.183   3.181   6.616
 5877SOL     OW18529   6.355   6.663   1.391
 5877SOL    HW118530   6.433   6.658   1.452
 5877SOL    HW218531   6.376   6.725   1.315
 5878SOL     OW18532   5.259   5.711   2.799
 5878SOL    HW118533   5.203   5.793   2.817
 5878SOL    HW218534   5.211   5.630   2.832
 5879SOL     OW18535   3.606   3.130   6.037
 5879SOL    HW118536   3.696   3.158   6.006
 5879SOL    HW218537   3.565   3.068   5.970
 5880SOL     OW18538   4.802   3.405   5.494
 5880SOL    HW118539   4.715   3.411   5.543
 5880SOL    HW218540   4.787   3.371   5.401
 5881SOL     OW18541   1.295   6.490   2.493
 5881SOL    HW118542   1.210   6.450   2.458
 5881SOL    HW218543   1.373   6.450   2.446
 5882SOL     OW18544   1.122   6.626   5.678
 5882SOL    HW118545   1.043   6.662   5.629
 5882SOL    HW218546   1.192   6.598   5.613
 5883SOL     OW18547   0.063   3.103   0.863
 5883SOL    HW118548   0.112   3.167   0.804
 5883SOL    HW218549   0.128   3.051   0.919
 5884SOL     OW18550   6.189   1.210   3.607
 5884SOL    HW118551   6.104   1.175   3.648
 5884SOL    HW218552   6.262   1.142   3.618
 5885SOL     OW18553   0.407   5.560   0.789
 5885SOL    HW118554   0.410   5.597   0.696
 5885SOL    HW218555   0.479   5.602   0.844
 5886SOL     OW18556   1.337   3.066   3.109
 5886SOL    HW118557   1.374   3.083   3.201
 5886SOL    HW218558   1.258   3.125   3.094
 5887SOL     OW18559   2.595   1.713   1.343
 5887SOL    HW118560   2.563   1.624   1.377
 5887SOL    HW218561   2.571   1.721   1.246
 5888SOL     OW18562   2.758   6.998   1.088
 5888SOL    HW118563   2.805   6.914   1.061
 5888SOL    HW218564   2.821   0.033   1.138
 5889SOL     OW18565   0.076   1.744   1.286
 5889SOL    HW118566   0.167   1.773   1.315
 5889SOL    HW218567   0.037   1.682   1.355
 5890SOL     OW18568   2.389   6.427   2.437
 5890SOL    HW118569   2.392   6.512   2.490
 5890SOL    HW218570   2.448   6.359   2.480
 5891SOL     OW18571   3.236   3.309   0.620
 5891SOL    HW118572   3.171   3.267   0.557
 5891SOL    HW218573   3.193   3.320   0.710
 5892SOL     OW18574   0.489   3.805   0.605
 5892SOL    HW118575   0.469   3.707   0.605
 5892SOL    HW218576   0.548   3.828   0.683
 5893SOL     OW18577   1.040   5.483   1.885
 5893SOL    HW118578   0.966   5.499   1.950
 5893SOL    HW218579   1.095   5.405   1.915
 5894SOL     OW18580   0.722   5.737   5.865
 5894SOL    HW118581   0.714   5.806   5.937
 5894SOL    HW218582   0.814   5.697   5.867
 5895SOL     OW18583   5.888   3.189   5.045
 5895SOL    HW118584   5.919   3.129   5.120
 5895SOL    HW218585   5.910   3.284   5.068
 5896SOL     OW18586   5.393   1.848   1.697
 5896SOL    HW118587   5.364   1.770   1.641
 5896SOL    HW218588   5.489   1.868   1.679
 5897SOL     OW18589   4.113   1.258   1.812
 5897SOL    HW118590   4.027   1.297   1.781
 5897SOL    HW218591   4.098   1.164   1.842
 5898SOL     OW18592   1.635   1.393   5.523
 5898SOL    HW118593   1.700   1.361   5.454
 5898SOL    HW218594   1.552   1.337   5.518
 5899SOL     OW18595   6.410   5.819   6.248
 5899SOL    HW118596   6.500   5.801   6.288
 5899SOL    HW218597   6.349   5.854   6.319
 5900SOL     OW18598   0.078   5.607   3.345
 5900SOL    HW118599   0.035   5.518   3.332
 5900SOL    HW218600   0.139   5.603   3.424
 5901SOL     OW18601   1.233   6.946   6.624
 5901SOL    HW118602   1.149   6.986   6.662
 5901SOL    HW218603   1.280   7.013   6.568
 5902SOL     OW18604   5.934   3.891   4.575
 5902SOL    HW118605   5.993   3.921   4.500
 5902SOL    HW218606   5.839   3.914   4.555
 5903SOL     OW18607   5.340   2.793   6.836
 5903SOL    HW118608   5.368   2.742   6.918
 5903SOL    HW218609   5.332   2.731   6.759
 5904SOL     OW18610   1.447   4.989   2.188
 5904SOL    HW118611   1.521   4.924   2.208
 5904SOL    HW218612   1.370   4.940   2.148
 5905SOL     OW18613   5.634   0.933   3.591
 5905SOL    HW118614   5.666   1.018   3.549
 5905SOL    HW218615   5.547   0.949   3.638
 5906SOL     OW18616   5.422   1.235   5.276
 5906SOL    HW118617   5.476   1.239   5.191
 5906SOL    HW218618   5.325   1.228   5.253
 5907SOL     OW18619   1.528   1.173   0.529
 5907SOL    HW118620   1.544   1.234   0.451
 5907SOL    HW218621   1.509   1.228   0.610
 5908SOL     OW18622   4.245   3.548   6.800
 5908SOL    HW118623   4.179   3.579   6.868
 5908SOL    HW218624   4.288   3.627   6.756
 5909SOL     OW18625   0.223   4.764   5.391
 5909SOL    HW118626   0.178   4.776   5.480
 5909SOL    HW218627   0.247   4.667   5.378
 5910SOL     OW18628   1.766   3.837   1.723
 5910SOL    HW118629   1.823   3.917   1.701
 5910SOL    HW218630   1.732   3.845   1.817
 5911SOL     OW18631   6.583   5.201   6.325
 5911SOL    HW118632   6.500   5.226   6.277
 5911SOL    HW218633   6.593   5.258   6.407
 5912SOL     OW18634   5.898   3.203   6.781
 5912SOL    HW118635   5.818   3.178   6.727
 5912SOL    HW218636   5.908   3.139   6.857
 5913SOL     OW18637   2.145   2.747   5.579
 5913SOL    HW118638   2.106   2.814   5.517
 5913SOL    HW218639   2.207   2.687   5.529
 5914SOL     OW18640   2.533   5.797   0.478
 5914SOL    HW118641   2.488   5.802   0.567
 5914SOL    HW218642   2.627   5.764   0.491
 5915SOL     OW18643   5.223   2.823   2.871
 5915SOL    HW118644   5.154   2.842   2.940
 5915SOL    HW218645   5.203   2.874   2.788
 5916SOL     OW18646   4.310   0.306   5.791
 5916SOL    HW118647   4.372   0.383   5.804
 5916SOL    HW218648   4.253   0.322   5.710
 5917SOL     OW18649   3.607   2.919   3.145
 5917SOL    HW118650   3.530   2.930   3.207
 5917SOL    HW218651   3.585   2.961   3.056
 5918SOL     OW18652   1.479   3.394   4.265
 5918SOL    HW118653   1.469   3.488   4.233
 5918SOL    HW218654   1.533   3.342   4.199
 5919SOL     OW18655   3.080   2.548   0.809
 5919SOL    HW118656   3.095   2.508   0.900
 5919SOL    HW218657   2.984   2.574   0.800
 5920SOL     OW18658   3.362   6.938   6.862
 5920SOL    HW118659   3.285   6.942   6.798
 5920SOL    HW218660   3.440   6.893   6.818
 5921SOL     OW18661   3.823   5.250   6.044
 5921SOL    HW118662   3.753   5.259   5.972
 5921SOL    HW218663   3.842   5.153   6.059
 5922SOL     OW18664   6.613   4.870   3.038
 5922SOL    HW118665   6.667   4.786   3.043
 5922SOL    HW218666   6.650   4.937   3.103
 5923SOL     OW18667   6.524   0.488   3.717
 5923SOL    HW118668   6.525   0.507   3.815
 5923SOL    HW218669   6.597   0.423   3.695
 5924SOL     OW18670   5.232   2.558   4.749
 5924SOL    HW118671   5.160   2.491   4.735
 5924SOL    HW218672   5.211   2.614   4.829
 5925SOL     OW18673   5.389   5.762   2.071
 5925SOL    HW118674   5.479   5.743   2.110
 5925SOL    HW218675   5.380   5.860   2.054
 5926SOL     OW18676   3.747   5.211   1.600
 5926SOL    HW118677   3.811   5.153   1.651
 5926SOL    HW218678   3.779   5.305   1.601
 5927SOL     OW18679   2.734   5.680   1.278
 5927SOL    HW118680   2.715   5.771   1.316
 5927SOL    HW218681   2.725   5.683   1.178
 5928SOL     OW18682   1.756   0.800   2.323
 5928SOL    HW118683   1.724   0.846   2.406
 5928SOL    HW218684   1.838   0.746   2.345
 5929SOL     OW18685   0.906   6.781   5.603
 5929SOL    HW118686   0.902   6.851   5.531
 5929SOL    HW218687   0.825   6.722   5.597
 5930SOL     OW18688   6.270   1.563   4.130
 5930SOL    HW118689   6.291   1.517   4.217
 5930SOL    HW218690   6.264   1.662   4.145
 5931SOL     OW18691   5.867   5.396   2.034
 5931SOL    HW118692   5.846   5.494   2.039
 5931SOL    HW218693   5.919   5.377   1.951
 5932SOL     OW18694   2.187   6.563   0.779
 5932SOL    HW118695   2.275   6.517   0.772
 5932SOL    HW218696   2.116   6.495   0.798
 5933SOL     OW18697   0.153   3.873   2.132
 5933SOL    HW118698   0.111   3.789   2.100
 5933SOL    HW218699   0.213   3.853   2.210
 5934SOL     OW18700   3.613   3.570   3.051
 5934SOL    HW118701   3.686   3.506   3.027
 5934SOL    HW218702   3.627   3.603   3.144
 5935SOL     OW18703   3.441   4.090   4.832
 5935SOL    HW118704   3.371   4.161   4.826
 5935SOL    HW218705   3.515   4.111   4.767
 5936SOL     OW18706   5.113   4.374   6.569
 5936SOL    HW118707   5.046   4.368   6.643
 5936SOL    HW218708   5.077   4.432   6.496
 5937SOL     OW18709   0.648   3.919   1.218
 5937SOL    HW118710   0.719   3.945   1.284
 5937SOL    HW218711   0.652   3.821   1.201
 5938SOL     OW18712   1.907   4.574   3.583
 5938SOL    HW118713   2.001   4.540   3.582
 5938SOL    HW218714   1.845   4.501   3.554
 5939SOL     OW18715   3.309   0.935   3.188
 5939SOL    HW118716   3.220   0.979   3.202
 5939SOL    HW218717   3.318   0.908   3.093
 5940SOL     OW18718   3.318   6.846   2.456
 5940SOL    HW118719   3.247   6.780   2.432
 5940SOL    HW218720   3.335   6.906   2.378
 5941SOL     OW18721   6.325   4.913   1.972
 5941SOL    HW118722   6.325   4.976   2.049
 5941SOL    HW218723   6.419   4.901   1.939
 5942SOL     OW18724   3.873   3.182   5.928
 5942SOL    HW118725   3.973   3.184   5.936
 5942SOL    HW218726   3.847   3.163   5.834
 5943SOL     OW18727   2.162   5.575   0.552
 5943SOL    HW118728   2.076   5.526   0.565
 5943SOL    HW218729   2.196   5.561   0.459
 5944SOL     OW18730   4.687   1.548   2.483
 5944SOL    HW118731   4.598   1.582   2.512
 5944SOL    HW218732   4.754   1.565   2.555
 5945SOL     OW18733   6.596   5.020   4.834
 5945SOL    HW118734   6.573   4.935   4.881
 5945SOL    HW218735   6.566   5.015   4.739
 5946SOL     OW18736   3.346   4.115   5.644
 5946SOL    HW118737   3.399   4.052   5.586
 5946SOL    HW218738   3.341   4.078   5.737
 5947SOL     OW18739   4.244   3.311   1.872
 5947SOL    HW118740   4.281   3.238   1.815
 5947SOL    HW218741   4.146   3.296   1.886
 5948SOL     OW18742   3.463   5.039   3.187
 5948SOL    HW118743   3.521   4.966   3.222
 5948SOL    HW218744   3.501   5.074   3.101
 5949SOL     OW18745   3.775   4.672   1.218
 5949SOL    HW118746   3.695   4.646   1.164
 5949SOL    HW218747   3.791   4.771   1.210
 5950SOL     OW18748   5.996   2.080   4.399
 5950SOL    HW118749   6.037   2.152   4.344
 5950SOL    HW218750   6.054   2.061   4.478
 5951SOL     OW18751   1.606   6.651   4.208
 5951SOL    HW118752   1.668   6.584   4.166
 5951SOL    HW218753   1.528   6.603   4.249
 5952SOL     OW18754   6.651   5.963   3.658
 5952SOL    HW118755   6.621   5.880   3.704
 5952SOL    HW218756   6.573   6.010   3.618
 5953SOL     OW18757   0.016   3.130   5.424
 5953SOL    HW118758   0.004   3.168   5.516
 5953SOL    HW218759   0.011   3.203   5.356
 5954SOL     OW18760   0.008   4.662   5.979
 5954SOL    HW118761   0.088   4.611   5.947
 5954SOL    HW218762   0.039   4.743   6.028
 5955SOL     OW18763   5.569   5.494   1.725
 5955SOL    HW118764   5.659   5.478   1.683
 5955SOL    HW218765   5.558   5.432   1.802
 5956SOL     OW18766   3.964   2.111   6.975
 5956SOL    HW118767   4.007   2.021   6.965
 5956SOL    HW218768   4.013   2.164   0.020
 5957SOL     OW18769   5.248   6.417   6.125
 5957SOL    HW118770   5.280   6.497   6.074
 5957SOL    HW218771   5.280   6.423   6.220
 5958SOL     OW18772   6.760   6.550   1.916
 5958SOL    HW118773   6.772   6.476   1.983
 5958SOL    HW218774   6.785   6.518   1.825
 5959SOL     OW18775   2.735   2.007   5.611
 5959SOL    HW118776   2.766   2.099   5.590
 5959SOL    HW218777   2.751   1.947   5.533
 5960SOL     OW18778   2.892   0.226   3.856
 5960SOL    HW118779   2.976   0.250   3.806
 5960SOL    HW218780   2.814   0.273   3.815
 5961SOL     OW18781   3.287   0.857   4.727
 5961SOL    HW118782   3.246   0.777   4.770
 5961SOL    HW218783   3.222   0.933   4.727
 5962SOL     OW18784   4.921   5.554   2.668
 5962SOL    HW118785   4.922   5.521   2.762
 5962SOL    HW218786   4.884   5.647   2.665
 5963SOL     OW18787   4.090   3.653   3.001
 5963SOL    HW118788   4.110   3.555   3.010
 5963SOL    HW218789   4.107   3.699   3.089
 5964SOL     OW18790   6.997   5.203   0.114
 5964SOL    HW118791   0.016   5.118   0.145
 5964SOL    HW218792   6.899   5.200   0.133
 5965SOL     OW18793   1.626   2.537   6.342
 5965SOL    HW118794   1.593   2.449   6.376
 5965SOL    HW218795   1.712   2.561   6.387
 5966SOL     OW18796   3.186   5.625   4.899
 5966SOL    HW118797   3.282   5.597   4.899
 5966SOL    HW218798   3.155   5.635   4.994
 5967SOL     OW18799   4.178   6.728   2.709
 5967SOL    HW118800   4.251   6.660   2.714
 5967SOL    HW218801   4.141   6.731   2.616
 5968SOL     OW18802   6.487   1.792   2.948
 5968SOL    HW118803   6.524   1.733   2.876
 5968SOL    HW218804   6.394   1.761   2.972
 5969SOL     OW18805   5.959   3.048   4.263
 5969SOL    HW118806   6.031   3.103   4.305
 5969SOL    HW218807   5.870   3.092   4.278
 5970SOL     OW18808   1.176   3.731   2.951
 5970SOL    HW118809   1.209   3.799   3.017
 5970SOL    HW218810   1.098   3.682   2.990
 5971SOL     OW18811   2.208   6.916   2.991
 5971SOL    HW118812   2.241   6.949   2.903
 5971SOL    HW218813   2.144   6.982   3.030
 5972SOL     OW18814   4.650   6.627   0.734
 5972SOL    HW118815   4.608   6.659   0.819
 5972SOL    HW218816   4.711   6.698   0.698
 5973SOL     OW18817   1.977   4.565   2.841
 5973SOL    HW118818   1.886   4.531   2.864
 5973SOL    HW218819   2.029   4.494   2.793
 5974SOL     OW18820   6.836   3.929   6.239
 5974SOL    HW118821   6.843   4.023   6.206
 5974SOL    HW218822   6.739   3.906   6.253
 5975SOL     OW18823   3.811   2.348   1.188
 5975SOL    HW118824   3.799   2.255   1.223
 5975SOL    HW218825   3.876   2.398   1.246
 5976SOL     OW18826   3.138   2.975   4.535
 5976SOL    HW118827   3.074   2.916   4.486
 5976SOL    HW218828   3.143   3.064   4.490
 5977SOL     OW18829   1.734   4.256   2.100
 5977SOL    HW118830   1.733   4.199   2.017
 5977SOL    HW218831   1.752   4.351   2.075
 5978SOL     OW18832   5.379   4.269   2.656
 5978SOL    HW118833   5.368   4.173   2.630
 5978SOL    HW218834   5.363   4.327   2.576
 5979SOL     OW18835   6.055   0.341   3.592
 5979SOL    HW118836   6.137   0.331   3.534
 5979SOL    HW218837   6.055   0.432   3.634
 5980SOL     OW18838   4.479   4.465   0.187
 5980SOL    HW118839   4.574   4.459   0.156
 5980SOL    HW218840   4.457   4.560   0.209
 5981SOL     OW18841   6.399   1.729   1.955
 5981SOL    HW118842   6.467   1.803   1.957
 5981SOL    HW218843   6.446   1.642   1.943
 5982SOL     OW18844   6.461   1.886   6.435
 5982SOL    HW118845   6.438   1.945   6.357
 5982SOL    HW218846   6.399   1.808   6.437
 5983SOL     OW18847   1.954   2.476   4.143
 5983SOL    HW118848   1.987   2.411   4.211
 5983SOL    HW218849   1.901   2.428   4.074
 5984SOL     OW18850   6.433   6.130   4.737
 5984SOL    HW118851   6.411   6.196   4.665
 5984SOL    HW218852   6.479   6.177   4.813
 5985SOL     OW18853   5.388   2.168   3.530
 5985SOL    HW118854   5.375   2.202   3.623
 5985SOL    HW218855   5.480   2.132   3.520
 5986SOL     OW18856   3.039   3.132   3.346
 5986SOL    HW118857   3.044   3.093   3.438
 5986SOL    HW218858   2.952   3.180   3.335
 5987SOL     OW18859   4.462   0.268   5.309
 5987SOL    HW118860   4.525   0.197   5.278
 5987SOL    HW218861   4.483   0.293   5.404
 5988SOL     OW18862   4.415   7.002   4.785
 5988SOL    HW118863   4.336   6.991   4.844
 5988SOL    HW218864   4.424   6.922   4.726
 5989SOL     OW18865   2.391   6.957   6.352
 5989SOL    HW118866   2.391   7.020   6.429
 5989SOL    HW218867   2.386   7.009   6.266
 5990SOL     OW18868   3.483   4.181   0.654
 5990SOL    HW118869   3.390   4.215   0.663
 5990SOL    HW218870   3.540   4.250   0.611
 5991SOL     OW18871   3.861   5.220   5.194
 5991SOL    HW118872   3.796   5.184   5.261
 5991SOL    HW218873   3.830   5.197   5.102
 5992SOL     OW18874   3.863   1.008   4.213
 5992SOL    HW118875   3.797   1.079   4.238
 5992SOL    HW218876   3.954   1.048   4.204
 5993SOL     OW18877   2.568   6.250   5.520
 5993SOL    HW118878   2.505   6.245   5.443
 5993SOL    HW218879   2.656   6.211   5.494
 5994SOL     OW18880   6.144   2.242   1.923
 5994SOL    HW118881   6.215   2.308   1.897
 5994SOL    HW218882   6.114   2.191   1.843
 5995SOL     OW18883   6.994   5.157   1.232
 5995SOL    HW118884   6.896   5.169   1.243
 5995SOL    HW218885   0.018   5.221   1.292
 5996SOL     OW18886   0.164   6.012   0.162
 5996SOL    HW118887   0.138   6.077   0.090
 5996SOL    HW218888   0.258   5.982   0.147
 5997SOL     OW18889   0.555   6.980   1.751
 5997SOL    HW118890   0.470   6.928   1.742
 5997SOL    HW218891   0.557   7.023   1.842
 5998SOL     OW18892   5.185   1.865   2.348
 5998SOL    HW118893   5.211   1.846   2.442
 5998SOL    HW218894   5.256   1.831   2.286
 5999SOL     OW18895   1.377   1.752   3.428
 5999SOL    HW118896   1.367   1.846   3.395
 5999SOL    HW218897   1.288   1.714   3.452
 6000SOL     OW18898   4.073   4.813   2.187
 6000SOL    HW118899   3.989   4.856   2.152
 6000SOL    HW218900   4.114   4.757   2.116
 6001SOL     OW18901   7.008   3.148   6.951
 6001SOL    HW118902   0.073   3.102   6.951
 6001SOL    HW218903   7.017   3.236   6.904
 6002SOL     OW18904   1.018   0.195   1.583
 6002SOL    HW118905   1.098   0.252   1.600
 6002SOL    HW218906   1.043   0.120   1.521
 6003SOL     OW18907   5.532   3.853   4.599
 6003SOL    HW118908   5.552   3.845   4.697
 6003SOL    HW218909   5.543   3.949   4.571
 6004SOL     OW18910   0.526   3.320   3.107
 6004SOL    HW118911   0.544   3.384   3.182
 6004SOL    HW218912   0.455   3.357   3.047
 6005SOL     OW18913   4.053   5.141   4.206
 6005SOL    HW118914   4.066   5.045   4.180
 6005SOL    HW218915   4.067   5.199   4.126
 6006SOL     OW18916   2.971   6.617   6.448
 6006SOL    HW118917   2.949   6.534   6.500
 6006SOL    HW218918   2.892   6.678   6.447
 6007SOL     OW18919   5.332   2.609   3.469
 6007SOL    HW118920   5.427   2.601   3.498
 6007SOL    HW218921   5.327   2.607   3.369
 6008SOL     OW18922   3.236   5.254   5.968
 6008SOL    HW118923   3.265   5.347   5.994
 6008SOL    HW218924   3.262   5.237   5.873
 6009SOL     OW18925   2.995   1.870   4.711
 6009SOL    HW118926   3.091   1.859   4.683
 6009SOL    HW218927   2.980   1.965   4.739
 6010SOL     OW18928   2.253   4.147   2.459
 6010SOL    HW118929   2.269   4.174   2.365
 6010SOL    HW218930   2.257   4.047   2.466
 6011SOL     OW18931   5.292   2.793   1.659
 6011SOL    HW118932   5.352   2.743   1.720
 6011SOL    HW218933   5.299   2.756   1.567
 6012SOL     OW18934   6.999   2.096   6.689
 6012SOL    HW118935   6.999   2.083   6.788
 6012SOL    HW218936   6.942   2.175   6.665
 6013SOL     OW18937   6.539   1.133   2.006
 6013SOL    HW118938   6.638   1.129   2.023
 6013SOL    HW218939   6.497   1.196   2.072
 6014SOL     OW18940   6.100   1.565   0.723
 6014SOL    HW118941   6.164   1.520   0.662
 6014SOL    HW218942   6.098   1.663   0.703
 6015SOL     OW18943   5.697   2.308   4.614
 6015SOL    HW118944   5.703   2.218   4.658
 6015SOL    HW218945   5.779   2.323   4.559
 6016SOL     OW18946   0.440   0.610   5.374
 6016SOL    HW118947   0.434   0.698   5.327
 6016SOL    HW218948   0.513   0.555   5.332
 6017SOL     OW18949   5.960   5.169   3.495
 6017SOL    HW118950   5.895   5.209   3.560
 6017SOL    HW218951   6.046   5.149   3.542
 6018SOL     OW18952   3.498   3.060   0.326
 6018SOL    HW118953   3.447   3.035   0.244
 6018SOL    HW218954   3.501   2.983   0.389
 6019SOL     OW18955   4.663   1.503   3.773
 6019SOL    HW118956   4.631   1.515   3.867
 6019SOL    HW218957   4.762   1.510   3.769
 6020SOL     OW18958   3.533   0.234   2.431
 6020SOL    HW118959   3.618   0.275   2.464
 6020SOL    HW218960   3.455   0.286   2.466
 6021SOL     OW18961   4.794   0.817   2.864
 6021SOL    HW118962   4.722   0.834   2.931
 6021SOL    HW218963   4.852   0.741   2.895
 6022SOL     OW18964   4.801   1.127   2.915
 6022SOL    HW118965   4.894   1.092   2.904
 6022SOL    HW218966   4.775   1.179   2.834
 6023SOL     OW18967   6.894   0.972   3.239
 6023SOL    HW118968   6.860   1.022   3.318
 6023SOL    HW218969   6.880   0.874   3.252
 6024SOL     OW18970   0.477   4.877   2.337
 6024SOL    HW118971   0.551   4.926   2.384
 6024SOL    HW218972   0.513   4.838   2.252
 6025SOL     OW18973   4.503   1.105   2.035
 6025SOL    HW118974   4.560   1.186   2.023
 6025SOL    HW218975   4.533   1.054   2.115
 6026SOL     OW18976   7.022   5.033   5.023
 6026SOL    HW118977   0.051   5.072   4.947
 6026SOL    HW218978   0.037   4.944   5.048
 6027SOL     OW18979   2.149   4.041   6.167
 6027SOL    HW118980   2.210   4.118   6.150
 6027SOL    HW218981   2.170   3.966   6.104
 6028SOL     OW18982   1.598   4.373   0.629
 6028SOL    HW118983   1.567   4.316   0.553
 6028SOL    HW218984   1.616   4.466   0.596
 6029SOL     OW18985   1.888   5.862   0.421
 6029SOL    HW118986   1.791   5.840   0.436
 6029SOL    HW218987   1.903   5.958   0.445
 6030SOL     OW18988   2.587   1.095   2.140
 6030SOL    HW118989   2.512   1.092   2.075
 6030SOL    HW218990   2.563   1.043   2.222
 6031SOL     OW18991   5.288   6.671   6.012
 6031SOL    HW118992   5.320   6.765   6.028
 6031SOL    HW218993   5.193   6.674   5.981
 6032SOL     OW18994   1.551   4.116   2.550
 6032SOL    HW118995   1.532   4.150   2.458
 6032SOL    HW218996   1.465   4.092   2.595
 6033SOL     OW18997   2.106   1.967   3.281
 6033SOL    HW118998   2.135   2.054   3.240
 6033SOL    HW218999   2.038   1.986   3.352
 6034SOL     OW19000   2.500   4.587   4.661
 6034SOL    HW119001   2.512   4.608   4.758
 6034SOL    HW219002   2.456   4.498   4.651
 6035SOL     OW19003   4.836   0.940   4.115
 6035SOL    HW119004   4.744   0.913   4.087
 6035SOL    HW219005   4.849   0.920   4.212
 6036SOL     OW19006   0.002   6.966   5.042
 6036SOL    HW119007   6.959   7.011   4.983
 6036SOL    HW219008   0.085   6.945   4.990
 6037SOL     OW19009   4.676   4.846   5.766
 6037SOL    HW119010   4.661   4.807   5.857
 6037SOL    HW219011   4.693   4.944   5.774
 6038SOL     OW19012   6.796   3.359   5.868
 6038SOL    HW119013   6.869   3.424   5.848
 6038SOL    HW219014   6.748   3.388   5.951
 6039SOL     OW19015   3.405   3.587   2.423
 6039SOL    HW119016   3.372   3.628   2.339
 6039SOL    HW219017   3.503   3.570   2.416
 6040SOL     OW19018   1.151   1.637   6.026
 6040SOL    HW119019   1.089   1.562   6.001
 6040SOL    HW219020   1.235   1.631   5.972
 6041SOL     OW19021   0.965   1.882   0.106
 6041SOL    HW119022   1.008   1.792   0.106
 6041SOL    HW219023   1.036   1.952   0.093
 6042SOL     OW19024   5.545   4.924   2.214
 6042SOL    HW119025   5.507   4.839   2.177
 6042SOL    HW219026   5.644   4.918   2.217
 6043SOL     OW19027   1.388   4.941   4.437
 6043SOL    HW119028   1.331   4.997   4.497
 6043SOL    HW219029   1.473   4.989   4.417
 6044SOL     OW19030   0.349   1.382   1.026
 6044SOL    HW119031   0.352   1.443   1.105
 6044SOL    HW219032   0.277   1.314   1.040
 6045SOL     OW19033   5.638   5.380   0.502
 6045SOL    HW119034   5.596   5.470   0.511
 6045SOL    HW219035   5.641   5.335   0.592
 6046SOL     OW19036   2.840   2.529   0.109
 6046SOL    HW119037   2.848   2.444   0.161
 6046SOL    HW219038   2.746   2.542   0.079
 6047SOL     OW19039   6.257   0.666   3.906
 6047SOL    HW119040   6.173   0.690   3.954
 6047SOL    HW219041   6.333   0.721   3.940
 6048SOL     OW19042   3.772   0.690   3.825
 6048SOL    HW119043   3.832   0.702   3.904
 6048SOL    HW219044   3.826   0.694   3.741
 6049SOL     OW19045   4.537   3.701   6.350
 6049SOL    HW119046   4.554   3.686   6.447
 6049SOL    HW219047   4.484   3.624   6.313
 6050SOL     OW19048   3.811   4.351   5.590
 6050SOL    HW119049   3.818   4.378   5.494
 6050SOL    HW219050   3.846   4.258   5.600
 6051SOL     OW19051   2.102   2.486   2.527
 6051SOL    HW119052   2.064   2.526   2.443
 6051SOL    HW219053   2.198   2.513   2.536
 6052SOL     OW19054   0.015   1.101   0.228
 6052SOL    HW119055   6.953   1.100   0.177
 6052SOL    HW219056   0.078   1.035   0.188
 6053SOL     OW19057   3.703   0.497   6.837
 6053SOL    HW119058   3.660   0.576   6.793
 6053SOL    HW219059   3.746   0.440   6.767
 6054SOL     OW19060   1.654   5.005   1.249
 6054SOL    HW119061   1.714   5.085   1.242
 6054SOL    HW219062   1.710   4.922   1.245
 6055SOL     OW19063   5.174   1.136   5.274
 6055SOL    HW119064   5.115   1.184   5.338
 6055SOL    HW219065   5.130   1.052   5.243
 6056SOL     OW19066   4.138   1.310   5.987
 6056SOL    HW119067   4.183   1.222   5.970
 6056SOL    HW219068   4.125   1.322   6.085
 6057SOL     OW19069   4.068   0.810   5.220
 6057SOL    HW119070   4.100   0.784   5.129
 6057SOL    HW219071   4.083   0.908   5.235
 6058SOL     OW19072   5.201   3.340   4.356
 6058SOL    HW119073   5.108   3.303   4.350
 6058SOL    HW219074   5.247   3.328   4.268
 6059SOL     OW19075   4.602   5.284   6.266
 6059SOL    HW119076   4.565   5.225   6.194
 6059SOL    HW219077   4.701   5.292   6.255
 6060SOL     OW19078   4.078   4.367   5.702
 6060SOL    HW119079   3.989   4.413   5.706
 6060SOL    HW219080   4.088   4.307   5.782
 6061SOL     OW19081   3.487   2.161   6.575
 6061SOL    HW119082   3.389   2.141   6.576
 6061SOL    HW219083   3.520   2.160   6.480
 6062SOL     OW19084   1.956   1.157   4.871
 6062SOL    HW119085   1.955   1.061   4.898
 6062SOL    HW219086   2.050   1.191   4.873
 6063SOL     OW19087   4.253   0.324   6.338
 6063SOL    HW119088   4.192   0.393   6.377
 6063SOL    HW219089   4.198   0.255   6.291
 6064SOL     OW19090   1.563   5.624   2.882
 6064SOL    HW119091   1.601   5.713   2.859
 6064SOL    HW219092   1.630   5.571   2.934
 6065SOL     OW19093   6.044   6.906   0.997
 6065SOL    HW119094   6.139   6.934   0.984
 6065SOL    HW219095   6.041   6.810   1.026
 6066SOL     OW19096   4.448   1.733   1.252
 6066SOL    HW119097   4.386   1.728   1.330
 6066SOL    HW219098   4.396   1.737   1.167
 6067SOL     OW19099   6.377   1.366   5.757
 6067SOL    HW119100   6.414   1.277   5.783
 6067SOL    HW219101   6.424   1.438   5.808
 6068SOL     OW19102   4.976   3.135   4.671
 6068SOL    HW119103   5.060   3.135   4.725
 6068SOL    HW219104   4.990   3.082   4.587
 6069SOL     OW19105   0.184   3.713   5.651
 6069SOL    HW119106   0.157   3.795   5.601
 6069SOL    HW219107   0.142   3.632   5.608
 6070SOL     OW19108   4.276   2.026   6.544
 6070SOL    HW119109   4.184   2.059   6.522
 6070SOL    HW219110   4.325   2.005   6.460
 6071SOL     OW19111   4.222   5.889   5.812
 6071SOL    HW119112   4.193   5.951   5.739
 6071SOL    HW219113   4.245   5.800   5.773
 6072SOL     OW19114   1.374   2.186   1.678
 6072SOL    HW119115   1.312   2.246   1.729
 6072SOL    HW219116   1.326   2.102   1.653
 6073SOL     OW19117   6.490   3.122   0.083
 6073SOL    HW119118   6.493   3.043   0.143
 6073SOL    HW219119   6.432   3.102   0.003
 6074SOL     OW19120   0.897   6.644   4.520
 6074SOL    HW119121   0.847   6.571   4.473
 6074SOL    HW219122   0.861   6.654   4.613
 6075SOL     OW19123   6.596   3.353   6.944
 6075SOL    HW119124   6.666   3.368   7.014
 6075SOL    HW219125   6.539   3.275   6.970
 6076SOL     OW19126   2.316   6.731   4.476
 6076SOL    HW119127   2.307   6.828   4.498
 6076SOL    HW219128   2.246   6.705   4.410
 6077SOL     OW19129   5.969   5.712   2.718
 6077SOL    HW119130   5.921   5.663   2.791
 6077SOL    HW219131   6.010   5.796   2.754
 6078SOL     OW19132   3.118   5.242   3.807
 6078SOL    HW119133   3.214   5.256   3.830
 6078SOL    HW219134   3.095   5.298   3.727
 6079SOL     OW19135   2.395   3.216   6.975
 6079SOL    HW119136   2.389   3.117   6.982
 6079SOL    HW219137   2.355   3.246   6.888
 6080SOL     OW19138   6.294   1.872   1.138
 6080SOL    HW119139   6.377   1.926   1.152
 6080SOL    HW219140   6.308   1.806   1.065
 6081SOL     OW19141   6.442   3.295   3.982
 6081SOL    HW119142   6.386   3.341   3.913
 6081SOL    HW219143   6.383   3.261   4.056
 6082SOL     OW19144   3.806   0.449   2.687
 6082SOL    HW119145   3.795   0.547   2.702
 6082SOL    HW219146   3.803   0.402   2.775
 6083SOL     OW19147   1.275   5.396   6.649
 6083SOL    HW119148   1.252   5.485   6.609
 6083SOL    HW219149   1.367   5.400   6.688
 6084SOL     OW19150   6.336   5.241   4.946
 6084SOL    HW119151   6.264   5.172   4.945
 6084SOL    HW219152   6.388   5.233   5.032
 6085SOL     OW19153   6.880   3.662   0.176
 6085SOL    HW119154   6.905   3.622   0.088
 6085SOL    HW219155   6.789   3.704   0.170
 6086SOL     OW19156   4.162   1.451   4.175
 6086SOL    HW119157   4.075   1.483   4.136
 6086SOL    HW219158   4.160   1.461   4.274
 6087SOL     OW19159   5.364   6.915   6.942
 6087SOL    HW119160   5.454   6.952   6.920
 6087SOL    HW219161   5.293   6.974   6.903
 6088SOL     OW19162   0.271   6.797   4.994
 6088SOL    HW119163   0.298   6.822   4.902
 6088SOL    HW219164   0.350   6.760   5.044
 6089SOL     OW19165   0.637   3.581   0.886
 6089SOL    HW119166   0.646   3.487   0.918
 6089SOL    HW219167   0.714   3.603   0.826
 6090SOL     OW19168   0.688   5.985   6.064
 6090SOL    HW119169   0.674   5.962   6.160
 6090SOL    HW219170   0.602   5.972   6.014
 6091SOL     OW19171   6.766   1.639   1.845
 6091SOL    HW119172   6.759   1.549   1.889
 6091SOL    HW219173   6.861   1.667   1.842
 6092SOL     OW19174   2.557   1.102   2.486
 6092SOL    HW119175   2.512   1.189   2.470
 6092SOL    HW219176   2.522   1.061   2.571
 6093SOL     OW19177   1.943   3.314   1.246
 6093SOL    HW119178   2.002   3.395   1.251
 6093SOL    HW219179   1.956   3.258   1.328
 6094SOL     OW19180   1.371   1.700   1.238
 6094SOL    HW119181   1.410   1.608   1.241
 6094SOL    HW219182   1.418   1.758   1.305
 6095SOL     OW19183   5.578   2.925   6.793
 6095SOL    HW119184   5.607   2.926   6.698
 6095SOL    HW219185   5.492   2.875   6.801
 6096SOL     OW19186   5.124   1.383   3.868
 6096SOL    HW119187   5.054   1.312   3.866
 6096SOL    HW219188   5.210   1.347   3.833
 6097SOL     OW19189   2.341   0.825   2.555
 6097SOL    HW119190   2.272   0.883   2.512
 6097SOL    HW219191   2.303   0.732   2.565
 6098SOL     OW19192   2.452   2.576   6.117
 6098SOL    HW119193   2.393   2.583   6.037
 6098SOL    HW219194   2.536   2.528   6.093
 6099SOL     OW19195   5.832   5.566   5.060
 6099SOL    HW119196   5.905   5.629   5.036
 6099SOL    HW219197   5.816   5.503   4.984
 6100SOL     OW19198   6.475   3.360   6.475
 6100SOL    HW119199   6.497   3.297   6.401
 6100SOL    HW219200   6.394   3.413   6.451
 6101SOL     OW19201   6.806   2.046   5.360
 6101SOL    HW119202   6.708   2.065   5.363
 6101SOL    HW219203   6.840   2.034   5.453
 6102SOL     OW19204   3.009   0.814   5.019
 6102SOL    HW119205   2.964   0.901   5.039
 6102SOL    HW219206   3.002   0.795   4.921
 6103SOL     OW19207   0.196   0.526   3.999
 6103SOL    HW119208   0.173   0.618   3.967
 6103SOL    HW219209   0.292   0.506   3.977
 6104SOL     OW19210   5.858   1.905   6.933
 6104SOL    HW119211   5.958   1.910   6.932
 6104SOL    HW219212   5.829   1.819   6.891
 6105SOL     OW19213   3.697   5.867   6.292
 6105SOL    HW119214   3.740   5.940   6.239
 6105SOL    HW219215   3.718   5.879   6.389
 6106SOL     OW19216   3.176   5.358   6.822
 6106SOL    HW119217   3.117   5.380   6.899
 6106SOL    HW219218   3.120   5.324   6.746
 6107SOL     OW19219   2.153   4.724   4.961
 6107SOL    HW119220   2.085   4.653   4.940
 6107SOL    HW219221   2.177   4.772   4.877
 6108SOL     OW19222   0.727   2.408   4.127
 6108SOL    HW119223   0.688   2.459   4.050
 6108SOL    HW219224   0.825   2.399   4.115
 6109SOL     OW19225   5.115   2.906   0.380
 6109SOL    HW119226   5.178   2.896   0.457
 6109SOL    HW219227   5.166   2.914   0.295
 6110SOL     OW19228   3.240   2.096   5.983
 6110SOL    HW119229   3.245   2.193   5.963
 6110SOL    HW219230   3.146   2.064   5.969
 6111SOL     OW19231   0.989   4.766   2.972
 6111SOL    HW119232   1.045   4.805   3.044
 6111SOL    HW219233   0.955   4.676   3.001
 6112SOL     OW19234   1.877   1.497   3.328
 6112SOL    HW119235   1.844   1.528   3.239
 6112SOL    HW219236   1.948   1.560   3.360
 6113SOL     OW19237   1.124   0.640   6.025
 6113SOL    HW119238   1.086   0.689   6.103
 6113SOL    HW219239   1.212   0.600   6.051
 6114SOL     OW19240   5.370   5.541   7.003
 6114SOL    HW119241   5.376   5.639   6.989
 6114SOL    HW219242   5.425   5.515   0.058
 6115SOL     OW19243   5.022   5.223   2.922
 6115SOL    HW119244   5.026   5.192   2.827
 6115SOL    HW219245   4.935   5.270   2.938
 6116SOL     OW19246   2.994   0.853   1.417
 6116SOL    HW119247   2.973   0.947   1.391
 6116SOL    HW219248   2.923   0.791   1.383
 6117SOL     OW19249   5.770   0.003   4.332
 6117SOL    HW119250   5.698   0.041   4.390
 6117SOL    HW219251   5.730   6.958   4.270
 6118SOL     OW19252   6.534   1.507   3.059
 6118SOL    HW119253   6.438   1.498   3.033
 6118SOL    HW219254   6.583   1.558   2.988
 6119SOL     OW19255   0.400   5.111   4.665
 6119SOL    HW119256   0.417   5.210   4.669
 6119SOL    HW219257   0.349   5.090   4.582
 6120SOL     OW19258   3.452   0.049   3.723
 6120SOL    HW119259   3.356   0.020   3.727
 6120SOL    HW219260   3.459   0.132   3.668
 6121SOL     OW19261   0.398   2.713   3.341
 6121SOL    HW119262   0.341   2.686   3.264
 6121SOL    HW219263   0.356   2.682   3.427
 6122SOL     OW19264   3.904   5.985   3.101
 6122SOL    HW119265   3.865   5.940   3.020
 6122SOL    HW219266   3.903   6.084   3.087
 6123SOL     OW19267   6.993   1.004   1.411
 6123SOL    HW119268   6.952   0.956   1.333
 6123SOL    HW219269   0.053   1.050   1.382
 6124SOL     OW19270   3.394   0.386   5.283
 6124SOL    HW119271   3.453   0.332   5.223
 6124SOL    HW219272   3.379   0.476   5.243
 6125SOL     OW19273   1.599   6.038   1.668
 6125SOL    HW119274   1.670   6.104   1.695
 6125SOL    HW219275   1.626   5.993   1.583
 6126SOL     OW19276   4.854   4.767   3.633
 6126SOL    HW119277   4.790   4.844   3.628
 6126SOL    HW219278   4.947   4.799   3.615
 6127SOL     OW19279   2.101   6.463   1.167
 6127SOL    HW119280   2.153   6.387   1.206
 6127SOL    HW219281   2.129   6.549   1.209
 6128SOL     OW19282   0.236   2.802   0.641
 6128SOL    HW119283   0.239   2.725   0.578
 6128SOL    HW219284   0.143   2.839   0.645
 6129SOL     OW19285   6.254   3.545   2.863
 6129SOL    HW119286   6.247   3.549   2.764
 6129SOL    HW219287   6.336   3.493   2.889
 6130SOL     OW19288   5.391   2.800   3.729
 6130SOL    HW119289   5.347   2.743   3.799
 6130SOL    HW219290   5.471   2.752   3.693
 6131SOL     OW19291   7.022   1.423   5.988
 6131SOL    HW119292   6.957   1.460   5.921
 6131SOL    HW219293   0.057   1.497   6.021
 6132SOL     OW19294   3.781   2.477   0.195
 6132SOL    HW119295   3.853   2.497   0.129
 6132SOL    HW219296   3.739   2.563   0.224
 6133SOL     OW19297   0.539   3.489   1.437
 6133SOL    HW119298   0.473   3.464   1.366
 6133SOL    HW219299   0.559   3.587   1.431
 6134SOL     OW19300   3.344   3.523   6.548
 6134SOL    HW119301   3.401   3.600   6.518
 6134SOL    HW219302   3.273   3.556   6.610
 6135SOL     OW19303   6.399   6.821   1.170
 6135SOL    HW119304   6.375   6.904   1.119
 6135SOL    HW219305   6.361   6.741   1.123
 6136SOL     OW19306   1.390   1.731   2.562
 6136SOL    HW119307   1.336   1.687   2.490
 6136SOL    HW219308   1.469   1.776   2.522
 6137SOL     OW19309   3.307   6.578   5.776
 6137SOL    HW119310   3.364   6.508   5.817
 6137SOL    HW219311   3.356   6.623   5.702
 6138SOL     OW19312   3.753   6.598   2.441
 6138SOL    HW119313   3.694   6.611   2.362
 6138SOL    HW219314   3.759   6.683   2.493
 6139SOL     OW19315   1.618   4.321   5.302
 6139SOL    HW119316   1.578   4.254   5.365
 6139SOL    HW219317   1.714   4.335   5.325
 6140SOL     OW19318   1.174   0.266   1.950
 6140SOL    HW119319   1.248   0.333   1.938
 6140SOL    HW219320   1.205   0.177   1.917
 6141SOL     OW19321   0.011   5.581   5.850
 6141SOL    HW119322   6.993   5.625   5.930
 6141SOL    HW219323   0.011   5.482   5.863
 6142SOL     OW19324   6.677   3.733   0.900
 6142SOL    HW119325   6.774   3.742   0.925
 6142SOL    HW219326   6.640   3.648   0.939
 6143SOL     OW19327   6.261   5.200   6.315
 6143SOL    HW119328   6.303   5.134   6.253
 6143SOL    HW219329   6.162   5.185   6.317
 6144SOL     OW19330   0.159   4.009   3.257
 6144SOL    HW119331   0.259   4.000   3.264
 6144SOL    HW219332   0.121   3.930   3.210
 6145SOL     OW19333   5.262   5.231   3.121
 6145SOL    HW119334   5.241   5.212   3.217
 6145SOL    HW219335   5.177   5.231   3.068
 6146SOL     OW19336   5.222   1.403   3.321
 6146SOL    HW119337   5.307   1.456   3.319
 6146SOL    HW219338   5.155   1.446   3.260
 6147SOL     OW19339   2.346   4.428   3.031
 6147SOL    HW119340   2.437   4.467   3.019
 6147SOL    HW219341   2.316   4.387   2.945
 6148SOL     OW19342   5.943   6.118   4.495
 6148SOL    HW119343   5.858   6.095   4.544
 6148SOL    HW219344   5.959   6.216   4.501
 6149SOL     OW19345   3.262   4.984   3.019
 6149SOL    HW119346   3.327   5.026   3.083
 6149SOL    HW219347   3.206   4.917   3.067
 6150SOL     OW19348   4.779   5.782   6.893
 6150SOL    HW119349   4.707   5.823   6.838
 6150SOL    HW219350   4.763   5.683   6.901
 6151SOL     OW19351   4.635   2.321   5.502
 6151SOL    HW119352   4.630   2.418   5.475
 6151SOL    HW219353   4.651   2.265   5.421
 6152SOL     OW19354   5.711   4.706   6.410
 6152SOL    HW119355   5.754   4.634   6.354
 6152SOL    HW219356   5.763   4.716   6.495
 6153SOL     OW19357   4.534   3.997   1.413
 6153SOL    HW119358   4.434   3.999   1.414
 6153SOL    HW219359   4.565   3.947   1.332
 6154SOL     OW19360   5.873   2.039   2.246
 6154SOL    HW119361   5.844   2.034   2.342
 6154SOL    HW219362   5.923   1.956   2.222
 6155SOL     OW19363   0.436   3.370   4.536
 6155SOL    HW119364   0.341   3.359   4.506
 6155SOL    HW219365   0.476   3.280   4.553
 6156SOL     OW19366   5.471   6.521   3.193
 6156SOL    HW119367   5.436   6.468   3.116
 6156SOL    HW219368   5.507   6.608   3.160
 6157SOL     OW19369   1.995   2.098   3.823
 6157SOL    HW119370   2.036   2.132   3.738
 6157SOL    HW219371   1.944   2.014   3.804
 6158SOL     OW19372   4.376   0.652   6.841
 6158SOL    HW119373   4.370   0.746   6.875
 6158SOL    HW219374   4.472   0.622   6.842
 6159SOL     OW19375   5.393   2.243   0.099
 6159SOL    HW119376   5.308   2.218   0.145
 6159SOL    HW219377   5.372   2.290   0.014
 6160SOL     OW19378   5.358   5.852   0.893
 6160SOL    HW119379   5.264   5.831   0.919
 6160SOL    HW219380   5.375   5.950   0.902
 6161SOL     OW19381   5.932   0.542   5.774
 6161SOL    HW119382   5.863   0.479   5.810
 6161SOL    HW219383   5.967   0.598   5.849
 6162SOL     OW19384   1.048   5.387   4.396
 6162SOL    HW119385   1.017   5.330   4.320
 6162SOL    HW219386   1.021   5.346   4.483
 6163SOL     OW19387   5.825   4.099   0.644
 6163SOL    HW119388   5.911   4.147   0.632
 6163SOL    HW219389   5.750   4.165   0.645
 6164SOL     OW19390   2.713   1.558   1.050
 6164SOL    HW119391   2.747   1.490   0.986
 6164SOL    HW219392   2.780   1.632   1.060
 6165SOL     OW19393   4.212   5.980   0.346
 6165SOL    HW119394   4.304   5.998   0.312
 6165SOL    HW219395   4.215   5.967   0.446
 6166SOL     OW19396   3.022   1.953   5.904
 6166SOL    HW119397   3.033   1.854   5.897
 6166SOL    HW219398   2.926   1.975   5.923
 6167SOL     OW19399   0.451   4.498   2.544
 6167SOL    HW119400   0.452   4.423   2.477
 6167SOL    HW219401   0.357   4.515   2.574
 6168SOL     OW19402   0.222   3.971   1.592
 6168SOL    HW119403   0.271   3.935   1.513
 6168SOL    HW219404   0.266   3.938   1.676
 6169SOL     OW19405   2.324   4.091   1.961
 6169SOL    HW119406   2.412   4.047   1.946
 6169SOL    HW219407   2.265   4.031   2.016
 6170SOL     OW19408   0.018   3.342   5.239
 6170SOL    HW119409   0.095   3.324   5.177
 6170SOL    HW219410   6.958   3.347   5.185
 6171SOL     OW19411   0.663   0.509   0.506
 6171SOL    HW119412   0.670   0.546   0.599
 6171SOL    HW219413   0.748   0.464   0.481
 6172SOL     OW19414   0.844   2.767   2.899
 6172SOL    HW119415   0.912   2.701   2.868
 6172SOL    HW219416   0.804   2.814   2.820
 6173SOL     OW19417   6.778   6.872   2.887
 6173SOL    HW119418   6.681   6.867   2.909
 6173SOL    HW219419   6.817   6.955   2.928
 6174SOL     OW19420   5.327   4.542   2.417
 6174SOL    HW119421   5.284   4.588   2.495
 6174SOL    HW219422   5.270   4.554   2.336
 6175SOL     OW19423   2.444   1.311   5.010
 6175SOL    HW119424   2.468   1.219   5.041
 6175SOL    HW219425   2.425   1.369   5.090
 6176SOL     OW19426   4.302   4.324   5.351
 6176SOL    HW119427   4.287   4.394   5.282
 6176SOL    HW219428   4.379   4.350   5.409
 6177SOL     OW19429   5.459   1.133   1.743
 6177SOL    HW119430   5.385   1.112   1.679
 6177SOL    HW219431   5.528   1.189   1.697
 6178SOL     OW19432   5.207   4.184   2.307
 6178SOL    HW119433   5.280   4.234   2.260
 6178SOL    HW219434   5.247   4.124   2.376
 6179SOL     OW19435   6.596   5.214   2.212
 6179SOL    HW119436   6.615   5.219   2.310
 6179SOL    HW219437   6.660   5.273   2.162
 6180SOL     OW19438   2.861   4.805   0.709
 6180SOL    HW119439   2.888   4.728   0.650
 6180SOL    HW219440   2.935   4.826   0.772
 6181SOL     OW19441   4.792   5.124   6.745
 6181SOL    HW119442   4.737   5.184   6.687
 6181SOL    HW219443   4.872   5.093   6.694
 6182SOL     OW19444   3.115   3.192   0.209
 6182SOL    HW119445   3.138   3.286   0.183
 6182SOL    HW219446   3.085   3.142   0.128
 6183SOL     OW19447   1.274   2.339   1.097
 6183SOL    HW119448   1.360   2.295   1.071
 6183SOL    HW219449   1.198   2.294   1.050
 6184SOL     OW19450   2.793   0.920   6.306
 6184SOL    HW119451   2.813   0.862   6.384
 6184SOL    HW219452   2.806   0.868   6.221
 6185SOL     OW19453   3.674   2.831   5.012
 6185SOL    HW119454   3.575   2.828   5.023
 6185SOL    HW219455   3.708   2.741   4.985
 6186SOL     OW19456   6.091   2.006   1.762
 6186SOL    HW119457   6.105   1.907   1.768
 6186SOL    HW219458   6.139   2.043   1.683
 6187SOL     OW19459   5.046   2.425   5.056
 6187SOL    HW119460   5.086   2.334   5.059
 6187SOL    HW219461   5.013   2.450   5.148
 6188SOL     OW19462   2.023   1.995   5.139
 6188SOL    HW119463   1.973   2.081   5.152
 6188SOL    HW219464   1.958   1.919   5.138
 6189SOL     OW19465   4.889   6.267   2.116
 6189SOL    HW119466   4.933   6.299   2.032
 6189SOL    HW219467   4.808   6.322   2.135
 6190SOL     OW19468   6.297   2.329   5.476
 6190SOL    HW119469   6.275   2.327   5.378
 6190SOL    HW219470   6.212   2.332   5.529
 6191SOL     OW19471   3.038   3.673   6.454
 6191SOL    HW119472   2.959   3.695   6.396
 6191SOL    HW219473   3.036   3.575   6.476
 6192SOL     OW19474   2.529   1.873   0.369
 6192SOL    HW119475   2.471   1.924   0.306
 6192SOL    HW219476   2.624   1.901   0.357
 6193SOL     OW19477   5.192   5.547   0.673
 6193SOL    HW119478   5.283   5.550   0.716
 6193SOL    HW219479   5.181   5.460   0.626
 6194SOL     OW19480   6.819   0.672   6.221
 6194SOL    HW119481   6.899   0.648   6.277
 6194SOL    HW219482   6.790   0.765   6.243
 6195SOL     OW19483   6.381   0.162   5.329
 6195SOL    HW119484   6.440   0.240   5.309
 6195SOL    HW219485   6.367   0.108   5.246
 6196SOL     OW19486   5.403   3.499   2.650
 6196SOL    HW119487   5.401   3.400   2.655
 6196SOL    HW219488   5.317   3.536   2.687
 6197SOL     OW19489   2.522   5.569   2.617
 6197SOL    HW119490   2.586   5.642   2.593
 6197SOL    HW219491   2.430   5.593   2.584
 6198SOL     OW19492   5.735   6.434   6.795
 6198SOL    HW119493   5.646   6.392   6.782
 6198SOL    HW219494   5.778   6.396   6.877
 6199SOL     OW19495   0.985   0.237   0.707
 6199SOL    HW119496   0.944   0.188   0.784
 6199SOL    HW219497   1.031   0.172   0.647
 6200SOL     OW19498   2.263   2.148   2.235
 6200SOL    HW119499   2.316   2.230   2.214
 6200SOL    HW219500   2.259   2.136   2.334
 6201SOL     OW19501   6.598   3.497   3.764
 6201SOL    HW119502   6.639   3.499   3.855
 6201SOL    HW219503   6.500   3.483   3.771
 6202SOL     OW19504   6.447   1.230   2.964
 6202SOL    HW119505   6.416   1.157   2.902
 6202SOL    HW219506   6.449   1.317   2.914
 6203SOL     OW19507   6.564   5.567   1.984
 6203SOL    HW119508   6.467   5.577   2.004
 6203SOL    HW219509   6.580   5.583   1.887
 6204SOL     OW19510   1.748   0.051   5.407
 6204SOL    HW119511   1.727   7.024   5.323
 6204SOL    HW219512   1.847   0.051   5.422
 6205SOL     OW19513   4.956   4.135   2.183
 6205SOL    HW119514   4.939   4.040   2.208
 6205SOL    HW219515   5.045   4.163   2.219
 6206SOL     OW19516   4.881   2.313   4.337
 6206SOL    HW119517   4.935   2.387   4.298
 6206SOL    HW219518   4.829   2.346   4.416
 6207SOL     OW19519   1.762   5.728   4.635
 6207SOL    HW119520   1.680   5.742   4.690
 6207SOL    HW219521   1.807   5.643   4.664
 6208SOL     OW19522   3.608   2.518   5.830
 6208SOL    HW119523   3.677   2.502   5.901
 6208SOL    HW219524   3.620   2.611   5.793
 6209SOL     OW19525   3.966   3.989   1.282
 6209SOL    HW119526   3.909   4.063   1.247
 6209SOL    HW219527   3.912   3.905   1.288
 6210SOL     OW19528   4.851   2.657   3.366
 6210SOL    HW119529   4.771   2.598   3.379
 6210SOL    HW219530   4.920   2.634   3.434
 6211SOL     OW19531   4.562   5.424   5.009
 6211SOL    HW119532   4.546   5.432   4.910
 6211SOL    HW219533   4.622   5.498   5.039
 6212SOL     OW19534   3.758   5.369   6.296
 6212SOL    HW119535   3.772   5.314   6.213
 6212SOL    HW219536   3.771   5.466   6.274
 6213SOL     OW19537   4.422   5.855   0.622
 6213SOL    HW119538   4.398   5.917   0.697
 6213SOL    HW219539   4.352   5.783   0.617
 6214SOL     OW19540   6.302   6.012   5.171
 6214SOL    HW119541   6.271   5.924   5.208
 6214SOL    HW219542   6.381   5.996   5.111
 6215SOL     OW19543   5.154   2.272   6.435
 6215SOL    HW119544   5.244   2.298   6.400
 6215SOL    HW219545   5.115   2.200   6.378
 6216SOL     OW19546   4.788   2.885   3.136
 6216SOL    HW119547   4.697   2.843   3.135
 6216SOL    HW219548   4.857   2.816   3.115
 6217SOL     OW19549   0.990   4.421   2.514
 6217SOL    HW119550   0.919   4.390   2.577
 6217SOL    HW219551   0.978   4.377   2.426
 6218SOL     OW19552   4.829   6.833   0.688
 6218SOL    HW119553   4.815   6.882   0.602
 6218SOL    HW219554   4.906   6.770   0.677
 6219SOL     OW19555   1.197   0.970   5.461
 6219SOL    HW119556   1.172   0.988   5.366
 6219SOL    HW219557   1.146   1.031   5.522
 6220SOL     OW19558   4.111   1.016   1.025
 6220SOL    HW119559   4.097   0.932   0.972
 6220SOL    HW219560   4.104   0.996   1.122
 6221SOL     OW19561   6.281   6.239   6.703
 6221SOL    HW119562   6.267   6.254   6.605
 6221SOL    HW219563   6.214   6.173   6.736
 6222SOL     OW19564   6.452   1.518   2.573
 6222SOL    HW119565   6.506   1.434   2.579
 6222SOL    HW219566   6.361   1.496   2.538
 6223SOL     OW19567   0.443   5.607   4.065
 6223SOL    HW119568   0.377   5.615   4.139
 6223SOL    HW219569   0.442   5.514   4.030
 6224SOL     OW19570   4.541   1.845   6.647
 6224SOL    HW119571   4.520   1.775   6.716
 6224SOL    HW219572   4.624   1.893   6.673
 6225SOL     OW19573   3.686   6.690   6.403
 6225SOL    HW119574   3.755   6.635   6.451
 6225SOL    HW219575   3.644   6.634   6.332
 6226SOL     OW19576   1.265   1.474   3.772
 6226SOL    HW119577   1.347   1.420   3.790
 6226SOL    HW219578   1.194   1.450   3.838
 6227SOL     OW19579   3.011   3.971   5.524
 6227SOL    HW119580   3.045   4.035   5.455
 6227SOL    HW219581   2.915   3.990   5.543
 6228SOL     OW19582   1.987   2.868   4.096
 6228SOL    HW119583   2.037   2.916   4.024
 6228SOL    HW219584   1.918   2.929   4.135
 6229SOL     OW19585   0.189   3.638   4.314
 6229SOL    HW119586   0.190   3.559   4.375
 6229SOL    HW219587   0.272   3.638   4.257
 6230SOL     OW19588   0.516   0.792   1.988
 6230SOL    HW119589   0.487   0.735   1.911
 6230SOL    HW219590   0.459   0.874   1.991
 6231SOL     OW19591   6.664   4.767   0.148
 6231SOL    HW119592   6.590   4.702   0.129
 6231SOL    HW219593   6.630   4.843   0.203
 6232SOL     OW19594   5.339   1.147   0.034
 6232SOL    HW119595   5.435   1.175   0.036
 6232SOL    HW219596   5.318   1.105   6.969
 6233SOL     OW19597   0.230   3.432   0.990
 6233SOL    HW119598   0.306   3.400   0.934
 6233SOL    HW219599   0.150   3.450   0.933
 6234SOL     OW19600   6.642   6.841   4.488
 6234SOL    HW119601   6.646   6.837   4.588
 6234SOL    HW219602   6.610   6.753   4.452
 6235SOL     OW19603   6.840   1.172   2.411
 6235SOL    HW119604   6.843   1.087   2.463
 6235SOL    HW219605   6.916   1.231   2.439
 6236SOL     OW19606   0.383   4.394   0.751
 6236SOL    HW119607   0.305   4.339   0.780
 6236SOL    HW219608   0.351   4.483   0.719
 6237SOL     OW19609   3.787   0.616   1.457
 6237SOL    HW119610   3.864   0.605   1.394
 6237SOL    HW219611   3.744   0.706   1.442
 6238SOL     OW19612   2.496   6.554   4.369
 6238SOL    HW119613   2.457   6.631   4.418
 6238SOL    HW219614   2.595   6.553   4.382
 6239SOL     OW19615   4.848   0.522   3.223
 6239SOL    HW119616   4.825   0.435   3.265
 6239SOL    HW219617   4.775   0.588   3.243
 6240SOL     OW19618   3.933   3.148   4.536
 6240SOL    HW119619   3.891   3.091   4.606
 6240SOL    HW219620   3.882   3.138   4.450
 6241SOL     OW19621   2.908   6.797   3.776
 6241SOL    HW119622   2.832   6.829   3.720
 6241SOL    HW219623   2.924   6.863   3.850
 6242SOL     OW19624   3.275   1.615   3.750
 6242SOL    HW119625   3.331   1.686   3.706
 6242SOL    HW219626   3.243   1.648   3.839
 6243SOL     OW19627   5.657   1.267   5.926
 6243SOL    HW119628   5.655   1.198   5.854
 6243SOL    HW219629   5.745   1.262   5.974
 6244SOL     OW19630   4.192   4.650   2.407
 6244SOL    HW119631   4.149   4.668   2.319
 6244SOL    HW219632   4.282   4.608   2.392
 6245SOL     OW19633   0.641   4.623   2.293
 6245SOL    HW119634   0.611   4.694   2.229
 6245SOL    HW219635   0.574   4.615   2.367
 6246SOL     OW19636   0.669   6.839   4.489
 6246SOL    HW119637   0.601   6.805   4.423
 6246SOL    HW219638   0.748   6.778   4.489
 6247SOL     OW19639   6.981   5.852   3.439
 6247SOL    HW119640   0.009   5.935   3.462
 6247SOL    HW219641   0.017   5.787   3.393
 6248SOL     OW19642   3.334   3.265   6.993
 6248SOL    HW119643   3.362   3.292   0.061
 6248SOL    HW219644   3.261   3.196   6.999
 6249SOL     OW19645   6.426   2.698   0.713
 6249SOL    HW119646   6.383   2.609   0.701
 6249SOL    HW219647   6.515   2.699   0.667
 6250SOL     OW19648   0.390   0.580   0.871
 6250SOL    HW119649   0.399   0.494   0.821
 6250SOL    HW219650   0.299   0.585   0.913
 6251SOL     OW19651   2.892   6.842   4.589
 6251SOL    HW119652   2.939   6.875   4.508
 6251SOL    HW219653   2.934   6.756   4.620
 6252SOL     OW19654   2.853   5.576   0.258
 6252SOL    HW119655   2.847   5.645   0.186
 6252SOL    HW219656   2.826   5.487   0.220
 6253SOL     OW19657   3.229   5.010   4.872
 6253SOL    HW119658   3.151   5.072   4.887
 6253SOL    HW219659   3.260   4.975   4.961
 6254SOL     OW19660   0.265   6.199   1.172
 6254SOL    HW119661   0.337   6.267   1.160
 6254SOL    HW219662   0.295   6.130   1.237
 6255SOL     OW19663   0.327   1.763   1.407
 6255SOL    HW119664   0.394   1.836   1.423
 6255SOL    HW219665   0.299   1.724   1.494
 6256SOL     OW19666   4.668   5.244   2.769
 6256SOL    HW119667   4.621   5.156   2.776
 6256SOL    HW219668   4.715   5.264   2.856
 6257SOL     OW19669   4.274   3.986   1.380
 6257SOL    HW119670   4.232   4.022   1.297
 6257SOL    HW219671   4.224   4.020   1.460
 6258SOL     OW19672   4.701   6.336   5.986
 6258SOL    HW119673   4.605   6.355   6.007
 6258SOL    HW219674   4.722   6.242   6.013
 6259SOL     OW19675   2.078   0.081   5.252
 6259SOL    HW119676   2.130   0.034   5.180
 6259SOL    HW219677   2.021   0.153   5.210
 6260SOL     OW19678   2.361   0.979   0.319
 6260SOL    HW119679   2.435   1.005   0.382
 6260SOL    HW219680   2.400   0.958   0.229
 6261SOL     OW19681   4.032   6.101   1.680
 6261SOL    HW119682   3.974   6.170   1.724
 6261SOL    HW219683   3.988   6.069   1.597
 6262SOL     OW19684   6.566   6.643   2.075
 6262SOL    HW119685   6.512   6.725   2.055
 6262SOL    HW219686   6.635   6.630   2.004
 6263SOL     OW19687   6.702   5.821   5.158
 6263SOL    HW119688   6.674   5.735   5.117
 6263SOL    HW219689   6.642   5.842   5.236
 6264SOL     OW19690   1.003   0.299   1.061
 6264SOL    HW119691   1.061   0.380   1.058
 6264SOL    HW219692   0.913   0.323   1.098
 6265SOL     OW19693   4.589   2.090   0.252
 6265SOL    HW119694   4.604   2.020   0.322
 6265SOL    HW219695   4.505   2.071   0.203
 6266SOL     OW19696   2.841   5.512   3.377
 6266SOL    HW119697   2.765   5.577   3.377
 6266SOL    HW219698   2.855   5.477   3.469
 6267SOL     OW19699   1.126   6.984   5.089
 6267SOL    HW119700   1.173   0.017   5.157
 6267SOL    HW219701   1.084   6.906   5.134
 6268SOL     OW19702   3.121   0.248   1.754
 6268SOL    HW119703   3.113   0.328   1.814
 6268SOL    HW219704   3.146   0.168   1.808
 6269SOL     OW19705   5.818   5.870   1.211
 6269SOL    HW119706   5.770   5.786   1.235
 6269SOL    HW219707   5.882   5.851   1.136
 6270SOL     OW19708   1.619   5.857   0.387
 6270SOL    HW119709   1.527   5.839   0.420
 6270SOL    HW219710   1.614   5.901   0.297
 6271SOL     OW19711   6.129   3.235   6.661
 6271SOL    HW119712   6.143   3.325   6.620
 6271SOL    HW219713   6.043   3.234   6.712
 6272SOL     OW19714   6.204   0.310   0.391
 6272SOL    HW119715   6.256   0.226   0.370
 6272SOL    HW219716   6.215   0.332   0.488
 6273SOL     OW19717   6.978   0.160   1.729
 6273SOL    HW119718   6.921   0.161   1.646
 6273SOL    HW219719   7.013   0.068   1.744
 6274SOL     OW19720   3.499   5.836   4.912
 6274SOL    HW119721   3.474   5.764   4.976
 6274SOL    HW219722   3.572   5.802   4.852
 6275SOL     OW19723   1.901   5.356   0.056
 6275SOL    HW119724   1.839   5.401   0.120
 6275SOL    HW219725   1.895   5.257   0.069
 6276SOL     OW19726   2.087   5.745   3.080
 6276SOL    HW119727   2.129   5.814   3.139
 6276SOL    HW219728   1.990   5.766   3.068
 6277SOL     OW19729   5.574   2.905   1.317
 6277SOL    HW119730   5.488   2.922   1.269
 6277SOL    HW219731   5.648   2.895   1.251
 6278SOL     OW19732   2.794   6.825   6.120
 6278SOL    HW119733   2.821   6.821   6.024
 6278SOL    HW219734   2.875   6.834   6.178
 6279SOL     OW19735   2.905   0.070   1.963
 6279SOL    HW119736   2.816   0.106   1.935
 6279SOL    HW219737   2.957   0.044   1.882
 6280SOL     OW19738   6.678   1.916   6.609
 6280SOL    HW119739   6.688   2.015   6.617
 6280SOL    HW219740   6.583   1.895   6.586
 6281SOL     OW19741   6.081   4.162   5.214
 6281SOL    HW119742   5.998   4.205   5.179
 6281SOL    HW219743   6.131   4.228   5.270
 6282SOL     OW19744   0.482   3.510   5.874
 6282SOL    HW119745   0.472   3.562   5.959
 6282SOL    HW219746   0.534   3.427   5.892
 6283SOL     OW19747   0.728   6.345   5.417
 6283SOL    HW119748   0.817   6.354   5.374
 6283SOL    HW219749   0.728   6.267   5.480
 6284SOL     OW19750   2.102   4.588   6.691
 6284SOL    HW119751   2.104   4.494   6.659
 6284SOL    HW219752   2.067   4.591   6.784
 6285SOL     OW19753   1.147   3.320   3.399
 6285SOL    HW119754   1.108   3.377   3.326
 6285SOL    HW219755   1.159   3.376   3.481
 6286SOL     OW19756   0.687   3.129   4.942
 6286SOL    HW119757   0.654   3.080   4.861
 6286SOL    HW219758   0.610   3.156   4.998
 6287SOL     OW19759   4.446   4.845   5.267
 6287SOL    HW119760   4.432   4.944   5.269
 6287SOL    HW219761   4.539   4.826   5.236
 6288SOL     OW19762   3.495   3.141   6.644
 6288SOL    HW119763   3.525   3.058   6.692
 6288SOL    HW219764   3.551   3.153   6.562
 6289SOL     OW19765   2.292   4.972   6.201
 6289SOL    HW119766   2.309   4.920   6.285
 6289SOL    HW219767   2.272   4.909   6.126
 6290SOL     OW19768   5.356   5.342   4.849
 6290SOL    HW119769   5.434   5.320   4.790
 6290SOL    HW219770   5.384   5.336   4.945
 6291SOL     OW19771   3.007   3.178   2.751
 6291SOL    HW119772   3.058   3.105   2.796
 6291SOL    HW219773   2.978   3.148   2.660
 6292SOL     OW19774   2.044   3.205   4.690
 6292SOL    HW119775   2.004   3.207   4.782
 6292SOL    HW219776   2.112   3.132   4.685
 6293SOL     OW19777   4.574   0.917   6.783
 6293SOL    HW119778   4.543   0.979   6.712
 6293SOL    HW219779   4.672   0.931   6.799
 6294SOL     OW19780   2.437   1.472   3.644
 6294SOL    HW119781   2.401   1.531   3.716
 6294SOL    HW219782   2.524   1.510   3.611
 6295SOL     OW19783   5.455   4.204   5.348
 6295SOL    HW119784   5.431   4.109   5.328
 6295SOL    HW219785   5.513   4.207   5.430
 6296SOL     OW19786   0.393   2.603   6.577
 6296SOL    HW119787   0.312   2.581   6.632
 6296SOL    HW219788   0.461   2.531   6.588
 6297SOL     OW19789   6.131   0.400   3.965
 6297SOL    HW119790   6.058   0.355   3.913
 6297SOL    HW219791   6.161   0.482   3.915
 6298SOL     OW19792   6.059   4.852   0.293
 6298SOL    HW119793   6.137   4.870   0.233
 6298SOL    HW219794   6.011   4.938   0.311
 6299SOL     OW19795   4.941   2.060   2.971
 6299SOL    HW119796   4.983   2.036   2.884
 6299SOL    HW219797   4.870   2.129   2.956
 6300SOL     OW19798   3.071   0.121   5.593
 6300SOL    HW119799   3.106   0.110   5.686
 6300SOL    HW219800   3.145   0.147   5.532
 6301SOL     OW19801   3.466   6.760   0.552
 6301SOL    HW119802   3.432   6.667   0.539
 6301SOL    HW219803   3.530   6.763   0.628
 6302SOL     OW19804   2.680   1.151   5.597
 6302SOL    HW119805   2.650   1.193   5.511
 6302SOL    HW219806   2.743   1.212   5.644
 6303SOL     OW19807   1.130   5.967   5.812
 6303SOL    HW119808   1.176   5.879   5.795
 6303SOL    HW219809   1.064   5.956   5.886
 6304SOL     OW19810   4.022   1.109   3.125
 6304SOL    HW119811   3.944   1.065   3.169
 6304SOL    HW219812   4.054   1.185   3.182
 6305SOL     OW19813   0.385   5.980   5.949
 6305SOL    HW119814   0.324   5.901   5.959
 6305SOL    HW219815   0.346   6.045   5.884
 6306SOL     OW19816   6.967   4.671   3.759
 6306SOL    HW119817   6.927   4.589   3.800
 6306SOL    HW219818   7.020   4.646   3.678
 6307SOL     OW19819   4.070   3.517   3.305
 6307SOL    HW119820   4.110   3.465   3.230
 6307SOL    HW219821   4.072   3.615   3.283
 6308SOL     OW19822   0.344   2.793   0.207
 6308SOL    HW119823   0.313   2.758   0.296
 6308SOL    HW219824   0.306   2.738   0.134
 6309SOL     OW19825   1.694   6.066   4.297
 6309SOL    HW119826   1.603   6.101   4.273
 6309SOL    HW219827   1.764   6.124   4.256
 6310SOL     OW19828   2.025   6.469   3.257
 6310SOL    HW119829   2.048   6.558   3.218
 6310SOL    HW219830   2.105   6.409   3.253
 6311SOL     OW19831   5.234   1.038   6.233
 6311SOL    HW119832   5.221   1.077   6.324
 6311SOL    HW219833   5.176   1.087   6.167
 6312SOL     OW19834   3.192   6.570   6.914
 6312SOL    HW119835   3.165   6.627   6.992
 6312SOL    HW219836   3.269   6.511   6.941
 6313SOL     OW19837   5.754   6.104   3.211
 6313SOL    HW119838   5.773   6.019   3.259
 6313SOL    HW219839   5.676   6.150   3.253
 6314SOL     OW19840   2.260   6.987   1.673
 6314SOL    HW119841   2.335   7.019   1.614
 6314SOL    HW219842   2.239   0.034   1.741
 6315SOL     OW19843   2.325   2.841   3.828
 6315SOL    HW119844   2.242   2.896   3.836
 6315SOL    HW219845   2.353   2.808   3.918
 6316SOL     OW19846   5.771   1.552   4.309
 6316SOL    HW119847   5.738   1.471   4.357
 6316SOL    HW219848   5.762   1.538   4.210
 6317SOL     OW19849   5.053   4.684   1.858
 6317SOL    HW119850   4.970   4.730   1.825
 6317SOL    HW219851   5.081   4.724   1.945
 6318SOL     OW19852   6.388   0.256   5.776
 6318SOL    HW119853   6.408   0.251   5.874
 6318SOL    HW219854   6.311   0.318   5.761
 6319SOL     OW19855   5.532   2.094   4.444
 6319SOL    HW119856   5.465   2.159   4.409
 6319SOL    HW219857   5.602   2.144   4.496
 6320SOL     OW19858   6.631   1.347   4.384
 6320SOL    HW119859   6.536   1.373   4.400
 6320SOL    HW219860   6.654   1.360   4.287
 6321SOL     OW19861   5.790   2.194   0.420
 6321SOL    HW119862   5.789   2.212   0.322
 6321SOL    HW219863   5.767   2.099   0.438
 6322SOL     OW19864   1.775   0.819   1.276
 6322SOL    HW119865   1.703   0.854   1.337
 6322SOL    HW219866   1.854   0.792   1.330
 6323SOL     OW19867   2.844   3.098   1.450
 6323SOL    HW119868   2.755   3.130   1.417
 6323SOL    HW219869   2.913   3.167   1.431
 6324SOL     OW19870   4.505   1.468   0.915
 6324SOL    HW119871   4.489   1.421   0.829
 6324SOL    HW219872   4.597   1.447   0.948
 6325SOL     OW19873   1.884   2.426   3.402
 6325SOL    HW119874   1.814   2.492   3.428
 6325SOL    HW219875   1.841   2.344   3.363
 6326SOL     OW19876   5.380   4.841   6.196
 6326SOL    HW119877   5.431   4.927   6.206
 6326SOL    HW219878   5.384   4.789   6.281
 6327SOL     OW19879   0.014   0.272   3.237
 6327SOL    HW119880   7.012   0.182   3.202
 6327SOL    HW219881   7.001   0.343   3.177
 6328SOL     OW19882   4.307   3.410   5.770
 6328SOL    HW119883   4.247   3.434   5.694
 6328SOL    HW219884   4.354   3.324   5.750
 6329SOL     OW19885   1.388   3.007   5.714
 6329SOL    HW119886   1.356   3.101   5.699
 6329SOL    HW219887   1.486   3.008   5.736
 6330SOL     OW19888   5.576   0.508   3.296
 6330SOL    HW119889   5.592   0.538   3.202
 6330SOL    HW219890   5.533   0.583   3.348
 6331SOL     OW19891   0.214   3.402   2.588
 6331SOL    HW119892   0.281   3.332   2.613
 6331SOL    HW219893   0.168   3.376   2.503
 6332SOL     OW19894   2.436   1.630   0.992
 6332SOL    HW119895   2.531   1.601   1.006
 6332SOL    HW219896   2.406   1.604   0.900
 6333SOL     OW19897   4.617   1.244   0.296
 6333SOL    HW119898   4.693   1.210   0.351
 6333SOL    HW219899   4.557   1.167   0.271
 6334SOL     OW19900   2.250   1.152   1.952
 6334SOL    HW119901   2.287   1.244   1.939
 6334SOL    HW219902   2.323   1.085   1.938
 6335SOL     OW19903   6.169   1.411   0.371
 6335SOL    HW119904   6.076   1.438   0.397
 6335SOL    HW219905   6.208   1.354   0.443
 6336SOL     OW19906   0.797   3.245   6.126
 6336SOL    HW119907   0.756   3.170   6.178
 6336SOL    HW219908   0.778   3.332   6.170
 6337SOL     OW19909   4.519   5.719   5.370
 6337SOL    HW119910   4.522   5.807   5.417
 6337SOL    HW219911   4.425   5.696   5.347
 6338SOL     OW19912   3.155   1.932   4.010
 6338SOL    HW119913   3.082   1.992   4.043
 6338SOL    HW219914   3.114   1.849   3.971
 6339SOL     OW19915   1.331   4.394   3.532
 6339SOL    HW119916   1.354   4.333   3.456
 6339SOL    HW219917   1.238   4.429   3.521
 6340SOL     OW19918   2.226   4.157   1.564
 6340SOL    HW119919   2.197   4.161   1.660
 6340SOL    HW219920   2.234   4.062   1.536
 6341SOL     OW19921   0.953   4.497   3.695
 6341SOL    HW119922   1.009   4.502   3.777
 6341SOL    HW219923   0.874   4.438   3.712
 6342SOL     OW19924   1.996   1.693   2.154
 6342SOL    HW119925   1.978   1.714   2.250
 6342SOL    HW219926   2.028   1.775   2.107
 6343SOL     OW19927   2.396   6.156   0.981
 6343SOL    HW119928   2.433   6.105   0.903
 6343SOL    HW219929   2.379   6.092   1.056
 6344SOL     OW19930   0.098   1.282   3.544
 6344SOL    HW119931   0.142   1.258   3.458
 6344SOL    HW219932   0.042   1.364   3.532
 6345SOL     OW19933   5.776   3.643   1.353
 6345SOL    HW119934   5.834   3.707   1.303
 6345SOL    HW219935   5.684   3.681   1.362
 6346SOL     OW19936   0.065   4.288   5.436
 6346SOL    HW119937   0.098   4.207   5.388
 6346SOL    HW219938   6.989   4.291   5.434
 6347SOL     OW19939   2.615   1.922   2.775
 6347SOL    HW119940   2.526   1.879   2.763
 6347SOL    HW219941   2.648   1.957   2.688
 6348SOL     OW19942   0.084   2.342   5.487
 6348SOL    HW119943   0.180   2.332   5.460
 6348SOL    HW219944   0.054   2.259   5.535
 6349SOL     OW19945   0.142   0.938   0.064
 6349SOL    HW119946   0.215   0.875   0.040
 6349SOL    HW219947   0.058   0.912   0.018
 6350SOL     OW19948   1.502   4.548   1.733
 6350SOL    HW119949   1.534   4.602   1.655
 6350SOL    HW219950   1.501   4.451   1.709
 6351SOL     OW19951   5.532   3.433   2.185
 6351SOL    HW119952   5.478   3.471   2.110
 6351SOL    HW219953   5.513   3.336   2.195
 6352SOL     OW19954   2.330   0.397   4.903
 6352SOL    HW119955   2.261   0.466   4.885
 6352SOL    HW219956   2.371   0.413   4.993
 6353SOL     OW19957   3.175   6.184   6.517
 6353SOL    HW119958   3.115   6.260   6.492
 6353SOL    HW219959   3.257   6.186   6.460
 6354SOL     OW19960   4.734   4.905   2.457
 6354SOL    HW119961   4.671   4.828   2.450
 6354SOL    HW219962   4.753   4.925   2.553
 6355SOL     OW19963   3.094   4.761   0.881
 6355SOL    HW119964   3.094   4.672   0.835
 6355SOL    HW219965   3.186   4.784   0.911
 6356SOL     OW19966   5.713   3.902   6.377
 6356SOL    HW119967   5.623   3.912   6.333
 6356SOL    HW219968   5.703   3.850   6.462
 6357SOL     OW19969   5.259   1.450   1.294
 6357SOL    HW119970   5.260   1.365   1.347
 6357SOL    HW219971   5.223   1.525   1.351
 6358SOL     OW19972   1.361   2.546   6.876
 6358SOL    HW119973   1.446   2.552   6.928
 6358SOL    HW219974   1.359   2.621   6.809
 6359SOL     OW19975   5.895   6.176   0.139
 6359SOL    HW119976   5.871   6.138   0.229
 6359SOL    HW219977   5.991   6.155   0.119
 6360SOL     OW19978   0.831   2.369   2.486
 6360SOL    HW119979   0.749   2.361   2.430
 6360SOL    HW219980   0.911   2.384   2.427
 6361SOL     OW19981   0.336   0.741   0.110
 6361SOL    HW119982   0.408   0.719   0.176
 6361SOL    HW219983   0.288   0.657   0.085
 6362SOL     OW19984   0.855   5.265   6.993
 6362SOL    HW119985   0.877   5.258   0.066
 6362SOL    HW219986   0.756   5.273   6.982
 6363SOL     OW19987   2.871   5.178   3.772
 6363SOL    HW119988   2.966   5.192   3.802
 6363SOL    HW219989   2.815   5.152   3.851
 6364SOL     OW19990   2.340   2.533   4.918
 6364SOL    HW119991   2.240   2.540   4.925
 6364SOL    HW219992   2.372   2.591   4.843
 6365SOL     OW19993   6.149   4.995   3.664
 6365SOL    HW119994   6.128   4.963   3.756
 6365SOL    HW219995   6.137   4.921   3.598
 6366SOL     OW19996   5.739   6.966   4.693
 6366SOL    HW119997   5.717   0.009   4.765
 6366SOL    HW219998   5.654   6.928   4.656
 6367SOL     OW19999   2.661   2.037   3.053
 6367SOL    HW120000   2.656   2.017   2.955
 6367SOL    HW220001   2.570   2.063   3.086
 6368SOL     OW20002   5.053   3.401   4.728
 6368SOL    HW120003   5.113   3.428   4.653
 6368SOL    HW220004   4.971   3.357   4.692
 6369SOL     OW20005   2.851   6.110   6.345
 6369SOL    HW120006   2.835   6.086   6.249
 6369SOL    HW220007   2.811   6.200   6.364
 6370SOL     OW20008   5.678   3.403   3.843
 6370SOL    HW120009   5.609   3.349   3.795
 6370SOL    HW220010   5.736   3.343   3.898
 6371SOL     OW20011   5.397   3.827   1.765
 6371SOL    HW120012   5.479   3.775   1.742
 6371SOL    HW220013   5.322   3.798   1.705
 6372SOL     OW20014   6.875   0.767   2.954
 6372SOL    HW120015   6.810   0.774   2.878
 6372SOL    HW220016   6.827   0.784   3.041
 6373SOL     OW20017   5.382   3.580   1.250
 6373SOL    HW120018   5.397   3.482   1.264
 6373SOL    HW220019   5.334   3.618   1.328
 6374SOL     OW20020   4.901   2.752   0.404
 6374SOL    HW120021   4.981   2.811   0.397
 6374SOL    HW220022   4.821   2.799   0.368
 6375SOL     OW20023   6.765   2.541   1.984
 6375SOL    HW120024   6.724   2.584   1.904
 6375SOL    HW220025   6.744   2.594   2.066
 6376SOL     OW20026   3.357   0.617   6.560
 6376SOL    HW120027   3.356   0.529   6.511
 6376SOL    HW220028   3.402   0.605   6.648
 6377SOL     OW20029   6.832   0.753   0.581
 6377SOL    HW120030   6.808   0.666   0.623
 6377SOL    HW220031   6.919   0.785   0.617
 6378SOL     OW20032   5.714   5.557   3.307
 6378SOL    HW120033   5.750   5.499   3.234
 6378SOL    HW220034   5.616   5.568   3.296
 6379SOL     OW20035   2.833   6.227   0.220
 6379SOL    HW120036   2.813   6.138   0.261
 6379SOL    HW220037   2.932   6.240   0.214
 6380SOL     OW20038   1.375   3.486   5.370
 6380SOL    HW120039   1.285   3.471   5.411
 6380SOL    HW220040   1.396   3.411   5.308
 6381SOL     OW20041   4.688   2.947   0.194
 6381SOL    HW120042   4.692   3.004   0.276
 6381SOL    HW220043   4.596   2.949   0.157
 6382SOL     OW20044   2.041   1.826   1.378
 6382SOL    HW120045   1.981   1.767   1.433
 6382SOL    HW220046   2.085   1.771   1.307
 6383SOL     OW20047   1.872   2.096   2.396
 6383SOL    HW120048   1.878   2.191   2.428
 6383SOL    HW220049   1.853   2.095   2.298
 6384SOL     OW20050   6.357   2.437   2.150
 6384SOL    HW120051   6.381   2.357   2.206
 6384SOL    HW220052   6.353   2.409   2.054
 6385SOL     OW20053   0.006   2.671   1.041
 6385SOL    HW120054   6.985   2.591   1.079
 6385SOL    HW220055   6.961   2.733   1.004
 6386SOL     OW20056   2.167   3.458   0.175
 6386SOL    HW120057   2.155   3.359   0.182
 6386SOL    HW220058   2.166   3.485   0.079
 6387SOL     OW20059   6.684   0.357   6.723
 6387SOL    HW120060   6.748   0.395   6.789
 6387SOL    HW220061   6.735   0.312   6.649
 6388SOL     OW20062   6.157   5.526   2.698
 6388SOL    HW120063   6.143   5.479   2.611
 6388SOL    HW220064   6.088   5.598   2.708
 6389SOL     OW20065   1.210   0.870   6.653
 6389SOL    HW120066   1.220   0.922   6.568
 6389SOL    HW220067   1.211   0.773   6.632
 6390SOL     OW20068   6.511   1.453   6.382
 6390SOL    HW120069   6.483   1.531   6.437
 6390SOL    HW220070   6.595   1.475   6.333
 6391SOL     OW20071   1.161   1.642   5.129
 6391SOL    HW120072   1.170   1.734   5.167
 6391SOL    HW220073   1.206   1.639   5.040
 6392SOL     OW20074   4.203   6.355   3.737
 6392SOL    HW120075   4.296   6.368   3.770
 6392SOL    HW220076   4.139   6.360   3.813
 6393SOL     OW20077   6.714   5.682   1.448
 6393SOL    HW120078   6.652   5.759   1.458
 6393SOL    HW220079   6.718   5.655   1.352
 6394SOL     OW20080   1.302   5.441   1.170
 6394SOL    HW120081   1.396   5.434   1.136
 6394SOL    HW220082   1.251   5.504   1.113
 6395SOL     OW20083   1.881   4.114   3.593
 6395SOL    HW120084   1.882   4.037   3.656
 6395SOL    HW220085   1.827   4.189   3.632
 6396SOL     OW20086   0.508   3.530   0.541
 6396SOL    HW120087   0.591   3.492   0.500
 6396SOL    HW220088   0.428   3.500   0.490
 6397SOL     OW20089   5.851   2.287   3.762
 6397SOL    HW120090   5.840   2.251   3.855
 6397SOL    HW220091   5.944   2.267   3.729
 6398SOL     OW20092   1.410   0.060   1.093
 6398SOL    HW120093   1.502   0.022   1.084
 6398SOL    HW220094   1.343   7.012   1.075
 6399SOL     OW20095   2.551   0.607   6.069
 6399SOL    HW120096   2.486   0.618   5.994
 6399SOL    HW220097   2.504   0.620   6.156
 6400SOL     OW20098   1.413   5.466   3.139
 6400SOL    HW120099   1.401   5.513   3.051
 6400SOL    HW220100   1.327   5.470   3.191
 6401SOL     OW20101   3.733   5.950   3.329
 6401SOL    HW120102   3.722   5.851   3.342
 6401SOL    HW220103   3.811   5.967   3.268
 6402SOL     OW20104   2.293   4.800   5.212
 6402SOL    HW120105   2.263   4.787   5.117
 6402SOL    HW220106   2.340   4.887   5.220
 6403SOL     OW20107   4.737   6.113   4.756
 6403SOL    HW120108   4.695   6.050   4.822
 6403SOL    HW220109   4.836   6.107   4.762
 6404SOL     OW20110   4.063   0.685   2.543
 6404SOL    HW120111   4.139   0.746   2.520
 6404SOL    HW220112   3.977   0.733   2.528
 6405SOL     OW20113   5.367   1.540   2.234
 6405SOL    HW120114   5.361   1.621   2.175
 6405SOL    HW220115   5.286   1.483   2.220
 6406SOL     OW20116   1.222   2.663   2.816
 6406SOL    HW120117   1.180   2.709   2.738
 6406SOL    HW220118   1.265   2.730   2.876
 6407SOL     OW20119   1.871   6.091   2.855
 6407SOL    HW120120   1.965   6.112   2.881
 6407SOL    HW220121   1.809   6.131   2.923
 6408SOL     OW20122   6.533   1.200   0.554
 6408SOL    HW120123   6.592   1.121   0.538
 6408SOL    HW220124   6.590   1.281   0.570
 6409SOL     OW20125   6.728   4.835   3.725
 6409SOL    HW120126   6.696   4.900   3.794
 6409SOL    HW220127   6.818   4.799   3.753
 6410SOL     OW20128   3.158   1.872   5.657
 6410SOL    HW120129   3.144   1.890   5.560
 6410SOL    HW220130   3.080   1.905   5.709
 6411SOL     OW20131   0.519   2.231   2.619
 6411SOL    HW120132   0.454   2.164   2.656
 6411SOL    HW220133   0.589   2.252   2.687
 6412SOL     OW20134   2.915   0.546   6.965
 6412SOL    HW120135   2.958   0.458   6.945
 6412SOL    HW220136   2.821   0.546   6.933
 6413SOL     OW20137   4.608   4.924   3.843
 6413SOL    HW120138   4.579   5.010   3.886
 6413SOL    HW220139   4.645   4.943   3.752
 6414SOL     OW20140   1.415   6.622   0.379
 6414SOL    HW120141   1.428   6.719   0.396
 6414SOL    HW220142   1.381   6.609   0.286
 6415SOL     OW20143   1.031   2.745   3.145
 6415SOL    HW120144   0.976   2.751   3.062
 6415SOL    HW220145   1.126   2.767   3.123
 6416SOL     OW20146   2.485   0.744   6.607
 6416SOL    HW120147   2.481   0.833   6.651
 6416SOL    HW220148   2.580   0.719   6.588
 6417SOL     OW20149   4.097   1.633   0.603
 6417SOL    HW120150   4.131   1.561   0.542
 6417SOL    HW220151   3.998   1.639   0.594
 6418SOL     OW20152   4.402   5.057   1.246
 6418SOL    HW120153   4.425   5.023   1.337
 6418SOL    HW220154   4.402   5.157   1.248
 6419SOL     OW20155   0.624   6.718   7.019
 6419SOL    HW120156   0.569   6.644   6.981
 6419SOL    HW220157   0.643   6.785   6.947
 6420SOL     OW20158   2.164   3.470   4.021
 6420SOL    HW120159   2.233   3.536   4.052
 6420SOL    HW220160   2.074   3.498   4.054
 6421SOL     OW20161   5.114   0.040   1.747
 6421SOL    HW120162   5.120   0.068   1.843
 6421SOL    HW220163   5.045   0.096   1.700
 6422SOL     OW20164   6.413   2.358   4.845
 6422SOL    HW120165   6.355   2.277   4.851
 6422SOL    HW220166   6.489   2.339   4.782
 6423SOL     OW20167   2.491   4.481   4.299
 6423SOL    HW120168   2.443   4.438   4.223
 6423SOL    HW220169   2.573   4.527   4.265
 6424SOL     OW20170   0.026   4.415   4.631
 6424SOL    HW120171   0.096   4.378   4.570
 6424SOL    HW220172   6.993   4.340   4.665
 6425SOL     OW20173   0.259   6.116   2.851
 6425SOL    HW120174   0.164   6.085   2.854
 6425SOL    HW220175   0.317   6.041   2.817
 6426SOL     OW20176   4.472   4.691   4.769
 6426SOL    HW120177   4.454   4.628   4.844
 6426SOL    HW220178   4.386   4.717   4.726
 6427SOL     OW20179   2.884   3.353   3.271
 6427SOL    HW120180   2.872   3.439   3.322
 6427SOL    HW220181   2.865   3.369   3.175
 6428SOL     OW20182   5.151   2.486   0.185
 6428SOL    HW120183   5.169   2.392   0.214
 6428SOL    HW220184   5.230   2.543   0.205
 6429SOL     OW20185   2.188   0.681   5.680
 6429SOL    HW120186   2.189   0.715   5.585
 6429SOL    HW220187   2.147   0.590   5.682
 6430SOL     OW20188   6.567   0.478   4.806
 6430SOL    HW120189   6.640   0.422   4.845
 6430SOL    HW220190   6.525   0.430   4.729
 6431SOL     OW20191   3.819   4.595   1.627
 6431SOL    HW120192   3.864   4.607   1.715
 6431SOL    HW220193   3.729   4.638   1.629
 6432SOL     OW20194   4.566   4.734   5.987
 6432SOL    HW120195   4.523   4.816   6.025
 6432SOL    HW220196   4.593   4.673   6.061
 6433SOL     OW20197   2.132   5.894   6.412
 6433SOL    HW120198   2.199   5.966   6.392
 6433SOL    HW220199   2.180   5.808   6.429
 6434SOL     OW20200   3.356   5.763   5.654
 6434SOL    HW120201   3.363   5.760   5.554
 6434SOL    HW220202   3.279   5.706   5.684
 6435SOL     OW20203   5.277   1.318   0.934
 6435SOL    HW120204   5.328   1.310   0.849
 6435SOL    HW220205   5.254   1.227   0.968
 6436SOL     OW20206   0.369   4.073   4.161
 6436SOL    HW120207   0.344   4.022   4.079
 6436SOL    HW220208   0.445   4.026   4.208
 6437SOL     OW20209   0.344   1.297   5.838
 6437SOL    HW120210   0.253   1.267   5.867
 6437SOL    HW220211   0.347   1.397   5.837
 6438SOL     OW20212   0.417   5.675   0.527
 6438SOL    HW120213   0.472   5.754   0.553
 6438SOL    HW220214   0.342   5.704   0.468
 6439SOL     OW20215   5.383   6.966   3.300
 6439SOL    HW120216   5.383   0.042   3.292
 6439SOL    HW220217   5.321   6.938   3.373
 6440SOL     OW20218   2.404   1.486   6.123
 6440SOL    HW120219   2.388   1.397   6.166
 6440SOL    HW220220   2.432   1.471   6.028
 6441SOL     OW20221   0.414   0.917   2.693
 6441SOL    HW120222   0.495   0.893   2.639
 6441SOL    HW220223   0.332   0.903   2.637
 6442SOL     OW20224   3.049   3.007   5.634
 6442SOL    HW120225   3.004   3.068   5.569
 6442SOL    HW220226   3.009   2.916   5.627
 6443SOL     OW20227   4.683   2.600   1.172
 6443SOL    HW120228   4.653   2.676   1.229
 6443SOL    HW220229   4.694   2.632   1.077
 6444SOL     OW20230   6.935   3.257   4.851
 6444SOL    HW120231   7.015   3.297   4.806
 6444SOL    HW220232   6.949   3.256   4.950
 6445SOL     OW20233   3.181   4.049   3.448
 6445SOL    HW120234   3.257   4.035   3.384
 6445SOL    HW220235   3.216   4.087   3.533
 6446SOL     OW20236   2.452   1.721   6.725
 6446SOL    HW120237   2.433   1.768   6.639
 6446SOL    HW220238   2.550   1.704   6.733
 6447SOL     OW20239   6.547   4.008   1.096
 6447SOL    HW120240   6.640   4.035   1.070
 6447SOL    HW220241   6.488   4.090   1.098
 6448SOL     OW20242   4.654   5.115   1.660
 6448SOL    HW120243   4.713   5.193   1.641
 6448SOL    HW220244   4.637   5.065   1.576
 6449SOL     OW20245   2.584   6.119   1.374
 6449SOL    HW120246   2.488   6.140   1.359
 6449SOL    HW220247   2.632   6.200   1.407
 6450SOL     OW20248   0.252   3.832   0.830
 6450SOL    HW120249   0.350   3.831   0.853
 6450SOL    HW220250   0.232   3.758   0.767
 6451SOL     OW20251   3.379   2.397   1.539
 6451SOL    HW120252   3.309   2.446   1.591
 6451SOL    HW220253   3.354   2.300   1.534
 6452SOL     OW20254   5.283   2.575   3.196
 6452SOL    HW120255   5.184   2.583   3.186
 6452SOL    HW220256   5.327   2.582   3.106
 6453SOL     OW20257   3.623   6.994   0.779
 6453SOL    HW120258   3.553   0.030   0.818
 6453SOL    HW220259   3.626   6.907   0.829
 6454SOL     OW20260   5.457   2.690   2.652
 6454SOL    HW120261   5.464   2.710   2.749
 6454SOL    HW220262   5.370   2.644   2.634
 6455SOL     OW20263   6.681   3.571   3.515
 6455SOL    HW120264   6.639   3.595   3.602
 6455SOL    HW220265   6.611   3.562   3.444
 6456SOL     OW20266   6.274   1.473   2.999
 6456SOL    HW120267   6.227   1.561   3.011
 6456SOL    HW220268   6.206   1.402   2.982
 6457SOL     OW20269   4.682   0.515   2.273
 6457SOL    HW120270   4.682   0.581   2.198
 6457SOL    HW220271   4.597   0.463   2.271
 6458SOL     OW20272   0.739   4.767   3.660
 6458SOL    HW120273   0.713   4.717   3.743
 6458SOL    HW220274   0.836   4.788   3.663
 6459SOL     OW20275   6.535   2.844   2.563
 6459SOL    HW120276   6.493   2.928   2.530
 6459SOL    HW220277   6.504   2.767   2.507
 6460SOL     OW20278   0.165   5.671   6.747
 6460SOL    HW120279   0.230   5.654   6.821
 6460SOL    HW220280   0.142   5.769   6.745
 6461SOL     OW20281   2.786   4.914   1.266
 6461SOL    HW120282   2.727   4.985   1.230
 6461SOL    HW220283   2.787   4.919   1.366
 6462SOL     OW20284   1.430   3.978   5.018
 6462SOL    HW120285   1.338   3.939   5.014
 6462SOL    HW220286   1.497   3.904   5.031
 6463SOL     OW20287   4.185   1.320   1.438
 6463SOL    HW120288   4.275   1.358   1.415
 6463SOL    HW220289   4.155   1.358   1.525
 6464SOL     OW20290   0.800   5.984   4.562
 6464SOL    HW120291   0.815   5.887   4.547
 6464SOL    HW220292   0.732   6.018   4.497
 6465SOL     OW20293   4.684   1.742   3.399
 6465SOL    HW120294   4.739   1.692   3.467
 6465SOL    HW220295   4.598   1.693   3.384
 6466SOL     OW20296   0.480   3.239   6.788
 6466SOL    HW120297   0.511   3.233   6.692
 6466SOL    HW220298   0.387   3.275   6.791
 6467SOL     OW20299   3.235   1.245   0.631
 6467SOL    HW120300   3.245   1.274   0.726
 6467SOL    HW220301   3.325   1.216   0.596
 6468SOL     OW20302   3.116   0.184   0.289
 6468SOL    HW120303   3.081   0.111   0.348
 6468SOL    HW220304   3.070   0.270   0.312
 6469SOL     OW20305   3.760   1.820   3.128
 6469SOL    HW120306   3.772   1.736   3.182
 6469SOL    HW220307   3.846   1.870   3.123
 6470SOL     OW20308   6.562   1.944   7.016
 6470SOL    HW120309   6.466   1.973   7.019
 6470SOL    HW220310   6.572   1.856   0.038
 6471SOL     OW20311   0.019   5.957   5.496
 6471SOL    HW120312   7.007   5.925   5.408
 6471SOL    HW220313   0.043   5.878   5.553
 6472SOL     OW20314   6.954   5.511   2.765
 6472SOL    HW120315   6.866   5.467   2.745
 6472SOL    HW220316   6.941   5.580   2.837
 6473SOL     OW20317   2.664   1.006   4.397
 6473SOL    HW120318   2.600   1.078   4.369
 6473SOL    HW220319   2.613   0.922   4.416
 6474SOL     OW20320   3.916   5.532   5.083
 6474SOL    HW120321   3.996   5.590   5.078
 6474SOL    HW220322   3.882   5.514   4.991
 6475SOL     OW20323   5.668   4.820   2.916
 6475SOL    HW120324   5.692   4.841   3.011
 6475SOL    HW220325   5.746   4.779   2.870
 6476SOL     OW20326   3.814   1.325   6.245
 6476SOL    HW120327   3.715   1.316   6.234
 6476SOL    HW220328   3.844   1.414   6.210
 6477SOL     OW20329   6.789   6.232   1.650
 6477SOL    HW120330   6.785   6.186   1.739
 6477SOL    HW220331   6.772   6.166   1.577
 6478SOL     OW20332   3.584   5.456   1.974
 6478SOL    HW120333   3.519   5.466   2.049
 6478SOL    HW220334   3.537   5.469   1.887
 6479SOL     OW20335   3.420   6.134   3.986
 6479SOL    HW120336   3.344   6.096   4.038
 6479SOL    HW220337   3.436   6.229   4.014
 6480SOL     OW20338   3.396   1.294   6.910
 6480SOL    HW120339   3.419   1.390   6.930
 6480SOL    HW220340   3.300   1.289   6.881
 6481SOL     OW20341   3.321   2.670   1.806
 6481SOL    HW120342   3.304   2.744   1.871
 6481SOL    HW220343   3.247   2.604   1.811
 6482SOL     OW20344   6.725   3.592   5.274
 6482SOL    HW120345   6.755   3.527   5.345
 6482SOL    HW220346   6.720   3.545   5.186
 6483SOL     OW20347   0.966   5.683   5.549
 6483SOL    HW120348   0.975   5.586   5.527
 6483SOL    HW220349   1.057   5.723   5.559
 6484SOL     OW20350   2.937   0.650   4.215
 6484SOL    HW120351   2.942   0.621   4.119
 6484SOL    HW220352   2.978   0.741   4.224
 6485SOL     OW20353   2.241   6.967   4.565
 6485SOL    HW120354   2.259   0.009   4.492
 6485SOL    HW220355   2.318   6.967   4.630
 6486SOL     OW20356   1.751   5.443   3.192
 6486SOL    HW120357   1.779   5.533   3.160
 6486SOL    HW220358   1.725   5.387   3.113
 6487SOL     OW20359   0.040   4.753   4.079
 6487SOL    HW120360   0.115   4.696   4.045
 6487SOL    HW220361   6.980   4.729   4.030
 6488SOL     OW20362   4.499   5.111   4.793
 6488SOL    HW120363   4.432   5.058   4.741
 6488SOL    HW220364   4.554   5.049   4.850
 6489SOL     OW20365   4.188   3.230   5.957
 6489SOL    HW120366   4.285   3.206   5.961
 6489SOL    HW220367   4.173   3.293   5.881
 6490SOL     OW20368   1.771   2.132   6.615
 6490SOL    HW120369   1.761   2.216   6.667
 6490SOL    HW220370   1.812   2.061   6.673
 6491SOL     OW20371   1.659   0.661   0.115
 6491SOL    HW120372   1.670   0.721   0.194
 6491SOL    HW220373   1.693   0.570   0.138
 6492SOL     OW20374   3.476   3.805   4.844
 6492SOL    HW120375   3.518   3.765   4.762
 6492SOL    HW220376   3.455   3.901   4.827
 6493SOL     OW20377   1.162   4.337   5.691
 6493SOL    HW120378   1.185   4.336   5.788
 6493SOL    HW220379   1.158   4.243   5.656
 6494SOL     OW20380   6.187   6.791   2.173
 6494SOL    HW120381   6.141   6.702   2.171
 6494SOL    HW220382   6.120   6.862   2.194
 6495SOL     OW20383   6.846   0.032   3.442
 6495SOL    HW120384   6.907   0.033   3.521
 6495SOL    HW220385   6.812   0.124   3.424
 6496SOL     OW20386   4.856   0.893   1.968
 6496SOL    HW120387   4.922   0.881   1.894
 6496SOL    HW220388   4.869   0.983   2.011
 6497SOL     OW20389   0.071   1.934   0.408
 6497SOL    HW120390   0.023   2.021   0.399
 6497SOL    HW220391   0.086   1.915   0.505
 6498SOL     OW20392   0.963   4.330   3.994
 6498SOL    HW120393   0.931   4.415   4.036
 6498SOL    HW220394   0.952   4.255   4.059
 6499SOL     OW20395   5.643   3.586   3.485
 6499SOL    HW120396   5.671   3.518   3.417
 6499SOL    HW220397   5.581   3.544   3.551
 6500SOL     OW20398   1.636   4.349   3.070
 6500SOL    HW120399   1.552   4.299   3.092
 6500SOL    HW220400   1.705   4.328   3.139
 6501SOL     OW20401   6.585   1.994   0.772
 6501SOL    HW120402   6.558   2.062   0.839
 6501SOL    HW220403   6.528   1.912   0.781
 6502SOL     OW20404   6.054   3.779   1.279
 6502SOL    HW120405   5.981   3.818   1.222
 6502SOL    HW220406   6.072   3.685   1.251
 6503SOL     OW20407   6.598   3.316   5.301
 6503SOL    HW120408   6.668   3.297   5.370
 6503SOL    HW220409   6.545   3.233   5.284
 6504SOL     OW20410   4.696   6.171   6.755
 6504SOL    HW120411   4.759   6.246   6.734
 6504SOL    HW220412   4.610   6.208   6.791
 6505SOL     OW20413   5.779   5.434   6.820
 6505SOL    HW120414   5.720   5.476   6.751
 6505SOL    HW220415   5.764   5.478   6.908
 6506SOL     OW20416   6.987   3.010   2.291
 6506SOL    HW120417   6.991   2.934   2.356
 6506SOL    HW220418   0.029   2.994   2.217
 6507SOL     OW20419   3.800   4.695   6.627
 6507SOL    HW120420   3.760   4.604   6.623
 6507SOL    HW220421   3.762   4.751   6.553
 6508SOL     OW20422   1.265   6.278   2.146
 6508SOL    HW120423   1.217   6.207   2.094
 6508SOL    HW220424   1.291   6.353   2.085
 6509SOL     OW20425   3.648   1.718   5.944
 6509SOL    HW120426   3.580   1.694   6.013
 6509SOL    HW220427   3.614   1.693   5.853
 6510SOL     OW20428   4.574   6.064   5.767
 6510SOL    HW120429   4.571   5.965   5.750
 6510SOL    HW220430   4.638   6.084   5.841
 6511SOL     OW20431   3.064   0.821   0.511
 6511SOL    HW120432   3.067   0.918   0.488
 6511SOL    HW220433   3.148   0.777   0.478
 6512SOL     OW20434   3.389   0.650   1.369
 6512SOL    HW120435   3.343   0.708   1.437
 6512SOL    HW220436   3.323   0.622   1.299
 6513SOL     OW20437   2.633   5.462   4.090
 6513SOL    HW120438   2.659   5.482   3.996
 6513SOL    HW220439   2.712   5.427   4.140
 6514SOL     OW20440   5.647   0.024   5.804
 6514SOL    HW120441   5.628   0.108   5.754
 6514SOL    HW220442   5.636   0.040   5.902
 6515SOL     OW20443   2.152   5.119   2.519
 6515SOL    HW120444   2.096   5.074   2.451
 6515SOL    HW220445   2.122   5.091   2.611
 6516SOL     OW20446   6.727   3.359   0.826
 6516SOL    HW120447   6.724   3.407   0.738
 6516SOL    HW220448   6.670   3.407   0.893
 6517SOL     OW20449   0.175   2.605   0.055
 6517SOL    HW120450   0.124   2.669   7.022
 6517SOL    HW220451   0.134   2.515   0.049
 6518SOL     OW20452   1.353   1.474   2.963
 6518SOL    HW120453   1.355   1.494   3.061
 6518SOL    HW220454   1.261   1.447   2.936
 6519SOL     OW20455   1.429   1.559   3.227
 6519SOL    HW120456   1.438   1.628   3.299
 6519SOL    HW220457   1.407   1.471   3.269
 6520SOL     OW20458   0.252   5.677   0.281
 6520SOL    HW120459   0.184   5.729   0.229
 6520SOL    HW220460   0.307   5.622   0.218
 6521SOL     OW20461   1.067   3.213   4.367
 6521SOL    HW120462   1.134   3.272   4.411
 6521SOL    HW220463   1.093   3.117   4.382
 6522SOL     OW20464   2.644   3.831   5.261
 6522SOL    HW120465   2.593   3.913   5.233
 6522SOL    HW220466   2.740   3.840   5.233
 6523SOL     OW20467   6.385   0.759   6.981
 6523SOL    HW120468   6.468   0.722   0.000
 6523SOL    HW220469   6.346   0.691   6.920
 6524SOL     OW20470   2.051   2.199   1.740
 6524SOL    HW120471   2.080   2.167   1.650
 6524SOL    HW220472   1.966   2.250   1.732
 6525SOL     OW20473   1.073   4.485   3.439
 6525SOL    HW120474   1.003   4.458   3.506
 6525SOL    HW220475   1.040   4.564   3.387
 6526SOL     OW20476   6.819   6.917   0.674
 6526SOL    HW120477   6.863   6.932   0.762
 6526SOL    HW220478   6.880   6.863   0.615
 6527SOL     OW20479   0.613   2.595   0.499
 6527SOL    HW120480   0.553   2.518   0.520
 6527SOL    HW220481   0.605   2.664   0.572
 6528SOL     OW20482   5.803   0.773   5.682
 6528SOL    HW120483   5.875   0.814   5.625
 6528SOL    HW220484   5.834   0.683   5.713
 6529SOL     OW20485   7.006   1.420   2.451
 6529SOL    HW120486   0.075   1.443   2.480
 6529SOL    HW220487   6.940   1.473   2.505
 6530SOL     OW20488   0.627   2.536   2.340
 6530SOL    HW120489   0.560   2.477   2.295
 6530SOL    HW220490   0.633   2.623   2.292
 6531SOL     OW20491   3.988   3.459   5.479
 6531SOL    HW120492   3.928   3.533   5.509
 6531SOL    HW220493   3.976   3.442   5.382
 6532SOL     OW20494   1.311   0.693   0.761
 6532SOL    HW120495   1.353   0.778   0.794
 6532SOL    HW220496   1.212   0.701   0.767
 6533SOL     OW20497   4.521   3.754   0.138
 6533SOL    HW120498   4.451   3.710   0.193
 6533SOL    HW220499   4.589   3.686   0.110
 6534SOL     OW20500   6.129   4.654   2.672
 6534SOL    HW120501   6.166   4.594   2.743
 6534SOL    HW220502   6.203   4.713   2.638
 6535SOL     OW20503   6.386   3.488   5.238
 6535SOL    HW120504   6.462   3.427   5.214
 6535SOL    HW220505   6.372   3.487   5.337
 6536SOL     OW20506   0.775   3.789   5.117
 6536SOL    HW120507   0.705   3.817   5.183
 6536SOL    HW220508   0.865   3.790   5.160
 6537SOL     OW20509   6.013   5.191   4.192
 6537SOL    HW120510   6.086   5.236   4.244
 6537SOL    HW220511   6.028   5.204   4.094
 6538SOL     OW20512   2.493   3.567   5.326
 6538SOL    HW120513   2.557   3.643   5.316
 6538SOL    HW220514   2.541   3.481   5.309
 6539SOL     OW20515   6.502   0.438   6.016
 6539SOL    HW120516   6.572   0.368   6.031
 6539SOL    HW220517   6.419   0.413   6.065
 6540SOL     OW20518   4.795   2.622   6.051
 6540SOL    HW120519   4.824   2.554   5.984
 6540SOL    HW220520   4.708   2.662   6.022
 6541SOL     OW20521   5.800   1.123   4.612
 6541SOL    HW120522   5.828   1.042   4.560
 6541SOL    HW220523   5.873   1.149   4.676
 6542SOL     OW20524   1.448   3.828   4.567
 6542SOL    HW120525   1.518   3.864   4.506
 6542SOL    HW220526   1.443   3.728   4.557
 6543SOL     OW20527   3.852   2.179   5.336
 6543SOL    HW120528   3.795   2.098   5.328
 6543SOL    HW220529   3.806   2.246   5.395
 6544SOL     OW20530   1.099   6.364   2.351
 6544SOL    HW120531   1.005   6.399   2.345
 6544SOL    HW220532   1.132   6.342   2.259
 6545SOL     OW20533   4.935   0.104   1.175
 6545SOL    HW120534   4.874   0.108   1.095
 6545SOL    HW220535   4.883   0.074   1.254
 6546SOL     OW20536   5.169   3.634   6.006
 6546SOL    HW120537   5.133   3.584   5.928
 6546SOL    HW220538   5.127   3.725   6.010
 6547SOL     OW20539   5.774   5.820   0.175
 6547SOL    HW120540   5.749   5.893   0.239
 6547SOL    HW220541   5.862   5.780   0.203
 6548SOL     OW20542   0.624   2.358   5.561
 6548SOL    HW120543   0.657   2.267   5.537
 6548SOL    HW220544   0.626   2.369   5.660
 6549SOL     OW20545   5.417   6.684   1.887
 6549SOL    HW120546   5.392   6.594   1.854
 6549SOL    HW220547   5.393   6.753   1.819
 6550SOL     OW20548   6.628   6.706   3.180
 6550SOL    HW120549   6.703   6.766   3.205
 6550SOL    HW220550   6.636   6.619   3.230
 6551SOL     OW20551   3.151   3.415   1.691
 6551SOL    HW120552   3.092   3.442   1.767
 6551SOL    HW220553   3.136   3.477   1.614
 6552SOL     OW20554   1.945   0.084   0.140
 6552SOL    HW120555   1.915   0.120   0.228
 6552SOL    HW220556   2.035   0.040   0.151
 6553SOL     OW20557   0.222   0.473   2.953
 6553SOL    HW120558   0.193   0.538   2.883
 6553SOL    HW220559   0.141   0.427   2.990
 6554SOL     OW20560   3.128   1.263   5.087
 6554SOL    HW120561   3.206   1.324   5.100
 6554SOL    HW220562   3.138   1.183   5.146
 6555SOL     OW20563   6.693   2.194   4.330
 6555SOL    HW120564   6.675   2.182   4.232
 6555SOL    HW220565   6.608   2.181   4.381
 6556SOL     OW20566   4.940   2.590   3.686
 6556SOL    HW120567   4.916   2.676   3.732
 6556SOL    HW220568   4.997   2.610   3.606
 6557SOL     OW20569   1.789   6.933   2.338
 6557SOL    HW120570   1.726   6.980   2.277
 6557SOL    HW220571   1.740   6.905   2.421
 6558SOL     OW20572   5.479   4.986   0.334
 6558SOL    HW120573   5.456   4.977   0.238
 6558SOL    HW220574   5.453   5.078   0.366
 6559SOL     OW20575   6.367   2.859   6.152
 6559SOL    HW120576   6.311   2.938   6.131
 6559SOL    HW220577   6.450   2.888   6.201
 6560SOL     OW20578   5.200   4.822   0.490
 6560SOL    HW120579   5.123   4.759   0.493
 6560SOL    HW220580   5.268   4.796   0.558
 6561SOL     OW20581   3.717   4.932   0.550
 6561SOL    HW120582   3.622   4.927   0.519
 6561SOL    HW220583   3.742   4.847   0.596
 6562SOL     OW20584   5.989   2.779   1.067
 6562SOL    HW120585   6.044   2.759   1.148
 6562SOL    HW220586   6.044   2.831   1.002
 6563SOL     OW20587   5.396   6.537   4.814
 6563SOL    HW120588   5.429   6.451   4.774
 6563SOL    HW220589   5.350   6.591   4.744
 6564SOL     OW20590   0.134   3.953   2.446
 6564SOL    HW120591   0.122   4.047   2.479
 6564SOL    HW220592   0.048   3.921   2.406
 6565SOL     OW20593   5.757   0.222   2.784
 6565SOL    HW120594   5.805   0.138   2.761
 6565SOL    HW220595   5.823   0.295   2.802
 6566SOL     OW20596   3.708   6.175   2.549
 6566SOL    HW120597   3.757   6.230   2.616
 6566SOL    HW220598   3.613   6.163   2.579
 6567SOL     OW20599   4.395   0.494   1.264
 6567SOL    HW120600   4.312   0.477   1.210
 6567SOL    HW220601   4.441   0.407   1.282
 6568SOL     OW20602   3.641   1.044   1.963
 6568SOL    HW120603   3.556   1.038   2.016
 6568SOL    HW220604   3.637   0.980   1.886
 6569SOL     OW20605   0.720   3.642   5.827
 6569SOL    HW120606   0.719   3.732   5.870
 6569SOL    HW220607   0.629   3.601   5.832
 6570SOL     OW20608   3.835   6.246   1.799
 6570SOL    HW120609   3.759   6.204   1.849
 6570SOL    HW220610   3.827   6.345   1.804
 6571SOL     OW20611   2.727   5.029   3.281
 6571SOL    HW120612   2.789   5.095   3.240
 6571SOL    HW220613   2.637   5.072   3.295
 6572SOL     OW20614   0.382   5.916   3.906
 6572SOL    HW120615   0.480   5.903   3.918
 6572SOL    HW220616   0.334   5.894   3.991
 6573SOL     OW20617   2.219   1.493   2.846
 6573SOL    HW120618   2.219   1.428   2.770
 6573SOL    HW220619   2.161   1.459   2.920
 6574SOL     OW20620   2.105   5.962   1.777
 6574SOL    HW120621   2.132   6.058   1.767
 6574SOL    HW220622   2.018   5.947   1.730
 6575SOL     OW20623   6.615   0.045   2.699
 6575SOL    HW120624   6.584   0.039   2.794
 6575SOL    HW220625   6.590   0.134   2.661
 6576SOL     OW20626   3.672   6.012   0.587
 6576SOL    HW120627   3.647   5.955   0.666
 6576SOL    HW220628   3.675   6.108   0.615
 6577SOL     OW20629   2.266   2.080   3.908
 6577SOL    HW120630   2.172   2.057   3.885
 6577SOL    HW220631   2.310   2.002   3.953
 6578SOL     OW20632   1.801   5.287   2.005
 6578SOL    HW120633   1.852   5.287   1.919
 6578SOL    HW220634   1.733   5.360   2.004
 6579SOL     OW20635   0.190   1.177   3.779
 6579SOL    HW120636   0.163   1.238   3.704
 6579SOL    HW220637   0.171   1.222   3.866
 6580SOL     OW20638   0.967   0.330   0.004
 6580SOL    HW120639   1.000   0.354   0.095
 6580SOL    HW220640   0.888   0.268   0.012
 6581SOL     OW20641   1.486   2.059   6.825
 6581SOL    HW120642   1.407   2.117   6.844
 6581SOL    HW220643   1.476   2.016   6.736
 6582SOL     OW20644   6.400   0.763   2.776
 6582SOL    HW120645   6.360   0.712   2.699
 6582SOL    HW220646   6.400   0.705   2.857
 6583SOL     OW20647   4.002   6.093   7.004
 6583SOL    HW120648   3.960   6.045   6.927
 6583SOL    HW220649   3.994   6.037   0.063
 6584SOL     OW20650   3.272   2.335   1.249
 6584SOL    HW120651   3.310   2.365   1.337
 6584SOL    HW220652   3.335   2.270   1.207
 6585SOL     OW20653   5.980   0.447   1.203
 6585SOL    HW120654   5.898   0.493   1.171
 6585SOL    HW220655   6.013   0.492   1.286
 6586SOL     OW20656   6.445   2.121   6.271
 6586SOL    HW120657   6.422   2.215   6.247
 6586SOL    HW220658   6.388   2.058   6.218
 6587SOL     OW20659   1.359   4.080   5.314
 6587SOL    HW120660   1.385   3.988   5.282
 6587SOL    HW220661   1.415   4.104   5.394
 6588SOL     OW20662   0.532   3.138   0.451
 6588SOL    HW120663   0.546   3.162   0.355
 6588SOL    HW220664   0.565   3.212   0.510
 6589SOL     OW20665   6.843   0.990   1.665
 6589SOL    HW120666   6.872   0.990   1.569
 6589SOL    HW220667   6.824   1.084   1.694
 6590SOL     OW20668   1.373   0.636   4.436
 6590SOL    HW120669   1.283   0.608   4.403
 6590SOL    HW220670   1.441   0.567   4.410
 6591SOL     OW20671   5.324   4.718   3.899
 6591SOL    HW120672   5.340   4.649   3.828
 6591SOL    HW220673   5.256   4.683   3.964
 6592SOL     OW20674   4.614   6.259   3.129
 6592SOL    HW120675   4.524   6.232   3.094
 6592SOL    HW220676   4.614   6.357   3.149
 6593SOL     OW20677   2.659   2.371   2.576
 6593SOL    HW120678   2.653   2.318   2.492
 6593SOL    HW220679   2.631   2.466   2.558
 6594SOL     OW20680   3.906   2.008   6.252
 6594SOL    HW120681   3.963   2.042   6.327
 6594SOL    HW220682   3.959   1.944   6.197
 6595SOL     OW20683   1.682   2.153   4.902
 6595SOL    HW120684   1.670   2.059   4.934
 6595SOL    HW220685   1.730   2.153   4.814
 6596SOL     OW20686   5.694   6.074   2.382
 6596SOL    HW120687   5.623   6.026   2.433
 6596SOL    HW220688   5.784   6.044   2.413
 6597SOL     OW20689   1.418   4.938   2.592
 6597SOL    HW120690   1.455   5.003   2.525
 6597SOL    HW220691   1.485   4.922   2.664
 6598SOL     OW20692   1.920   4.930   4.318
 6598SOL    HW120693   1.862   4.855   4.286
 6598SOL    HW220694   1.930   4.998   4.246
 6599SOL     OW20695   5.935   5.854   5.921
 6599SOL    HW120696   6.016   5.831   5.974
 6599SOL    HW220697   5.899   5.772   5.878
 6600SOL     OW20698   4.749   6.657   5.350
 6600SOL    HW120699   4.658   6.681   5.315
 6600SOL    HW220700   4.815   6.660   5.275
 6601SOL     OW20701   1.484   3.080   2.322
 6601SOL    HW120702   1.469   3.099   2.419
 6601SOL    HW220703   1.569   3.124   2.292
 6602SOL     OW20704   2.075   0.134   1.371
 6602SOL    HW120705   2.169   0.105   1.391
 6602SOL    HW220706   2.069   0.234   1.381
 6603SOL     OW20707   0.515   2.906   3.174
 6603SOL    HW120708   0.589   2.964   3.206
 6603SOL    HW220709   0.476   2.856   3.252
 6604SOL     OW20710   2.041   6.691   1.993
 6604SOL    HW120711   2.048   6.737   1.905
 6604SOL    HW220712   1.947   6.659   2.006
 6605SOL     OW20713   6.453   5.532   1.407
 6605SOL    HW120714   6.552   5.524   1.412
 6605SOL    HW220715   6.411   5.477   1.479
 6606SOL     OW20716   1.790   3.246   3.798
 6606SOL    HW120717   1.827   3.161   3.760
 6606SOL    HW220718   1.865   3.304   3.829
 6607SOL     OW20719   5.632   3.846   3.348
 6607SOL    HW120720   5.655   3.761   3.395
 6607SOL    HW220721   5.678   3.848   3.259
 6608SOL     OW20722   6.975   6.824   6.172
 6608SOL    HW120723   6.900   6.833   6.237
 6608SOL    HW220724   6.999   6.914   6.135
 6609SOL     OW20725   4.638   2.015   5.831
 6609SOL    HW120726   4.683   1.952   5.768
 6609SOL    HW220727   4.603   2.094   5.780
 6610SOL     OW20728   3.045   5.135   1.276
 6610SOL    HW120729   3.116   5.150   1.344
 6610SOL    HW220730   3.059   5.047   1.231
 6611SOL     OW20731   4.693   2.270   4.130
 6611SOL    HW120732   4.763   2.276   4.202
 6611SOL    HW220733   4.672   2.174   4.112
 6612SOL     OW20734   5.801   1.836   6.190
 6612SOL    HW120735   5.878   1.774   6.173
 6612SOL    HW220736   5.830   1.906   6.256
 6613SOL     OW20737   4.984   0.539   6.829
 6613SOL    HW120738   4.926   0.563   6.907
 6613SOL    HW220739   5.057   0.477   6.860
 6614SOL     OW20740   4.382   5.827   2.176
 6614SOL    HW120741   4.358   5.920   2.205
 6614SOL    HW220742   4.324   5.761   2.224
 6615SOL     OW20743   2.780   6.091   0.857
 6615SOL    HW120744   2.752   6.071   0.951
 6615SOL    HW220745   2.826   6.179   0.855
 6616SOL     OW20746   4.493   0.798   6.343
 6616SOL    HW120747   4.449   0.756   6.423
 6616SOL    HW220748   4.504   0.896   6.360
 6617SOL     OW20749   3.900   0.619   3.572
 6617SOL    HW120750   3.943   0.529   3.567
 6617SOL    HW220751   3.966   0.689   3.549
 6618SOL     OW20752   0.584   2.210   3.094
 6618SOL    HW120753   0.617   2.300   3.068
 6618SOL    HW220754   0.486   2.202   3.073
 6619SOL     OW20755   4.899   6.200   3.911
 6619SOL    HW120756   4.903   6.299   3.899
 6619SOL    HW220757   4.922   6.155   3.825
 6620SOL     OW20758   0.339   3.570   3.645
 6620SOL    HW120759   0.291   3.498   3.594
 6620SOL    HW220760   0.273   3.638   3.677
 6621SOL     OW20761   3.888   3.217   4.893
 6621SOL    HW120762   3.863   3.138   4.836
 6621SOL    HW220763   3.953   3.274   4.843
 6622SOL     OW20764   0.149   6.309   0.933
 6622SOL    HW120765   0.158   6.256   1.018
 6622SOL    HW220766   0.068   6.278   0.883
 6623SOL     OW20767   3.042   4.730   5.740
 6623SOL    HW120768   2.958   4.783   5.737
 6623SOL    HW220769   3.090   4.747   5.826
 6624SOL     OW20770   0.726   2.147   4.526
 6624SOL    HW120771   0.739   2.244   4.509
 6624SOL    HW220772   0.767   2.094   4.451
 6625SOL     OW20773   5.763   2.505   5.347
 6625SOL    HW120774   5.707   2.493   5.429
 6625SOL    HW220775   5.827   2.581   5.361
 6626SOL     OW20776   2.755   6.582   4.948
 6626SOL    HW120777   2.837   6.635   4.971
 6626SOL    HW220778   2.686   6.597   5.019
 6627SOL     OW20779   1.030   6.037   4.678
 6627SOL    HW120780   1.048   6.112   4.614
 6627SOL    HW220781   0.947   5.989   4.651
 6628SOL     OW20782   4.795   5.771   4.106
 6628SOL    HW120783   4.816   5.746   4.201
 6628SOL    HW220784   4.774   5.869   4.102
 6629SOL     OW20785   5.515   6.309   6.900
 6629SOL    HW120786   5.438   6.325   6.961
 6629SOL    HW220787   5.590   6.267   6.950
 6630SOL     OW20788   2.060   1.681   1.647
 6630SOL    HW120789   1.976   1.651   1.602
 6630SOL    HW220790   2.040   1.756   1.711
 6631SOL     OW20791   1.682   4.914   5.891
 6631SOL    HW120792   1.592   4.954   5.910
 6631SOL    HW220793   1.736   4.911   5.975
 6632SOL     OW20794   0.886   0.343   0.473
 6632SOL    HW120795   0.937   0.305   0.551
 6632SOL    HW220796   0.823   0.274   0.438
 6633SOL     OW20797   2.894   5.451   6.537
 6633SOL    HW120798   2.834   5.436   6.458
 6633SOL    HW220799   2.916   5.363   6.579
 6634SOL     OW20800   4.867   1.633   5.003
 6634SOL    HW120801   4.953   1.635   5.054
 6634SOL    HW220802   4.793   1.605   5.064
 6635SOL     OW20803   5.457   4.939   1.821
 6635SOL    HW120804   5.551   4.936   1.788
 6635SOL    HW220805   5.415   4.849   1.812
 6636SOL     OW20806   3.529   0.259   1.745
 6636SOL    HW120807   3.471   0.340   1.749
 6636SOL    HW220808   3.488   0.191   1.685
 6637SOL     OW20809   1.725   0.971   0.553
 6637SOL    HW120810   1.721   0.951   0.650
 6637SOL    HW220811   1.668   1.051   0.533
 6638SOL     OW20812   3.162   4.053   3.763
 6638SOL    HW120813   3.183   3.959   3.735
 6638SOL    HW220814   3.240   4.093   3.810
 6639SOL     OW20815   4.720   2.981   1.469
 6639SOL    HW120816   4.739   3.071   1.429
 6639SOL    HW220817   4.628   2.982   1.508
 6640SOL     OW20818   1.148   2.780   5.190
 6640SOL    HW120819   1.081   2.749   5.123
 6640SOL    HW220820   1.174   2.875   5.170
 6641SOL     OW20821   4.059   2.029   1.319
 6641SOL    HW120822   4.065   2.126   1.299
 6641SOL    HW220823   4.134   2.002   1.379
 6642SOL     OW20824   1.115   5.579   0.358
 6642SOL    HW120825   1.053   5.564   0.435
 6642SOL    HW220826   1.200   5.620   0.391
 6643SOL     OW20827   4.883   6.707   0.362
 6643SOL    HW120828   4.923   6.790   0.399
 6643SOL    HW220829   4.785   6.720   0.348
 6644SOL     OW20830   1.902   6.428   2.741
 6644SOL    HW120831   1.834   6.360   2.770
 6644SOL    HW220832   1.854   6.507   2.702
 6645SOL     OW20833   6.514   2.922   0.269
 6645SOL    HW120834   6.535   2.832   0.232
 6645SOL    HW220835   6.596   2.960   0.312
 6646SOL     OW20836   3.858   6.991   6.917
 6646SOL    HW120837   3.780   6.971   6.857
 6646SOL    HW220838   3.866   0.066   6.929
 6647SOL     OW20839   4.513   4.863   1.055
 6647SOL    HW120840   4.597   4.873   1.001
 6647SOL    HW220841   4.492   4.950   1.100
 6648SOL     OW20842   2.993   6.379   4.970
 6648SOL    HW120843   3.015   6.356   5.065
 6648SOL    HW220844   2.906   6.428   4.966
 6649SOL     OW20845   5.993   2.359   6.725
 6649SOL    HW120846   5.985   2.385   6.629
 6649SOL    HW220847   5.902   2.356   6.767
 6650SOL     OW20848   2.826   1.386   5.232
 6650SOL    HW120849   2.819   1.482   5.207
 6650SOL    HW220850   2.901   1.343   5.180
 6651SOL     OW20851   0.619   1.749   6.860
 6651SOL    HW120852   0.584   1.656   6.873
 6651SOL    HW220853   0.707   1.745   6.814
 6652SOL     OW20854   1.036   4.852   0.316
 6652SOL    HW120855   1.135   4.857   0.303
 6652SOL    HW220856   1.003   4.763   0.282
 6653SOL     OW20857   5.455   2.798   0.496
 6653SOL    HW120858   5.441   2.831   0.589
 6653SOL    HW220859   5.552   2.780   0.481
 6654SOL     OW20860   0.764   4.379   2.862
 6654SOL    HW120861   0.740   4.458   2.807
 6654SOL    HW220862   0.681   4.331   2.890
 6655SOL     OW20863   6.876   5.338   1.796
 6655SOL    HW120864   6.973   5.328   1.777
 6655SOL    HW220865   6.863   5.391   1.880
 6656SOL     OW20866   4.346   1.496   2.534
 6656SOL    HW120867   4.373   1.415   2.481
 6656SOL    HW220868   4.284   1.552   2.480
 6657SOL     OW20869   5.401   2.320   4.391
 6657SOL    HW120870   5.381   2.381   4.468
 6657SOL    HW220871   5.315   2.296   4.345
 6658SOL     OW20872   6.089   6.499   4.630
 6658SOL    HW120873   6.055   6.415   4.671
 6658SOL    HW220874   6.022   6.572   4.643
 6659SOL     OW20875   1.227   4.878   2.081
 6659SOL    HW120876   1.186   4.801   2.130
 6659SOL    HW220877   1.158   4.920   2.022
 6660SOL     OW20878   0.585   5.721   2.962
 6660SOL    HW120879   0.626   5.806   2.930
 6660SOL    HW220880   0.635   5.687   3.042
 6661SOL     OW20881   3.027   6.423   4.034
 6661SOL    HW120882   2.931   6.451   4.023
 6661SOL    HW220883   3.042   6.337   3.986
 6662SOL     OW20884   2.619   0.167   1.893
 6662SOL    HW120885   2.649   0.136   1.803
 6662SOL    HW220886   2.588   0.089   1.947
 6663SOL     OW20887   1.583   4.654   5.901
 6663SOL    HW120888   1.616   4.745   5.876
 6663SOL    HW220889   1.488   4.660   5.932
 6664SOL     OW20890   2.695   0.734   1.636
 6664SOL    HW120891   2.782   0.741   1.685
 6664SOL    HW220892   2.689   0.806   1.567
 6665SOL     OW20893   2.568   0.566   5.742
 6665SOL    HW120894   2.610   0.489   5.791
 6665SOL    HW220895   2.490   0.600   5.794
 6666SOL     OW20896   5.765   5.830   4.816
 6666SOL    HW120897   5.859   5.817   4.786
 6666SOL    HW220898   5.706   5.761   4.775
 6667SOL     OW20899   6.293   6.346   5.873
 6667SOL    HW120900   6.314   6.438   5.839
 6667SOL    HW220901   6.201   6.319   5.843
 6668SOL     OW20902   6.952   6.577   1.445
 6668SOL    HW120903   6.903   6.540   1.523
 6668SOL    HW220904   6.889   6.588   1.368
 6669SOL     OW20905   1.964   1.467   1.923
 6669SOL    HW120906   1.953   1.558   1.964
 6669SOL    HW220907   2.062   1.445   1.920
 6670SOL     OW20908   3.535   2.168   6.975
 6670SOL    HW120909   3.607   2.124   0.005
 6670SOL    HW220910   3.492   2.100   6.915
 6671SOL     OW20911   5.080   6.634   0.203
 6671SOL    HW120912   5.009   6.665   0.266
 6671SOL    HW220913   5.043   6.561   0.145
 6672SOL     OW20914   1.247   2.365   0.459
 6672SOL    HW120915   1.252   2.454   0.505
 6672SOL    HW220916   1.302   2.367   0.375
 6673SOL     OW20917   5.474   3.685   4.122
 6673SOL    HW120918   5.517   3.598   4.149
 6673SOL    HW220919   5.522   3.723   4.043
 6674SOL     OW20920   0.051   2.761   6.884
 6674SOL    HW120921   7.006   2.833   6.881
 6674SOL    HW220922   0.111   2.768   6.804
 6675SOL     OW20923   4.433   2.911   0.065
 6675SOL    HW120924   4.367   2.981   0.092
 6675SOL    HW220925   4.417   2.884   6.994
 6676SOL     OW20926   1.265   3.750   3.702
 6676SOL    HW120927   1.349   3.734   3.650
 6676SOL    HW220928   1.275   3.711   3.793
 6677SOL     OW20929   0.567   1.403   0.262
 6677SOL    HW120930   0.492   1.345   0.231
 6677SOL    HW220931   0.613   1.360   0.339
 6678SOL     OW20932   1.664   4.639   0.523
 6678SOL    HW120933   1.753   4.680   0.543
 6678SOL    HW220934   1.592   4.708   0.534
 6679SOL     OW20935   2.616   1.044   3.764
 6679SOL    HW120936   2.562   1.100   3.701
 6679SOL    HW220937   2.633   1.095   3.848
 6680SOL     OW20938   5.539   6.841   0.239
 6680SOL    HW120939   5.578   6.754   0.270
 6680SOL    HW220940   5.451   6.823   0.193
 6681SOL     OW20941   4.615   5.455   1.630
 6681SOL    HW120942   4.686   5.432   1.563
 6681SOL    HW220943   4.526   5.424   1.597
 6682SOL     OW20944   3.162   5.635   0.170
 6682SOL    HW120945   3.117   5.575   0.104
 6682SOL    HW220946   3.144   5.731   0.145
 6683SOL     OW20947   5.638   3.452   6.680
 6683SOL    HW120948   5.715   3.480   6.738
 6683SOL    HW220949   5.670   3.386   6.612
 6684SOL     OW20950   3.375   0.062   1.601
 6684SOL    HW120951   3.331   0.144   1.565
 6684SOL    HW220952   3.317   7.006   1.583
 6685SOL     OW20953   3.846   3.626   6.848
 6685SOL    HW120954   3.780   3.670   6.910
 6685SOL    HW220955   3.856   3.530   6.875
 6686SOL     OW20956   5.834   5.211   3.762
 6686SOL    HW120957   5.768   5.270   3.810
 6686SOL    HW220958   5.832   5.120   3.803
 6687SOL     OW20959   6.694   2.179   1.766
 6687SOL    HW120960   6.674   2.253   1.702
 6687SOL    HW220961   6.655   2.094   1.732
 6688SOL     OW20962   3.859   4.967   1.288
 6688SOL    HW120963   3.798   5.046   1.279
 6688SOL    HW220964   3.954   4.997   1.282
 6689SOL     OW20965   2.974   4.998   6.293
 6689SOL    HW120966   3.070   5.003   6.267
 6689SOL    HW220967   2.918   4.985   6.211
 6690SOL     OW20968   0.662   0.237   6.069
 6690SOL    HW120969   0.612   0.239   6.155
 6690SOL    HW220970   0.692   0.330   6.046
 6691SOL     OW20971   2.034   1.753   2.676
 6691SOL    HW120972   2.072   1.691   2.745
 6691SOL    HW220973   1.934   1.750   2.681
 6692SOL     OW20974   4.489   4.741   1.468
 6692SOL    HW120975   4.414   4.755   1.532
 6692SOL    HW220976   4.525   4.648   1.478
 6693SOL     OW20977   4.381   1.385   4.972
 6693SOL    HW120978   4.475   1.374   4.938
 6693SOL    HW220979   4.351   1.479   4.956
 6694SOL     OW20980   3.815   5.764   1.163
 6694SOL    HW120981   3.789   5.858   1.188
 6694SOL    HW220982   3.844   5.763   1.067
 6695SOL     OW20983   2.787   2.134   0.120
 6695SOL    HW120984   2.842   2.171   0.195
 6695SOL    HW220985   2.818   2.172   0.033
 6696SOL     OW20986   3.794   3.882   4.210
 6696SOL    HW120987   3.876   3.881   4.267
 6696SOL    HW220988   3.751   3.972   4.216
 6697SOL     OW20989   4.805   2.101   2.406
 6697SOL    HW120990   4.739   2.088   2.332
 6697SOL    HW220991   4.801   2.024   2.469
 6698SOL     OW20992   3.551   4.106   1.788
 6698SOL    HW120993   3.480   4.125   1.720
 6698SOL    HW220994   3.627   4.170   1.775
 6699SOL     OW20995   1.242   5.028   5.492
 6699SOL    HW120996   1.278   5.118   5.467
 6699SOL    HW220997   1.313   4.976   5.540
 6700SOL     OW20998   6.057   0.679   0.682
 6700SOL    HW120999   6.063   0.736   0.764
 6700SOL    HW221000   5.972   0.700   0.634
 6701SOL     OW21001   5.656   6.646   1.466
 6701SOL    HW121002   5.727   6.692   1.520
 6701SOL    HW221003   5.683   6.551   1.450
 6702SOL     OW21004   2.496   1.869   1.122
 6702SOL    HW121005   2.468   1.779   1.087
 6702SOL    HW221006   2.484   1.938   1.051
 6703SOL     OW21007   1.765   2.064   5.864
 6703SOL    HW121008   1.770   2.150   5.812
 6703SOL    HW221009   1.672   2.028   5.859
 6704SOL     OW21010   3.755   1.713   5.215
 6704SOL    HW121011   3.826   1.715   5.286
 6704SOL    HW221012   3.778   1.643   5.148
 6705SOL     OW21013   6.444   3.661   1.254
 6705SOL    HW121014   6.402   3.697   1.171
 6705SOL    HW221015   6.407   3.709   1.333
 6706SOL     OW21016   0.825   6.221   1.508
 6706SOL    HW121017   0.814   6.221   1.409
 6706SOL    HW221018   0.903   6.278   1.534
 6707SOL     OW21019   6.247   0.307   2.548
 6707SOL    HW121020   6.240   0.224   2.604
 6707SOL    HW221021   6.165   0.315   2.490
 6708SOL     OW21022   6.822   4.232   1.271
 6708SOL    HW121023   6.885   4.199   1.340
 6708SOL    HW221024   6.822   4.170   1.192
 6709SOL     OW21025   1.377   4.593   2.292
 6709SOL    HW121026   1.282   4.577   2.265
 6709SOL    HW221027   1.438   4.570   2.216
 6710SOL     OW21028   4.186   1.033   2.232
 6710SOL    HW121029   4.122   1.101   2.266
 6710SOL    HW221030   4.233   1.070   2.151
 6711SOL     OW21031   4.569   5.922   6.702
 6711SOL    HW121032   4.532   5.878   6.620
 6711SOL    HW221033   4.629   5.998   6.675
 6712SOL     OW21034   6.060   3.794   0.400
 6712SOL    HW121035   6.033   3.719   0.339
 6712SOL    HW221036   6.107   3.757   0.480
 6713SOL     OW21037   1.799   0.286   3.979
 6713SOL    HW121038   1.819   0.192   4.008
 6713SOL    HW221039   1.811   0.348   4.056
 6714SOL     OW21040   5.878   1.260   0.490
 6714SOL    HW121041   5.876   1.358   0.474
 6714SOL    HW221042   5.894   1.241   0.587
 6715SOL     OW21043   1.259   1.198   1.102
 6715SOL    HW121044   1.301   1.128   1.159
 6715SOL    HW221045   1.227   1.157   1.016
 6716SOL     OW21046   6.734   5.345   2.748
 6716SOL    HW121047   6.680   5.343   2.664
 6716SOL    HW221048   6.680   5.389   2.821
 6717SOL     OW21049   3.292   2.664   6.889
 6717SOL    HW121050   3.357   2.636   6.818
 6717SOL    HW221051   3.218   2.597   6.895
 6718SOL     OW21052   3.428   1.042   2.123
 6718SOL    HW121053   3.466   0.987   2.197
 6718SOL    HW221054   3.329   1.049   2.133
 6719SOL     OW21055   1.785   0.034   6.944
 6719SOL    HW121056   1.721   0.109   6.924
 6719SOL    HW221057   1.852   0.065   7.011
 6720SOL     OW21058   2.366   0.688   5.887
 6720SOL    HW121059   2.377   0.785   5.912
 6720SOL    HW221060   2.315   0.682   5.801
 6721SOL     OW21061   0.441   1.707   0.561
 6721SOL    HW121062   0.504   1.655   0.620
 6721SOL    HW221063   0.392   1.774   0.617
 6722SOL     OW21064   6.203   2.916   0.040
 6722SOL    HW121065   6.166   2.864   0.117
 6722SOL    HW221066   6.158   3.005   0.036
 6723SOL     OW21067   1.359   1.900   6.148
 6723SOL    HW121068   1.306   1.852   6.078
 6723SOL    HW221069   1.419   1.836   6.195
 6724SOL     OW21070   2.228   3.218   5.881
 6724SOL    HW121071   2.235   3.134   5.829
 6724SOL    HW221072   2.141   3.264   5.861
 6725SOL     OW21073   5.909   2.945   3.229
 6725SOL    HW121074   5.848   2.975   3.302
 6725SOL    HW221075   5.891   2.849   3.208
 6726SOL     OW21076   0.232   1.201   5.535
 6726SOL    HW121077   0.261   1.141   5.461
 6726SOL    HW221078   0.189   1.147   5.608
 6727SOL     OW21079   1.033   4.570   5.513
 6727SOL    HW121080   1.098   4.602   5.443
 6727SOL    HW221081   1.065   4.484   5.551
 6728SOL     OW21082   4.016   1.886   3.374
 6728SOL    HW121083   4.041   1.853   3.283
 6728SOL    HW221084   4.093   1.875   3.436
 6729SOL     OW21085   5.411   1.869   1.027
 6729SOL    HW121086   5.319   1.853   1.063
 6729SOL    HW221087   5.438   1.964   1.045
 6730SOL     OW21088   1.493   1.316   0.803
 6730SOL    HW121089   1.542   1.270   0.877
 6730SOL    HW221090   1.418   1.259   0.771
 6731SOL     OW21091   2.568   6.378   1.132
 6731SOL    HW121092   2.569   6.280   1.112
 6731SOL    HW221093   2.483   6.418   1.099
 6732SOL     OW21094   5.762   4.233   4.396
 6732SOL    HW121095   5.823   4.294   4.447
 6732SOL    HW221096   5.757   4.263   4.300
 6733SOL     OW21097   3.159   6.112   0.060
 6733SOL    HW121098   3.102   6.169   7.023
 6733SOL    HW221099   3.255   6.128   0.039
 6734SOL     OW21100   5.211   1.525   4.823
 6734SOL    HW121101   5.164   1.550   4.738
 6734SOL    HW221102   5.143   1.517   4.897
 6735SOL     OW21103   5.862   3.186   4.001
 6735SOL    HW121104   5.935   3.171   3.934
 6735SOL    HW221105   5.845   3.101   4.051
 6736SOL     OW21106   3.357   3.945   1.109
 6736SOL    HW121107   3.425   3.915   1.041
 6736SOL    HW221108   3.275   3.976   1.061
 6737SOL     OW21109   1.169   2.767   1.505
 6737SOL    HW121110   1.104   2.841   1.526
 6737SOL    HW221111   1.262   2.799   1.522
 6738SOL     OW21112   1.508   5.656   3.340
 6738SOL    HW121113   1.488   5.581   3.277
 6738SOL    HW221114   1.512   5.620   3.433
 6739SOL     OW21115   6.755   7.007   3.910
 6739SOL    HW121116   6.695   6.928   3.896
 6739SOL    HW221117   6.850   6.978   3.900
 6740SOL     OW21118   6.460   6.618   4.393
 6740SOL    HW121119   6.392   6.687   4.368
 6740SOL    HW221120   6.490   6.570   4.311
 6741SOL     OW21121   4.786   1.640   5.932
 6741SOL    HW121122   4.870   1.587   5.942
 6741SOL    HW221123   4.808   1.731   5.898
 6742SOL     OW21124   5.475   4.417   3.216
 6742SOL    HW121125   5.550   4.441   3.277
 6742SOL    HW221126   5.473   4.481   3.139
 6743SOL     OW21127   4.060   4.196   6.848
 6743SOL    HW121128   3.963   4.173   6.841
 6743SOL    HW221129   4.108   4.161   6.767
 6744SOL     OW21130   6.513   5.518   6.329
 6744SOL    HW121131   6.586   5.586   6.324
 6744SOL    HW221132   6.453   5.526   6.249
 6745SOL     OW21133   6.971   6.191   4.277
 6745SOL    HW121134   7.022   6.132   4.339
 6745SOL    HW221135   6.873   6.175   4.289
 6746SOL     OW21136   1.639   1.397   3.025
 6746SOL    HW121137   1.675   1.489   3.011
 6746SOL    HW221138   1.543   1.393   2.996
 6747SOL     OW21139   0.323   6.685   6.377
 6747SOL    HW121140   0.352   6.592   6.358
 6747SOL    HW221141   0.304   6.696   6.475
 6748SOL     OW21142   2.952   1.650   4.191
 6748SOL    HW121143   2.941   1.689   4.282
 6748SOL    HW221144   2.913   1.557   4.189
 6749SOL     OW21145   3.316   3.884   0.735
 6749SOL    HW121146   3.416   3.890   0.729
 6749SOL    HW221147   3.290   3.856   0.827
 6750SOL     OW21148   2.709   1.465   4.488
 6750SOL    HW121149   2.765   1.522   4.548
 6750SOL    HW221150   2.746   1.372   4.485
 6751SOL     OW21151   4.596   7.005   3.575
 6751SOL    HW121152   4.552   6.937   3.633
 6751SOL    HW221153   4.528   0.023   3.515
 6752SOL     OW21154   1.809   6.696   2.716
 6752SOL    HW121155   1.899   6.718   2.755
 6752SOL    HW221156   1.773   6.776   2.668
 6753SOL     OW21157   3.630   2.336   5.528
 6753SOL    HW121158   3.605   2.365   5.436
 6753SOL    HW221159   3.662   2.415   5.580
 6754SOL     OW21160   6.171   0.752   1.049
 6754SOL    HW121161   6.164   0.657   1.019
 6754SOL    HW221162   6.093   0.804   1.014
 6755SOL     OW21163   3.038   4.901   1.128
 6755SOL    HW121164   2.951   4.880   1.172
 6755SOL    HW221165   3.042   4.856   1.039
 6756SOL     OW21166   2.390   1.604   5.672
 6756SOL    HW121167   2.302   1.562   5.692
 6756SOL    HW221168   2.376   1.692   5.627
 6757SOL     OW21169   3.426   1.061   0.911
 6757SOL    HW121170   3.477   1.142   0.884
 6757SOL    HW221171   3.475   1.014   0.984
 6758SOL     OW21172   5.069   2.640   1.008
 6758SOL    HW121173   5.003   2.714   1.020
 6758SOL    HW221174   5.035   2.557   1.053
 6759SOL     OW21175   0.124   3.524   2.826
 6759SOL    HW121176   0.135   3.501   2.730
 6759SOL    HW221177   0.059   3.599   2.836
 6760SOL     OW21178   5.894   2.909   2.765
 6760SOL    HW121179   5.870   2.971   2.839
 6760SOL    HW221180   5.834   2.926   2.686
 6761SOL     OW21181   4.739   2.385   4.589
 6761SOL    HW121182   4.700   2.464   4.542
 6761SOL    HW221183   4.668   2.316   4.603
 6762SOL     OW21184   0.352   5.174   4.061
 6762SOL    HW121185   0.297   5.113   4.004
 6762SOL    HW221186   0.292   5.224   4.124
 6763SOL     OW21187   4.945   6.089   5.050
 6763SOL    HW121188   5.024   6.147   5.031
 6763SOL    HW221189   4.863   6.146   5.053
 6764SOL     OW21190   1.277   5.637   2.020
 6764SOL    HW121191   1.203   5.590   1.971
 6764SOL    HW221192   1.364   5.615   1.977
 6765SOL     OW21193   6.451   4.843   4.010
 6765SOL    HW121194   6.525   4.910   4.015
 6765SOL    HW221195   6.454   4.795   3.922
 6766SOL     OW21196   4.441   6.244   0.363
 6766SOL    HW121197   4.495   6.171   0.320
 6766SOL    HW221198   4.423   6.220   0.458
 6767SOL     OW21199   3.006   0.701   0.748
 6767SOL    HW121200   3.096   0.717   0.789
 6767SOL    HW221201   3.004   0.740   0.656
 6768SOL     OW21202   1.853   0.871   6.089
 6768SOL    HW121203   1.856   0.934   6.011
 6768SOL    HW221204   1.923   0.801   6.078
 6769SOL     OW21205   3.296   2.459   0.167
 6769SOL    HW121206   3.381   2.416   0.139
 6769SOL    HW221207   3.251   2.501   0.087
 6770SOL     OW21208   6.822   0.688   1.840
 6770SOL    HW121209   6.870   0.762   1.887
 6770SOL    HW221210   6.811   0.712   1.743
 6771SOL     OW21211   4.809   2.393   3.115
 6771SOL    HW121212   4.888   2.383   3.054
 6771SOL    HW221213   4.833   2.363   3.207
 6772SOL     OW21214   3.167   1.402   2.765
 6772SOL    HW121215   3.074   1.437   2.778
 6772SOL    HW221216   3.163   1.314   2.718
 6773SOL     OW21217   6.518   4.537   1.672
 6773SOL    HW121218   6.458   4.476   1.725
 6773SOL    HW221219   6.605   4.492   1.655
 6774SOL     OW21220   6.966   2.545   6.037
 6774SOL    HW121221   6.957   2.454   6.079
 6774SOL    HW221222   7.000   2.610   6.105
 6775SOL     OW21223   2.550   3.446   0.661
 6775SOL    HW121224   2.469   3.477   0.611
 6775SOL    HW221225   2.546   3.347   0.673
 6776SOL     OW21226   4.221   4.674   0.039
 6776SOL    HW121227   4.249   4.760   7.022
 6776SOL    HW221228   4.265   4.598   7.015
 6777SOL     OW21229   3.800   4.589   6.301
 6777SOL    HW121230   3.827   4.543   6.216
 6777SOL    HW221231   3.876   4.586   6.366
 6778SOL     OW21232   0.364   4.427   1.797
 6778SOL    HW121233   0.453   4.384   1.786
 6778SOL    HW221234   0.372   4.505   1.858
 6779SOL     OW21235   6.601   4.313   6.376
 6779SOL    HW121236   6.659   4.321   6.457
 6779SOL    HW221237   6.547   4.397   6.365
 6780SOL     OW21238   1.043   2.362   2.326
 6780SOL    HW121239   1.112   2.399   2.388
 6780SOL    HW221240   1.030   2.265   2.344
 6781SOL     OW21241   5.652   6.509   5.028
 6781SOL    HW121242   5.641   6.521   5.126
 6781SOL    HW221243   5.577   6.554   4.980
 6782SOL     OW21244   0.219   0.298   2.626
 6782SOL    HW121245   0.225   0.199   2.643
 6782SOL    HW221246   0.140   0.335   2.675
 6783SOL     OW21247   0.170   0.093   6.217
 6783SOL    HW121248   0.218   0.006   6.229
 6783SOL    HW221249   0.212   0.144   6.143
 6784SOL     OW21250   3.569   3.971   0.383
 6784SOL    HW121251   3.635   3.941   0.315
 6784SOL    HW221252   3.556   4.070   0.375
 6785SOL     OW21253   5.758   4.647   2.535
 6785SOL    HW121254   5.753   4.547   2.532
 6785SOL    HW221255   5.844   4.678   2.495
 6786SOL     OW21256   1.230   1.874   6.874
 6786SOL    HW121257   1.217   1.784   6.832
 6786SOL    HW221258   1.212   1.945   6.806
 6787SOL     OW21259   1.809   3.513   0.985
 6787SOL    HW121260   1.861   3.554   1.060
 6787SOL    HW221261   1.749   3.581   0.943
 6788SOL     OW21262   2.753   3.903   1.681
 6788SOL    HW121263   2.824   3.846   1.723
 6788SOL    HW221264   2.675   3.845   1.655
 6789SOL     OW21265   0.513   6.828   2.431
 6789SOL    HW121266   0.432   6.775   2.408
 6789SOL    HW221267   0.523   6.833   2.530
 6790SOL     OW21268   1.254   4.139   0.583
 6790SOL    HW121269   1.299   4.151   0.672
 6790SOL    HW221270   1.247   4.042   0.562
 6791SOL     OW21271   3.867   2.488   0.786
 6791SOL    HW121272   3.780   2.465   0.830
 6791SOL    HW221273   3.906   2.569   0.829
 6792SOL     OW21274   6.637   6.387   5.825
 6792SOL    HW121275   6.591   6.323   5.886
 6792SOL    HW221276   6.724   6.348   5.794
 6793SOL     OW21277   0.645   2.664   1.002
 6793SOL    HW121278   0.637   2.683   0.904
 6793SOL    HW221279   0.640   2.565   1.018
 6794SOL     OW21280   5.152   1.170   4.972
 6794SOL    HW121281   5.224   1.236   4.990
 6794SOL    HW221282   5.191   1.078   4.966
 6795SOL     OW21283   2.502   6.256   0.594
 6795SOL    HW121284   2.491   6.201   0.677
 6795SOL    HW221285   2.424   6.240   0.533
 6796SOL     OW21286   6.075   0.788   2.555
 6796SOL    HW121287   6.036   0.862   2.500
 6796SOL    HW221288   6.159   0.821   2.599
 6797SOL     OW21289   4.950   3.285   1.777
 6797SOL    HW121290   5.003   3.253   1.856
 6797SOL    HW221291   4.864   3.235   1.772
 6798SOL     OW21292   5.523   5.850   3.083
 6798SOL    HW121293   5.462   5.773   3.064
 6798SOL    HW221294   5.524   5.912   3.004
 6799SOL     OW21295   5.704   5.554   0.030
 6799SOL    HW121296   5.682   5.643   0.070
 6799SOL    HW221297   5.749   5.496   0.097
 6800SOL     OW21298   2.019   4.484   1.168
 6800SOL    HW121299   2.026   4.576   1.130
 6800SOL    HW221300   1.999   4.420   1.094
 6801SOL     OW21301   1.741   1.389   2.301
 6801SOL    HW121302   1.750   1.378   2.202
 6801SOL    HW221303   1.832   1.406   2.341
 6802SOL     OW21304   2.524   5.986   0.809
 6802SOL    HW121305   2.496   5.896   0.840
 6802SOL    HW221306   2.624   5.990   0.804
 6803SOL     OW21307   4.532   2.389   6.363
 6803SOL    HW121308   4.464   2.431   6.423
 6803SOL    HW221309   4.554   2.297   6.397
 6804SOL     OW21310   2.464   5.250   3.662
 6804SOL    HW121311   2.410   5.297   3.732
 6804SOL    HW221312   2.406   5.229   3.583
 6805SOL     OW21313   5.729   6.369   4.497
 6805SOL    HW121314   5.681   6.443   4.543
 6805SOL    HW221315   5.719   6.285   4.550
 6806SOL     OW21316   5.734   1.137   3.442
 6806SOL    HW121317   5.735   1.084   3.357
 6806SOL    HW221318   5.680   1.220   3.429
 6807SOL     OW21319   2.471   3.561   0.294
 6807SOL    HW121320   2.524   3.594   0.216
 6807SOL    HW221321   2.457   3.462   0.285
 6808SOL     OW21322   0.808   2.908   5.440
 6808SOL    HW121323   0.865   2.915   5.522
 6808SOL    HW221324   0.739   2.980   5.441
 6809SOL     OW21325   1.610   4.285   6.910
 6809SOL    HW121326   1.521   4.329   6.897
 6809SOL    HW221327   1.632   4.285   7.008
 6810SOL     OW21328   1.784   0.541   1.608
 6810SOL    HW121329   1.730   0.623   1.589
 6810SOL    HW221330   1.759   0.469   1.544
 6811SOL     OW21331   4.475   4.165   0.238
 6811SOL    HW121332   4.464   4.249   0.292
 6811SOL    HW221333   4.568   4.131   0.250
 6812SOL     OW21334   3.710   3.294   3.337
 6812SOL    HW121335   3.629   3.237   3.334
 6812SOL    HW221336   3.684   3.391   3.329
 6813SOL     OW21337   4.317   1.658   1.821
 6813SOL    HW121338   4.321   1.740   1.878
 6813SOL    HW221339   4.398   1.654   1.762
 6814SOL     OW21340   3.277   2.958   0.649
 6814SOL    HW121341   3.215   2.955   0.571
 6814SOL    HW221342   3.256   3.038   0.705
 6815SOL     OW21343   2.985   0.074   1.266
 6815SOL    HW121344   3.068   0.077   1.321
 6815SOL    HW221345   2.923   0.147   1.295
 6816SOL     OW21346   7.023   5.749   0.170
 6816SOL    HW121347   6.924   5.761   0.169
 6816SOL    HW221348   0.043   5.829   0.128
 6817SOL     OW21349   6.664   1.792   5.269
 6817SOL    HW121350   6.709   1.709   5.302
 6817SOL    HW221351   6.565   1.777   5.265
 6818SOL     OW21352   2.673   5.841   2.066
 6818SOL    HW121353   2.631   5.835   2.157
 6818SOL    HW221354   2.601   5.841   1.996
 6819SOL     OW21355   3.724   0.848   4.401
 6819SOL    HW121356   3.771   0.905   4.334
 6819SOL    HW221357   3.678   0.773   4.355
 6820SOL     OW21358   1.481   5.223   3.217
 6820SOL    HW121359   1.473   5.318   3.187
 6820SOL    HW221360   1.559   5.215   3.279
 6821SOL     OW21361   3.155   1.866   5.394
 6821SOL    HW121362   3.090   1.937   5.369
 6821SOL    HW221363   3.239   1.877   5.342
 6822SOL     OW21364   5.751   1.564   5.977
 6822SOL    HW121365   5.845   1.551   6.009
 6822SOL    HW221366   5.707   1.636   6.031
 6823SOL     OW21367   3.929   3.068   3.942
 6823SOL    HW121368   3.933   2.978   3.986
 6823SOL    HW221369   3.889   3.057   3.851
 6824SOL     OW21370   0.695   2.991   6.516
 6824SOL    HW121371   0.629   2.932   6.562
 6824SOL    HW221372   0.696   2.971   6.418
 6825SOL     OW21373   5.306   6.632   2.688
 6825SOL    HW121374   5.396   6.599   2.661
 6825SOL    HW221375   5.307   6.655   2.786
 6826SOL     OW21376   2.251   4.002   2.978
 6826SOL    HW121377   2.238   4.043   3.069
 6826SOL    HW221378   2.297   4.068   2.919
 6827SOL     OW21379   5.204   6.014   0.350
 6827SOL    HW121380   5.122   6.034   0.404
 6827SOL    HW221381   5.247   5.931   0.385
 6828SOL     OW21382   2.187   1.994   1.572
 6828SOL    HW121383   2.283   1.966   1.574
 6828SOL    HW221384   2.144   1.962   1.488
 6829SOL     OW21385   4.986   6.598   3.569
 6829SOL    HW121386   5.035   6.589   3.482
 6829SOL    HW221387   5.037   6.657   3.631
 6830SOL     OW21388   5.433   1.300   2.920
 6830SOL    HW121389   5.454   1.260   2.831
 6830SOL    HW221390   5.424   1.227   2.988
 6831SOL     OW21391   0.878   0.345   6.351
 6831SOL    HW121392   0.915   0.400   6.276
 6831SOL    HW221393   0.851   0.255   6.315
 6832SOL     OW21394   2.448   4.213   1.415
 6832SOL    HW121395   2.365   4.161   1.437
 6832SOL    HW221396   2.423   4.308   1.396
 6833SOL     OW21397   4.519   5.208   0.110
 6833SOL    HW121398   4.491   5.115   0.133
 6833SOL    HW221399   4.450   5.273   0.143
 6834SOL     OW21400   4.671   6.860   1.763
 6834SOL    HW121401   4.659   6.893   1.857
 6834SOL    HW221402   4.711   6.768   1.765
 6835SOL     OW21403   4.369   6.673   5.285
 6835SOL    HW121404   4.366   6.596   5.349
 6835SOL    HW221405   4.386   6.638   5.193
 6836SOL     OW21406   3.320   6.531   0.797
 6836SOL    HW121407   3.345   6.489   0.884
 6836SOL    HW221408   3.321   6.631   0.807
 6837SOL     OW21409   1.109   3.299   2.373
 6837SOL    HW121410   1.010   3.309   2.372
 6837SOL    HW221411   1.142   3.307   2.467
 6838SOL     OW21412   1.558   0.684   0.948
 6838SOL    HW121413   1.619   0.640   1.014
 6838SOL    HW221414   1.537   0.620   0.874
 6839SOL     OW21415   5.174   1.367   0.466
 6839SOL    HW121416   5.095   1.420   0.496
 6839SOL    HW221417   5.165   1.344   0.369
 6840SOL     OW21418   2.283   1.956   5.014
 6840SOL    HW121419   2.270   1.897   4.934
 6840SOL    HW221420   2.199   1.959   5.067
 6841SOL     OW21421   5.416   3.260   5.938
 6841SOL    HW121422   5.484   3.319   5.896
 6841SOL    HW221423   5.427   3.261   6.037
 6842SOL     OW21424   2.550   4.566   1.149
 6842SOL    HW121425   2.472   4.575   1.087
 6842SOL    HW221426   2.518   4.567   1.243
 6843SOL     OW21427   5.198   0.075   6.845
 6843SOL    HW121428   5.262   0.100   6.772
 6843SOL    HW221429   5.105   0.084   6.811
 6844SOL     OW21430   5.740   0.825   4.082
 6844SOL    HW121431   5.742   0.868   3.992
 6844SOL    HW221432   5.646   0.814   4.112
 6845SOL     OW21433   6.096   2.723   2.700
 6845SOL    HW121434   6.027   2.795   2.702
 6845SOL    HW221435   6.130   2.712   2.606
 6846SOL     OW21436   3.103   4.180   0.085
 6846SOL    HW121437   3.187   4.131   0.108
 6846SOL    HW221438   3.127   4.270   0.047
 6847SOL     OW21439   6.549   3.798   4.593
 6847SOL    HW121440   6.628   3.763   4.543
 6847SOL    HW221441   6.513   3.727   4.653
 6848SOL     OW21442   5.450   4.104   3.993
 6848SOL    HW121443   5.354   4.112   3.966
 6848SOL    HW221444   5.455   4.096   4.093
 6849SOL     OW21445   3.281   4.599   5.518
 6849SOL    HW121446   3.256   4.607   5.615
 6849SOL    HW221447   3.252   4.510   5.483
 6850SOL     OW21448   4.129   2.281   3.217
 6850SOL    HW121449   4.091   2.260   3.307
 6850SOL    HW221450   4.069   2.244   3.146
 6851SOL     OW21451   1.895   3.070   2.862
 6851SOL    HW121452   1.946   2.985   2.869
 6851SOL    HW221453   1.814   3.066   2.921
 6852SOL     OW21454   2.811   5.256   1.380
 6852SOL    HW121455   2.900   5.212   1.367
 6852SOL    HW221456   2.809   5.301   1.470
 6853SOL     OW21457   5.302   3.079   5.774
 6853SOL    HW121458   5.345   3.136   5.844
 6853SOL    HW221459   5.251   3.005   5.818
 6854SOL     OW21460   5.329   6.304   5.654
 6854SOL    HW121461   5.381   6.331   5.735
 6854SOL    HW221462   5.372   6.343   5.572
 6855SOL     OW21463   4.755   5.525   3.794
 6855SOL    HW121464   4.712   5.443   3.756
 6855SOL    HW221465   4.809   5.500   3.875
 6856SOL     OW21466   0.365   2.256   5.942
 6856SOL    HW121467   0.316   2.225   5.861
 6856SOL    HW221468   0.460   2.276   5.918
 6857SOL     OW21469   0.790   3.477   6.282
 6857SOL    HW121470   0.731   3.557   6.289
 6857SOL    HW221471   0.800   3.435   6.372
 6858SOL     OW21472   3.312   4.221   1.693
 6858SOL    HW121473   3.220   4.260   1.689
 6858SOL    HW221474   3.379   4.294   1.701
 6859SOL     OW21475   0.886   1.466   1.869
 6859SOL    HW121476   0.808   1.416   1.831
 6859SOL    HW221477   0.905   1.435   1.962
 6860SOL     OW21478   0.031   5.032   2.407
 6860SOL    HW121479   0.128   5.035   2.434
 6860SOL    HW221480   0.025   5.029   2.307
 6861SOL     OW21481   4.744   3.369   5.971
 6861SOL    HW121482   4.799   3.327   5.898
 6861SOL    HW221483   4.781   3.341   6.060
 6862SOL     OW21484   0.904   5.234   6.080
 6862SOL    HW121485   0.899   5.134   6.074
 6862SOL    HW221486   0.981   5.267   6.026
 6863SOL     OW21487   0.185   5.786   4.950
 6863SOL    HW121488   0.223   5.715   5.010
 6863SOL    HW221489   0.240   5.792   4.867
 6864SOL     OW21490   1.922   4.099   5.820
 6864SOL    HW121491   1.847   4.059   5.769
 6864SOL    HW221492   1.935   4.194   5.791
 6865SOL     OW21493   2.085   0.773   5.209
 6865SOL    HW121494   2.096   0.699   5.143
 6865SOL    HW221495   1.996   0.765   5.253
 6866SOL     OW21496   6.141   4.149   2.190
 6866SOL    HW121497   6.187   4.196   2.115
 6866SOL    HW221498   6.210   4.108   2.251
 6867SOL     OW21499   1.894   4.310   1.316
 6867SOL    HW121500   1.940   4.383   1.266
 6867SOL    HW221501   1.921   4.221   1.280
 6868SOL     OW21502   2.142   5.625   5.241
 6868SOL    HW121503   2.163   5.567   5.320
 6868SOL    HW221504   2.149   5.571   5.157
 6869SOL     OW21505   3.776   6.939   5.689
 6869SOL    HW121506   3.775   6.846   5.725
 6869SOL    HW221507   3.705   6.993   5.734
 6870SOL     OW21508   0.901   3.379   0.159
 6870SOL    HW121509   0.982   3.434   0.180
 6870SOL    HW221510   0.929   3.296   0.110
 6871SOL     OW21511   0.096   3.375   2.094
 6871SOL    HW121512   0.150   3.321   2.029
 6871SOL    HW221513   0.071   3.318   2.172
 6872SOL     OW21514   1.382   2.614   2.353
 6872SOL    HW121515   1.368   2.705   2.316
 6872SOL    HW221516   1.368   2.546   2.281
 6873SOL     OW21517   1.215   3.826   4.242
 6873SOL    HW121518   1.172   3.886   4.174
 6873SOL    HW221519   1.300   3.790   4.206
 6874SOL     OW21520   6.303   5.366   3.152
 6874SOL    HW121521   6.206   5.381   3.169
 6874SOL    HW221522   6.353   5.452   3.164
 6875SOL     OW21523   1.682   3.008   1.851
 6875SOL    HW121524   1.717   2.962   1.770
 6875SOL    HW221525   1.596   3.054   1.830
 6876SOL     OW21526   3.512   0.357   3.260
 6876SOL    HW121527   3.464   0.444   3.256
 6876SOL    HW221528   3.573   0.355   3.339
 6877SOL     OW21529   2.737   4.320   1.432
 6877SOL    HW121530   2.640   4.335   1.450
 6877SOL    HW221531   2.791   4.355   1.508
 6878SOL     OW21532   2.320   1.604   3.851
 6878SOL    HW121533   2.246   1.547   3.887
 6878SOL    HW221534   2.344   1.674   3.917
 6879SOL     OW21535   2.235   2.385   0.463
 6879SOL    HW121536   2.315   2.329   0.442
 6879SOL    HW221537   2.164   2.329   0.505
 6880SOL     OW21538   1.145   6.030   6.481
 6880SOL    HW121539   1.149   6.115   6.429
 6880SOL    HW221540   1.160   6.050   6.578
 6881SOL     OW21541   1.553   3.812   1.071
 6881SOL    HW121542   1.588   3.839   1.161
 6881SOL    HW221543   1.575   3.882   1.003
 6882SOL     OW21544   2.893   1.286   0.182
 6882SOL    HW121545   2.865   1.382   0.181
 6882SOL    HW221546   2.812   1.227   0.184
 6883SOL     OW21547   5.213   0.619   6.459
 6883SOL    HW121548   5.264   0.534   6.472
 6883SOL    HW221549   5.194   0.631   6.361
 6884SOL     OW21550   2.110   4.490   3.143
 6884SOL    HW121551   2.200   4.486   3.100
 6884SOL    HW221552   2.066   4.400   3.137
 6885SOL     OW21553   4.748   4.624   4.359
 6885SOL    HW121554   4.806   4.558   4.406
 6885SOL    HW221555   4.781   4.636   4.265
 6886SOL     OW21556   5.918   1.598   4.762
 6886SOL    HW121557   5.953   1.506   4.746
 6886SOL    HW221558   5.818   1.596   4.766
 6887SOL     OW21559   4.943   5.683   0.191
 6887SOL    HW121560   5.018   5.660   0.253
 6887SOL    HW221561   4.898   5.600   0.160
 6888SOL     OW21562   5.687   4.329   6.300
 6888SOL    HW121563   5.674   4.348   6.398
 6888SOL    HW221564   5.716   4.412   6.254
 6889SOL     OW21565   1.425   2.853   6.063
 6889SOL    HW121566   1.500   2.815   6.008
 6889SOL    HW221567   1.386   2.781   6.120
 6890SOL     OW21568   3.800   5.561   3.033
 6890SOL    HW121569   3.754   5.641   2.995
 6890SOL    HW221570   3.891   5.553   2.993
 6891SOL     OW21571   2.505   2.746   1.362
 6891SOL    HW121572   2.484   2.648   1.367
 6891SOL    HW221573   2.550   2.774   1.447
 6892SOL     OW21574   3.429   1.442   4.257
 6892SOL    HW121575   3.342   1.445   4.208
 6892SOL    HW221576   3.432   1.516   4.324
 6893SOL     OW21577   5.862   3.477   6.828
 6893SOL    HW121578   5.902   3.386   6.817
 6893SOL    HW221579   5.825   3.486   6.920
 6894SOL     OW21580   5.548   3.760   1.083
 6894SOL    HW121581   5.564   3.733   0.988
 6894SOL    HW221582   5.494   3.690   1.129
 6895SOL     OW21583   1.376   5.903   1.103
 6895SOL    HW121584   1.472   5.876   1.095
 6895SOL    HW221585   1.321   5.847   1.041
 6896SOL     OW21586   3.874   1.703   4.348
 6896SOL    HW121587   3.809   1.646   4.297
 6896SOL    HW221588   3.926   1.645   4.411
 6897SOL     OW21589   4.927   3.802   4.908
 6897SOL    HW121590   4.880   3.732   4.961
 6897SOL    HW221591   4.995   3.759   4.848
 6898SOL     OW21592   3.122   1.246   1.419
 6898SOL    HW121593   3.113   1.320   1.485
 6898SOL    HW221594   3.219   1.219   1.412
 6899SOL     OW21595   5.513   5.901   2.515
 6899SOL    HW121596   5.550   5.903   2.608
 6899SOL    HW221597   5.455   5.821   2.504
 6900SOL     OW21598   6.600   4.548   6.198
 6900SOL    HW121599   6.623   4.641   6.228
 6900SOL    HW221600   6.678   4.508   6.150
 6901SOL     OW21601   4.497   4.805   6.922
 6901SOL    HW121602   4.597   4.816   6.927
 6901SOL    HW221603   4.476   4.718   6.877
 6902SOL     OW21604   6.792   5.934   5.840
 6902SOL    HW121605   6.782   5.943   5.741
 6902SOL    HW221606   6.701   5.938   5.882
 6903SOL     OW21607   2.658   4.983   5.538
 6903SOL    HW121608   2.716   5.002   5.459
 6903SOL    HW221609   2.592   4.912   5.516
 6904SOL     OW21610   0.476   6.050   5.483
 6904SOL    HW121611   0.548   6.111   5.514
 6904SOL    HW221612   0.448   5.991   5.558
 6905SOL     OW21613   5.493   5.197   0.036
 6905SOL    HW121614   5.518   5.264   0.106
 6905SOL    HW221615   5.563   5.126   0.032
 6906SOL     OW21616   3.581   1.848   3.711
 6906SOL    HW121617   3.659   1.824   3.654
 6906SOL    HW221618   3.586   1.945   3.735
 6907SOL     OW21619   6.264   1.996   1.521
 6907SOL    HW121620   6.238   1.900   1.520
 6907SOL    HW221621   6.250   2.035   1.430
 6908SOL     OW21622   2.576   4.571   6.928
 6908SOL    HW121623   2.564   4.535   6.836
 6908SOL    HW221624   2.545   4.666   6.932
 6909SOL     OW21625   5.124   4.809   2.098
 6909SOL    HW121626   5.044   4.817   2.157
 6909SOL    HW221627   5.157   4.900   2.074
 6910SOL     OW21628   1.399   3.131   3.372
 6910SOL    HW121629   1.469   3.198   3.348
 6910SOL    HW221630   1.348   3.163   3.452
 6911SOL     OW21631   3.723   0.106   5.269
 6911SOL    HW121632   3.818   0.136   5.264
 6911SOL    HW221633   3.682   0.139   5.354
 6912SOL     OW21634   2.379   3.402   6.055
 6912SOL    HW121635   2.334   3.339   5.992
 6912SOL    HW221636   2.478   3.398   6.042
 6913SOL     OW21637   5.381   6.185   5.170
 6913SOL    HW121638   5.377   6.096   5.216
 6913SOL    HW221639   5.464   6.189   5.114
 6914SOL     OW21640   6.191   3.963   1.784
 6914SOL    HW121641   6.119   4.010   1.835
 6914SOL    HW221642   6.154   3.929   1.697
 6915SOL     OW21643   0.950   3.109   2.208
 6915SOL    HW121644   1.036   3.149   2.179
 6915SOL    HW221645   0.877   3.177   2.200
 6916SOL     OW21646   5.189   1.173   5.841
 6916SOL    HW121647   5.129   1.111   5.789
 6916SOL    HW221648   5.142   1.203   5.924
 6917SOL     OW21649   4.947   5.542   1.750
 6917SOL    HW121650   4.989   5.494   1.673
 6917SOL    HW221651   5.010   5.541   1.828
 6918SOL     OW21652   0.406   3.036   2.444
 6918SOL    HW121653   0.334   2.979   2.404
 6918SOL    HW221654   0.495   2.995   2.425
 6919SOL     OW21655   6.103   6.596   2.820
 6919SOL    HW121656   6.023   6.645   2.786
 6919SOL    HW221657   6.101   6.501   2.789
 6920SOL     OW21658   4.826   0.007   5.457
 6920SOL    HW121659   4.766   0.037   5.384
 6920SOL    HW221660   4.825   6.931   5.462
 6921SOL     OW21661   4.127   0.257   4.045
 6921SOL    HW121662   4.210   0.291   4.088
 6921SOL    HW221663   4.135   0.159   4.028
 6922SOL     OW21664   1.753   6.169   4.653
 6922SOL    HW121665   1.811   6.088   4.640
 6922SOL    HW221666   1.683   6.172   4.582
 6923SOL     OW21667   6.083   6.344   2.710
 6923SOL    HW121668   6.062   6.365   2.614
 6923SOL    HW221669   6.052   6.252   2.732
 6924SOL     OW21670   3.387   6.015   1.402
 6924SOL    HW121671   3.407   5.931   1.452
 6924SOL    HW221672   3.311   5.999   1.339
 6925SOL     OW21673   4.775   5.867   6.437
 6925SOL    HW121674   4.868   5.864   6.473
 6925SOL    HW221675   4.730   5.779   6.453
 6926SOL     OW21676   2.429   1.456   0.002
 6926SOL    HW121677   2.339   1.461   6.981
 6926SOL    HW221678   2.424   1.394   0.080
 6927SOL     OW21679   3.699   0.793   0.347
 6927SOL    HW121680   3.757   0.717   0.376
 6927SOL    HW221681   3.648   0.766   0.265
 6928SOL     OW21682   4.881   5.449   0.806
 6928SOL    HW121683   4.879   5.522   0.737
 6928SOL    HW221684   4.815   5.377   0.781
 6929SOL     OW21685   5.613   5.310   1.438
 6929SOL    HW121686   5.599   5.235   1.503
 6929SOL    HW221687   5.560   5.390   1.467
 6930SOL     OW21688   0.645   1.599   0.730
 6930SOL    HW121689   0.634   1.529   0.800
 6930SOL    HW221690   0.723   1.657   0.752
 6931SOL     OW21691   2.142   1.623   1.189
 6931SOL    HW121692   2.090   1.549   1.146
 6931SOL    HW221693   2.235   1.622   1.155
 6932SOL     OW21694   4.499   4.623   0.552
 6932SOL    HW121695   4.414   4.580   0.581
 6932SOL    HW221696   4.505   4.715   0.591
 6933SOL     OW21697   3.818   6.260   6.059
 6933SOL    HW121698   3.819   6.292   6.154
 6933SOL    HW221699   3.910   6.265   6.021
 6934SOL     OW21700   4.752   3.607   6.701
 6934SOL    HW121701   4.818   3.580   6.771
 6934SOL    HW221702   4.794   3.597   6.611
 6935SOL     OW21703   4.722   5.360   2.529
 6935SOL    HW121704   4.687   5.326   2.616
 6935SOL    HW221705   4.811   5.402   2.543
 6936SOL     OW21706   0.330   2.187   4.542
 6936SOL    HW121707   0.232   2.196   4.559
 6936SOL    HW221708   0.355   2.245   4.464
 6937SOL     OW21709   5.953   6.060   0.409
 6937SOL    HW121710   5.932   5.997   0.485
 6937SOL    HW221711   6.036   6.112   0.431
 6938SOL     OW21712   0.465   0.820   4.541
 6938SOL    HW121713   0.381   0.872   4.524
 6938SOL    HW221714   0.442   0.736   4.591
 6939SOL     OW21715   6.561   5.025   3.464
 6939SOL    HW121716   6.523   5.117   3.457
 6939SOL    HW221717   6.614   5.018   3.549
 6940SOL     OW21718   5.005   6.955   0.446
 6940SOL    HW121719   5.104   6.942   0.450
 6940SOL    HW221720   4.984   0.029   0.449
 6941SOL     OW21721   2.904   3.666   2.204
 6941SOL    HW121722   2.949   3.597   2.262
 6941SOL    HW221723   2.812   3.635   2.181
 6942SOL     OW21724   6.344   6.653   1.765
 6942SOL    HW121725   6.300   6.735   1.802
 6942SOL    HW221726   6.424   6.630   1.820
 6943SOL     OW21727   3.774   4.993   0.137
 6943SOL    HW121728   3.697   5.044   0.177
 6943SOL    HW221729   3.765   4.992   0.038
 6944SOL     OW21730   1.158   4.860   6.186
 6944SOL    HW121731   1.112   4.905   6.263
 6944SOL    HW221732   1.111   4.885   6.101
 6945SOL     OW21733   6.392   2.353   0.772
 6945SOL    HW121734   6.471   2.332   0.831
 6945SOL    HW221735   6.392   2.291   0.694
 6946SOL     OW21736   3.923   5.930   1.899
 6946SOL    HW121737   3.853   5.991   1.937
 6946SOL    HW221738   3.968   5.975   1.822
 6947SOL     OW21739   4.265   5.003   5.966
 6947SOL    HW121740   4.322   4.974   6.042
 6947SOL    HW221741   4.320   5.053   5.900
 6948SOL     OW21742   0.411   6.695   1.337
 6948SOL    HW121743   0.434   6.792   1.336
 6948SOL    HW221744   0.334   6.679   1.399
 6949SOL     OW21745   2.488   2.491   3.359
 6949SOL    HW121746   2.516   2.528   3.448
 6949SOL    HW221747   2.569   2.457   3.310
 6950SOL     OW21748   1.277   0.143   3.808
 6950SOL    HW121749   1.206   0.074   3.790
 6950SOL    HW221750   1.246   0.232   3.774
 6951SOL     OW21751   6.443   5.681   6.791
 6951SOL    HW121752   6.510   5.629   6.738
 6951SOL    HW221753   6.378   5.725   6.729
 6952SOL     OW21754   3.102   4.847   3.197
 6952SOL    HW121755   3.114   4.771   3.262
 6952SOL    HW221756   3.012   4.841   3.154
 6953SOL     OW21757   5.257   6.942   0.915
 6953SOL    HW121758   5.239   6.980   1.006
 6953SOL    HW221759   5.336   6.989   0.874
 6954SOL     OW21760   0.024   3.564   1.283
 6954SOL    HW121761   0.047   3.475   1.242
 6954SOL    HW221762   0.091   3.632   1.253
 6955SOL     OW21763   5.118   0.298   2.639
 6955SOL    HW121764   5.192   0.342   2.588
 6955SOL    HW221765   5.145   0.290   2.736
 6956SOL     OW21766   6.044   5.745   2.441
 6956SOL    HW121767   6.014   5.745   2.536
 6956SOL    HW221768   6.026   5.655   2.401
 6957SOL     OW21769   5.082   6.150   6.445
 6957SOL    HW121770   4.992   6.191   6.433
 6957SOL    HW221771   5.073   6.051   6.454
 6958SOL     OW21772   3.664   3.439   3.988
 6958SOL    HW121773   3.570   3.453   3.956
 6958SOL    HW221774   3.691   3.344   3.970
 6959SOL     OW21775   1.665   3.731   3.340
 6959SOL    HW121776   1.623   3.661   3.283
 6959SOL    HW221777   1.765   3.727   3.329
 6960SOL     OW21778   1.458   4.833   1.073
 6960SOL    HW121779   1.533   4.855   1.136
 6960SOL    HW221780   1.377   4.887   1.096
 6961SOL     OW21781   4.552   1.097   4.830
 6961SOL    HW121782   4.472   1.111   4.889
 6961SOL    HW221783   4.616   1.173   4.842
 6962SOL     OW21784   3.548   6.454   0.339
 6962SOL    HW121785   3.470   6.457   0.401
 6962SOL    HW221786   3.520   6.488   0.249
 6963SOL     OW21787   5.361   5.807   6.993
 6963SOL    HW121788   5.271   5.842   6.966
 6963SOL    HW221789   5.426   5.883   7.000
 6964SOL     OW21790   2.879   0.287   5.487
 6964SOL    HW121791   2.879   0.297   5.388
 6964SOL    HW221792   2.948   0.220   5.514
 6965SOL     OW21793   1.060   2.262   0.050
 6965SOL    HW121794   1.014   2.245   0.138
 6965SOL    HW221795   1.046   2.357   0.023
 6966SOL     OW21796   1.344   0.940   1.866
 6966SOL    HW121797   1.302   0.963   1.954
 6966SOL    HW221798   1.352   1.024   1.811
 6967SOL     OW21799   3.602   1.417   5.896
 6967SOL    HW121800   3.701   1.408   5.892
 6967SOL    HW221801   3.570   1.474   5.820
 6968SOL     OW21802   3.281   0.537   3.303
 6968SOL    HW121803   3.247   0.631   3.302
 6968SOL    HW221804   3.277   0.499   3.211
 6969SOL     OW21805   3.085   1.956   1.132
 6969SOL    HW121806   2.985   1.947   1.132
 6969SOL    HW221807   3.115   1.996   1.218
 6970SOL     OW21808   3.028   4.737   6.415
 6970SOL    HW121809   3.023   4.657   6.355
 6970SOL    HW221810   2.995   4.817   6.366
 6971SOL     OW21811   5.313   4.182   1.230
 6971SOL    HW121812   5.225   4.150   1.267
 6971SOL    HW221813   5.365   4.228   1.302
 6972SOL     OW21814   5.172   3.597   2.765
 6972SOL    HW121815   5.094   3.599   2.703
 6972SOL    HW221816   5.151   3.541   2.845
 6973SOL     OW21817   1.275   2.305   2.750
 6973SOL    HW121818   1.259   2.369   2.674
 6973SOL    HW221819   1.226   2.337   2.831
 6974SOL     OW21820   3.015   3.881   2.328
 6974SOL    HW121821   2.960   3.810   2.284
 6974SOL    HW221822   3.073   3.926   2.260
 6975SOL     OW21823   3.132   5.796   4.465
 6975SOL    HW121824   3.053   5.736   4.452
 6975SOL    HW221825   3.147   5.811   4.562
 6976SOL     OW21826   4.978   4.346   5.361
 6976SOL    HW121827   4.930   4.363   5.447
 6976SOL    HW221828   4.955   4.255   5.327
 6977SOL     OW21829   4.110   4.065   1.598
 6977SOL    HW121830   4.108   3.966   1.609
 6977SOL    HW221831   4.025   4.095   1.553
 6978SOL     OW21832   5.687   3.284   0.841
 6978SOL    HW121833   5.670   3.372   0.885
 6978SOL    HW221834   5.766   3.239   0.884
 6979SOL     OW21835   1.226   3.472   1.556
 6979SOL    HW121836   1.148   3.489   1.616
 6979SOL    HW221837   1.307   3.452   1.612
 6980SOL     OW21838   1.699   0.774   3.140
 6980SOL    HW121839   1.712   0.694   3.200
 6980SOL    HW221840   1.602   0.786   3.121
 6981SOL     OW21841   3.614   3.431   6.705
 6981SOL    HW121842   3.640   3.451   6.611
 6981SOL    HW221843   3.694   3.440   6.764
 6982SOL     OW21844   1.182   1.112   3.623
 6982SOL    HW121845   1.169   1.095   3.720
 6982SOL    HW221846   1.172   1.027   3.572
 6983SOL     OW21847   4.318   1.278   5.227
 6983SOL    HW121848   4.314   1.343   5.152
 6983SOL    HW221849   4.363   1.194   5.196
 6984SOL     OW21850   1.680   2.342   2.983
 6984SOL    HW121851   1.698   2.292   2.897
 6984SOL    HW221852   1.583   2.331   3.007
 6985SOL     OW21853   6.475   4.537   0.273
 6985SOL    HW121854   6.411   4.610   0.297
 6985SOL    HW221855   6.479   4.526   0.174
 6986SOL     OW21856   3.843   6.364   6.327
 6986SOL    HW121857   3.894   6.281   6.346
 6986SOL    HW221858   3.872   6.436   6.390
 6987SOL     OW21859   0.318   1.752   5.543
 6987SOL    HW121860   0.294   1.788   5.633
 6987SOL    HW221861   0.276   1.662   5.532
 6988SOL     OW21862   2.711   0.428   5.947
 6988SOL    HW121863   2.657   0.487   6.005
 6988SOL    HW221864   2.808   0.450   5.958
 6989SOL     OW21865   6.763   4.425   2.075
 6989SOL    HW121866   6.853   4.464   2.055
 6989SOL    HW221867   6.692   4.487   2.041
 6990SOL     OW21868   3.857   3.019   1.899
 6990SOL    HW121869   3.797   2.992   1.824
 6990SOL    HW221870   3.834   2.967   1.981
 6991SOL     OW21871   5.108   4.653   3.192
 6991SOL    HW121872   5.049   4.601   3.130
 6991SOL    HW221873   5.195   4.671   3.147
 6992SOL     OW21874   0.340   6.733   0.669
 6992SOL    HW121875   0.274   6.792   0.622
 6992SOL    HW221876   0.313   6.723   0.765
 6993SOL     OW21877   6.037   0.905   1.995
 6993SOL    HW121878   6.010   0.968   2.067
 6993SOL    HW221879   6.120   0.937   1.951
 6994SOL     OW21880   1.499   0.015   3.393
 6994SOL    HW121881   1.574   0.047   3.452
 6994SOL    HW221882   1.513   6.942   3.370
 6995SOL     OW21883   0.762   3.796   0.249
 6995SOL    HW121884   0.702   3.760   0.319
 6995SOL    HW221885   0.708   3.841   0.177
 6996SOL     OW21886   1.477   0.863   6.724
 6996SOL    HW121887   1.387   0.876   6.681
 6996SOL    HW221888   1.464   0.827   6.817
 6997SOL     OW21889   6.971   4.856   5.329
 6997SOL    HW121890   0.000   4.790   5.276
 6997SOL    HW221891   7.003   4.857   5.424
 6998SOL     OW21892   0.785   1.696   1.730
 6998SOL    HW121893   0.825   1.613   1.767
 6998SOL    HW221894   0.777   1.688   1.630
 6999SOL     OW21895   0.504   2.841   6.658
 6999SOL    HW121896   0.474   2.746   6.657
 6999SOL    HW221897   0.575   2.854   6.728
 7000SOL     OW21898   5.999   0.367   2.820
 7000SOL    HW121899   6.070   0.296   2.817
 7000SOL    HW221900   6.006   0.425   2.739
 7001SOL     OW21901   0.943   1.417   4.181
 7001SOL    HW121902   0.887   1.498   4.203
 7001SOL    HW221903   0.899   1.335   4.217
 7002SOL     OW21904   0.653   5.453   3.768
 7002SOL    HW121905   0.728   5.506   3.731
 7002SOL    HW221906   0.685   5.361   3.791
 7003SOL     OW21907   5.782   4.724   0.920
 7003SOL    HW121908   5.785   4.759   1.014
 7003SOL    HW221909   5.780   4.800   0.855
 7004SOL     OW21910   1.603   5.552   0.502
 7004SOL    HW121911   1.509   5.520   0.514
 7004SOL    HW221912   1.610   5.647   0.532
 7005SOL     OW21913   1.046   0.497   6.790
 7005SOL    HW121914   1.035   0.420   6.853
 7005SOL    HW221915   1.099   0.569   6.835
 7006SOL     OW21916   6.767   6.417   3.547
 7006SOL    HW121917   6.798   6.322   3.554
 7006SOL    HW221918   6.761   6.457   3.638
 7007SOL     OW21919   4.529   0.461   5.810
 7007SOL    HW121920   4.567   0.406   5.884
 7007SOL    HW221921   4.558   0.556   5.819
 7008SOL     OW21922   6.679   4.397   3.690
 7008SOL    HW121923   6.770   4.413   3.728
 7008SOL    HW221924   6.646   4.307   3.720
 7009SOL     OW21925   3.933   6.490   2.227
 7009SOL    HW121926   3.849   6.444   2.256
 7009SOL    HW221927   3.910   6.576   2.181
 7010SOL     OW21928   5.691   3.988   2.594
 7010SOL    HW121929   5.607   4.026   2.554
 7010SOL    HW221930   5.671   3.899   2.634
 7011SOL     OW21931   3.745   6.643   0.434
 7011SOL    HW121932   3.668   6.602   0.385
 7011SOL    HW221933   3.827   6.589   0.418
 7012SOL     OW21934   1.425   3.101   1.114
 7012SOL    HW121935   1.410   3.175   1.048
 7012SOL    HW221936   1.469   3.024   1.069
 7013SOL     OW21937   2.675   1.161   6.572
 7013SOL    HW121938   2.584   1.178   6.612
 7013SOL    HW221939   2.673   1.184   6.475
 7014SOL     OW21940   6.097   3.790   0.911
 7014SOL    HW121941   5.998   3.801   0.901
 7014SOL    HW221942   6.118   3.694   0.931
 7015SOL     OW21943   6.045   4.382   2.355
 7015SOL    HW121944   6.027   4.284   2.360
 7015SOL    HW221945   6.143   4.398   2.354
 7016SOL     OW21946   3.338   4.861   1.219
 7016SOL    HW121947   3.383   4.950   1.217
 7016SOL    HW221948   3.244   4.870   1.184
 7017SOL     OW21949   3.630   4.878   3.335
 7017SOL    HW121950   3.581   4.832   3.409
 7017SOL    HW221951   3.713   4.920   3.371
 7018SOL     OW21952   4.875   3.104   4.190
 7018SOL    HW121953   4.871   3.115   4.091
 7018SOL    HW221954   4.879   3.194   4.233
 7019SOL     OW21955   4.868   5.203   2.065
 7019SOL    HW121956   4.966   5.196   2.082
 7019SOL    HW221957   4.821   5.222   2.151
 7020SOL     OW21958   0.582   3.237   6.540
 7020SOL    HW121959   0.644   3.159   6.531
 7020SOL    HW221960   0.505   3.225   6.477
 7021SOL     OW21961   0.651   2.790   5.056
 7021SOL    HW121962   0.634   2.793   5.155
 7021SOL    HW221963   0.696   2.704   5.033
 7022SOL     OW21964   4.154   0.436   0.197
 7022SOL    HW121965   4.189   0.364   0.137
 7022SOL    HW221966   4.058   0.417   0.219
 7023SOL     OW21967   0.557   1.711   2.040
 7023SOL    HW121968   0.499   1.754   1.971
 7023SOL    HW221969   0.625   1.652   1.996
 7024SOL     OW21970   3.630   2.866   3.922
 7024SOL    HW121971   3.572   2.792   3.955
 7024SOL    HW221972   3.684   2.903   3.997
 7025SOL     OW21973   3.215   0.175   6.841
 7025SOL    HW121974   3.299   0.206   6.797
 7025SOL    HW221975   3.236   0.145   6.934
 7026SOL     OW21976   3.552   1.465   1.359
 7026SOL    HW121977   3.587   1.373   1.340
 7026SOL    HW221978   3.627   1.525   1.383
 7027SOL     OW21979   2.470   5.855   3.254
 7027SOL    HW121980   2.418   5.937   3.228
 7027SOL    HW221981   2.407   5.781   3.276
 7028SOL     OW21982   2.766   0.473   3.486
 7028SOL    HW121983   2.678   0.455   3.441
 7028SOL    HW221984   2.800   0.563   3.458
 7029SOL     OW21985   3.286   3.583   5.877
 7029SOL    HW121986   3.265   3.622   5.788
 7029SOL    HW221987   3.377   3.542   5.874
 7030SOL     OW21988   0.714   1.805   4.651
 7030SOL    HW121989   0.801   1.854   4.645
 7030SOL    HW221990   0.643   1.868   4.682
 7031SOL     OW21991   4.431   6.191   0.624
 7031SOL    HW121992   4.432   6.283   0.663
 7031SOL    HW221993   4.367   6.134   0.676
 7032SOL     OW21994   3.942   0.425   3.968
 7032SOL    HW121995   4.007   0.353   3.992
 7032SOL    HW221996   3.876   0.389   3.902
 7033SOL     OW21997   1.136   2.503   4.762
 7033SOL    HW121998   1.218   2.472   4.715
 7033SOL    HW221999   1.121   2.446   4.844
 7034SOL     OW22000   6.358   2.496   3.364
 7034SOL    HW122001   6.272   2.522   3.320
 7034SOL    HW222002   6.426   2.474   3.294
 7035SOL     OW22003   1.717   0.163   1.864
 7035SOL    HW122004   1.690   0.259   1.877
 7035SOL    HW222005   1.800   0.159   1.808
 7036SOL     OW22006   0.357   1.262   2.125
 7036SOL    HW122007   0.259   1.243   2.117
 7036SOL    HW222008   0.379   1.284   2.221
 7037SOL     OW22009   0.235   0.192   5.411
 7037SOL    HW122010   0.232   0.094   5.393
 7037SOL    HW222011   0.311   0.212   5.472
 7038SOL     OW22012   2.478   4.528   5.882
 7038SOL    HW122013   2.406   4.595   5.865
 7038SOL    HW222014   2.504   4.484   5.796
 7039SOL     OW22015   0.686   5.240   3.410
 7039SOL    HW122016   0.612   5.173   3.416
 7039SOL    HW222017   0.763   5.200   3.361
 7040SOL     OW22018   4.428   1.992   5.012
 7040SOL    HW122019   4.460   2.086   5.015
 7040SOL    HW222020   4.339   1.985   5.057
 7041SOL     OW22021   1.253   1.341   3.192
 7041SOL    HW122022   1.191   1.419   3.192
 7041SOL    HW222023   1.223   1.274   3.124
 7042SOL     OW22024   4.227   5.962   5.120
 7042SOL    HW122025   4.163   6.029   5.083
 7042SOL    HW222026   4.291   5.934   5.048
 7043SOL     OW22027   2.385   4.514   3.842
 7043SOL    HW122028   2.293   4.489   3.813
 7043SOL    HW222029   2.447   4.509   3.763
 7044SOL     OW22030   4.764   6.567   4.665
 7044SOL    HW122031   4.802   6.502   4.731
 7044SOL    HW222032   4.670   6.542   4.644
 7045SOL     OW22033   5.966   5.495   2.353
 7045SOL    HW122034   5.880   5.543   2.368
 7045SOL    HW222035   5.949   5.397   2.343
 7046SOL     OW22036   3.255   2.115   4.357
 7046SOL    HW122037   3.225   2.023   4.381
 7046SOL    HW222038   3.184   2.181   4.382
 7047SOL     OW22039   0.410   0.701   1.760
 7047SOL    HW122040   0.364   0.776   1.714
 7047SOL    HW222041   0.442   0.635   1.692
 7048SOL     OW22042   6.785   6.255   5.224
 7048SOL    HW122043   6.743   6.256   5.134
 7048SOL    HW222044   6.885   6.249   5.215
 7049SOL     OW22045   3.906   1.475   1.954
 7049SOL    HW122046   3.965   1.551   1.982
 7049SOL    HW222047   3.813   1.509   1.938
 7050SOL     OW22048   3.609   4.814   0.998
 7050SOL    HW122049   3.579   4.885   0.934
 7050SOL    HW222050   3.529   4.765   1.032
 7051SOL     OW22051   0.336   0.040   1.999
 7051SOL    HW122052   0.277   0.120   2.004
 7051SOL    HW222053   0.431   0.068   2.016
 7052SOL     OW22054   5.494   6.782   3.130
 7052SOL    HW122055   5.593   6.791   3.140
 7052SOL    HW222056   5.448   6.826   3.208
 7053SOL     OW22057   1.412   2.996   4.052
 7053SOL    HW122058   1.505   2.991   4.017
 7053SOL    HW222059   1.413   2.980   4.151
 7054SOL     OW22060   6.899   0.153   1.255
 7054SOL    HW122061   6.873   0.159   1.351
 7054SOL    HW222062   6.999   0.157   1.247
 7055SOL     OW22063   1.904   0.177   6.429
 7055SOL    HW122064   1.972   0.240   6.391
 7055SOL    HW222065   1.920   0.086   6.391
 7056SOL     OW22066   6.198   5.726   0.929
 7056SOL    HW122067   6.195   5.822   0.955
 7056SOL    HW222068   6.253   5.675   0.996
 7057SOL     OW22069   3.216   4.890   4.593
 7057SOL    HW122070   3.136   4.846   4.552
 7057SOL    HW222071   3.195   4.917   4.687
 7058SOL     OW22072   5.140   2.116   6.803
 7058SOL    HW122073   5.157   2.200   6.752
 7058SOL    HW222074   5.118   2.042   6.739
 7059SOL     OW22075   2.022   1.807   4.553
 7059SOL    HW122076   2.065   1.723   4.521
 7059SOL    HW222077   2.056   1.884   4.500
 7060SOL     OW22078   3.171   6.904   2.690
 7060SOL    HW122079   3.130   6.991   2.660
 7060SOL    HW222080   3.247   6.881   2.629
 7061SOL     OW22081   1.681   1.944   2.537
 7061SOL    HW122082   1.762   1.996   2.509
 7061SOL    HW222083   1.645   1.895   2.457
 7062SOL     OW22084   4.558   1.753   4.202
 7062SOL    HW122085   4.571   1.656   4.179
 7062SOL    HW222086   4.462   1.768   4.224
 7063SOL     OW22087   0.672   6.594   2.468
 7063SOL    HW122088   0.581   6.576   2.505
 7063SOL    HW222089   0.673   6.684   2.424
 7064SOL     OW22090   5.006   1.623   5.631
 7064SOL    HW122091   5.098   1.591   5.605
 7064SOL    HW222092   4.963   1.556   5.692
 7065SOL     OW22093   3.586   4.568   5.380
 7065SOL    HW122094   3.538   4.537   5.462
 7065SOL    HW222095   3.629   4.490   5.335
 7066SOL     OW22096   4.592   0.249   6.931
 7066SOL    HW122097   4.662   0.319   6.944
 7066SOL    HW222098   4.532   0.276   6.856
 7067SOL     OW22099   1.870   3.460   6.998
 7067SOL    HW122100   1.900   3.556   6.999
 7067SOL    HW222101   1.771   3.456   7.014
 7068SOL     OW22102   5.761   4.287   4.125
 7068SOL    HW122103   5.702   4.278   4.045
 7068SOL    HW222104   5.857   4.280   4.097
 7069SOL     OW22105   6.114   1.057   5.333
 7069SOL    HW122106   6.123   1.024   5.427
 7069SOL    HW222107   6.049   1.132   5.330
 7070SOL     OW22108   7.017   6.459   5.035
 7070SOL    HW122109   0.043   6.383   5.075
 7070SOL    HW222110   0.008   6.541   5.090
 7071SOL     OW22111   5.122   6.346   6.608
 7071SOL    HW122112   5.125   6.433   6.559
 7071SOL    HW222113   5.137   6.271   6.543
 7072SOL     OW22114   0.799   4.562   6.644
 7072SOL    HW122115   0.773   4.476   6.602
 7072SOL    HW222116   0.731   4.632   6.622
 7073SOL     OW22117   4.252   0.448   3.418
 7073SOL    HW122118   4.177   0.461   3.353
 7073SOL    HW222119   4.302   0.534   3.429
 7074SOL     OW22120   6.536   3.229   3.419
 7074SOL    HW122121   6.497   3.161   3.357
 7074SOL    HW222122   6.489   3.317   3.406
 7075SOL     OW22123   3.279   4.905   5.192
 7075SOL    HW122124   3.209   4.836   5.213
 7075SOL    HW222125   3.369   4.863   5.194
 7076SOL     OW22126   5.897   3.227   1.931
 7076SOL    HW122127   5.962   3.300   1.952
 7076SOL    HW222128   5.825   3.263   1.872
 7077SOL     OW22129   2.384   5.106   2.198
 7077SOL    HW122130   2.296   5.059   2.184
 7077SOL    HW222131   2.439   5.054   2.264
 7078SOL     OW22132   5.586   0.030   0.474
 7078SOL    HW122133   5.513   6.986   0.464
 7078SOL    HW222134   5.666   0.002   0.421
 7079SOL     OW22135   1.150   6.933   3.755
 7079SOL    HW122136   1.090   6.905   3.680
 7079SOL    HW222137   1.240   6.891   3.744
 7080SOL     OW22138   4.049   1.789   4.893
 7080SOL    HW122139   4.026   1.713   4.832
 7080SOL    HW222140   4.126   1.840   4.854
 7081SOL     OW22141   1.389   1.005   0.090
 7081SOL    HW122142   1.413   1.038   0.182
 7081SOL    HW222143   1.441   1.056   0.022
 7082SOL     OW22144   6.757   3.692   1.962
 7082SOL    HW122145   6.720   3.612   2.008
 7082SOL    HW222146   6.706   3.774   1.991
 7083SOL     OW22147   6.558   2.457   2.490
 7083SOL    HW122148   6.550   2.387   2.418
 7083SOL    HW222149   6.477   2.516   2.488
 7084SOL     OW22150   0.635   5.594   6.829
 7084SOL    HW122151   0.712   5.648   6.796
 7084SOL    HW222152   0.644   5.500   6.794
 7085SOL     OW22153   0.049   2.446   2.484
 7085SOL    HW122154   0.129   2.506   2.487
 7085SOL    HW222155   0.001   2.451   2.572
 7086SOL     OW22156   6.392   0.807   6.529
 7086SOL    HW122157   6.322   0.816   6.458
 7086SOL    HW222158   6.415   0.711   6.541
 7087SOL     OW22159   5.250   3.055   2.719
 7087SOL    HW122160   5.186   3.110   2.773
 7087SOL    HW222161   5.336   3.105   2.709
 7088SOL     OW22162   5.785   1.495   5.088
 7088SOL    HW122163   5.717   1.539   5.030
 7088SOL    HW222164   5.876   1.523   5.059
 7089SOL     OW22165   4.355   5.464   2.323
 7089SOL    HW122166   4.282   5.532   2.322
 7089SOL    HW222167   4.440   5.507   2.353
 7090SOL     OW22168   3.593   1.432   0.645
 7090SOL    HW122169   3.517   1.446   0.582
 7090SOL    HW222170   3.559   1.393   0.730
 7091SOL     OW22171   0.600   0.021   0.173
 7091SOL    HW122172   0.672   6.985   0.136
 7091SOL    HW222173   0.624   0.048   0.266
 7092SOL     OW22174   4.489   2.134   6.704
 7092SOL    HW122175   4.470   2.191   6.784
 7092SOL    HW222176   4.404   2.091   6.672
 7093SOL     OW22177   3.233   3.695   0.972
 7093SOL    HW122178   3.229   3.686   1.071
 7093SOL    HW222179   3.148   3.659   0.932
 7094SOL     OW22180   2.178   6.709   5.544
 7094SOL    HW122181   2.136   6.679   5.630
 7094SOL    HW222182   2.125   6.786   5.507
 7095SOL     OW22183   3.100   4.917   5.517
 7095SOL    HW122184   3.043   4.985   5.562
 7095SOL    HW222185   3.060   4.826   5.528
 7096SOL     OW22186   6.847   0.528   1.168
 7096SOL    HW122187   6.925   0.521   1.231
 7096SOL    HW222188   6.821   0.624   1.159
 7097SOL     OW22189   5.747   6.970   1.650
 7097SOL    HW122190   5.794   0.034   1.640
 7097SOL    HW222191   5.807   6.896   1.621
 7098SOL     OW22192   1.793   0.045   4.092
 7098SOL    HW122193   1.748   6.985   4.060
 7098SOL    HW222194   1.834   0.029   4.182
 7099SOL     OW22195   3.541   2.059   4.311
 7099SOL    HW122196   3.494   1.972   4.325
 7099SOL    HW222197   3.486   2.133   4.349
 7100SOL     OW22198   0.691   3.268   0.691
 7100SOL    HW122199   0.694   3.285   0.790
 7100SOL    HW222200   0.782   3.244   0.658
 7101SOL     OW22201   1.934   6.716   5.154
 7101SOL    HW122202   1.911   6.721   5.057
 7101SOL    HW222203   1.974   6.627   5.174
 7102SOL     OW22204   4.831   1.174   0.533
 7102SOL    HW122205   4.916   1.130   0.506
 7102SOL    HW222206   4.796   1.131   0.617
 7103SOL     OW22207   5.330   5.064   2.442
 7103SOL    HW122208   5.345   5.029   2.350
 7103SOL    HW222209   5.249   5.020   2.482
 7104SOL     OW22210   5.546   3.102   3.047
 7104SOL    HW122211   5.474   3.138   3.106
 7104SOL    HW222212   5.512   3.025   2.995
 7105SOL     OW22213   3.220   4.086   4.101
 7105SOL    HW122214   3.131   4.128   4.088
 7105SOL    HW222215   3.274   4.093   4.017
 7106SOL     OW22216   3.645   3.012   1.441
 7106SOL    HW122217   3.559   2.976   1.406
 7106SOL    HW222218   3.664   3.100   1.398
 7107SOL     OW22219   4.350   6.905   0.008
 7107SOL    HW122220   4.256   6.881   7.009
 7107SOL    HW222221   4.398   6.823   0.041
 7108SOL     OW22222   2.812   6.265   2.936
 7108SOL    HW122223   2.825   6.202   3.012
 7108SOL    HW222224   2.722   6.249   2.895
 7109SOL     OW22225   1.359   0.498   6.026
 7109SOL    HW122226   1.422   0.575   6.014
 7109SOL    HW222227   1.393   0.439   6.099
 7110SOL     OW22228   3.022   6.493   4.598
 7110SOL    HW122229   3.069   6.552   4.663
 7110SOL    HW222230   3.009   6.403   4.638
 7111SOL     OW22231   1.435   0.921   3.982
 7111SOL    HW122232   1.422   0.942   4.078
 7111SOL    HW222233   1.444   1.006   3.930
 7112SOL     OW22234   2.137   4.531   4.395
 7112SOL    HW122235   2.132   4.619   4.441
 7112SOL    HW222236   2.233   4.501   4.392
 7113SOL     OW22237   2.868   4.887   5.135
 7113SOL    HW122238   2.836   4.794   5.117
 7113SOL    HW222239   2.966   4.885   5.156
 7114SOL     OW22240   4.894   5.268   1.223
 7114SOL    HW122241   4.803   5.232   1.207
 7114SOL    HW222242   4.959   5.193   1.233
 7115SOL     OW22243   6.049   4.519   6.845
 7115SOL    HW122244   5.949   4.509   6.850
 7115SOL    HW222245   6.076   4.538   6.750
 7116SOL     OW22246   6.723   3.587   4.116
 7116SOL    HW122247   6.641   3.564   4.169
 7116SOL    HW222248   6.802   3.541   4.155
 7117SOL     OW22249   6.074   0.016   3.370
 7117SOL    HW122250   6.098   6.942   3.373
 7117SOL    HW222251   5.976   0.025   3.351
 7118SOL     OW22252   3.992   4.412   5.346
 7118SOL    HW122253   3.967   4.503   5.380
 7118SOL    HW222254   4.092   4.405   5.339
 7119SOL     OW22255   4.997   0.337   4.979
 7119SOL    HW122256   4.908   0.303   5.009
 7119SOL    HW222257   5.068   0.270   5.004
 7120SOL     OW22258   5.040   1.409   1.029
 7120SOL    HW122259   5.116   1.347   1.008
 7120SOL    HW222260   5.060   1.459   1.113
 7121SOL     OW22261   1.052   6.476   3.617
 7121SOL    HW122262   1.098   6.387   3.624
 7121SOL    HW222263   0.964   6.465   3.572
 7122SOL     OW22264   2.858   6.863   5.837
 7122SOL    HW122265   2.938   6.805   5.825
 7122SOL    HW222266   2.824   6.891   5.747
 7123SOL     OW22267   6.148   4.873   4.865
 7123SOL    HW122268   6.208   4.888   4.944
 7123SOL    HW222269   6.084   4.799   4.885
 7124SOL     OW22270   0.842   2.840   1.963
 7124SOL    HW122271   0.852   2.747   1.928
 7124SOL    HW222272   0.863   2.842   2.060
 7125SOL     OW22273   0.918   0.439   1.738
 7125SOL    HW122274   0.963   0.454   1.826
 7125SOL    HW222275   0.941   0.348   1.704
 7126SOL     OW22276   4.274   6.228   1.690
 7126SOL    HW122277   4.193   6.169   1.684
 7126SOL    HW222278   4.357   6.172   1.682
 7127SOL     OW22279   3.216   6.060   5.408
 7127SOL    HW122280   3.230   6.092   5.502
 7127SOL    HW222281   3.129   6.095   5.373
 7128SOL     OW22282   3.451   4.683   6.608
 7128SOL    HW122283   3.373   4.741   6.587
 7128SOL    HW222284   3.478   4.697   6.704
 7129SOL     OW22285   0.508   1.421   1.447
 7129SOL    HW122286   0.574   1.460   1.383
 7129SOL    HW222287   0.554   1.400   1.533
 7130SOL     OW22288   2.664   6.875   4.413
 7130SOL    HW122289   2.715   6.903   4.494
 7130SOL    HW222290   2.697   6.787   4.381
 7131SOL     OW22291   3.753   0.734   2.731
 7131SOL    HW122292   3.654   0.721   2.727
 7131SOL    HW222293   3.776   0.801   2.802
 7132SOL     OW22294   5.220   3.658   6.447
 7132SOL    HW122295   5.120   3.656   6.441
 7132SOL    HW222296   5.257   3.710   6.370
 7133SOL     OW22297   3.345   5.938   3.366
 7133SOL    HW122298   3.405   5.948   3.445
 7133SOL    HW222299   3.352   5.845   3.330
 7134SOL     OW22300   6.152   5.573   1.528
 7134SOL    HW122301   6.138   5.663   1.486
 7134SOL    HW222302   6.091   5.506   1.486
 7135SOL     OW22303   2.095   3.216   2.084
 7135SOL    HW122304   2.014   3.249   2.036
 7135SOL    HW222305   2.166   3.286   2.080
 7136SOL     OW22306   3.060   1.716   1.929
 7136SOL    HW122307   3.023   1.792   1.876
 7136SOL    HW222308   3.159   1.727   1.938
 7137SOL     OW22309   2.946   1.917   1.752
 7137SOL    HW122310   2.876   1.946   1.686
 7137SOL    HW222311   2.984   1.997   1.798
 7138SOL     OW22312   1.930   1.764   0.518
 7138SOL    HW122313   1.937   1.788   0.615
 7138SOL    HW222314   2.020   1.736   0.484
 7139SOL     OW22315   5.752   5.632   2.050
 7139SOL    HW122316   5.672   5.652   1.993
 7139SOL    HW222317   5.729   5.651   2.146
 7140SOL     OW22318   6.609   3.785   0.517
 7140SOL    HW122319   6.584   3.732   0.598
 7140SOL    HW222320   6.531   3.841   0.488
 7141SOL     OW22321   4.141   6.670   1.099
 7141SOL    HW122322   4.054   6.633   1.132
 7141SOL    HW222323   4.124   6.737   1.026
 7142SOL     OW22324   3.229   0.824   4.469
 7142SOL    HW122325   3.276   0.835   4.557
 7142SOL    HW222326   3.291   0.778   4.405
 7143SOL     OW22327   2.501   4.930   6.539
 7143SOL    HW122328   2.542   4.840   6.530
 7143SOL    HW222329   2.560   4.998   6.496
 7144SOL     OW22330   6.755   1.057   4.410
 7144SOL    HW122331   6.727   1.153   4.414
 7144SOL    HW222332   6.854   1.051   4.419
 7145SOL     OW22333   4.870   2.161   0.358
 7145SOL    HW122334   4.876   2.244   0.413
 7145SOL    HW222335   4.781   2.158   0.312
 7146SOL     OW22336   2.207   0.814   5.437
 7146SOL    HW122337   2.159   0.801   5.350
 7146SOL    HW222338   2.193   0.907   5.469
 7147SOL     OW22339   5.733   4.368   2.533
 7147SOL    HW122340   5.645   4.337   2.496
 7147SOL    HW222341   5.803   4.299   2.513
 7148SOL     OW22342   6.627   5.946   1.462
 7148SOL    HW122343   6.568   5.968   1.540
 7148SOL    HW222344   6.618   6.017   1.392
 7149SOL     OW22345   6.942   5.288   4.415
 7149SOL    HW122346   6.888   5.362   4.376
 7149SOL    HW222347   6.889   5.240   4.485
 7150SOL     OW22348   4.110   3.632   0.032
 7150SOL    HW122349   4.051   3.552   0.039
 7150SOL    HW222350   4.116   3.677   0.122
 7151SOL     OW22351   4.062   0.084   0.880
 7151SOL    HW122352   4.000   0.154   0.845
 7151SOL    HW222353   4.157   0.115   0.869
 7152SOL     OW22354   0.210   1.309   6.866
 7152SOL    HW122355   0.233   1.362   6.947
 7152SOL    HW222356   0.286   1.248   6.844
 7153SOL     OW22357   4.328   6.409   1.063
 7153SOL    HW122358   4.304   6.401   1.160
 7153SOL    HW222359   4.353   6.503   1.042
 7154SOL     OW22360   4.361   1.296   2.361
 7154SOL    HW122361   4.301   1.241   2.420
 7154SOL    HW222362   4.319   1.305   2.271
 7155SOL     OW22363   3.623   1.751   2.584
 7155SOL    HW122364   3.668   1.819   2.642
 7155SOL    HW222365   3.551   1.795   2.530
 7156SOL     OW22366   6.196   3.654   0.568
 7156SOL    HW122367   6.180   3.556   0.559
 7156SOL    HW222368   6.281   3.670   0.619
 7157SOL     OW22369   6.146   4.217   6.255
 7157SOL    HW122370   6.170   4.257   6.167
 7157SOL    HW222371   6.209   4.143   6.276
 7158SOL     OW22372   4.974   0.048   4.182
 7158SOL    HW122373   4.992   0.032   4.085
 7158SOL    HW222374   5.031   0.124   4.214
 7159SOL     OW22375   0.283   5.651   3.823
 7159SOL    HW122376   0.299   5.749   3.808
 7159SOL    HW222377   0.345   5.618   3.894
 7160SOL     OW22378   5.369   0.186   3.081
 7160SOL    HW122379   5.469   0.178   3.076
 7160SOL    HW222380   5.344   0.241   3.160
 7161SOL     OW22381   3.884   3.304   3.551
 7161SOL    HW122382   3.834   3.292   3.465
 7161SOL    HW222383   3.897   3.402   3.568
 7162SOL     OW22384   0.121   5.343   2.393
 7162SOL    HW122385   0.071   5.418   2.435
 7162SOL    HW222386   0.217   5.346   2.423
 7163SOL     OW22387   1.118   1.809   2.060
 7163SOL    HW122388   1.128   1.719   2.019
 7163SOL    HW222389   1.202   1.834   2.107
 7164SOL     OW22390   1.577   1.140   6.003
 7164SOL    HW122391   1.606   1.213   5.941
 7164SOL    HW222392   1.618   1.156   6.093
 7165SOL     OW22393   6.104   0.401   6.937
 7165SOL    HW122394   6.144   0.316   6.903
 7165SOL    HW222395   6.005   0.400   6.922
 7166SOL     OW22396   5.420   6.806   6.256
 7166SOL    HW122397   5.470   6.736   6.205
 7166SOL    HW222398   5.331   6.820   6.212
 7167SOL     OW22399   5.621   2.034   4.948
 7167SOL    HW122400   5.684   1.969   4.991
 7167SOL    HW222401   5.659   2.126   4.952
 7168SOL     OW22402   2.447   0.957   1.901
 7168SOL    HW122403   2.509   0.880   1.915
 7168SOL    HW222404   2.445   0.981   1.803
 7169SOL     OW22405   1.944   4.054   5.521
 7169SOL    HW122406   1.863   3.998   5.536
 7169SOL    HW222407   1.993   4.066   5.608
 7170SOL     OW22408   4.200   0.744   1.524
 7170SOL    HW122409   4.184   0.674   1.594
 7170SOL    HW222410   4.128   0.813   1.529
 7171SOL     OW22411   5.769   4.943   0.776
 7171SOL    HW122412   5.688   4.932   0.718
 7171SOL    HW222413   5.836   5.000   0.728
 7172SOL     OW22414   1.840   1.333   4.276
 7172SOL    HW122415   1.804   1.274   4.204
 7172SOL    HW222416   1.925   1.294   4.312
 7173SOL     OW22417   5.572   5.805   6.714
 7173SOL    HW122418   5.474   5.818   6.698
 7173SOL    HW222419   5.595   5.831   6.808
 7174SOL     OW22420   5.995   4.503   1.099
 7174SOL    HW122421   6.033   4.461   1.181
 7174SOL    HW222422   6.069   4.542   1.044
 7175SOL     OW22423   5.769   3.662   5.097
 7175SOL    HW122424   5.796   3.649   5.001
 7175SOL    HW222425   5.832   3.727   5.141
 7176SOL     OW22426   0.079   1.326   4.283
 7176SOL    HW122427   0.148   1.359   4.348
 7176SOL    HW222428   0.004   1.392   4.277
 7177SOL     OW22429   1.961   5.148   4.945
 7177SOL    HW122430   2.035   5.152   5.012
 7177SOL    HW222431   1.876   5.178   4.989
 7178SOL     OW22432   0.358   0.890   5.331
 7178SOL    HW122433   0.426   0.949   5.289
 7178SOL    HW222434   0.366   0.895   5.430
 7179SOL     OW22435   3.105   5.899   6.915
 7179SOL    HW122436   3.115   5.922   7.011
 7179SOL    HW222437   3.194   5.903   6.869
 7180SOL     OW22438   1.339   5.030   1.607
 7180SOL    HW122439   1.370   5.003   1.698
 7180SOL    HW222440   1.367   4.961   1.540
 7181SOL     OW22441   2.332   1.882   6.067
 7181SOL    HW122442   2.428   1.860   6.050
 7181SOL    HW222443   2.278   1.856   5.987
 7182SOL     OW22444   0.744   3.394   4.082
 7182SOL    HW122445   0.782   3.486   4.085
 7182SOL    HW222446   0.685   3.380   4.162
 7183SOL     OW22447   1.329   6.356   1.451
 7183SOL    HW122448   1.346   6.324   1.545
 7183SOL    HW222449   1.416   6.366   1.404
 7184SOL     OW22450   6.820   0.275   3.929
 7184SOL    HW122451   6.784   0.327   4.007
 7184SOL    HW222452   6.791   0.180   3.937
 7185SOL     OW22453   4.564   0.505   4.901
 7185SOL    HW122454   4.562   0.485   4.803
 7185SOL    HW222455   4.632   0.447   4.945
 7186SOL     OW22456   0.360   0.274   6.836
 7186SOL    HW122457   0.379   0.272   6.934
 7186SOL    HW222458   0.318   0.187   6.809
 7187SOL     OW22459   3.410   2.934   4.988
 7187SOL    HW122460   3.336   2.930   4.921
 7187SOL    HW222461   3.475   3.006   4.960
 7188SOL     OW22462   3.995   5.150   0.041
 7188SOL    HW122463   3.909   5.105   0.065
 7188SOL    HW222464   3.976   5.238   7.021
 7189SOL     OW22465   6.110   2.142   5.325
 7189SOL    HW122466   6.022   2.139   5.278
 7189SOL    HW222467   6.172   2.075   5.285
 7190SOL     OW22468   5.663   5.673   1.346
 7190SOL    HW122469   5.658   5.739   1.421
 7190SOL    HW222470   5.581   5.616   1.345
 7191SOL     OW22471   0.560   3.976   2.994
 7191SOL    HW122472   0.544   3.955   3.091
 7191SOL    HW222473   0.651   3.945   2.967
 7192SOL     OW22474   1.935   4.839   6.737
 7192SOL    HW122475   2.007   4.771   6.722
 7192SOL    HW222476   1.853   4.813   6.686
 7193SOL     OW22477   2.322   2.477   2.766
 7193SOL    HW122478   2.268   2.561   2.775
 7193SOL    HW222479   2.273   2.401   2.809
 7194SOL     OW22480   2.701   2.968   6.379
 7194SOL    HW122481   2.706   2.937   6.474
 7194SOL    HW222482   2.641   2.908   6.327
 7195SOL     OW22483   0.251   3.099   6.537
 7195SOL    HW122484   0.216   3.015   6.576
 7195SOL    HW222485   0.217   3.177   6.589
 7196SOL     OW22486   3.394   4.110   2.272
 7196SOL    HW122487   3.454   4.160   2.211
 7196SOL    HW222488   3.447   4.075   2.349
 7197SOL     OW22489   1.613   3.808   5.155
 7197SOL    HW122490   1.650   3.717   5.172
 7197SOL    HW222491   1.655   3.873   5.219
 7198SOL     OW22492   6.872   1.169   0.454
 7198SOL    HW122493   6.815   1.093   0.485
 7198SOL    HW222494   6.939   1.135   0.387
 7199SOL     OW22495   0.935   1.037   2.405
 7199SOL    HW122496   0.881   0.957   2.378
 7199SOL    HW222497   0.915   1.060   2.501
 7200SOL     OW22498   2.204   2.657   0.533
 7200SOL    HW122499   2.236   2.569   0.497
 7200SOL    HW222500   2.221   2.728   0.465
 7201SOL     OW22501   5.387   5.433   4.174
 7201SOL    HW122502   5.469   5.489   4.157
 7201SOL    HW222503   5.414   5.338   4.187
 7202SOL     OW22504   4.959   6.988   5.973
 7202SOL    HW122505   5.016   0.007   5.904
 7202SOL    HW222506   4.866   0.001   5.968
 7203SOL     OW22507   6.894   1.781   2.173
 7203SOL    HW122508   6.863   1.875   2.160
 7203SOL    HW222509   6.878   1.730   2.088
 7204SOL     OW22510   0.365   1.569   1.247
 7204SOL    HW122511   0.406   1.496   1.303
 7204SOL    HW222512   0.352   1.651   1.303
 7205SOL     OW22513   2.268   2.394   5.219
 7205SOL    HW122514   2.250   2.350   5.131
 7205SOL    HW222515   2.214   2.350   5.290
 7206SOL     OW22516   1.743   2.242   1.128
 7206SOL    HW122517   1.827   2.294   1.110
 7206SOL    HW222518   1.756   2.186   1.210
 7207SOL     OW22519   1.818   2.346   3.952
 7207SOL    HW122520   1.852   2.322   3.860
 7207SOL    HW222521   1.718   2.349   3.951
 7208SOL     OW22522   3.833   0.999   4.608
 7208SOL    HW122523   3.804   0.948   4.527
 7208SOL    HW222524   3.873   0.935   4.674
 7209SOL     OW22525   2.428   2.359   2.315
 7209SOL    HW122526   2.420   2.443   2.369
 7209SOL    HW222527   2.514   2.313   2.338
 7210SOL     OW22528   2.679   1.714   2.962
 7210SOL    HW122529   2.679   1.630   2.908
 7210SOL    HW222530   2.676   1.793   2.900
 7211SOL     OW22531   3.350   5.812   5.370
 7211SOL    HW122532   3.438   5.828   5.327
 7211SOL    HW222533   3.304   5.899   5.387
 7212SOL     OW22534   6.056   4.999   5.872
 7212SOL    HW122535   6.048   5.059   5.952
 7212SOL    HW222536   5.977   5.013   5.812
 7213SOL     OW22537   3.586   0.829   0.596
 7213SOL    HW122538   3.629   0.808   0.508
 7213SOL    HW222539   3.488   0.811   0.590
 7214SOL     OW22540   0.612   0.903   6.529
 7214SOL    HW122541   0.688   0.846   6.496
 7214SOL    HW222542   0.526   0.865   6.497
 7215SOL     OW22543   0.192   2.735   3.145
 7215SOL    HW122544   0.157   2.814   3.195
 7215SOL    HW222545   0.243   2.766   3.065
 7216SOL     OW22546   3.039   6.356   3.231
 7216SOL    HW122547   3.033   6.455   3.225
 7216SOL    HW222548   3.134   6.328   3.240
 7217SOL     OW22549   1.373   4.305   3.803
 7217SOL    HW122550   1.392   4.345   3.713
 7217SOL    HW222551   1.329   4.216   3.792
 7218SOL     OW22552   6.614   3.351   4.569
 7218SOL    HW122553   6.646   3.371   4.662
 7218SOL    HW222554   6.572   3.260   4.568
 7219SOL     OW22555   3.152   6.909   1.595
 7219SOL    HW122556   3.105   6.983   1.547
 7219SOL    HW222557   3.183   6.841   1.529
 7220SOL     OW22558   6.811   4.183   4.493
 7220SOL    HW122559   6.811   4.282   4.482
 7220SOL    HW222560   6.718   4.151   4.511
 7221SOL     OW22561   3.303   6.017   4.944
 7221SOL    HW122562   3.288   6.068   5.029
 7221SOL    HW222563   3.379   5.952   4.958
 7222SOL     OW22564   6.314   6.346   3.387
 7222SOL    HW122565   6.235   6.359   3.448
 7222SOL    HW222566   6.287   6.287   3.311
 7223SOL     OW22567   2.091   1.804   0.995
 7223SOL    HW122568   2.166   1.870   0.993
 7223SOL    HW222569   2.116   1.726   1.052
 7224SOL     OW22570   4.478   1.971   3.639
 7224SOL    HW122571   4.451   2.063   3.611
 7224SOL    HW222572   4.560   1.977   3.696
 7225SOL     OW22573   1.612   6.896   0.636
 7225SOL    HW122574   1.621   6.829   0.709
 7225SOL    HW222575   1.698   6.904   0.587
 7226SOL     OW22576   5.685   1.091   0.314
 7226SOL    HW122577   5.763   1.128   0.365
 7226SOL    HW222578   5.621   1.049   0.378
 7227SOL     OW22579   2.421   0.772   2.292
 7227SOL    HW122580   2.415   0.815   2.382
 7227SOL    HW222581   2.516   0.777   2.259
 7228SOL     OW22582   0.644   1.872   2.611
 7228SOL    HW122583   0.557   1.921   2.615
 7228SOL    HW222584   0.701   1.911   2.539
 7229SOL     OW22585   6.651   0.344   4.441
 7229SOL    HW122586   6.718   0.419   4.436
 7229SOL    HW222587   6.604   0.348   4.529
 7230SOL     OW22588   2.741   5.063   4.004
 7230SOL    HW122589   2.677   4.989   3.983
 7230SOL    HW222590   2.805   5.033   4.075
 7231SOL     OW22591   4.130   1.520   6.748
 7231SOL    HW122592   4.096   1.499   6.657
 7231SOL    HW222593   4.056   1.508   6.815
 7232SOL     OW22594   5.270   0.054   2.498
 7232SOL    HW122595   5.232   0.001   2.574
 7232SOL    HW222596   5.210   0.133   2.480
 7233SOL     OW22597   5.795   1.885   5.918
 7233SOL    HW122598   5.879   1.836   5.895
 7233SOL    HW222599   5.783   1.886   6.017
 7234SOL     OW22600   4.936   3.618   3.120
 7234SOL    HW122601   4.885   3.600   3.204
 7234SOL    HW222602   4.919   3.712   3.090
 7235SOL     OW22603   6.603   5.662   1.723
 7235SOL    HW122604   6.518   5.715   1.726
 7235SOL    HW222605   6.642   5.667   1.631
 7236SOL     OW22606   1.743   2.957   3.062
 7236SOL    HW122607   1.671   2.900   3.022
 7236SOL    HW222608   1.804   2.900   3.118
 7237SOL     OW22609   5.226   0.413   6.871
 7237SOL    HW122610   5.272   0.450   6.951
 7237SOL    HW222611   5.289   0.412   6.793
 7238SOL     OW22612   4.740   2.761   6.981
 7238SOL    HW122613   4.706   2.822   0.029
 7238SOL    HW222614   4.831   2.727   7.008
 7239SOL     OW22615   0.441   3.551   2.157
 7239SOL    HW122616   0.369   3.591   2.213
 7239SOL    HW222617   0.434   3.451   2.160
 7240SOL     OW22618   6.743   1.616   5.954
 7240SOL    HW122619   6.755   1.660   6.043
 7240SOL    HW222620   6.701   1.526   5.967
 7241SOL     OW22621   2.074   0.826   0.755
 7241SOL    HW122622   2.098   0.845   0.850
 7241SOL    HW222623   2.147   0.858   0.694
 7242SOL     OW22624   0.339   5.790   4.721
 7242SOL    HW122625   0.432   5.759   4.736
 7242SOL    HW222626   0.338   5.861   4.651
 7243SOL     OW22627   0.097   3.803   5.957
 7243SOL    HW122628   0.007   3.778   5.991
 7243SOL    HW222629   0.110   3.765   5.865
 7244SOL     OW22630   0.308   6.658   0.243
 7244SOL    HW122631   0.256   6.735   0.206
 7244SOL    HW222632   0.245   6.592   0.284
 7245SOL     OW22633   1.631   2.473   7.016
 7245SOL    HW122634   1.693   2.508   6.946
 7245SOL    HW222635   1.633   2.373   7.015
 7246SOL     OW22636   2.979   0.757   4.754
 7246SOL    HW122637   2.913   0.683   4.763
 7246SOL    HW222638   2.962   0.807   4.669
 7247SOL     OW22639   3.000   2.445   5.598
 7247SOL    HW122640   3.094   2.469   5.623
 7247SOL    HW222641   2.992   2.444   5.498
 7248SOL     OW22642   3.170   0.362   4.050
 7248SOL    HW122643   3.261   0.403   4.055
 7248SOL    HW222644   3.144   0.326   4.139
 7249SOL     OW22645   4.204   4.638   1.968
 7249SOL    HW122646   4.188   4.585   1.884
 7249SOL    HW222647   4.297   4.621   2.000
 7250SOL     OW22648   5.400   4.817   5.838
 7250SOL    HW122649   5.416   4.914   5.822
 7250SOL    HW222650   5.479   4.777   5.883
 7251SOL     OW22651   0.900   6.550   5.817
 7251SOL    HW122652   0.828   6.552   5.748
 7251SOL    HW222653   0.981   6.596   5.783
 7252SOL     OW22654   3.190   3.982   2.125
 7252SOL    HW122655   3.121   4.038   2.078
 7252SOL    HW222656   3.263   4.041   2.159
 7253SOL     OW22657   1.540   6.642   6.003
 7253SOL    HW122658   1.460   6.633   5.943
 7253SOL    HW222659   1.621   6.611   5.954
 7254SOL     OW22660   5.758   4.592   3.636
 7254SOL    HW122661   5.714   4.637   3.714
 7254SOL    HW222662   5.720   4.500   3.625
 7255SOL     OW22663   5.220   3.179   6.603
 7255SOL    HW122664   5.315   3.209   6.614
 7255SOL    HW222665   5.159   3.254   6.631
 7256SOL     OW22666   3.637   6.690   5.346
 7256SOL    HW122667   3.667   6.782   5.319
 7256SOL    HW222668   3.551   6.669   5.301
 7257SOL     OW22669   0.333   1.711   4.911
 7257SOL    HW122670   0.329   1.769   4.830
 7257SOL    HW222671   0.317   1.767   4.992
 7258SOL     OW22672   5.640   2.678   1.474
 7258SOL    HW122673   5.600   2.750   1.418
 7258SOL    HW222674   5.734   2.660   1.444
 7259SOL     OW22675   1.373   3.562   3.350
 7259SOL    HW122676   1.377   3.592   3.255
 7259SOL    HW222677   1.278   3.557   3.380
 7260SOL     OW22678   5.324   2.597   1.042
 7260SOL    HW122679   5.232   2.636   1.049
 7260SOL    HW222680   5.340   2.537   1.120
 7261SOL     OW22681   0.500   3.830   0.931
 7261SOL    HW122682   0.552   3.914   0.950
 7261SOL    HW222683   0.562   3.760   0.896
 7262SOL     OW22684   5.515   1.443   6.110
 7262SOL    HW122685   5.584   1.393   6.059
 7262SOL    HW222686   5.553   1.531   6.140
 7263SOL     OW22687   0.590   6.713   0.537
 7263SOL    HW122688   0.598   6.731   0.438
 7263SOL    HW222689   0.494   6.716   0.563
 7264SOL     OW22690   5.929   1.011   0.910
 7264SOL    HW122691   5.923   1.097   0.860
 7264SOL    HW222692   5.967   1.028   1.001
 7265SOL     OW22693   5.313   5.434   4.472
 7265SOL    HW122694   5.286   5.416   4.378
 7265SOL    HW222695   5.276   5.363   4.532
 7266SOL     OW22696   0.050   0.538   3.655
 7266SOL    HW122697   0.091   0.484   3.728
 7266SOL    HW222698   6.998   0.593   3.692
 7267SOL     OW22699   6.407   6.439   5.002
 7267SOL    HW122700   6.431   6.518   5.058
 7267SOL    HW222701   6.346   6.468   4.928
 7268SOL     OW22702   6.788   5.527   4.403
 7268SOL    HW122703   6.730   5.577   4.467
 7268SOL    HW222704   6.735   5.501   4.323
 7269SOL     OW22705   1.840   6.117   5.943
 7269SOL    HW122706   1.830   6.164   6.030
 7269SOL    HW222707   1.921   6.058   5.945
 7270SOL     OW22708   6.967   1.783   4.225
 7270SOL    HW122709   6.918   1.742   4.147
 7270SOL    HW222710   0.037   1.802   4.198
 7271SOL     OW22711   1.702   4.925   4.117
 7271SOL    HW122712   1.638   4.927   4.039
 7271SOL    HW222713   1.689   4.839   4.167
 7272SOL     OW22714   6.478   6.277   2.026
 7272SOL    HW122715   6.435   6.190   2.004
 7272SOL    HW222716   6.572   6.262   2.058
 7273SOL     OW22717   5.146   3.264   6.037
 7273SOL    HW122718   5.170   3.193   6.103
 7273SOL    HW222719   5.228   3.311   6.006
 7274SOL     OW22720   0.211   4.440   6.664
 7274SOL    HW122721   0.203   4.429   6.564
 7274SOL    HW222722   0.193   4.536   6.688
 7275SOL     OW22723   0.084   6.735   2.583
 7275SOL    HW122724   0.005   6.673   2.592
 7275SOL    HW222725   0.052   6.829   2.578
 7276SOL     OW22726   5.569   0.085   3.962
 7276SOL    HW122727   5.488   0.028   3.975
 7276SOL    HW222728   5.631   0.040   3.897
 7277SOL     OW22729   5.081   0.572   5.971
 7277SOL    HW122730   5.108   0.656   5.924
 7277SOL    HW222731   5.136   0.496   5.938
 7278SOL     OW22732   3.075   4.074   1.879
 7278SOL    HW122733   3.164   4.035   1.856
 7278SOL    HW222734   3.042   4.131   1.804
 7279SOL     OW22735   4.076   6.340   0.031
 7279SOL    HW122736   4.132   6.325   0.113
 7279SOL    HW222737   4.038   6.253   0.000
 7280SOL     OW22738   5.758   7.014   5.124
 7280SOL    HW122739   5.732   0.050   5.048
 7280SOL    HW222740   5.762   6.919   5.092
 7281SOL     OW22741   2.782   1.546   0.184
 7281SOL    HW122742   2.752   1.612   0.253
 7281SOL    HW222743   2.761   1.581   0.093
 7282SOL     OW22744   6.323   5.017   2.752
 7282SOL    HW122745   6.298   5.111   2.772
 7282SOL    HW222746   6.308   4.960   2.833
 7283SOL     OW22747   2.787   1.244   3.478
 7283SOL    HW122748   2.827   1.326   3.519
 7283SOL    HW222749   2.689   1.242   3.498
 7284SOL     OW22750   0.301   3.737   5.322
 7284SOL    HW122751   0.387   3.704   5.361
 7284SOL    HW222752   0.224   3.695   5.370
 7285SOL     OW22753   5.508   4.358   2.324
 7285SOL    HW122754   5.572   4.399   2.260
 7285SOL    HW222755   5.467   4.430   2.381
 7286SOL     OW22756   2.905   1.726   1.001
 7286SOL    HW122757   2.954   1.739   0.914
 7286SOL    HW222758   2.965   1.682   1.067
 7287SOL     OW22759   0.984   2.431   6.472
 7287SOL    HW122760   1.031   2.397   6.554
 7287SOL    HW222761   1.035   2.509   6.434
 7288SOL     OW22762   4.102   0.523   6.457
 7288SOL    HW122763   4.100   0.553   6.552
 7288SOL    HW222764   4.077   0.599   6.397
 7289SOL     OW22765   5.921   1.657   3.381
 7289SOL    HW122766   5.993   1.698   3.325
 7289SOL    HW222767   5.841   1.718   3.382
 7290SOL     OW22768   2.508   5.931   5.531
 7290SOL    HW122769   2.575   5.857   5.530
 7290SOL    HW222770   2.510   5.979   5.444
 7291SOL     OW22771   2.032   0.380   1.430
 7291SOL    HW122772   2.075   0.444   1.366
 7291SOL    HW222773   1.936   0.368   1.406
 7292SOL     OW22774   2.473   0.615   4.379
 7292SOL    HW122775   2.559   0.610   4.328
 7292SOL    HW222776   2.404   0.659   4.322
 7293SOL     OW22777   1.619   1.497   4.983
 7293SOL    HW122778   1.557   1.481   5.059
 7293SOL    HW222779   1.630   1.595   4.968
 7294SOL     OW22780   2.912   5.325   1.053
 7294SOL    HW122781   2.985   5.269   1.013
 7294SOL    HW222782   2.899   5.298   1.149
 7295SOL     OW22783   0.895   2.776   0.624
 7295SOL    HW122784   0.969   2.754   0.561
 7295SOL    HW222785   0.932   2.798   0.714
 7296SOL     OW22786   2.928   4.607   1.170
 7296SOL    HW122787   2.883   4.523   1.202
 7296SOL    HW222788   2.890   4.633   1.081
 7297SOL     OW22789   3.945   6.089   0.922
 7297SOL    HW122790   3.867   6.149   0.906
 7297SOL    HW222791   4.021   6.143   0.958
 7298SOL     OW22792   5.120   4.197   5.723
 7298SOL    HW122793   5.082   4.289   5.728
 7298SOL    HW222794   5.103   4.159   5.632
 7299SOL     OW22795   0.435   1.999   6.891
 7299SOL    HW122796   0.523   2.042   6.873
 7299SOL    HW222797   0.441   1.901   6.873
 7300SOL     OW22798   5.768   4.921   2.041
 7300SOL    HW122799   5.754   4.945   1.945
 7300SOL    HW222800   5.861   4.885   2.053
 7301SOL     OW22801   6.094   1.033   4.698
 7301SOL    HW122802   6.082   0.955   4.759
 7301SOL    HW222803   6.079   1.003   4.603
 7302SOL     OW22804   0.136   1.458   6.615
 7302SOL    HW122805   0.043   1.470   6.579
 7302SOL    HW222806   0.132   1.427   6.709
 7303SOL     OW22807   4.937   0.671   6.545
 7303SOL    HW122808   5.002   0.641   6.475
 7303SOL    HW222809   4.964   0.634   6.634
 7304SOL     OW22810   3.437   4.668   0.110
 7304SOL    HW122811   3.524   4.667   0.160
 7304SOL    HW222812   3.365   4.703   0.170
 7305SOL     OW22813   4.590   1.740   0.900
 7305SOL    HW122814   4.566   1.647   0.928
 7305SOL    HW222815   4.507   1.792   0.882
 7306SOL     OW22816   5.100   3.309   1.101
 7306SOL    HW122817   5.108   3.408   1.109
 7306SOL    HW222818   5.109   3.268   1.192
 7307SOL     OW22819   3.049   0.128   1.535
 7307SOL    HW122820   3.075   0.170   1.622
 7307SOL    HW222821   2.981   0.187   1.490
 7308SOL     OW22822   0.086   3.952   5.594
 7308SOL    HW122823   0.159   4.006   5.552
 7308SOL    HW222824   0.021   4.014   5.639
 7309SOL     OW22825   5.365   6.246   0.497
 7309SOL    HW122826   5.333   6.174   0.435
 7309SOL    HW222827   5.312   6.329   0.480
 7310SOL     OW22828   1.551   3.787   1.413
 7310SOL    HW122829   1.566   3.781   1.512
 7310SOL    HW222830   1.466   3.836   1.395
 7311SOL     OW22831   3.686   2.064   2.168
 7311SOL    HW122832   3.684   2.136   2.100
 7311SOL    HW222833   3.600   2.012   2.165
 7312SOL     OW22834   0.431   3.127   5.754
 7312SOL    HW122835   0.493   3.184   5.807
 7312SOL    HW222836   0.363   3.184   5.709
 7313SOL     OW22837   4.359   2.293   6.148
 7313SOL    HW122838   4.293   2.292   6.223
 7313SOL    HW222839   4.447   2.328   6.181
 7314SOL     OW22840   6.727   3.852   5.396
 7314SOL    HW122841   6.653   3.907   5.358
 7314SOL    HW222842   6.724   3.760   5.357
 7315SOL     OW22843   6.686   0.367   2.883
 7315SOL    HW122844   6.672   0.444   2.945
 7315SOL    HW222845   6.719   0.288   2.934
 7316SOL     OW22846   3.176   3.396   6.179
 7316SOL    HW122847   3.112   3.405   6.103
 7316SOL    HW222848   3.221   3.484   6.195
 7317SOL     OW22849   4.523   0.921   2.293
 7317SOL    HW122850   4.601   0.905   2.354
 7317SOL    HW222851   4.448   0.962   2.345
 7318SOL     OW22852   0.910   1.693   0.947
 7318SOL    HW122853   0.987   1.642   0.985
 7318SOL    HW222854   0.913   1.689   0.847
 7319SOL     OW22855   6.361   3.670   6.184
 7319SOL    HW122856   6.301   3.606   6.231
 7319SOL    HW222857   6.312   3.755   6.166
 7320SOL     OW22858   6.557   3.604   1.633
 7320SOL    HW122859   6.636   3.658   1.663
 7320SOL    HW222860   6.492   3.664   1.587
 7321SOL     OW22861   3.029   6.631   5.332
 7321SOL    HW122862   2.944   6.627   5.386
 7321SOL    HW222863   3.040   6.723   5.295
 7322SOL     OW22864   0.914   2.542   2.699
 7322SOL    HW122865   0.888   2.494   2.783
 7322SOL    HW222866   0.909   2.480   2.622
 7323SOL     OW22867   1.813   2.319   1.835
 7323SOL    HW122868   1.816   2.396   1.771
 7323SOL    HW222869   1.818   2.354   1.929
 7324SOL     OW22870   5.199   6.336   2.486
 7324SOL    HW122871   5.145   6.406   2.533
 7324SOL    HW222872   5.148   6.302   2.407
 7325SOL     OW22873   3.958   6.826   6.348
 7325SOL    HW122874   3.988   6.879   6.427
 7325SOL    HW222875   3.882   6.767   6.373
 7326SOL     OW22876   2.330   6.326   5.289
 7326SOL    HW122877   2.310   6.262   5.215
 7326SOL    HW222878   2.326   6.420   5.255
 7327SOL     OW22879   6.501   3.085   5.221
 7327SOL    HW122880   6.428   3.064   5.155
 7327SOL    HW222881   6.588   3.049   5.187
 7328SOL     OW22882   3.431   0.390   6.448
 7328SOL    HW122883   3.368   0.351   6.380
 7328SOL    HW222884   3.512   0.426   6.403
 7329SOL     OW22885   4.547   3.690   1.692
 7329SOL    HW122886   4.549   3.769   1.753
 7329SOL    HW222887   4.599   3.712   1.609
 7330SOL     OW22888   3.110   2.017   6.894
 7330SOL    HW122889   3.159   2.058   6.818
 7330SOL    HW222890   3.074   2.089   6.953
 7331SOL     OW22891   5.477   6.976   1.557
 7331SOL    HW122892   5.459   0.022   1.488
 7331SOL    HW222893   5.575   6.972   1.577
 7332SOL     OW22894   2.332   5.946   0.349
 7332SOL    HW122895   2.252   5.908   0.396
 7332SOL    HW222896   2.415   5.909   0.390
 7333SOL     OW22897   0.088   3.067   3.696
 7333SOL    HW122898   0.025   3.141   3.720
 7333SOL    HW222899   0.160   3.060   3.766
 7334SOL     OW22900   3.957   5.892   6.812
 7334SOL    HW122901   3.982   5.821   6.878
 7334SOL    HW222902   3.943   5.850   6.722
 7335SOL     OW22903   1.888   2.939   2.600
 7335SOL    HW122904   1.809   2.962   2.544
 7335SOL    HW222905   1.883   2.988   2.687
 7336SOL     OW22906   1.720   6.179   3.074
 7336SOL    HW122907   1.716   6.278   3.085
 7336SOL    HW222908   1.627   6.142   3.074
 7337SOL     OW22909   0.357   2.807   2.274
 7337SOL    HW122910   0.454   2.782   2.271
 7337SOL    HW222911   0.317   2.795   2.184
 7338SOL     OW22912   6.385   2.754   1.552
 7338SOL    HW122913   6.481   2.734   1.529
 7338SOL    HW222914   6.363   2.846   1.522
 7339SOL     OW22915   4.953   5.927   3.510
 7339SOL    HW122916   4.946   5.847   3.570
 7339SOL    HW222917   4.868   5.980   3.517
 7340SOL     OW22918   1.629   1.169   0.283
 7340SOL    HW122919   1.636   1.241   0.214
 7340SOL    HW222920   1.655   1.082   0.243
 7341SOL     OW22921   0.157   2.436   6.701
 7341SOL    HW122922   0.060   2.423   6.682
 7341SOL    HW222923   0.200   2.348   6.719
 7342SOL     OW22924   6.499   1.001   1.530
 7342SOL    HW122925   6.540   1.046   1.610
 7342SOL    HW222926   6.453   0.917   1.559
 7343SOL     OW22927   4.253   3.113   0.108
 7343SOL    HW122928   4.243   3.189   0.044
 7343SOL    HW222929   4.262   3.149   0.201
 7344SOL     OW22930   1.097   6.859   6.061
 7344SOL    HW122931   1.165   6.796   6.099
 7344SOL    HW222932   1.129   6.892   5.972
 7345SOL     OW22933   3.662   3.377   5.607
 7345SOL    HW122934   3.565   3.400   5.609
 7345SOL    HW222935   3.686   3.340   5.518
 7346SOL     OW22936   3.935   6.518   2.958
 7346SOL    HW122937   4.019   6.499   2.907
 7346SOL    HW222938   3.891   6.432   2.984
 7347SOL     OW22939   0.518   1.958   0.427
 7347SOL    HW122940   0.610   1.955   0.466
 7347SOL    HW222941   0.475   1.867   0.434
 7348SOL     OW22942   1.178   3.449   4.099
 7348SOL    HW122943   1.209   3.354   4.092
 7348SOL    HW222944   1.147   3.466   4.193
 7349SOL     OW22945   4.088   0.202   1.740
 7349SOL    HW122946   4.113   0.297   1.754
 7349SOL    HW222947   3.995   0.186   1.774
 7350SOL     OW22948   2.573   1.625   5.443
 7350SOL    HW122949   2.535   1.597   5.531
 7350SOL    HW222950   2.577   1.725   5.438
 7351SOL     OW22951   5.462   5.425   3.210
 7351SOL    HW122952   5.430   5.513   3.176
 7351SOL    HW222953   5.403   5.352   3.174
 7352SOL     OW22954   1.473   2.059   2.697
 7352SOL    HW122955   1.387   2.092   2.659
 7352SOL    HW222956   1.519   2.001   2.630
 7353SOL     OW22957   0.610   0.519   6.771
 7353SOL    HW122958   0.618   0.470   6.684
 7353SOL    HW222959   0.689   0.578   6.784
 7354SOL     OW22960   2.120   0.776   4.412
 7354SOL    HW122961   2.039   0.809   4.461
 7354SOL    HW222962   2.155   0.848   4.354
 7355SOL     OW22963   0.324   2.191   6.480
 7355SOL    HW122964   0.262   2.264   6.452
 7355SOL    HW222965   0.417   2.215   6.453
 7356SOL     OW22966   3.807   4.445   6.055
 7356SOL    HW122967   3.783   4.503   5.977
 7356SOL    HW222968   3.856   4.364   6.021
 7357SOL     OW22969   3.410   6.039   2.138
 7357SOL    HW122970   3.326   6.075   2.098
 7357SOL    HW222971   3.430   5.950   2.098
 7358SOL     OW22972   6.156   3.251   2.180
 7358SOL    HW122973   6.136   3.207   2.268
 7358SOL    HW222974   6.142   3.185   2.107
 7359SOL     OW22975   4.511   2.610   5.771
 7359SOL    HW122976   4.546   2.516   5.770
 7359SOL    HW222977   4.550   2.659   5.849
 7360SOL     OW22978   2.023   3.676   5.398
 7360SOL    HW122979   2.013   3.717   5.488
 7360SOL    HW222980   2.080   3.735   5.340
 7361SOL     OW22981   5.236   0.724   2.655
 7361SOL    HW122982   5.155   0.724   2.597
 7361SOL    HW222983   5.240   0.808   2.709
 7362SOL     OW22984   3.076   5.664   6.594
 7362SOL    HW122985   3.020   5.741   6.563
 7362SOL    HW222986   3.027   5.578   6.578
 7363SOL     OW22987   4.453   0.702   1.429
 7363SOL    HW122988   4.429   0.641   1.353
 7363SOL    HW222989   4.373   0.717   1.486
 7364SOL     OW22990   4.658   0.215   2.017
 7364SOL    HW122991   4.583   0.155   1.989
 7364SOL    HW222992   4.678   0.280   1.944
 7365SOL     OW22993   0.110   5.936   2.585
 7365SOL    HW122994   0.056   5.887   2.653
 7365SOL    HW222995   0.149   6.018   2.626
 7366SOL     OW22996   2.014   0.003   4.944
 7366SOL    HW122997   1.975   6.966   5.013
 7366SOL    HW222998   1.991   6.992   4.853
 7367SOL     OW22999   4.123   2.220   0.499
 7367SOL    HW123000   4.041   2.246   0.448
 7367SOL    HW223001   4.104   2.224   0.597
 7368SOL     OW23002   3.538   2.931   2.859
 7368SOL    HW123003   3.612   2.995   2.879
 7368SOL    HW223004   3.562   2.876   2.779
 7369SOL     OW23005   3.648   2.429   0.975
 7369SOL    HW123006   3.571   2.483   1.009
 7369SOL    HW223007   3.702   2.396   1.053
 7370SOL     OW23008   2.479   2.170   5.243
 7370SOL    HW123009   2.419   2.105   5.288
 7370SOL    HW223010   2.425   2.234   5.189
 7371SOL     OW23011   3.396   6.667   3.768
 7371SOL    HW123012   3.305   6.683   3.730
 7371SOL    HW223013   3.394   6.587   3.828
 7372SOL     OW23014   4.273   6.640   4.828
 7372SOL    HW123015   4.293   6.555   4.780
 7372SOL    HW223016   4.279   6.625   4.926
 7373SOL     OW23017   5.357   1.936   4.942
 7373SOL    HW123018   5.350   1.868   4.869
 7373SOL    HW223019   5.446   1.981   4.937
 7374SOL     OW23020   1.429   1.862   4.807
 7374SOL    HW123021   1.348   1.824   4.764
 7374SOL    HW223022   1.463   1.800   4.878
 7375SOL     OW23023   2.340   2.747   1.934
 7375SOL    HW123024   2.397   2.696   1.998
 7375SOL    HW223025   2.273   2.686   1.893
 7376SOL     OW23026   1.246   3.134   1.596
 7376SOL    HW123027   1.172   3.202   1.599
 7376SOL    HW223028   1.258   3.103   1.502
 7377SOL     OW23029   3.908   5.206   1.048
 7377SOL    HW123030   3.912   5.288   1.106
 7377SOL    HW223031   3.974   5.138   1.081
 7378SOL     OW23032   1.712   6.809   4.006
 7378SOL    HW123033   1.790   6.751   3.983
 7378SOL    HW223034   1.659   6.765   4.079
 7379SOL     OW23035   2.743   0.403   1.957
 7379SOL    HW123036   2.666   0.462   1.978
 7379SOL    HW223037   2.711   0.310   1.938
 7380SOL     OW23038   6.202   4.125   3.831
 7380SOL    HW123039   6.207   4.201   3.766
 7380SOL    HW223040   6.257   4.146   3.911
 7381SOL     OW23041   4.219   2.871   0.728
 7381SOL    HW123042   4.233   2.805   0.654
 7381SOL    HW223043   4.164   2.829   0.801
 7382SOL     OW23044   6.503   1.996   5.995
 7382SOL    HW123045   6.571   1.926   6.018
 7382SOL    HW223046   6.419   1.980   6.046
 7383SOL     OW23047   2.191   5.989   2.048
 7383SOL    HW123048   2.106   6.029   2.082
 7383SOL    HW223049   2.180   5.965   1.951
 7384SOL     OW23050   6.842   6.910   1.188
 7384SOL    HW123051   6.890   6.990   1.225
 7384SOL    HW223052   6.777   6.939   1.118
 7385SOL     OW23053   3.096   5.024   2.623
 7385SOL    HW123054   3.162   4.965   2.670
 7385SOL    HW223055   3.144   5.099   2.579
 7386SOL     OW23056   6.998   3.024   6.621
 7386SOL    HW123057   7.021   3.071   6.706
 7386SOL    HW223058   6.951   2.938   6.642
 7387SOL     OW23059   6.366   5.175   6.054
 7387SOL    HW123060   6.297   5.247   6.041
 7387SOL    HW223061   6.417   5.163   5.968
 7388SOL     OW23062   0.972   5.275   3.152
 7388SOL    HW123063   0.948   5.362   3.109
 7388SOL    HW223064   1.068   5.254   3.134
 7389SOL     OW23065   0.333   3.412   0.396
 7389SOL    HW123066   0.357   3.357   0.316
 7389SOL    HW223067   0.241   3.450   0.385
 7390SOL     OW23068   2.790   1.933   2.149
 7390SOL    HW123069   2.704   1.945   2.198
 7390SOL    HW223070   2.842   1.857   2.190
 7391SOL     OW23071   4.135   3.518   2.684
 7391SOL    HW123072   4.128   3.597   2.744
 7391SOL    HW223073   4.085   3.441   2.723
 7392SOL     OW23074   3.454   6.423   6.820
 7392SOL    HW123075   3.364   6.382   6.804
 7392SOL    HW223076   3.502   6.434   6.733
 7393SOL     OW23077   6.764   4.576   3.297
 7393SOL    HW123078   6.699   4.590   3.222
 7393SOL    HW223079   6.762   4.655   3.358
 7394SOL     OW23080   1.963   3.006   6.641
 7394SOL    HW123081   1.983   3.095   6.681
 7394SOL    HW223082   2.006   2.999   6.551
 7395SOL     OW23083   2.186   3.314   1.517
 7395SOL    HW123084   2.214   3.298   1.611
 7395SOL    HW223085   2.172   3.411   1.502
 7396SOL     OW23086   2.369   5.912   1.498
 7396SOL    HW123087   2.443   5.856   1.535
 7396SOL    HW223088   2.336   5.974   1.569
 7397SOL     OW23089   4.897   3.548   4.384
 7397SOL    HW123090   4.965   3.594   4.327
 7397SOL    HW223091   4.885   3.599   4.469
 7398SOL     OW23092   1.447   4.959   3.283
 7398SOL    HW123093   1.425   5.056   3.271
 7398SOL    HW223094   1.526   4.935   3.228
 7399SOL     OW23095   6.437   2.962   4.203
 7399SOL    HW123096   6.366   2.913   4.253
 7399SOL    HW223097   6.414   3.059   4.199
 7400SOL     OW23098   4.698   2.222   5.220
 7400SOL    HW123099   4.723   2.318   5.210
 7400SOL    HW223100   4.599   2.214   5.233
 7401SOL     OW23101   1.670   2.902   3.457
 7401SOL    HW123102   1.733   2.973   3.427
 7401SOL    HW223103   1.640   2.848   3.378
 7402SOL     OW23104   2.570   5.237   5.627
 7402SOL    HW123105   2.612   5.159   5.580
 7402SOL    HW223106   2.576   5.223   5.726
 7403SOL     OW23107   1.901   3.148   3.200
 7403SOL    HW123108   1.990   3.118   3.166
 7403SOL    HW223109   1.829   3.099   3.152
 7404SOL     OW23110   3.267   4.124   1.410
 7404SOL    HW123111   3.273   4.132   1.509
 7404SOL    HW223112   3.176   4.092   1.384
 7405SOL     OW23113   2.981   5.270   5.215
 7405SOL    HW123114   2.977   5.211   5.135
 7405SOL    HW223115   3.030   5.222   5.289
 7406SOL     OW23116   0.650   1.437   5.218
 7406SOL    HW123117   0.565   1.488   5.230
 7406SOL    HW223118   0.727   1.500   5.217
 7407SOL     OW23119   0.913   6.385   6.975
 7407SOL    HW123120   0.884   6.436   6.894
 7407SOL    HW223121   0.837   6.330   7.009
 7408SOL     OW23122   3.185   4.339   5.578
 7408SOL    HW123123   3.112   4.357   5.644
 7408SOL    HW223124   3.242   4.263   5.610
 7409SOL     OW23125   5.398   4.031   6.861
 7409SOL    HW123126   5.451   3.985   6.932
 7409SOL    HW223127   5.447   4.024   6.774
 7410SOL     OW23128   0.262   0.508   0.456
 7410SOL    HW123129   0.229   0.602   0.464
 7410SOL    HW223130   0.201   0.457   0.395
 7411SOL     OW23131   1.593   1.382   5.829
 7411SOL    HW123132   1.667   1.444   5.805
 7411SOL    HW223133   1.540   1.360   5.747
 7412SOL     OW23134   4.206   0.064   0.406
 7412SOL    HW123135   4.168   0.079   0.315
 7412SOL    HW223136   4.296   0.105   0.413
 7413SOL     OW23137   4.974   4.547   2.997
 7413SOL    HW123138   4.897   4.581   2.943
 7413SOL    HW223139   5.058   4.552   2.943
 7414SOL     OW23140   2.284   2.214   4.448
 7414SOL    HW123141   2.369   2.178   4.410
 7414SOL    HW223142   2.301   2.305   4.485
 7415SOL     OW23143   3.199   6.631   6.649
 7415SOL    HW123144   3.199   6.610   6.747
 7415SOL    HW223145   3.106   6.649   6.619
 7416SOL     OW23146   1.241   0.967   2.706
 7416SOL    HW123147   1.214   1.049   2.655
 7416SOL    HW223148   1.160   0.913   2.728
 7417SOL     OW23149   1.542   2.362   3.307
 7417SOL    HW123150   1.512   2.336   3.215
 7417SOL    HW223151   1.518   2.458   3.324
 7418SOL     OW23152   1.700   4.760   6.621
 7418SOL    HW123153   1.658   4.670   6.630
 7418SOL    HW223154   1.706   4.784   6.524
 7419SOL     OW23155   6.135   3.423   3.435
 7419SOL    HW123156   6.205   3.357   3.463
 7419SOL    HW223157   6.051   3.405   3.486
 7420SOL     OW23158   6.753   6.037   1.846
 7420SOL    HW123159   6.690   6.030   1.923
 7420SOL    HW223160   6.803   5.951   1.836
 7421SOL     OW23161   4.847   3.705   1.152
 7421SOL    HW123162   4.794   3.639   1.099
 7421SOL    HW223163   4.943   3.701   1.124
 7422SOL     OW23164   6.360   3.386   2.087
 7422SOL    HW123165   6.392   3.374   2.181
 7422SOL    HW223166   6.263   3.364   2.082
 7423SOL     OW23167   5.787   1.966   5.524
 7423SOL    HW123168   5.735   2.006   5.448
 7423SOL    HW223169   5.732   1.895   5.568
 7424SOL     OW23170   6.218   1.400   4.934
 7424SOL    HW123171   6.240   1.346   5.015
 7424SOL    HW223172   6.157   1.347   4.875
 7425SOL     OW23173   5.275   6.958   0.431
 7425SOL    HW123174   5.291   6.938   0.334
 7425SOL    HW223175   5.249   0.030   0.441
 7426SOL     OW23176   2.978   2.306   5.884
 7426SOL    HW123177   2.943   2.309   5.790
 7426SOL    HW223178   2.941   2.227   5.932
 7427SOL     OW23179   3.816   1.534   3.704
 7427SOL    HW123180   3.892   1.522   3.767
 7427SOL    HW223181   3.731   1.545   3.755
 7428SOL     OW23182   4.056   6.260   5.960
 7428SOL    HW123183   4.107   6.182   5.925
 7428SOL    HW223184   4.093   6.344   5.920
 7429SOL     OW23185   1.277   6.487   3.202
 7429SOL    HW123186   1.245   6.393   3.191
 7429SOL    HW223187   1.372   6.487   3.234
 7430SOL     OW23188   6.723   4.520   2.350
 7430SOL    HW123189   6.732   4.479   2.259
 7430SOL    HW223190   6.652   4.590   2.348
 7431SOL     OW23191   2.258   2.757   4.428
 7431SOL    HW123192   2.168   2.737   4.390
 7431SOL    HW223193   2.306   2.819   4.367
 7432SOL     OW23194   1.996   0.708   3.507
 7432SOL    HW123195   2.040   0.672   3.590
 7432SOL    HW223196   1.900   0.729   3.526
 7433SOL     OW23197   2.845   6.841   6.843
 7433SOL    HW123198   2.855   6.803   6.935
 7433SOL    HW223199   2.792   6.777   6.786
 7434SOL     OW23200   5.058   5.975   5.920
 7434SOL    HW123201   5.020   5.913   5.989
 7434SOL    HW223202   5.063   6.068   5.958
 7435SOL     OW23203   4.790   6.266   1.782
 7435SOL    HW123204   4.771   6.333   1.709
 7435SOL    HW223205   4.704   6.232   1.818
 7436SOL     OW23206   4.604   4.576   6.189
 7436SOL    HW123207   4.634   4.481   6.183
 7436SOL    HW223208   4.548   4.589   6.271
 7437SOL     OW23209   2.819   5.410   1.638
 7437SOL    HW123210   2.760   5.440   1.713
 7437SOL    HW223211   2.839   5.488   1.579
 7438SOL     OW23212   1.911   0.740   0.516
 7438SOL    HW123213   1.982   0.730   0.586
 7438SOL    HW223214   1.849   0.814   0.543
 7439SOL     OW23215   1.817   5.134   5.354
 7439SOL    HW123216   1.837   5.232   5.360
 7439SOL    HW223217   1.877   5.092   5.286
 7440SOL     OW23218   5.125   3.006   3.868
 7440SOL    HW123219   5.222   3.027   3.884
 7440SOL    HW223220   5.070   3.085   3.895
 7441SOL     OW23221   5.567   6.562   2.669
 7441SOL    HW123222   5.632   6.606   2.731
 7441SOL    HW223223   5.617   6.516   2.596
 7442SOL     OW23224   6.003   0.717   5.971
 7442SOL    HW123225   5.978   0.764   6.055
 7442SOL    HW223226   6.100   0.692   5.974
 7443SOL     OW23227   0.042   5.528   2.196
 7443SOL    HW123228   6.992   5.522   2.263
 7443SOL    HW223229   0.129   5.506   2.241
 7444SOL     OW23230   6.845   0.534   5.983
 7444SOL    HW123231   6.809   0.449   6.023
 7444SOL    HW223232   6.832   0.609   6.047
 7445SOL     OW23233   3.939   6.894   1.679
 7445SOL    HW123234   3.897   6.935   1.760
 7445SOL    HW223235   3.869   6.844   1.627
 7446SOL     OW23236   5.154   2.845   0.821
 7446SOL    HW123237   5.237   2.890   0.789
 7446SOL    HW223238   5.177   2.763   0.873
 7447SOL     OW23239   0.182   4.801   0.161
 7447SOL    HW123240   0.092   4.784   0.119
 7447SOL    HW223241   0.247   4.732   0.129
 7448SOL     OW23242   5.779   6.043   6.205
 7448SOL    HW123243   5.773   5.945   6.226
 7448SOL    HW223244   5.812   6.054   6.111
 7449SOL     OW23245   0.432   5.108   0.366
 7449SOL    HW123246   0.455   5.012   0.381
 7449SOL    HW223247   0.378   5.142   0.444
 7450SOL     OW23248   5.475   1.698   5.578
 7450SOL    HW123249   5.397   1.760   5.584
 7450SOL    HW223250   5.556   1.742   5.616
 7451SOL     OW23251   5.746   5.578   2.511
 7451SOL    HW123252   5.737   5.646   2.584
 7451SOL    HW223253   5.779   5.492   2.551
 7452SOL     OW23254   6.072   6.251   4.763
 7452SOL    HW123255   6.092   6.165   4.716
 7452SOL    HW223256   6.084   6.238   4.862
 7453SOL     OW23257   5.285   5.683   6.401
 7453SOL    HW123258   5.291   5.688   6.501
 7453SOL    HW223259   5.350   5.748   6.361
 7454SOL     OW23260   3.348   1.814   0.523
 7454SOL    HW123261   3.323   1.891   0.465
 7454SOL    HW223262   3.420   1.842   0.587
 7455SOL     OW23263   6.142   2.734   2.425
 7455SOL    HW123264   6.052   2.766   2.452
 7455SOL    HW223265   6.159   2.758   2.330
 7456SOL     OW23266   2.557   2.358   4.955
 7456SOL    HW123267   2.475   2.411   4.973
 7456SOL    HW223268   2.617   2.361   5.035
 7457SOL     OW23269   2.237   6.805   4.060
 7457SOL    HW123270   2.307   6.829   4.128
 7457SOL    HW223271   2.272   6.735   3.999
 7458SOL     OW23272   1.244   6.818   4.916
 7458SOL    HW123273   1.336   6.839   4.884
 7458SOL    HW223274   1.215   6.888   4.981
 7459SOL     OW23275   6.605   1.270   2.549
 7459SOL    HW123276   6.688   1.247   2.498
 7459SOL    HW223277   6.531   1.208   2.523
 7460SOL     OW23278   1.570   6.851   0.015
 7460SOL    HW123279   1.608   6.939   7.010
 7460SOL    HW223280   1.519   6.810   6.964
 7461SOL     OW23281   0.212   6.178   5.419
 7461SOL    HW123282   0.159   6.099   5.450
 7461SOL    HW223283   0.305   6.150   5.397
 7462SOL     OW23284   1.083   5.698   1.249
 7462SOL    HW123285   1.042   5.628   1.191
 7462SOL    HW223286   1.149   5.655   1.312
 7463SOL     OW23287   3.544   4.583   0.811
 7463SOL    HW123288   3.528   4.678   0.837
 7463SOL    HW223289   3.469   4.551   0.753
 7464SOL     OW23290   0.514   5.647   4.454
 7464SOL    HW123291   0.517   5.714   4.380
 7464SOL    HW223292   0.516   5.694   4.542
 7465SOL     OW23293   2.416   5.014   0.332
 7465SOL    HW123294   2.445   4.947   0.263
 7465SOL    HW223295   2.416   5.105   0.292
 7466SOL     OW23296   0.329   0.563   5.600
 7466SOL    HW123297   0.351   0.468   5.622
 7466SOL    HW223298   0.361   0.584   5.508
 7467SOL     OW23299   0.310   2.775   6.159
 7467SOL    HW123300   0.372   2.758   6.236
 7467SOL    HW223301   0.321   2.702   6.091
 7468SOL     OW23302   5.575   2.765   4.875
 7468SOL    HW123303   5.670   2.771   4.907
 7468SOL    HW223304   5.572   2.714   4.789
 7469SOL     OW23305   6.740   2.391   0.638
 7469SOL    HW123306   6.795   2.315   0.603
 7469SOL    HW223307   6.671   2.417   0.570
 7470SOL     OW23308   5.790   3.752   3.128
 7470SOL    HW123309   5.705   3.708   3.099
 7470SOL    HW223310   5.854   3.682   3.160
 7471SOL     OW23311   5.494   5.797   6.267
 7471SOL    HW123312   5.591   5.777   6.281
 7471SOL    HW223313   5.473   5.794   6.170
 7472SOL     OW23314   6.868   0.365   5.559
 7472SOL    HW123315   6.926   0.365   5.478
 7472SOL    HW223316   6.898   0.437   5.622
 7473SOL     OW23317   4.399   6.892   4.116
 7473SOL    HW123318   4.437   6.946   4.190
 7473SOL    HW223319   4.398   6.795   4.141
 7474SOL     OW23320   5.879   2.051   6.399
 7474SOL    HW123321   5.965   2.103   6.402
 7474SOL    HW223322   5.806   2.105   6.440
 7475SOL     OW23323   4.577   2.078   2.246
 7475SOL    HW123324   4.596   1.982   2.221
 7475SOL    HW223325   4.596   2.137   2.167
 7476SOL     OW23326   2.154   2.281   2.897
 7476SOL    HW123327   2.148   2.261   2.994
 7476SOL    HW223328   2.062   2.295   2.860
 7477SOL     OW23329   0.579   3.577   5.054
 7477SOL    HW123330   0.576   3.515   4.975
 7477SOL    HW223331   0.673   3.610   5.066
 7478SOL     OW23332   5.645   2.346   4.924
 7478SOL    HW123333   5.552   2.354   4.886
 7478SOL    HW223334   5.639   2.330   5.022
 7479SOL     OW23335   5.283   3.047   6.922
 7479SOL    HW123336   5.312   2.951   6.913
 7479SOL    HW223337   5.339   3.104   6.863
 7480SOL     OW23338   2.704   5.523   2.791
 7480SOL    HW123339   2.620   5.517   2.737
 7480SOL    HW223340   2.743   5.615   2.783
 7481SOL     OW23341   6.178   4.678   6.292
 7481SOL    HW123342   6.241   4.607   6.262
 7481SOL    HW223343   6.106   4.638   6.349
 7482SOL     OW23344   4.252   2.355   2.574
 7482SOL    HW123345   4.308   2.275   2.552
 7482SOL    HW223346   4.294   2.437   2.535
 7483SOL     OW23347   5.065   1.477   4.525
 7483SOL    HW123348   5.018   1.521   4.602
 7483SOL    HW223349   5.091   1.546   4.457
 7484SOL     OW23350   2.222   5.987   4.692
 7484SOL    HW123351   2.288   5.941   4.633
 7484SOL    HW223352   2.131   5.951   4.675
 7485SOL     OW23353   2.473   0.319   4.054
 7485SOL    HW123354   2.375   0.308   4.041
 7485SOL    HW223355   2.513   0.361   3.973
 7486SOL     OW23356   0.550   6.067   0.479
 7486SOL    HW123357   0.491   6.013   0.538
 7486SOL    HW223358   0.494   6.114   0.410
 7487SOL     OW23359   4.656   0.491   3.572
 7487SOL    HW123360   4.750   0.526   3.575
 7487SOL    HW223361   4.655   0.397   3.608
 7488SOL     OW23362   0.854   5.950   4.212
 7488SOL    HW123363   0.851   5.858   4.249
 7488SOL    HW223364   0.846   6.016   4.287
 7489SOL     OW23365   6.124   3.823   0.002
 7489SOL    HW123366   6.182   3.777   0.069
 7489SOL    HW223367   6.060   3.757   6.987
 7490SOL     OW23368   1.706   2.153   2.780
 7490SOL    HW123369   1.775   2.112   2.720
 7490SOL    HW223370   1.617   2.112   2.761
 7491SOL     OW23371   4.622   3.079   0.746
 7491SOL    HW123372   4.679   3.019   0.802
 7491SOL    HW223373   4.526   3.065   0.770
 7492SOL     OW23374   1.699   0.777   4.028
 7492SOL    HW123375   1.780   0.745   3.978
 7492SOL    HW223376   1.646   0.838   3.969
 7493SOL     OW23377   6.470   3.991   5.350
 7493SOL    HW123378   6.424   3.970   5.264
 7493SOL    HW223379   6.414   3.958   5.427
 7494SOL     OW23380   5.941   0.917   3.023
 7494SOL    HW123381   5.942   0.818   3.005
 7494SOL    HW223382   5.962   0.934   3.119
 7495SOL     OW23383   2.245   2.863   4.846
 7495SOL    HW123384   2.303   2.910   4.913
 7495SOL    HW223385   2.149   2.871   4.875
 7496SOL     OW23386   6.387   3.503   3.310
 7496SOL    HW123387   6.411   3.592   3.272
 7496SOL    HW223388   6.289   3.501   3.332
 7497SOL     OW23389   1.479   6.700   1.307
 7497SOL    HW123390   1.391   6.666   1.274
 7497SOL    HW223391   1.549   6.629   1.293
 7498SOL     OW23392   2.893   0.730   3.527
 7498SOL    HW123393   2.847   0.818   3.541
 7498SOL    HW223394   2.960   0.739   3.454
 7499SOL     OW23395   3.969   2.167   3.840
 7499SOL    HW123396   3.894   2.157   3.775
 7499SOL    HW223397   4.036   2.093   3.826
 7500SOL     OW23398   3.797   6.882   3.573
 7500SOL    HW123399   3.800   6.893   3.672
 7500SOL    HW223400   3.847   6.957   3.530
 7501SOL     OW23401   5.579   2.615   3.953
 7501SOL    HW123402   5.513   2.541   3.964
 7501SOL    HW223403   5.597   2.658   4.042
 7502SOL     OW23404   3.507   0.675   4.559
 7502SOL    HW123405   3.561   0.592   4.574
 7502SOL    HW223406   3.566   0.747   4.523
 7503SOL     OW23407   1.947   5.644   1.147
 7503SOL    HW123408   1.871   5.616   1.088
 7503SOL    HW223409   2.032   5.640   1.095
 7504SOL     OW23410   0.337   5.962   2.397
 7504SOL    HW123411   0.340   5.882   2.338
 7504SOL    HW223412   0.269   5.948   2.469
 7505SOL     OW23413   0.305   1.276   5.013
 7505SOL    HW123414   0.272   1.353   4.958
 7505SOL    HW223415   0.230   1.215   5.035
 7506SOL     OW23416   3.344   1.737   3.295
 7506SOL    HW123417   3.393   1.654   3.270
 7506SOL    HW223418   3.309   1.781   3.212
 7507SOL     OW23419   6.336   3.530   4.530
 7507SOL    HW123420   6.387   3.558   4.611
 7507SOL    HW223421   6.264   3.598   4.512
 7508SOL     OW23422   1.527   5.577   6.908
 7508SOL    HW123423   1.527   5.495   6.851
 7508SOL    HW223424   1.613   5.583   6.958
 7509SOL     OW23425   4.985   4.385   6.999
 7509SOL    HW123426   5.080   4.352   6.996
 7509SOL    HW223427   4.951   4.397   6.906
 7510SOL     OW23428   4.028   3.289   4.113
 7510SOL    HW123429   4.037   3.385   4.085
 7510SOL    HW223430   4.004   3.234   4.033
 7511SOL     OW23431   3.422   5.679   2.711
 7511SOL    HW123432   3.520   5.697   2.701
 7511SOL    HW223433   3.379   5.679   2.621
 7512SOL     OW23434   2.707   0.545   6.670
 7512SOL    HW123435   2.779   0.478   6.657
 7512SOL    HW223436   2.670   0.538   6.763
 7513SOL     OW23437   2.096   2.538   3.542
 7513SOL    HW123438   2.056   2.629   3.547
 7513SOL    HW223439   2.028   2.474   3.506
 7514SOL     OW23440   2.126   4.433   3.690
 7514SOL    HW123441   2.084   4.381   3.765
 7514SOL    HW223442   2.190   4.375   3.641
 7515SOL     OW23443   6.828   4.197   5.439
 7515SOL    HW123444   6.798   4.106   5.469
 7515SOL    HW223445   6.757   4.264   5.458
 7516SOL     OW23446   1.189   5.457   5.655
 7516SOL    HW123447   1.109   5.413   5.613
 7516SOL    HW223448   1.185   5.445   5.754
 7517SOL     OW23449   1.238   2.507   0.178
 7517SOL    HW123450   1.299   2.432   0.205
 7517SOL    HW223451   1.216   2.498   0.081
 7518SOL     OW23452   4.820   3.104   3.875
 7518SOL    HW123453   4.798   3.192   3.833
 7518SOL    HW223454   4.740   3.045   3.872
 7519SOL     OW23455   4.805   0.279   4.700
 7519SOL    HW123456   4.787   0.255   4.795
 7519SOL    HW223457   4.720   0.309   4.656
 7520SOL     OW23458   1.736   1.645   2.094
 7520SOL    HW123459   1.690   1.579   2.154
 7520SOL    HW223460   1.822   1.675   2.135
 7521SOL     OW23461   5.497   1.623   4.422
 7521SOL    HW123462   5.467   1.715   4.447
 7521SOL    HW223463   5.521   1.621   4.325
 7522SOL     OW23464   0.868   6.585   4.032
 7522SOL    HW123465   0.793   6.522   4.053
 7522SOL    HW223466   0.936   6.538   3.977
 7523SOL     OW23467   5.480   0.745   6.111
 7523SOL    HW123468   5.382   0.752   6.128
 7523SOL    HW223469   5.500   0.774   6.017
 7524SOL     OW23470   6.829   2.752   4.415
 7524SOL    HW123471   6.768   2.724   4.340
 7524SOL    HW223472   6.917   2.779   4.378
 7525SOL     OW23473   4.386   6.635   0.096
 7525SOL    HW123474   4.455   6.584   0.044
 7525SOL    HW223475   4.383   6.600   0.190
 7526SOL     OW23476   2.212   3.249   1.779
 7526SOL    HW123477   2.237   3.328   1.835
 7526SOL    HW223478   2.130   3.206   1.815
 7527SOL     OW23479   4.100   6.028   4.199
 7527SOL    HW123480   4.130   5.984   4.114
 7527SOL    HW223481   4.002   6.013   4.210
 7528SOL     OW23482   5.645   2.102   6.921
 7528SOL    HW123483   5.719   2.035   6.924
 7528SOL    HW223484   5.575   2.072   6.857
 7529SOL     OW23485   5.903   1.980   3.546
 7529SOL    HW123486   5.811   1.952   3.572
 7529SOL    HW223487   5.906   2.001   3.449
 7530SOL     OW23488   6.872   1.563   2.610
 7530SOL    HW123489   6.846   1.626   2.538
 7530SOL    HW223490   6.865   1.609   2.699
 7531SOL     OW23491   4.622   2.509   3.383
 7531SOL    HW123492   4.526   2.498   3.360
 7531SOL    HW223493   4.652   2.432   3.439
 7532SOL     OW23494   4.967   6.108   6.825
 7532SOL    HW123495   5.026   6.189   6.829
 7532SOL    HW223496   4.871   6.137   6.830
 7533SOL     OW23497   4.538   2.880   1.655
 7533SOL    HW123498   4.623   2.828   1.655
 7533SOL    HW223499   4.518   2.912   1.748
 7534SOL     OW23500   5.036   6.514   4.627
 7534SOL    HW123501   4.945   6.555   4.632
 7534SOL    HW223502   5.103   6.583   4.600
 7535SOL     OW23503   1.212   0.032   4.582
 7535SOL    HW123504   1.140   7.016   4.525
 7535SOL    HW223505   1.302   0.004   4.547
 7536SOL     OW23506   5.250   5.855   4.141
 7536SOL    HW123507   5.255   5.798   4.059
 7536SOL    HW223508   5.332   5.839   4.197
 7537SOL     OW23509   2.453   5.582   2.217
 7537SOL    HW123510   2.385   5.601   2.146
 7537SOL    HW223511   2.412   5.595   2.307
 7538SOL     OW23512   0.788   3.452   1.702
 7538SOL    HW123513   0.756   3.383   1.638
 7538SOL    HW223514   0.726   3.531   1.701
 7539SOL     OW23515   1.700   5.101   3.607
 7539SOL    HW123516   1.733   5.131   3.517
 7539SOL    HW223517   1.761   5.137   3.678
 7540SOL     OW23518   4.868   6.149   4.403
 7540SOL    HW123519   4.802   6.212   4.362
 7540SOL    HW223520   4.925   6.110   4.330
 7541SOL     OW23521   0.381   4.034   6.582
 7541SOL    HW123522   0.450   4.014   6.513
 7541SOL    HW223523   0.296   3.987   6.559
 7542SOL     OW23524   6.224   5.821   5.472
 7542SOL    HW123525   6.239   5.901   5.529
 7542SOL    HW223526   6.151   5.840   5.406
 7543SOL     OW23527   2.677   0.345   5.117
 7543SOL    HW123528   2.683   0.316   5.022
 7543SOL    HW223529   2.767   0.374   5.149
 7544SOL     OW23530   0.086   2.063   4.332
 7544SOL    HW123531   0.074   2.077   4.431
 7544SOL    HW223532   0.042   2.138   4.283
 7545SOL     OW23533   0.398   5.698   6.909
 7545SOL    HW123534   0.402   5.786   6.956
 7545SOL    HW223535   0.488   5.675   6.873
 7546SOL     OW23536   3.708   2.863   1.668
 7546SOL    HW123537   3.688   2.879   1.571
 7546SOL    HW223538   3.670   2.775   1.696
 7547SOL     OW23539   4.643   0.697   2.071
 7547SOL    HW123540   4.584   0.776   2.088
 7547SOL    HW223541   4.728   0.728   2.027
 7548SOL     OW23542   4.588   2.127   6.427
 7548SOL    HW123543   4.681   2.092   6.439
 7548SOL    HW223544   4.538   2.117   6.513
 7549SOL     OW23545   4.061   2.558   5.822
 7549SOL    HW123546   4.053   2.498   5.901
 7549SOL    HW223547   4.111   2.641   5.848
 7550SOL     OW23548   1.952   4.057   4.134
 7550SOL    HW123549   1.905   4.038   4.048
 7550SOL    HW223550   1.885   4.080   4.204
 7551SOL     OW23551   4.911   2.099   5.387
 7551SOL    HW123552   4.840   2.150   5.339
 7551SOL    HW223553   4.927   2.012   5.341
 7552SOL     OW23554   2.087   5.982   4.407
 7552SOL    HW123555   2.087   6.068   4.355
 7552SOL    HW223556   2.026   5.991   4.486
 7553SOL     OW23557   5.739   6.157   5.714
 7553SOL    HW123558   5.781   6.115   5.795
 7553SOL    HW223559   5.649   6.117   5.699
 7554SOL     OW23560   5.577   1.365   0.252
 7554SOL    HW123561   5.520   1.354   0.333
 7554SOL    HW223562   5.638   1.286   0.243
 7555SOL     OW23563   2.878   6.405   6.609
 7555SOL    HW123564   2.811   6.398   6.535
 7555SOL    HW223565   2.854   6.341   6.682
 7556SOL     OW23566   1.486   1.464   0.411
 7556SOL    HW123567   1.570   1.516   0.426
 7556SOL    HW223568   1.417   1.493   0.478
 7557SOL     OW23569   4.911   0.013   0.159
 7557SOL    HW123570   4.853   0.094   0.154
 7557SOL    HW223571   4.932   7.017   0.254
 7558SOL     OW23572   1.161   2.577   4.117
 7558SOL    HW123573   1.228   2.620   4.056
 7558SOL    HW223574   1.193   2.584   4.212
 7559SOL     OW23575   3.545   2.225   5.234
 7559SOL    HW123576   3.455   2.228   5.276
 7559SOL    HW223577   3.582   2.132   5.242
 7560SOL     OW23578   6.485   0.225   6.624
 7560SOL    HW123579   6.430   0.182   6.696
 7560SOL    HW223580   6.558   0.279   6.666
 7561SOL     OW23581   5.015   2.067   5.675
 7561SOL    HW123582   4.939   2.078   5.611
 7561SOL    HW223583   5.064   2.154   5.683
 7562SOL     OW23584   1.020   5.144   4.988
 7562SOL    HW123585   1.087   5.200   4.938
 7562SOL    HW223586   1.053   5.050   4.992
 7563SOL     OW23587   3.135   6.638   2.448
 7563SOL    HW123588   3.175   6.666   2.535
 7563SOL    HW223589   3.159   6.542   2.430
 7564SOL     OW23590   4.128   0.288   4.970
 7564SOL    HW123591   4.052   0.223   4.982
 7564SOL    HW223592   4.142   0.338   5.055
 7565SOL     OW23593   5.852   3.958   6.020
 7565SOL    HW123594   5.807   4.035   6.067
 7565SOL    HW223595   5.819   3.872   6.059
 7566SOL     OW23596   5.332   5.046   2.064
 7566SOL    HW123597   5.377   4.998   2.139
 7566SOL    HW223598   5.376   5.022   1.978
 7567SOL     OW23599   0.531   1.433   4.170
 7567SOL    HW123600   0.508   1.340   4.142
 7567SOL    HW223601   0.451   1.491   4.161
 7568SOL     OW23602   5.669   5.244   2.131
 7568SOL    HW123603   5.673   5.153   2.090
 7568SOL    HW223604   5.745   5.299   2.098
 7569SOL     OW23605   3.807   5.075   6.548
 7569SOL    HW123606   3.835   5.171   6.542
 7569SOL    HW223607   3.714   5.065   6.514
 7570SOL     OW23608   6.892   2.892   3.137
 7570SOL    HW123609   6.836   2.973   3.121
 7570SOL    HW223610   6.988   2.918   3.144
 7571SOL     OW23611   5.601   3.399   3.039
 7571SOL    HW123612   5.670   3.412   2.968
 7571SOL    HW223613   5.572   3.304   3.041
 7572SOL     OW23614   4.703   6.342   2.829
 7572SOL    HW123615   4.676   6.306   2.919
 7572SOL    HW223616   4.623   6.349   2.770
 7573SOL     OW23617   6.197   0.308   5.450
 7573SOL    HW123618   6.194   0.375   5.375
 7573SOL    HW223619   6.282   0.256   5.444
 7574SOL     OW23620   6.068   0.966   4.012
 7574SOL    HW123621   6.044   0.883   4.061
 7574SOL    HW223622   6.040   0.958   3.916
 7575SOL     OW23623   6.283   6.674   0.964
 7575SOL    HW123624   6.380   6.648   0.966
 7575SOL    HW223625   6.227   6.591   0.973
 7576SOL     OW23626   5.398   2.937   1.116
 7576SOL    HW123627   5.446   2.883   1.046
 7576SOL    HW223628   5.416   3.034   1.101
 7577SOL     OW23629   0.385   0.215   0.104
 7577SOL    HW123630   0.415   0.119   0.103
 7577SOL    HW223631   0.435   0.265   0.175
 7578SOL     OW23632   0.611   5.294   2.874
 7578SOL    HW123633   0.614   5.367   2.805
 7578SOL    HW223634   0.627   5.333   2.965
 7579SOL     OW23635   6.539   2.042   1.444
 7579SOL    HW123636   6.548   2.009   1.350
 7579SOL    HW223637   6.452   2.011   1.482
 7580SOL     OW23638   1.961   4.201   3.097
 7580SOL    HW123639   2.039   4.153   3.136
 7580SOL    HW223640   1.884   4.195   3.160
 7581SOL     OW23641   0.905   1.786   1.329
 7581SOL    HW123642   0.955   1.701   1.315
 7581SOL    HW223643   0.952   1.861   1.282
 7582SOL     OW23644   4.357   1.645   3.998
 7582SOL    HW123645   4.397   1.734   3.976
 7582SOL    HW223646   4.258   1.651   3.993
 7583SOL     OW23647   5.475   3.390   3.597
 7583SOL    HW123648   5.394   3.434   3.635
 7583SOL    HW223649   5.474   3.397   3.497
 7584SOL     OW23650   1.321   0.359   2.877
 7584SOL    HW123651   1.294   0.263   2.890
 7584SOL    HW223652   1.271   0.397   2.800
 7585SOL     OW23653   1.076   2.315   6.718
 7585SOL    HW123654   1.162   2.327   6.667
 7585SOL    HW223655   1.062   2.394   6.778
 7586SOL     OW23656   1.348   0.928   2.151
 7586SOL    HW123657   1.257   0.959   2.179
 7586SOL    HW223658   1.414   1.000   2.170
 7587SOL     OW23659   3.287   0.776   0.804
 7587SOL    HW123660   3.281   0.876   0.808
 7587SOL    HW223661   3.373   0.746   0.844
 7588SOL     OW23662   0.850   2.875   4.686
 7588SOL    HW123663   0.876   2.848   4.779
 7588SOL    HW223664   0.873   2.971   4.672
 7589SOL     OW23665   0.572   0.842   2.899
 7589SOL    HW123666   0.519   0.872   2.820
 7589SOL    HW223667   0.576   0.916   2.967
 7590SOL     OW23668   0.417   1.736   0.074
 7590SOL    HW123669   0.412   1.673   0.151
 7590SOL    HW223670   0.507   1.780   0.073
 7591SOL     OW23671   4.331   2.828   6.800
 7591SOL    HW123672   4.281   2.751   6.841
 7591SOL    HW223673   4.350   2.808   6.704
 7592SOL     OW23674   6.054   4.762   4.631
 7592SOL    HW123675   6.022   4.669   4.655
 7592SOL    HW223676   6.104   4.800   4.708
 7593SOL     OW23677   6.963   1.861   5.711
 7593SOL    HW123678   6.869   1.867   5.742
 7593SOL    HW223679   6.971   1.788   5.643
 7594SOL     OW23680   0.078   4.354   0.848
 7594SOL    HW123681   0.099   4.343   0.946
 7594SOL    HW223682   7.005   4.334   0.834
 7595SOL     OW23683   6.450   2.757   5.909
 7595SOL    HW123684   6.549   2.761   5.902
 7595SOL    HW223685   6.421   2.796   5.996
 7596SOL     OW23686   3.069   0.175   5.210
 7596SOL    HW123687   3.146   0.143   5.154
 7596SOL    HW223688   3.046   0.105   5.278
 7597SOL     OW23689   2.397   6.173   2.684
 7597SOL    HW123690   2.330   6.224   2.738
 7597SOL    HW223691   2.483   6.225   2.679
 7598SOL     OW23692   5.983   0.510   2.606
 7598SOL    HW123693   5.999   0.448   2.529
 7598SOL    HW223694   6.022   0.600   2.584
 7599SOL     OW23695   4.162   3.289   0.754
 7599SOL    HW123696   4.211   3.365   0.797
 7599SOL    HW223697   4.070   3.283   0.792
 7600SOL     OW23698   1.576   1.194   3.544
 7600SOL    HW123699   1.597   1.189   3.447
 7600SOL    HW223700   1.591   1.288   3.577
 7601SOL     OW23701   3.826   5.428   1.786
 7601SOL    HW123702   3.903   5.474   1.831
 7601SOL    HW223703   3.752   5.416   1.852
 7602SOL     OW23704   0.507   2.357   0.570
 7602SOL    HW123705   0.442   2.336   0.497
 7602SOL    HW223706   0.587   2.299   0.561
 7603SOL     OW23707   2.612   0.190   5.813
 7603SOL    HW123708   2.593   0.119   5.881
 7603SOL    HW223709   2.689   0.247   5.844
 7604SOL     OW23710   1.431   2.229   4.964
 7604SOL    HW123711   1.413   2.320   5.000
 7604SOL    HW223712   1.525   2.224   4.931
 7605SOL     OW23713   1.578   0.628   6.656
 7605SOL    HW123714   1.552   0.597   6.564
 7605SOL    HW223715   1.526   0.710   6.679
 7606SOL     OW23716   6.255   1.796   4.276
 7606SOL    HW123717   6.253   1.892   4.249
 7606SOL    HW223718   6.345   1.774   4.313
 7607SOL     OW23719   3.102   6.746   0.106
 7607SOL    HW123720   3.047   6.824   0.078
 7607SOL    HW223721   3.120   6.751   0.205
 7608SOL     OW23722   5.391   2.316   6.325
 7608SOL    HW123723   5.365   2.411   6.346
 7608SOL    HW223724   5.475   2.317   6.270
 7609SOL     OW23725   0.407   3.019   3.838
 7609SOL    HW123726   0.482   3.076   3.870
 7609SOL    HW223727   0.409   2.931   3.887
 7610SOL     OW23728   3.497   5.649   6.516
 7610SOL    HW123729   3.507   5.575   6.449
 7610SOL    HW223730   3.434   5.620   6.588
 7611SOL     OW23731   4.683   2.889   0.945
 7611SOL    HW123732   4.760   2.934   0.989
 7611SOL    HW223733   4.600   2.905   0.997
 7612SOL     OW23734   3.425   2.126   3.146
 7612SOL    HW123735   3.500   2.069   3.180
 7612SOL    HW223736   3.415   2.206   3.205
 7613SOL     OW23737   1.637   1.939   2.077
 7613SOL    HW123738   1.721   1.988   2.100
 7613SOL    HW223739   1.661   1.851   2.036
 7614SOL     OW23740   4.798   3.336   0.483
 7614SOL    HW123741   4.756   3.396   0.551
 7614SOL    HW223742   4.892   3.316   0.511
 7615SOL     OW23743   5.405   3.572   5.331
 7615SOL    HW123744   5.393   3.473   5.345
 7615SOL    HW223745   5.457   3.588   5.248
 7616SOL     OW23746   5.780   6.490   3.119
 7616SOL    HW123747   5.778   6.563   3.187
 7616SOL    HW223748   5.858   6.504   3.058
 7617SOL     OW23749   4.906   4.871   2.944
 7617SOL    HW123750   5.006   4.878   2.937
 7617SOL    HW223751   4.879   4.865   3.040
 7618SOL     OW23752   2.355   2.145   0.430
 7618SOL    HW123753   2.433   2.159   0.370
 7618SOL    HW223754   2.386   2.115   0.520
 7619SOL     OW23755   0.468   2.460   4.332
 7619SOL    HW123756   0.507   2.462   4.424
 7619SOL    HW223757   0.504   2.381   4.282
 7620SOL     OW23758   3.629   4.302   0.844
 7620SOL    HW123759   3.582   4.255   0.769
 7620SOL    HW223760   3.630   4.400   0.826
 7621SOL     OW23761   0.129   5.646   0.804
 7621SOL    HW123762   0.224   5.617   0.788
 7621SOL    HW223763   0.127   5.744   0.824
 7622SOL     OW23764   4.235   4.326   0.227
 7622SOL    HW123765   4.240   4.317   0.326
 7622SOL    HW223766   4.314   4.379   0.195
 7623SOL     OW23767   4.062   4.701   1.451
 7623SOL    HW123768   4.076   4.611   1.410
 7623SOL    HW223769   3.964   4.720   1.457
 7624SOL     OW23770   0.200   2.040   2.283
 7624SOL    HW123771   0.118   2.095   2.300
 7624SOL    HW223772   0.277   2.077   2.335
 7625SOL     OW23773   4.947   1.801   0.369
 7625SOL    HW123774   4.951   1.901   0.376
 7625SOL    HW223775   4.940   1.762   0.461
 7626SOL     OW23776   6.298   0.780   5.558
 7626SOL    HW123777   6.284   0.784   5.459
 7626SOL    HW223778   6.361   0.706   5.579
 7627SOL     OW23779   3.737   2.016   0.098
 7627SOL    HW123780   3.813   2.065   0.054
 7627SOL    HW223781   3.763   1.992   0.191
 7628SOL     OW23782   3.490   2.264   0.659
 7628SOL    HW123783   3.401   2.306   0.640
 7628SOL    HW223784   3.478   2.189   0.724
 7629SOL     OW23785   5.720   3.142   3.368
 7629SOL    HW123786   5.704   3.236   3.338
 7629SOL    HW223787   5.763   3.143   3.458
 7630SOL     OW23788   1.247   0.443   5.181
 7630SOL    HW123789   1.238   0.435   5.082
 7630SOL    HW223790   1.307   0.520   5.203
 7631SOL     OW23791   2.026   6.573   4.750
 7631SOL    HW123792   2.116   6.559   4.708
 7631SOL    HW223793   2.023   6.527   4.839
 7632SOL     OW23794   4.599   5.352   1.356
 7632SOL    HW123795   4.634   5.384   1.268
 7632SOL    HW223796   4.499   5.352   1.354
 7633SOL     OW23797   5.553   0.295   1.266
 7633SOL    HW123798   5.612   0.224   1.226
 7633SOL    HW223799   5.533   0.364   1.196
 7634SOL     OW23800   1.621   1.878   0.754
 7634SOL    HW123801   1.547   1.942   0.772
 7634SOL    HW223802   1.620   1.852   0.657
 7635SOL     OW23803   2.839   5.175   4.549
 7635SOL    HW123804   2.767   5.166   4.479
 7635SOL    HW223805   2.926   5.145   4.511
 7636SOL     OW23806   0.707   4.635   4.374
 7636SOL    HW123807   0.717   4.588   4.461
 7636SOL    HW223808   0.636   4.705   4.381
 7637SOL     OW23809   0.404   6.210   4.116
 7637SOL    HW123810   0.373   6.115   4.121
 7637SOL    HW223811   0.342   6.263   4.059
 7638SOL     OW23812   0.848   5.372   2.091
 7638SOL    HW123813   0.769   5.349   2.148
 7638SOL    HW223814   0.914   5.297   2.095
 7639SOL     OW23815   0.683   1.523   0.044
 7639SOL    HW123816   0.658   1.455   7.000
 7639SOL    HW223817   0.640   1.500   0.132
 7640SOL     OW23818   3.112   1.043   6.830
 7640SOL    HW123819   3.093   0.974   6.899
 7640SOL    HW223820   3.041   1.113   6.832
 7641SOL     OW23821   6.487   3.877   2.846
 7641SOL    HW123822   6.570   3.863   2.900
 7641SOL    HW223823   6.482   3.809   2.773
 7642SOL     OW23824   5.536   1.492   3.168
 7642SOL    HW123825   5.510   1.497   3.072
 7642SOL    HW223826   5.513   1.578   3.213
 7643SOL     OW23827   5.155   2.215   3.015
 7643SOL    HW123828   5.230   2.175   3.068
 7643SOL    HW223829   5.081   2.149   3.007
 7644SOL     OW23830   4.976   3.170   2.036
 7644SOL    HW123831   4.978   3.254   2.091
 7644SOL    HW223832   4.886   3.128   2.042
 7645SOL     OW23833   3.188   4.149   6.227
 7645SOL    HW123834   3.215   4.108   6.315
 7645SOL    HW223835   3.244   4.111   6.154
 7646SOL     OW23836   1.558   2.853   2.812
 7646SOL    HW123837   1.517   2.907   2.739
 7646SOL    HW223838   1.563   2.757   2.784
 7647SOL     OW23839   0.014   3.027   4.728
 7647SOL    HW123840   7.006   3.109   4.775
 7647SOL    HW223841   0.015   2.951   4.792
 7648SOL     OW23842   2.128   2.223   3.169
 7648SOL    HW123843   2.029   2.208   3.167
 7648SOL    HW223844   2.147   2.315   3.203
 7649SOL     OW23845   6.918   1.065   4.706
 7649SOL    HW123846   6.957   1.145   4.659
 7649SOL    HW223847   6.830   1.091   4.747
 7650SOL     OW23848   4.278   1.034   1.383
 7650SOL    HW123849   4.209   0.980   1.335
 7650SOL    HW223850   4.234   1.097   1.447
 7651SOL     OW23851   2.532   4.995   4.606
 7651SOL    HW123852   2.609   5.008   4.543
 7651SOL    HW223853   2.470   4.926   4.567
 7652SOL     OW23854   5.967   2.138   4.829
 7652SOL    HW123855   5.915   2.130   4.745
 7652SOL    HW223856   5.987   2.047   4.866
 7653SOL     OW23857   0.766   1.763   6.275
 7653SOL    HW123858   0.806   1.848   6.310
 7653SOL    HW223859   0.770   1.764   6.175
 7654SOL     OW23860   5.934   3.429   5.149
 7654SOL    HW123861   5.874   3.505   5.171
 7654SOL    HW223862   5.976   3.394   5.233
 7655SOL     OW23863   3.054   0.806   3.759
 7655SOL    HW123864   3.011   0.779   3.673
 7655SOL    HW223865   3.139   0.854   3.740
 7656SOL     OW23866   6.583   4.116   5.952
 7656SOL    HW123867   6.541   4.025   5.946
 7656SOL    HW223868   6.521   4.184   5.914
 7657SOL     OW23869   1.216   4.113   4.747
 7657SOL    HW123870   1.137   4.102   4.686
 7657SOL    HW223871   1.219   4.036   4.811
 7658SOL     OW23872   2.617   0.693   0.139
 7658SOL    HW123873   2.573   0.684   0.228
 7658SOL    HW223874   2.693   0.759   0.145
 7659SOL     OW23875   4.507   4.198   5.616
 7659SOL    HW123876   4.569   4.259   5.667
 7659SOL    HW223877   4.480   4.242   5.531
 7660SOL     OW23878   6.833   5.163   4.621
 7660SOL    HW123879   6.852   5.081   4.675
 7660SOL    HW223880   6.740   5.157   4.584
 7661SOL     OW23881   4.954   1.835   6.144
 7661SOL    HW123882   5.019   1.766   6.175
 7661SOL    HW223883   4.862   1.811   6.177
 7662SOL     OW23884   1.352   1.944   2.092
 7662SOL    HW123885   1.451   1.948   2.074
 7662SOL    HW223886   1.302   1.963   2.008
 7663SOL     OW23887   5.529   5.601   5.311
 7663SOL    HW123888   5.527   5.673   5.242
 7663SOL    HW223889   5.483   5.633   5.394
 7664SOL     OW23890   4.464   1.235   2.983
 7664SOL    HW123891   4.364   1.232   2.977
 7664SOL    HW223892   4.492   1.253   3.077
 7665SOL     OW23893   4.800   2.373   3.560
 7665SOL    HW123894   4.864   2.445   3.585
 7665SOL    HW223895   4.837   2.320   3.483
 7666SOL     OW23896   5.868   5.646   4.049
 7666SOL    HW123897   5.851   5.607   3.959
 7666SOL    HW223898   5.921   5.730   4.039
 7667SOL     OW23899   4.950   6.339   2.716
 7667SOL    HW123900   4.854   6.338   2.745
 7667SOL    HW223901   4.978   6.247   2.689
 7668SOL     OW23902   2.262   4.899   1.066
 7668SOL    HW123903   2.255   4.976   1.003
 7668SOL    HW223904   2.267   4.933   1.160
 7669SOL     OW23905   3.634   6.944   6.308
 7669SOL    HW123906   3.639   6.852   6.346
 7669SOL    HW223907   3.625   6.938   6.209
 7670SOL     OW23908   0.651   6.449   0.399
 7670SOL    HW123909   0.604   6.526   0.358
 7670SOL    HW223910   0.644   6.454   0.499
 7671SOL     OW23911   5.443   0.045   2.042
 7671SOL    HW123912   5.539   0.041   2.013
 7671SOL    HW223913   5.413   6.978   2.071
 7672SOL     OW23914   6.160   4.566   3.079
 7672SOL    HW123915   6.086   4.622   3.117
 7672SOL    HW223916   6.196   4.506   3.150
 7673SOL     OW23917   1.284   5.859   3.346
 7673SOL    HW123918   1.346   5.780   3.349
 7673SOL    HW223919   1.334   5.941   3.374
 7674SOL     OW23920   3.983   0.530   4.541
 7674SOL    HW123921   4.067   0.566   4.581
 7674SOL    HW223922   3.913   0.522   4.613
 7675SOL     OW23923   3.546   6.684   3.550
 7675SOL    HW123924   3.488   6.677   3.631
 7675SOL    HW223925   3.606   6.764   3.559
 7676SOL     OW23926   3.039   2.889   6.033
 7676SOL    HW123927   3.049   2.979   5.991
 7676SOL    HW223928   3.009   2.900   6.128
 7677SOL     OW23929   6.475   4.874   1.377
 7677SOL    HW123930   6.480   4.917   1.467
 7677SOL    HW223931   6.464   4.775   1.388
 7678SOL     OW23932   1.541   2.147   5.324
 7678SOL    HW123933   1.503   2.166   5.414
 7678SOL    HW223934   1.514   2.055   5.295
 7679SOL     OW23935   2.155   5.171   5.216
 7679SOL    HW123936   2.243   5.151   5.261
 7679SOL    HW223937   2.088   5.102   5.244
 7680SOL     OW23938   1.368   0.682   5.115
 7680SOL    HW123939   1.414   0.749   5.057
 7680SOL    HW223940   1.344   0.724   5.202
 7681SOL     OW23941   3.001   2.572   6.223
 7681SOL    HW123942   3.058   2.532   6.151
 7681SOL    HW223943   2.994   2.671   6.209
 7682SOL     OW23944   3.057   1.783   3.000
 7682SOL    HW123945   3.030   1.810   2.908
 7682SOL    HW223946   3.099   1.860   3.048
 7683SOL     OW23947   6.891   0.770   4.644
 7683SOL    HW123948   6.921   0.865   4.657
 7683SOL    HW223949   6.837   0.741   4.723
 7684SOL     OW23950   4.168   2.336   1.649
 7684SOL    HW123951   4.124   2.305   1.565
 7684SOL    HW223952   4.101   2.380   1.708
 7685SOL     OW23953   3.590   0.844   0.017
 7685SOL    HW123954   3.526   0.920   0.031
 7685SOL    HW223955   3.682   0.873   0.041
 7686SOL     OW23956   4.240   0.651   4.627
 7686SOL    HW123957   4.251   0.588   4.704
 7686SOL    HW223958   4.320   0.644   4.567
 7687SOL     OW23959   5.602   5.348   4.729
 7687SOL    HW123960   5.686   5.353   4.783
 7687SOL    HW223961   5.624   5.357   4.632
 7688SOL     OW23962   0.355   5.239   6.491
 7688SOL    HW123963   0.384   5.178   6.417
 7688SOL    HW223964   0.268   5.205   6.529
 7689SOL     OW23965   4.610   0.576   1.736
 7689SOL    HW123966   4.566   0.561   1.648
 7689SOL    HW223967   4.614   0.674   1.754
 7690SOL     OW23968   5.819   5.040   0.322
 7690SOL    HW123969   5.801   4.999   0.232
 7690SOL    HW223970   5.745   5.102   0.345
 7691SOL     OW23971   4.503   4.944   3.188
 7691SOL    HW123972   4.530   4.878   3.258
 7691SOL    HW223973   4.494   4.898   3.100
 7692SOL     OW23974   1.150   6.647   1.935
 7692SOL    HW123975   1.096   6.628   2.018
 7692SOL    HW223976   1.196   6.735   1.944
 7693SOL     OW23977   2.769   0.814   0.855
 7693SOL    HW123978   2.834   0.767   0.795
 7693SOL    HW223979   2.760   0.909   0.825
 7694SOL     OW23980   5.607   2.676   4.617
 7694SOL    HW123981   5.519   2.662   4.570
 7694SOL    HW223982   5.664   2.595   4.604
 7695SOL     OW23983   6.535   7.003   2.959
 7695SOL    HW123984   6.465   0.049   2.945
 7695SOL    HW223985   6.506   6.943   3.034
 7696SOL     OW23986   0.578   1.992   6.397
 7696SOL    HW123987   0.665   1.945   6.381
 7696SOL    HW223988   0.543   2.027   6.310
 7697SOL     OW23989   3.618   6.830   2.832
 7697SOL    HW123990   3.580   6.747   2.874
 7697SOL    HW223991   3.545   6.879   2.783
 7698SOL     OW23992   6.162   2.507   6.895
 7698SOL    HW123993   6.209   2.552   6.820
 7698SOL    HW223994   6.086   2.452   6.860
 7699SOL     OW23995   2.839   5.651   0.523
 7699SOL    HW123996   2.831   5.623   0.427
 7699SOL    HW223997   2.932   5.631   0.556
 7700SOL     OW23998   4.678   5.766   2.655
 7700SOL    HW123999   4.621   5.690   2.688
 7700SOL    HW224000   4.684   5.836   2.726
 7701SOL     OW24001   0.253   2.481   6.061
 7701SOL    HW124002   0.279   2.399   6.010
 7701SOL    HW224003   0.164   2.513   6.029
 7702SOL     OW24004   4.722   6.952   5.788
 7702SOL    HW124005   4.630   6.988   5.770
 7702SOL    HW224006   4.721   6.852   5.784
 7703SOL     OW24007   6.445   0.323   4.626
 7703SOL    HW124008   6.438   0.237   4.576
 7703SOL    HW224009   6.355   0.369   4.625
 7704SOL     OW24010   6.548   1.364   3.858
 7704SOL    HW124011   6.486   1.428   3.813
 7704SOL    HW224012   6.495   1.288   3.897
 7705SOL     OW24013   2.468   4.640   0.567
 7705SOL    HW124014   2.538   4.580   0.604
 7705SOL    HW224015   2.380   4.618   0.607
 7706SOL     OW24016   3.752   3.105   2.870
 7706SOL    HW124017   3.742   3.205   2.862
 7706SOL    HW224018   3.830   3.084   2.928
 7707SOL     OW24019   6.726   6.040   0.190
 7707SOL    HW124020   6.704   6.063   0.095
 7707SOL    HW224021   6.761   5.946   0.194
 7708SOL     OW24022   2.460   6.892   4.214
 7708SOL    HW124023   2.517   6.894   4.296
 7708SOL    HW224024   2.508   6.845   4.140
 7709SOL     OW24025   6.620   4.938   0.722
 7709SOL    HW124026   6.698   4.877   0.710
 7709SOL    HW224027   6.539   4.898   0.679
 7710SOL     OW24028   1.694   3.032   0.840
 7710SOL    HW124029   1.748   2.975   0.779
 7710SOL    HW224030   1.754   3.088   0.896
 7711SOL     OW24031   6.742   4.777   5.550
 7711SOL    HW124032   6.643   4.777   5.540
 7711SOL    HW224033   6.774   4.872   5.558
 7712SOL     OW24034   6.857   4.466   6.129
 7712SOL    HW124035   6.845   4.377   6.172
 7712SOL    HW224036   6.950   4.499   6.147
 7713SOL     OW24037   1.641   4.732   0.842
 7713SOL    HW124038   1.551   4.689   0.837
 7713SOL    HW224039   1.653   4.793   0.763
 7714SOL     OW24040   6.419   0.446   4.330
 7714SOL    HW124041   6.496   0.393   4.365
 7714SOL    HW224042   6.380   0.398   4.250
 7715SOL     OW24043   1.789   2.630   6.554
 7715SOL    HW124044   1.855   2.705   6.551
 7715SOL    HW224045   1.701   2.664   6.588
 7716SOL     OW24046   0.860   5.770   6.777
 7716SOL    HW124047   0.868   5.856   6.828
 7716SOL    HW224048   0.888   5.785   6.682
 7717SOL     OW24049   1.265   2.378   6.163
 7717SOL    HW124050   1.299   2.291   6.199
 7717SOL    HW224051   1.171   2.367   6.133
 7718SOL     OW24052   1.465   4.338   2.755
 7718SOL    HW124053   1.557   4.328   2.793
 7718SOL    HW224054   1.471   4.348   2.656
 7719SOL     OW24055   1.546   4.392   4.825
 7719SOL    HW124056   1.502   4.328   4.762
 7719SOL    HW224057   1.542   4.355   4.918
 7720SOL     OW24058   6.124   1.897   6.365
 7720SOL    HW124059   6.099   1.850   6.450
 7720SOL    HW224060   6.126   1.995   6.381
 7721SOL     OW24061   1.560   0.388   2.658
 7721SOL    HW124062   1.514   0.354   2.740
 7721SOL    HW224063   1.630   0.455   2.684
 7722SOL     OW24064   2.286   5.106   4.204
 7722SOL    HW124065   2.374   5.124   4.159
 7722SOL    HW224066   2.213   5.111   4.136
 7723SOL     OW24067   4.680   2.814   6.709
 7723SOL    HW124068   4.703   2.725   6.671
 7723SOL    HW224069   4.688   2.811   6.809
 7724SOL     OW24070   3.046   3.992   1.377
 7724SOL    HW124071   2.948   4.008   1.393
 7724SOL    HW224072   3.057   3.906   1.328
 7725SOL     OW24073   5.614   2.209   2.599
 7725SOL    HW124074   5.635   2.281   2.534
 7725SOL    HW224075   5.659   2.229   2.687
 7726SOL     OW24076   0.560   3.056   5.517
 7726SOL    HW124077   0.497   3.065   5.594
 7726SOL    HW224078   0.585   3.147   5.483
 7727SOL     OW24079   5.111   2.523   2.274
 7727SOL    HW124080   5.130   2.432   2.310
 7727SOL    HW224081   5.012   2.535   2.264
 7728SOL     OW24082   2.363   2.906   5.370
 7728SOL    HW124083   2.428   2.941   5.303
 7728SOL    HW224084   2.276   2.955   5.361
 7729SOL     OW24085   5.781   1.777   2.706
 7729SOL    HW124086   5.710   1.716   2.671
 7729SOL    HW224087   5.867   1.726   2.713
 7730SOL     OW24088   5.839   4.530   5.805
 7730SOL    HW124089   5.746   4.529   5.769
 7730SOL    HW224090   5.872   4.436   5.815
 7731SOL     OW24091   6.075   0.404   0.734
 7731SOL    HW124092   6.066   0.490   0.683
 7731SOL    HW224093   6.083   0.424   0.832
 7732SOL     OW24094   4.620   0.561   6.846
 7732SOL    HW124095   4.685   0.522   6.780
 7732SOL    HW224096   4.671   0.607   6.919
 7733SOL     OW24097   6.611   5.776   2.506
 7733SOL    HW124098   6.542   5.725   2.455
 7733SOL    HW224099   6.629   5.732   2.594
 7734SOL     OW24100   2.253   4.794   5.506
 7734SOL    HW124101   2.247   4.894   5.500
 7734SOL    HW224102   2.342   4.764   5.470
 7735SOL     OW24103   6.378   6.321   0.275
 7735SOL    HW124104   6.437   6.265   0.333
 7735SOL    HW224105   6.380   6.285   0.182
 7736SOL     OW24106   2.530   3.216   0.941
 7736SOL    HW124107   2.628   3.218   0.920
 7736SOL    HW224108   2.497   3.122   0.936
 7737SOL     OW24109   4.038   5.208   1.353
 7737SOL    HW124110   3.958   5.264   1.374
 7737SOL    HW224111   4.115   5.268   1.329
 7738SOL     OW24112   2.662   6.250   0.016
 7738SOL    HW124113   2.592   6.180   7.022
 7738SOL    HW224114   2.711   6.227   0.101
 7739SOL     OW24115   1.762   3.049   2.156
 7739SOL    HW124116   1.743   2.964   2.205
 7739SOL    HW224117   1.757   3.033   2.057
 7740SOL     OW24118   1.363   0.806   3.236
 7740SOL    HW124119   1.384   0.770   3.327
 7740SOL    HW224120   1.410   0.893   3.223
 7741SOL     OW24121   1.949   4.655   5.980
 7741SOL    HW124122   1.853   4.630   5.985
 7741SOL    HW224123   1.957   4.753   5.961
 7742SOL     OW24124   3.813   1.857   3.938
 7742SOL    HW124125   3.753   1.818   3.869
 7742SOL    HW224126   3.775   1.943   3.971
 7743SOL     OW24127   5.200   1.150   6.481
 7743SOL    HW124128   5.245   1.239   6.484
 7743SOL    HW224129   5.104   1.160   6.508
 7744SOL     OW24130   0.789   5.895   5.212
 7744SOL    HW124131   0.779   5.861   5.306
 7744SOL    HW224132   0.886   5.908   5.191
 7745SOL     OW24133   1.862   5.914   6.626
 7745SOL    HW124134   1.943   5.952   6.670
 7745SOL    HW224135   1.840   5.826   6.668
 7746SOL     OW24136   1.085   6.233   1.084
 7746SOL    HW124137   1.169   6.218   1.136
 7746SOL    HW224138   1.059   6.149   1.037
 7747SOL     OW24139   6.922   6.447   1.065
 7747SOL    HW124140   6.878   6.379   1.006
 7747SOL    HW224141   6.980   6.401   1.132
 7748SOL     OW24142   3.877   2.781   5.688
 7748SOL    HW124143   3.783   2.770   5.720
 7748SOL    HW224144   3.929   2.697   5.708
 7749SOL     OW24145   3.816   3.618   3.516
 7749SOL    HW124146   3.879   3.695   3.502
 7749SOL    HW224147   3.800   3.605   3.613
 7750SOL     OW24148   5.746   5.208   6.120
 7750SOL    HW124149   5.697   5.235   6.037
 7750SOL    HW224150   5.706   5.255   6.199
 7751SOL     OW24151   6.885   1.399   3.889
 7751SOL    HW124152   6.879   1.433   3.795
 7751SOL    HW224153   6.793   1.384   3.925
 7752SOL     OW24154   5.690   5.187   5.371
 7752SOL    HW124155   5.736   5.275   5.360
 7752SOL    HW224156   5.600   5.190   5.326
 7753SOL     OW24157   2.862   0.112   4.687
 7753SOL    HW124158   2.823   0.019   4.693
 7753SOL    HW224159   2.875   0.148   4.779
 7754SOL     OW24160   5.893   0.756   0.960
 7754SOL    HW124161   5.847   0.735   0.873
 7754SOL    HW224162   5.926   0.850   0.958
 7755SOL     OW24163   0.526   6.294   5.656
 7755SOL    HW124164   0.489   6.374   5.704
 7755SOL    HW224165   0.619   6.277   5.689
 7756SOL     OW24166   2.920   5.429   2.333
 7756SOL    HW124167   2.942   5.332   2.327
 7756SOL    HW224168   2.821   5.440   2.348
 7757SOL     OW24169   4.967   6.152   5.448
 7757SOL    HW124170   4.977   6.232   5.506
 7757SOL    HW224171   4.871   6.144   5.419
 7758SOL     OW24172   2.210   2.695   6.260
 7758SOL    HW124173   2.239   2.615   6.207
 7758SOL    HW224174   2.255   2.777   6.224
 7759SOL     OW24175   2.211   0.581   4.572
 7759SOL    HW124176   2.174   0.657   4.519
 7759SOL    HW224177   2.297   0.551   4.531
 7760SOL     OW24178   5.352   3.215   1.811
 7760SOL    HW124179   5.285   3.149   1.776
 7760SOL    HW224180   5.419   3.167   1.868
 7761SOL     OW24181   3.292   6.752   6.129
 7761SOL    HW124182   3.213   6.788   6.180
 7761SOL    HW224183   3.306   6.656   6.155
 7762SOL     OW24184   3.999   0.876   6.857
 7762SOL    HW124185   3.996   0.800   6.922
 7762SOL    HW224186   3.990   0.962   6.907
 7763SOL     OW24187   1.418   2.107   0.810
 7763SOL    HW124188   1.452   2.121   0.903
 7763SOL    HW224189   1.343   2.171   0.793
 7764SOL     OW24190   3.900   3.376   2.522
 7764SOL    HW124191   3.937   3.465   2.496
 7764SOL    HW224192   3.814   3.389   2.572
 7765SOL     OW24193   6.318   3.389   3.758
 7765SOL    HW124194   6.283   3.476   3.723
 7765SOL    HW224195   6.278   3.314   3.705
 7766SOL     OW24196   5.765   1.835   0.162
 7766SOL    HW124197   5.779   1.748   0.209
 7766SOL    HW224198   5.844   1.856   0.105
 7767SOL     OW24199   3.878   6.192   3.531
 7767SOL    HW124200   3.788   6.184   3.487
 7767SOL    HW224201   3.867   6.224   3.625
 7768SOL     OW24202   3.414   4.908   2.477
 7768SOL    HW124203   3.427   4.871   2.569
 7768SOL    HW224204   3.485   4.975   2.458
 7769SOL     OW24205   4.595   2.253   1.322
 7769SOL    HW124206   4.554   2.337   1.285
 7769SOL    HW224207   4.614   2.190   1.247
 7770SOL     OW24208   2.693   4.754   1.829
 7770SOL    HW124209   2.739   4.698   1.899
 7770SOL    HW224210   2.756   4.825   1.798
 7771SOL     OW24211   2.741   2.118   4.472
 7771SOL    HW124212   2.837   2.095   4.460
 7771SOL    HW224213   2.728   2.217   4.460
 7772SOL     OW24214   5.346   1.293   3.750
 7772SOL    HW124215   5.407   1.365   3.718
 7772SOL    HW224216   5.354   1.213   3.690
 7773SOL     OW24217   4.095   4.350   6.217
 7773SOL    HW124218   4.086   4.304   6.305
 7773SOL    HW224219   4.038   4.305   6.149
 7774SOL     OW24220   5.397   1.174   5.658
 7774SOL    HW124221   5.434   1.263   5.632
 7774SOL    HW224222   5.321   1.187   5.721
 7775SOL     OW24223   3.542   6.686   3.273
 7775SOL    HW124224   3.612   6.725   3.214
 7775SOL    HW224225   3.576   6.681   3.367
 7776SOL     OW24226   3.549   3.556   6.202
 7776SOL    HW124227   3.596   3.525   6.284
 7776SOL    HW224228   3.454   3.579   6.225
 7777SOL     OW24229   2.038   1.647   5.745
 7777SOL    HW124230   2.039   1.644   5.645
 7777SOL    HW224231   2.058   1.556   5.781
 7778SOL     OW24232   5.778   0.589   0.497
 7778SOL    HW124233   5.726   0.588   0.412
 7778SOL    HW224234   5.808   0.495   0.519
 7779SOL     OW24235   3.257   2.592   0.551
 7779SOL    HW124236   3.203   2.586   0.636
 7779SOL    HW224237   3.312   2.509   0.541
 7780SOL     OW24238   0.939   6.333   4.553
 7780SOL    HW124239   0.949   6.429   4.579
 7780SOL    HW224240   0.846   6.303   4.574
 7781SOL     OW24241   1.488   3.952   5.789
 7781SOL    HW124242   1.409   3.895   5.765
 7781SOL    HW224243   1.478   4.042   5.746
 7782SOL     OW24244   2.113   3.865   5.907
 7782SOL    HW124245   2.048   3.938   5.889
 7782SOL    HW224246   2.114   3.801   5.831
 7783SOL     OW24247   2.479   6.707   6.426
 7783SOL    HW124248   2.445   6.801   6.421
 7783SOL    HW224249   2.403   6.645   6.443
 7784SOL     OW24250   1.180   3.229   6.818
 7784SOL    HW124251   1.155   3.324   6.836
 7784SOL    HW224252   1.134   3.169   6.883
 7785SOL     OW24253   2.393   6.611   3.915
 7785SOL    HW124254   2.425   6.677   3.847
 7785SOL    HW224255   2.472   6.568   3.959
 7786SOL     OW24256   3.095   4.697   5.247
 7786SOL    HW124257   3.138   4.629   5.307
 7786SOL    HW224258   3.008   4.661   5.213
 7787SOL     OW24259   2.138   2.718   5.183
 7787SOL    HW124260   2.236   2.733   5.174
 7787SOL    HW224261   2.103   2.671   5.102
 7788SOL     OW24262   1.562   1.896   1.682
 7788SOL    HW124263   1.622   1.833   1.731
 7788SOL    HW224264   1.600   1.988   1.687
 7789SOL     OW24265   2.207   6.920   1.036
 7789SOL    HW124266   2.218   6.916   0.937
 7789SOL    HW224267   2.285   6.876   1.080
 7790SOL     OW24268   6.518   4.172   3.676
 7790SOL    HW124269   6.475   4.163   3.766
 7790SOL    HW224270   6.510   4.086   3.626
 7791SOL     OW24271   2.793   6.060   4.516
 7791SOL    HW124272   2.745   6.119   4.451
 7791SOL    HW224273   2.889   6.051   4.488
 7792SOL     OW24274   1.714   5.486   6.139
 7792SOL    HW124275   1.778   5.418   6.175
 7792SOL    HW224276   1.620   5.456   6.154
 7793SOL     OW24277   1.659   1.131   5.345
 7793SOL    HW124278   1.566   1.144   5.311
 7793SOL    HW224279   1.723   1.186   5.292
 7794SOL     OW24280   5.377   4.702   4.563
 7794SOL    HW124281   5.412   4.789   4.527
 7794SOL    HW224282   5.416   4.686   4.654
 7795SOL     OW24283   1.901   4.322   5.379
 7795SOL    HW124284   1.896   4.236   5.430
 7795SOL    HW224285   1.948   4.307   5.292
 7796SOL     OW24286   4.052   3.806   3.505
 7796SOL    HW124287   4.027   3.853   3.590
 7796SOL    HW224288   4.113   3.730   3.526
 7797SOL     OW24289   0.758   5.914   3.377
 7797SOL    HW124290   0.762   5.946   3.472
 7797SOL    HW224291   0.696   5.973   3.326
 7798SOL     OW24292   2.532   5.376   0.389
 7798SOL    HW124293   2.479   5.450   0.348
 7798SOL    HW224294   2.586   5.331   0.318
 7799SOL     OW24295   6.836   5.766   1.822
 7799SOL    HW124296   6.903   5.748   1.750
 7799SOL    HW224297   6.749   5.724   1.798
 7800SOL     OW24298   0.659   4.615   1.479
 7800SOL    HW124299   0.569   4.631   1.520
 7800SOL    HW224300   0.673   4.681   1.405
 7801SOL     OW24301   2.406   1.275   0.781
 7801SOL    HW124302   2.443   1.208   0.716
 7801SOL    HW224303   2.400   1.364   0.737
 7802SOL     OW24304   6.021   2.935   1.648
 7802SOL    HW124305   5.987   2.958   1.557
 7802SOL    HW224306   6.085   2.858   1.641
 7803SOL     OW24307   4.419   3.183   5.708
 7803SOL    HW124308   4.501   3.140   5.669
 7803SOL    HW224309   4.344   3.117   5.710
 7804SOL     OW24310   6.067   1.138   4.208
 7804SOL    HW124311   6.096   1.111   4.117
 7804SOL    HW224312   6.136   1.109   4.275
 7805SOL     OW24313   5.627   2.099   1.322
 7805SOL    HW124314   5.551   2.116   1.385
 7805SOL    HW224315   5.594   2.112   1.228
 7806SOL     OW24316   5.566   2.761   5.470
 7806SOL    HW124317   5.589   2.673   5.511
 7806SOL    HW224318   5.482   2.797   5.512
 7807SOL     OW24319   0.325   4.819   6.280
 7807SOL    HW124320   0.273   4.767   6.347
 7807SOL    HW224321   0.372   4.757   6.218
 7808SOL     OW24322   0.858   1.622   5.163
 7808SOL    HW124323   0.821   1.627   5.070
 7808SOL    HW224324   0.950   1.582   5.160
 7809SOL     OW24325   2.317   5.379   4.577
 7809SOL    HW124326   2.268   5.314   4.518
 7809SOL    HW224327   2.413   5.384   4.550
 7810SOL     OW24328   2.861   0.765   5.804
 7810SOL    HW124329   2.936   0.762   5.738
 7810SOL    HW224330   2.784   0.815   5.764
 7811SOL     OW24331   6.207   4.480   4.241
 7811SOL    HW124332   6.234   4.398   4.290
 7811SOL    HW224333   6.131   4.459   4.180
 7812SOL     OW24334   1.469   1.918   3.964
 7812SOL    HW124335   1.409   1.852   3.920
 7812SOL    HW224336   1.479   1.999   3.906
 7813SOL     OW24337   4.958   2.845   6.434
 7813SOL    HW124338   4.936   2.756   6.395
 7813SOL    HW224339   4.984   2.834   6.530
 7814SOL     OW24340   0.321   2.445   3.247
 7814SOL    HW124341   0.387   2.494   3.191
 7814SOL    HW224342   0.240   2.424   3.192
 7815SOL     OW24343   5.314   1.459   6.860
 7815SOL    HW124344   5.317   1.553   6.826
 7815SOL    HW224345   5.341   1.457   6.956
 7816SOL     OW24346   0.965   3.311   5.941
 7816SOL    HW124347   0.903   3.284   6.016
 7816SOL    HW224348   0.973   3.236   5.876
 7817SOL     OW24349   5.893   3.525   4.333
 7817SOL    HW124350   5.828   3.601   4.334
 7817SOL    HW224351   5.920   3.505   4.239
 7818SOL     OW24352   5.876   0.382   1.675
 7818SOL    HW124353   5.899   0.325   1.596
 7818SOL    HW224354   5.846   0.472   1.643
 7819SOL     OW24355   0.225   3.269   1.475
 7819SOL    HW124356   0.296   3.338   1.459
 7819SOL    HW224357   0.154   3.278   1.405
 7820SOL     OW24358   1.833   2.384   4.904
 7820SOL    HW124359   1.793   2.304   4.948
 7820SOL    HW224360   1.852   2.363   4.808
 7821SOL     OW24361   4.475   5.750   1.273
 7821SOL    HW124362   4.500   5.725   1.180
 7821SOL    HW224363   4.474   5.850   1.282
 7822SOL     OW24364   0.572   6.958   5.421
 7822SOL    HW124365   0.568   0.029   5.390
 7822SOL    HW224366   0.558   6.955   5.520
 7823SOL     OW24367   2.367   4.353   4.538
 7823SOL    HW124368   2.406   4.317   4.623
 7823SOL    HW224369   2.440   4.396   4.484
 7824SOL     OW24370   0.100   2.643   5.256
 7824SOL    HW124371   0.103   2.697   5.172
 7824SOL    HW224372   0.078   2.703   5.333
 7825SOL     OW24373   2.345   3.298   6.729
 7825SOL    HW124374   2.422   3.287   6.666
 7825SOL    HW224375   2.260   3.306   6.678
 7826SOL     OW24376   0.155   1.925   0.141
 7826SOL    HW124377   0.244   1.894   0.108
 7826SOL    HW224378   0.140   1.893   0.235
 7827SOL     OW24379   0.352   5.631   2.831
 7827SOL    HW124380   0.287   5.566   2.869
 7827SOL    HW224381   0.430   5.640   2.893
 7828SOL     OW24382   6.860   3.846   6.512
 7828SOL    HW124383   6.876   3.933   6.558
 7828SOL    HW224384   6.854   3.862   6.413
 7829SOL     OW24385   3.301   3.170   1.501
 7829SOL    HW124386   3.278   3.102   1.431
 7829SOL    HW224387   3.310   3.124   1.590
 7830SOL     OW24388   3.519   5.385   5.402
 7830SOL    HW124389   3.503   5.287   5.393
 7830SOL    HW224390   3.443   5.436   5.362
 7831SOL     OW24391   1.682   1.474   1.097
 7831SOL    HW124392   1.725   1.491   1.009
 7831SOL    HW224393   1.623   1.394   1.091
 7832SOL     OW24394   4.909   0.501   4.441
 7832SOL    HW124395   4.919   0.418   4.386
 7832SOL    HW224396   5.000   0.537   4.464
 7833SOL     OW24397   1.467   0.608   4.051
 7833SOL    HW124398   1.475   0.581   4.147
 7833SOL    HW224399   1.479   0.706   4.042
 7834SOL     OW24400   6.600   1.752   4.099
 7834SOL    HW124401   6.524   1.775   4.039
 7834SOL    HW224402   6.570   1.753   4.194
 7835SOL     OW24403   4.206   1.644   5.370
 7835SOL    HW124404   4.299   1.678   5.363
 7835SOL    HW224405   4.206   1.555   5.415
 7836SOL     OW24406   4.091   4.096   5.217
 7836SOL    HW124407   4.169   4.159   5.224
 7836SOL    HW224408   4.041   4.097   5.303
 7837SOL     OW24409   5.825   6.273   0.580
 7837SOL    HW124410   5.900   6.318   0.532
 7837SOL    HW224411   5.786   6.336   0.647
 7838SOL     OW24412   5.078   5.045   1.246
 7838SOL    HW124413   5.116   5.046   1.339
 7838SOL    HW224414   5.141   4.997   1.185
 7839SOL     OW24415   6.095   4.250   4.915
 7839SOL    HW124416   6.148   4.170   4.888
 7839SOL    HW224417   6.132   4.289   4.999
 7840SOL     OW24418   1.151   3.932   3.989
 7840SOL    HW124419   1.094   3.962   3.912
 7840SOL    HW224420   1.246   3.959   3.974
 7841SOL     OW24421   5.099   1.650   6.668
 7841SOL    HW124422   5.038   1.574   6.692
 7841SOL    HW224423   5.121   1.702   6.751
 7842SOL     OW24424   2.158   2.063   2.506
 7842SOL    HW124425   2.154   2.162   2.521
 7842SOL    HW224426   2.172   2.017   2.593
 7843SOL     OW24427   6.604   6.435   4.232
 7843SOL    HW124428   6.668   6.511   4.218
 7843SOL    HW224429   6.586   6.391   4.143
 7844SOL     OW24430   3.370   0.971   2.562
 7844SOL    HW124431   3.357   1.047   2.498
 7844SOL    HW224432   3.453   0.986   2.616
 7845SOL     OW24433   5.742   1.807   1.780
 7845SOL    HW124434   5.740   1.907   1.774
 7845SOL    HW224435   5.779   1.779   1.868
 7846SOL     OW24436   1.543   2.740   0.517
 7846SOL    HW124437   1.619   2.700   0.466
 7846SOL    HW224438   1.556   2.724   0.615
 7847SOL     OW24439   5.551   2.032   3.774
 7847SOL    HW124440   5.526   2.008   3.868
 7847SOL    HW224441   5.539   2.130   3.761
 7848SOL     OW24442   3.135   4.459   0.998
 7848SOL    HW124443   3.085   4.500   1.075
 7848SOL    HW224444   3.070   4.417   0.935
 7849SOL     OW24445   5.453   3.348   5.626
 7849SOL    HW124446   5.364   3.347   5.672
 7849SOL    HW224447   5.449   3.286   5.547
 7850SOL     OW24448   6.838   1.562   3.386
 7850SOL    HW124449   6.859   1.473   3.346
 7850SOL    HW224450   6.872   1.634   3.325
 7851SOL     OW24451   0.719   3.984   1.599
 7851SOL    HW124452   0.808   3.938   1.598
 7851SOL    HW224453   0.711   4.044   1.519
 7852SOL     OW24454   3.030   1.547   0.367
 7852SOL    HW124455   3.123   1.583   0.360
 7852SOL    HW224456   3.016   1.479   0.295
 7853SOL     OW24457   4.267   3.137   1.673
 7853SOL    HW124458   4.215   3.053   1.688
 7853SOL    HW224459   4.329   3.124   1.595
 7854SOL     OW24460   4.767   2.191   6.019
 7854SOL    HW124461   4.833   2.131   6.065
 7854SOL    HW224462   4.696   2.136   5.976
 7855SOL     OW24463   4.811   6.487   4.377
 7855SOL    HW124464   4.744   6.540   4.430
 7855SOL    HW224465   4.847   6.414   4.434
 7856SOL     OW24466   1.507   4.686   4.867
 7856SOL    HW124467   1.528   4.590   4.848
 7856SOL    HW224468   1.589   4.741   4.855
 7857SOL     OW24469   5.184   4.016   0.039
 7857SOL    HW124470   5.187   4.114   0.021
 7857SOL    HW224471   5.254   3.970   7.009
 7858SOL     OW24472   0.113   5.684   5.594
 7858SOL    HW124473   0.051   5.655   5.667
 7858SOL    HW224474   0.137   5.605   5.538
 7859SOL     OW24475   4.833   3.297   6.210
 7859SOL    HW124476   4.777   3.364   6.258
 7859SOL    HW224477   4.807   3.205   6.240
 7860SOL     OW24478   3.394   1.289   4.523
 7860SOL    HW124479   3.308   1.248   4.552
 7860SOL    HW224480   3.380   1.340   4.438
 7861SOL     OW24481   2.812   5.671   1.925
 7861SOL    HW124482   2.881   5.727   1.880
 7861SOL    HW224483   2.773   5.722   2.002
 7862SOL     OW24484   2.837   5.427   2.050
 7862SOL    HW124485   2.796   5.511   2.013
 7862SOL    HW224486   2.837   5.431   2.150
 7863SOL     OW24487   0.071   4.261   3.305
 7863SOL    HW124488   0.102   4.166   3.301
 7863SOL    HW224489   0.123   4.316   3.239
 7864SOL     OW24490   1.965   6.090   6.425
 7864SOL    HW124491   2.017   6.005   6.428
 7864SOL    HW224492   1.881   6.079   6.478
 7865SOL     OW24493   6.007   6.004   3.731
 7865SOL    HW124494   5.916   5.962   3.724
 7865SOL    HW224495   6.019   6.068   3.655
 7866SOL     OW24496   1.835   0.502   5.745
 7866SOL    HW124497   1.860   0.598   5.731
 7866SOL    HW224498   1.914   0.444   5.726
 7867SOL     OW24499   5.513   0.264   4.163
 7867SOL    HW124500   5.555   0.346   4.124
 7867SOL    HW224501   5.553   0.183   4.120
 7868SOL     OW24502   4.120   5.982   0.619
 7868SOL    HW124503   4.072   5.895   0.608
 7868SOL    HW224504   4.168   5.983   0.707
 7869SOL     OW24505   5.514   5.068   5.812
 7869SOL    HW124506   5.584   5.039   5.748
 7869SOL    HW224507   5.527   5.164   5.836
 7870SOL     OW24508   4.915   6.633   5.148
 7870SOL    HW124509   4.985   6.693   5.108
 7870SOL    HW224510   4.939   6.538   5.131
 7871SOL     OW24511   5.196   1.343   2.108
 7871SOL    HW124512   5.284   1.313   2.072
 7871SOL    HW224513   5.162   1.420   2.055
 7872SOL     OW24514   2.096   5.098   2.836
 7872SOL    HW124515   2.109   5.093   2.935
 7872SOL    HW224516   2.012   5.148   2.816
 7873SOL     OW24517   6.846   1.067   0.943
 7873SOL    HW124518   6.924   1.117   0.979
 7873SOL    HW224519   6.805   1.118   0.868
 7874SOL     OW24520   5.532   2.776   0.957
 7874SOL    HW124521   5.608   2.772   1.021
 7874SOL    HW224522   5.470   2.698   0.973
 7875SOL     OW24523   3.836   3.830   0.044
 7875SOL    HW124524   3.853   3.928   0.053
 7875SOL    HW224525   3.916   3.786   0.003
 7876SOL     OW24526   1.138   0.085   2.510
 7876SOL    HW124527   1.062   0.066   2.448
 7876SOL    HW224528   1.104   0.139   2.587
 7877SOL     OW24529   5.921   1.471   2.550
 7877SOL    HW124530   5.967   1.519   2.625
 7877SOL    HW224531   5.902   1.377   2.578
 7878SOL     OW24532   4.860   3.792   3.466
 7878SOL    HW124533   4.839   3.867   3.404
 7878SOL    HW224534   4.849   3.705   3.418
 7879SOL     OW24535   3.088   5.390   3.569
 7879SOL    HW124536   3.183   5.423   3.563
 7879SOL    HW224537   3.070   5.327   3.494
 7880SOL     OW24538   2.320   3.858   1.503
 7880SOL    HW124539   2.402   3.806   1.477
 7880SOL    HW224540   2.277   3.815   1.582
 7881SOL     OW24541   5.079   4.088   4.328
 7881SOL    HW124542   5.135   4.106   4.409
 7881SOL    HW224543   5.111   4.146   4.253
 7882SOL     OW24544   2.545   3.708   1.395
 7882SOL    HW124545   2.515   3.619   1.363
 7882SOL    HW224546   2.563   3.704   1.494
 7883SOL     OW24547   0.490   0.849   4.895
 7883SOL    HW124548   0.467   0.769   4.839
 7883SOL    HW224549   0.491   0.931   4.837
 7884SOL     OW24550   0.274   2.871   4.393
 7884SOL    HW124551   0.285   2.775   4.366
 7884SOL    HW224552   0.327   2.929   4.331
 7885SOL     OW24553   6.116   5.636   0.657
 7885SOL    HW124554   6.125   5.642   0.757
 7885SOL    HW224555   6.058   5.709   0.624
 7886SOL     OW24556   4.537   5.432   0.609
 7886SOL    HW124557   4.611   5.368   0.586
 7886SOL    HW224558   4.567   5.525   0.590
 7887SOL     OW24559   4.230   1.803   6.745
 7887SOL    HW124560   4.256   1.873   6.678
 7887SOL    HW224561   4.174   1.733   6.700
 7888SOL     OW24562   4.961   0.429   4.162
 7888SOL    HW124563   4.869   0.389   4.160
 7888SOL    HW224564   4.955   0.527   4.178
 7889SOL     OW24565   0.370   5.773   2.198
 7889SOL    HW124566   0.443   5.711   2.225
 7889SOL    HW224567   0.398   5.825   2.117
 7890SOL     OW24568   2.158   3.951   2.140
 7890SOL    HW124569   2.138   3.856   2.165
 7890SOL    HW224570   2.075   4.005   2.151
 7891SOL     OW24571   2.611   4.674   2.196
 7891SOL    HW124572   2.687   4.649   2.136
 7891SOL    HW224573   2.629   4.764   2.237
 7892SOL     OW24574   1.954   2.518   5.565
 7892SOL    HW124575   1.923   2.516   5.470
 7892SOL    HW224576   2.006   2.601   5.581
 7893SOL     OW24577   5.660   6.951   0.864
 7893SOL    HW124578   5.579   7.007   0.847
 7893SOL    HW224579   5.741   7.009   0.867
 7894SOL     OW24580   2.185   6.342   2.309
 7894SOL    HW124581   2.125   6.422   2.317
 7894SOL    HW224582   2.273   6.362   2.352
 7895SOL     OW24583   6.083   1.327   4.716
 7895SOL    HW124584   6.097   1.378   4.631
 7895SOL    HW224585   6.072   1.230   4.694
 7896SOL     OW24586   5.116   3.705   5.493
 7896SOL    HW124587   5.067   3.747   5.569
 7896SOL    HW224588   5.054   3.692   5.416
 7897SOL     OW24589   2.007   3.758   6.586
 7897SOL    HW124590   2.055   3.814   6.655
 7897SOL    HW224591   1.996   3.665   6.621
 7898SOL     OW24592   4.274   2.093   4.003
 7898SOL    HW124593   4.265   2.169   3.939
 7898SOL    HW224594   4.293   2.129   4.095
 7899SOL     OW24595   5.845   2.419   1.717
 7899SOL    HW124596   5.876   2.511   1.690
 7899SOL    HW224597   5.853   2.410   1.816
 7900SOL     OW24598   1.613   5.381   1.357
 7900SOL    HW124599   1.552   5.328   1.417
 7900SOL    HW224600   1.645   5.462   1.406
 7901SOL     OW24601   6.192   6.941   6.335
 7901SOL    HW124602   6.103   6.918   6.377
 7901SOL    HW224603   6.186   6.930   6.236
 7902SOL     OW24604   4.325   4.696   1.223
 7902SOL    HW124605   4.331   4.734   1.316
 7902SOL    HW224606   4.374   4.756   1.160
 7903SOL     OW24607   6.312   1.812   0.359
 7903SOL    HW124608   6.285   1.843   0.268
 7903SOL    HW224609   6.363   1.884   0.406
 7904SOL     OW24610   0.063   0.664   2.835
 7904SOL    HW124611   7.003   0.701   2.875
 7904SOL    HW224612   0.110   0.735   2.782
 7905SOL     OW24613   3.793   1.648   1.289
 7905SOL    HW124614   3.865   1.704   1.248
 7905SOL    HW224615   3.834   1.585   1.355
 7906SOL     OW24616   6.270   5.879   6.648
 7906SOL    HW124617   6.179   5.877   6.605
 7906SOL    HW224618   6.260   5.899   6.746
 7907SOL     OW24619   6.315   2.239   4.152
 7907SOL    HW124620   6.392   2.193   4.106
 7907SOL    HW224621   6.333   2.337   4.155
 7908SOL     OW24622   0.514   1.262   3.280
 7908SOL    HW124623   0.592   1.301   3.328
 7908SOL    HW224624   0.450   1.221   3.345
 7909SOL     OW24625   4.903   3.765   4.616
 7909SOL    HW124626   4.900   3.785   4.714
 7909SOL    HW224627   4.858   3.839   4.566
 7910SOL     OW24628   4.130   3.391   6.204
 7910SOL    HW124629   4.197   3.317   6.192
 7910SOL    HW224630   4.150   3.464   6.138
 7911SOL     OW24631   6.847   4.797   0.702
 7911SOL    HW124632   6.869   4.704   0.732
 7911SOL    HW224633   6.896   4.817   0.617
 7912SOL     OW24634   6.003   4.869   6.197
 7912SOL    HW124635   6.078   4.806   6.216
 7912SOL    HW224636   5.950   4.835   6.119
 7913SOL     OW24637   0.137   5.133   6.582
 7913SOL    HW124638   0.052   5.150   6.533
 7913SOL    HW224639   0.124   5.058   6.647
 7914SOL     OW24640   6.285   4.825   0.987
 7914SOL    HW124641   6.242   4.871   0.910
 7914SOL    HW224642   6.256   4.729   0.989
 7915SOL     OW24643   4.805   1.969   3.295
 7915SOL    HW124644   4.815   1.914   3.212
 7915SOL    HW224645   4.748   1.920   3.360
 7916SOL     OW24646   5.429   3.186   5.407
 7916SOL    HW124647   5.457   3.197   5.312
 7916SOL    HW224648   5.410   3.090   5.426
 7917SOL     OW24649   3.963   3.912   4.629
 7917SOL    HW124650   3.954   3.984   4.698
 7917SOL    HW224651   3.872   3.888   4.594
 7918SOL     OW24652   6.552   1.180   1.720
 7918SOL    HW124653   6.571   1.139   1.810
 7918SOL    HW224654   6.454   1.189   1.708
 7919SOL     OW24655   5.894   4.556   2.160
 7919SOL    HW124656   5.931   4.646   2.140
 7919SOL    HW224657   5.946   4.514   2.234
 7920SOL     OW24658   0.646   4.936   1.601
 7920SOL    HW124659   0.647   4.873   1.523
 7920SOL    HW224660   0.629   4.885   1.685
 7921SOL     OW24661   2.337   6.403   1.613
 7921SOL    HW124662   2.389   6.459   1.678
 7921SOL    HW224663   2.272   6.462   1.564
 7922SOL     OW24664   0.062   5.400   6.928
 7922SOL    HW124665   0.020   5.331   6.987
 7922SOL    HW224666   0.010   5.408   6.844
 7923SOL     OW24667   1.650   1.336   3.280
 7923SOL    HW124668   1.742   1.335   3.319
 7923SOL    HW224669   1.655   1.364   3.184
 7924SOL     OW24670   3.148   6.752   3.663
 7924SOL    HW124671   3.155   6.677   3.597
 7924SOL    HW224672   3.061   6.744   3.712
 7925SOL     OW24673   6.276   1.424   6.099
 7925SOL    HW124674   6.248   1.461   6.010
 7925SOL    HW224675   6.210   1.355   6.128
 7926SOL     OW24676   3.112   1.277   3.065
 7926SOL    HW124677   3.023   1.288   3.111
 7926SOL    HW224678   3.142   1.365   3.029
 7927SOL     OW24679   3.992   5.413   5.394
 7927SOL    HW124680   3.941   5.338   5.352
 7927SOL    HW224681   3.930   5.475   5.441
 7928SOL     OW24682   1.949   5.062   3.163
 7928SOL    HW124683   2.046   5.089   3.159
 7928SOL    HW224684   1.943   4.963   3.176
 7929SOL     OW24685   3.658   3.762   4.627
 7929SOL    HW124686   3.634   3.712   4.544
 7929SOL    HW224687   3.667   3.860   4.607
 7930SOL     OW24688   4.137   5.088   3.389
 7930SOL    HW124689   4.113   5.181   3.416
 7930SOL    HW224690   4.073   5.056   3.319
 7931SOL     OW24691   2.098   2.372   0.054
 7931SOL    HW124692   2.126   2.454   0.003
 7931SOL    HW224693   2.163   2.298   0.038
 7932SOL     OW24694   2.223   0.077   0.143
 7932SOL    HW124695   2.256   0.090   0.049
 7932SOL    HW224696   2.294   0.108   0.207
 7933SOL     OW24697   0.593   6.791   6.562
 7933SOL    HW124698   0.629   6.707   6.520
 7933SOL    HW224699   0.629   6.799   6.655
 7934SOL     OW24700   2.555   3.735   0.091
 7934SOL    HW124701   2.502   3.796   0.032
 7934SOL    HW224702   2.606   3.790   0.158
 7935SOL     OW24703   4.905   6.243   0.960
 7935SOL    HW124704   4.944   6.334   0.945
 7935SOL    HW224705   4.813   6.239   0.922
 7936SOL     OW24706   3.894   6.278   3.127
 7936SOL    HW124707   3.819   6.325   3.173
 7936SOL    HW224708   3.970   6.266   3.191
 7937SOL     OW24709   5.931   6.467   5.474
 7937SOL    HW124710   5.852   6.424   5.517
 7937SOL    HW224711   5.933   6.564   5.499
 7938SOL     OW24712   3.941   5.256   4.720
 7938SOL    HW124713   3.944   5.216   4.628
 7938SOL    HW224714   4.029   5.299   4.739
 7939SOL     OW24715   0.991   1.334   5.381
 7939SOL    HW124716   1.005   1.354   5.284
 7939SOL    HW224717   0.911   1.275   5.391
 7940SOL     OW24718   2.091   5.245   1.306
 7940SOL    HW124719   2.081   5.211   1.399
 7940SOL    HW224720   2.134   5.335   1.307
 7941SOL     OW24721   0.452   1.301   0.621
 7941SOL    HW124722   0.544   1.313   0.582
 7941SOL    HW224723   0.412   1.216   0.586
 7942SOL     OW24724   0.508   6.655   2.060
 7942SOL    HW124725   0.424   6.708   2.045
 7942SOL    HW224726   0.576   6.682   1.993
 7943SOL     OW24727   5.207   2.161   1.203
 7943SOL    HW124728   5.124   2.172   1.148
 7943SOL    HW224729   5.182   2.126   1.294
 7944SOL     OW24730   0.128   3.338   1.214
 7944SOL    HW124731   0.053   3.273   1.202
 7944SOL    HW224732   0.158   3.371   1.124
 7945SOL     OW24733   5.229   6.708   2.961
 7945SOL    HW124734   5.159   6.664   3.017
 7945SOL    HW224735   5.310   6.728   3.017
 7946SOL     OW24736   1.388   2.623   6.205
 7946SOL    HW124737   1.473   2.621   6.257
 7946SOL    HW224738   1.344   2.534   6.210
 7947SOL     OW24739   3.743   2.818   6.303
 7947SOL    HW124740   3.779   2.858   6.388
 7947SOL    HW224741   3.643   2.823   6.304
 7948SOL     OW24742   6.877   0.252   0.672
 7948SOL    HW124743   6.932   0.275   0.752
 7948SOL    HW224744   6.845   0.336   0.628
 7949SOL     OW24745   5.117   4.931   3.876
 7949SOL    HW124746   5.083   5.012   3.924
 7949SOL    HW224747   5.193   4.892   3.929
 7950SOL     OW24748   3.860   4.946   3.476
 7950SOL    HW124749   3.865   5.024   3.539
 7950SOL    HW224750   3.940   4.888   3.489
 7951SOL     OW24751   2.990   3.493   0.970
 7951SOL    HW124752   2.904   3.531   0.939
 7951SOL    HW224753   2.976   3.442   1.055
 7952SOL     OW24754   6.829   2.798   6.683
 7952SOL    HW124755   6.775   2.811   6.766
 7952SOL    HW224756   6.819   2.703   6.651
 7953SOL     OW24757   2.387   2.754   3.149
 7953SOL    HW124758   2.438   2.703   3.080
 7953SOL    HW224759   2.416   2.725   3.240
 7954SOL     OW24760   4.449   5.139   5.320
 7954SOL    HW124761   4.407   5.218   5.364
 7954SOL    HW224762   4.520   5.169   5.256
 7955SOL     OW24763   6.903   6.604   6.791
 7955SOL    HW124764   6.872   6.634   6.881
 7955SOL    HW224765   6.957   6.677   6.749
 7956SOL     OW24766   0.127   6.045   3.455
 7956SOL    HW124767   0.193   6.074   3.524
 7956SOL    HW224768   0.125   6.112   3.380
 7957SOL     OW24769   1.218   1.958   0.362
 7957SOL    HW124770   1.129   2.001   0.344
 7957SOL    HW224771   1.284   2.027   0.390
 7958SOL     OW24772   3.282   5.596   4.048
 7958SOL    HW124773   3.307   5.641   3.962
 7958SOL    HW224774   3.183   5.585   4.052
 7959SOL     OW24775   5.568   4.722   0.332
 7959SOL    HW124776   5.655   4.725   0.283
 7959SOL    HW224777   5.538   4.815   0.353
 7960SOL     OW24778   3.228   1.242   0.986
 7960SOL    HW124779   3.302   1.178   0.965
 7960SOL    HW224780   3.254   1.334   0.955
 7961SOL     OW24781   1.181   6.265   6.157
 7961SOL    HW124782   1.213   6.309   6.241
 7961SOL    HW224783   1.130   6.331   6.102
 7962SOL     OW24784   2.308   1.006   1.449
 7962SOL    HW124785   2.370   1.075   1.412
 7962SOL    HW224786   2.283   0.941   1.377
 7963SOL     OW24787   0.376   0.882   5.599
 7963SOL    HW124788   0.389   0.952   5.669
 7963SOL    HW224789   0.328   0.804   5.638
 7964SOL     OW24790   5.364   4.698   3.094
 7964SOL    HW124791   5.354   4.759   3.015
 7964SOL    HW224792   5.435   4.734   3.155
 7965SOL     OW24793   4.371   2.105   0.639
 7965SOL    HW124794   4.288   2.132   0.589
 7965SOL    HW224795   4.415   2.186   0.678
 7966SOL     OW24796   1.420   4.799   4.185
 7966SOL    HW124797   1.419   4.831   4.279
 7966SOL    HW224798   1.377   4.709   4.180
 7967SOL     OW24799   3.177   5.807   2.820
 7967SOL    HW124800   3.103   5.740   2.828
 7967SOL    HW224801   3.265   5.759   2.814
 7968SOL     OW24802   2.597   2.068   3.916
 7968SOL    HW124803   2.621   2.120   3.833
 7968SOL    HW224804   2.641   2.111   3.995
 7969SOL     OW24805   4.118   0.520   3.154
 7969SOL    HW124806   4.145   0.424   3.152
 7969SOL    HW224807   4.149   0.564   3.069
 7970SOL     OW24808   6.743   3.863   2.925
 7970SOL    HW124809   6.711   3.958   2.919
 7970SOL    HW224810   6.798   3.852   3.008
 7971SOL     OW24811   2.659   0.747   2.127
 7971SOL    HW124812   2.612   0.712   2.046
 7971SOL    HW224813   2.694   0.670   2.180
 7972SOL     OW24814   0.149   4.436   1.130
 7972SOL    HW124815   0.150   4.386   1.217
 7972SOL    HW224816   0.217   4.509   1.133
 7973SOL     OW24817   5.136   3.319   3.688
 7973SOL    HW124818   5.175   3.407   3.662
 7973SOL    HW224819   5.144   3.306   3.787
 7974SOL     OW24820   5.374   0.548   4.315
 7974SOL    HW124821   5.291   0.588   4.353
 7974SOL    HW224822   5.446   0.549   4.384
 7975SOL     OW24823   3.789   0.179   4.516
 7975SOL    HW124824   3.749   0.270   4.525
 7975SOL    HW224825   3.844   0.175   4.432
 7976SOL     OW24826   0.970   6.740   4.902
 7976SOL    HW124827   1.068   6.762   4.905
 7976SOL    HW224828   0.918   6.824   4.887
 7977SOL     OW24829   5.248   5.750   2.333
 7977SOL    HW124830   5.254   5.678   2.403
 7977SOL    HW224831   5.323   5.739   2.268
 7978SOL     OW24832   4.461   3.433   6.230
 7978SOL    HW124833   4.553   3.439   6.269
 7978SOL    HW224834   4.462   3.471   6.138
 7979SOL     OW24835   3.033   0.420   4.738
 7979SOL    HW124836   3.119   0.471   4.734
 7979SOL    HW224837   2.989   0.422   4.648
 7980SOL     OW24838   3.814   6.214   0.340
 7980SOL    HW124839   3.790   6.118   0.326
 7980SOL    HW224840   3.738   6.261   0.384
 7981SOL     OW24841   0.879   5.002   2.322
 7981SOL    HW124842   0.859   4.915   2.278
 7981SOL    HW224843   0.812   5.070   2.295
 7982SOL     OW24844   6.715   2.678   0.649
 7982SOL    HW124845   6.740   2.582   0.636
 7982SOL    HW224846   6.793   2.736   0.626
 7983SOL     OW24847   5.263   1.611   2.530
 7983SOL    HW124848   5.333   1.551   2.568
 7983SOL    HW224849   5.258   1.695   2.584
 7984SOL     OW24850   1.345   2.032   2.356
 7984SOL    HW124851   1.347   2.006   2.260
 7984SOL    HW224852   1.416   2.100   2.374
 7985SOL     OW24853   0.899   0.661   2.700
 7985SOL    HW124854   0.997   0.678   2.704
 7985SOL    HW224855   0.882   0.562   2.704
 7986SOL     OW24856   4.070   1.457   6.481
 7986SOL    HW124857   4.110   1.436   6.391
 7986SOL    HW224858   3.999   1.526   6.470
 7987SOL     OW24859   0.603   2.786   5.595
 7987SOL    HW124860   0.580   2.737   5.511
 7987SOL    HW224861   0.610   2.884   5.575
 7988SOL     OW24862   3.033   2.131   4.497
 7988SOL    HW124863   3.016   2.152   4.594
 7988SOL    HW224864   3.066   2.037   4.489
 7989SOL     OW24865   3.559   2.511   5.328
 7989SOL    HW124866   3.473   2.561   5.325
 7989SOL    HW224867   3.558   2.439   5.258
 7990SOL     OW24868   0.866   3.158   4.165
 7990SOL    HW124869   0.823   3.244   4.137
 7990SOL    HW224870   0.935   3.177   4.235
 7991SOL     OW24871   0.344   2.474   5.729
 7991SOL    HW124872   0.423   2.513   5.778
 7991SOL    HW224873   0.373   2.443   5.638
 7992SOL     OW24874   1.636   0.169   0.741
 7992SOL    HW124875   1.609   0.076   0.719
 7992SOL    HW224876   1.702   0.168   0.816
 7993SOL     OW24877   1.704   5.542   6.543
 7993SOL    HW124878   1.710   5.594   6.629
 7993SOL    HW224879   1.616   5.559   6.500
 7994SOL     OW24880   4.566   0.990   4.077
 7994SOL    HW124881   4.516   0.914   4.036
 7994SOL    HW224882   4.563   0.983   4.177
 7995SOL     OW24883   3.742   5.176   3.590
 7995SOL    HW124884   3.708   5.244   3.525
 7995SOL    HW224885   3.702   5.193   3.680
 7996SOL     OW24886   3.360   6.851   4.277
 7996SOL    HW124887   3.411   6.766   4.264
 7996SOL    HW224888   3.322   6.881   4.189
 7997SOL     OW24889   6.476   2.154   0.972
 7997SOL    HW124890   6.415   2.234   0.977
 7997SOL    HW224891   6.489   2.116   1.063
 7998SOL     OW24892   5.219   4.621   0.244
 7998SOL    HW124893   5.167   4.662   0.319
 7998SOL    HW224894   5.317   4.634   0.260
 7999SOL     OW24895   1.214   0.055   5.440
 7999SOL    HW124896   1.234   0.096   5.351
 7999SOL    HW224897   1.257   0.110   5.512
 8000SOL     OW24898   6.274   0.363   6.171
 8000SOL    HW124899   6.298   0.300   6.245
 8000SOL    HW224900   6.201   0.324   6.116
 8001SOL     OW24901   1.572   6.469   1.981
 8001SOL    HW124902   1.474   6.448   1.976
 8001SOL    HW224903   1.616   6.444   1.895
 8002SOL     OW24904   6.980   3.667   4.988
 8002SOL    HW124905   0.017   3.699   5.061
 8002SOL    HW224906   0.011   3.628   4.914
 8003SOL     OW24907   3.192   5.243   2.908
 8003SOL    HW124908   3.217   5.164   2.965
 8003SOL    HW224909   3.124   5.216   2.841
 8004SOL     OW24910   2.205   4.153   3.213
 8004SOL    HW124911   2.205   4.092   3.292
 8004SOL    HW224912   2.208   4.248   3.245
 8005SOL     OW24913   3.232   0.796   1.959
 8005SOL    HW124914   3.276   0.707   1.963
 8005SOL    HW224915   3.236   0.840   2.049
 8006SOL     OW24916   2.780   5.975   0.268
 8006SOL    HW124917   2.742   5.983   0.361
 8006SOL    HW224918   2.720   5.918   0.212
 8007SOL     OW24919   0.700   0.224   3.870
 8007SOL    HW124920   0.612   0.178   3.864
 8007SOL    HW224921   0.706   0.295   3.799
 8008SOL     OW24922   5.792   6.218   6.547
 8008SOL    HW124923   5.875   6.244   6.498
 8008SOL    HW224924   5.723   6.290   6.537
 8009SOL     OW24925   6.957   0.426   3.032
 8009SOL    HW124926   6.884   0.495   3.038
 8009SOL    HW224927   6.964   0.394   2.938
 8010SOL     OW24928   2.347   1.886   6.890
 8010SOL    HW124929   2.394   1.810   6.846
 8010SOL    HW224930   2.317   1.860   6.982
 8011SOL     OW24931   2.644   2.209   1.164
 8011SOL    HW124932   2.599   2.283   1.214
 8011SOL    HW224933   2.709   2.248   1.098
 8012SOL     OW24934   1.675   6.894   1.302
 8012SOL    HW124935   1.609   6.820   1.292
 8012SOL    HW224936   1.660   6.962   1.230
 8013SOL     OW24937   6.221   4.918   4.151
 8013SOL    HW124938   6.296   4.862   4.116
 8013SOL    HW224939   6.198   4.889   4.244
 8014SOL     OW24940   1.606   5.868   6.477
 8014SOL    HW124941   1.623   5.887   6.574
 8014SOL    HW224942   1.692   5.865   6.428
 8015SOL     OW24943   2.829   2.691   0.764
 8015SOL    HW124944   2.881   2.775   0.750
 8015SOL    HW224945   2.751   2.690   0.702
 8016SOL     OW24946   4.683   0.320   0.664
 8016SOL    HW124947   4.701   0.330   0.566
 8016SOL    HW224948   4.662   0.410   0.702
 8017SOL     OW24949   0.002   4.572   5.600
 8017SOL    HW124950   6.984   4.541   5.515
 8017SOL    HW224951   6.966   4.551   5.677
 8018SOL     OW24952   4.605   1.700   5.740
 8018SOL    HW124953   4.652   1.678   5.826
 8018SOL    HW224954   4.524   1.643   5.731
 8019SOL     OW24955   1.535   5.018   0.599
 8019SOL    HW124956   1.635   5.022   0.605
 8019SOL    HW224957   1.502   5.089   0.537
 8020SOL     OW24958   6.033   5.984   6.304
 8020SOL    HW124959   5.955   6.036   6.269
 8020SOL    HW224960   6.033   5.987   6.404
 8021SOL     OW24961   0.886   1.906   1.909
 8021SOL    HW124962   0.983   1.881   1.914
 8021SOL    HW224963   0.845   1.866   1.828
 8022SOL     OW24964   4.464   0.176   3.128
 8022SOL    HW124965   4.494   0.271   3.131
 8022SOL    HW224966   4.447   0.148   3.034
 8023SOL     OW24967   6.212   6.035   2.539
 8023SOL    HW124968   6.204   5.935   2.546
 8023SOL    HW224969   6.279   6.068   2.605
 8024SOL     OW24970   4.551   5.640   6.160
 8024SOL    HW124971   4.482   5.571   6.137
 8024SOL    HW224972   4.531   5.724   6.111
 8025SOL     OW24973   3.627   6.184   6.424
 8025SOL    HW124974   3.557   6.165   6.355
 8025SOL    HW224975   3.696   6.246   6.385
 8026SOL     OW24976   0.807   3.386   6.538
 8026SOL    HW124977   0.834   3.456   6.604
 8026SOL    HW224978   0.722   3.343   6.568
 8027SOL     OW24979   4.467   1.779   5.237
 8027SOL    HW124980   4.500   1.780   5.143
 8027SOL    HW224981   4.505   1.700   5.286
 8028SOL     OW24982   4.700   5.234   5.819
 8028SOL    HW124983   4.713   5.303   5.890
 8028SOL    HW224984   4.603   5.224   5.800
 8029SOL     OW24985   4.511   4.342   6.553
 8029SOL    HW124986   4.542   4.264   6.499
 8029SOL    HW224987   4.580   4.413   6.552
 8030SOL     OW24988   5.489   4.645   5.501
 8030SOL    HW124989   5.418   4.578   5.476
 8030SOL    HW224990   5.533   4.617   5.586
 8031SOL     OW24991   5.021   5.145   1.726
 8031SOL    HW124992   4.972   5.193   1.653
 8031SOL    HW224993   5.022   5.047   1.705
 8032SOL     OW24994   6.305   4.154   4.743
 8032SOL    HW124995   6.357   4.214   4.804
 8032SOL    HW224996   6.358   4.071   4.724
 8033SOL     OW24997   5.514   2.550   6.948
 8033SOL    HW124998   5.432   2.494   6.957
 8033SOL    HW224999   5.519   2.615   0.000
 8034SOL     OW25000   5.610   6.797   5.621
 8034SOL    HW125001   5.671   6.781   5.543
 8034SOL    HW225002   5.516   6.809   5.588
 8035SOL     OW25003   6.015   6.152   5.553
 8035SOL    HW125004   6.043   6.104   5.470
 8035SOL    HW225005   5.925   6.118   5.582
 8036SOL     OW25006   2.235   3.725   1.734
 8036SOL    HW125007   2.253   3.632   1.766
 8036SOL    HW225008   2.187   3.777   1.805
 8037SOL     OW25009   2.213   2.933   0.945
 8037SOL    HW125010   2.135   2.935   1.008
 8037SOL    HW225011   2.217   3.020   0.895
 8038SOL     OW25012   6.433   2.002   3.298
 8038SOL    HW125013   6.479   1.913   3.289
 8038SOL    HW225014   6.469   2.050   3.378
 8039SOL     OW25015   2.514   0.534   2.701
 8039SOL    HW125016   2.506   0.434   2.698
 8039SOL    HW225017   2.430   0.576   2.666
 8040SOL     OW25018   0.418   5.478   1.134
 8040SOL    HW125019   0.493   5.484   1.069
 8040SOL    HW225020   0.432   5.399   1.193
 8041SOL     OW25021   3.657   0.887   1.462
 8041SOL    HW125022   3.723   0.956   1.434
 8041SOL    HW225023   3.584   0.880   1.393
 8042SOL     OW25024   3.824   2.915   2.158
 8042SOL    HW125025   3.920   2.903   2.184
 8042SOL    HW225026   3.782   2.986   2.215
 8043SOL     OW25027   2.688   0.569   0.490
 8043SOL    HW125028   2.778   0.601   0.460
 8043SOL    HW225029   2.620   0.588   0.419
 8044SOL     OW25030   2.933   2.811   1.457
 8044SOL    HW125031   2.907   2.899   1.497
 8044SOL    HW225032   2.926   2.740   1.527
 8045SOL     OW25033   6.017   1.612   2.753
 8045SOL    HW125034   6.009   1.661   2.839
 8045SOL    HW225035   6.106   1.632   2.711
 8046SOL     OW25036   5.373   4.476   5.272
 8046SOL    HW125037   5.377   4.383   5.310
 8046SOL    HW225038   5.279   4.497   5.247
 8047SOL     OW25039   3.435   5.987   4.402
 8047SOL    HW125040   3.481   6.067   4.363
 8047SOL    HW225041   3.424   5.917   4.331
 8048SOL     OW25042   6.419   0.556   5.672
 8048SOL    HW125043   6.329   0.523   5.701
 8048SOL    HW225044   6.483   0.480   5.666
 8049SOL     OW25045   0.823   0.017   1.229
 8049SOL    HW125046   0.814   0.065   1.317
 8049SOL    HW225047   0.919   0.018   1.201
 8050SOL     OW25048   1.672   3.337   1.184
 8050SOL    HW125049   1.663   3.393   1.102
 8050SOL    HW225050   1.766   3.304   1.192
 8051SOL     OW25051   4.589   0.932   3.063
 8051SOL    HW125052   4.491   0.946   3.049
 8051SOL    HW225053   4.640   1.006   3.019
 8052SOL     OW25054   3.401   1.865   2.416
 8052SOL    HW125055   3.425   1.962   2.423
 8052SOL    HW225056   3.395   1.839   2.320
 8053SOL     OW25057   3.771   4.005   2.918
 8053SOL    HW125058   3.731   3.918   2.889
 8053SOL    HW225059   3.731   4.080   2.867
 8054SOL     OW25060   4.541   6.474   4.573
 8054SOL    HW125061   4.486   6.446   4.651
 8054SOL    HW225062   4.489   6.460   4.489
 8055SOL     OW25063   0.876   0.128   5.974
 8055SOL    HW125064   0.788   0.170   5.995
 8055SOL    HW225065   0.880   0.036   6.013
 8056SOL     OW25066   4.754   1.419   3.171
 8056SOL    HW125067   4.782   1.329   3.206
 8056SOL    HW225068   4.696   1.464   3.238
 8057SOL     OW25069   3.024   0.771   3.079
 8057SOL    HW125070   2.982   0.733   2.997
 8057SOL    HW225071   3.039   0.869   3.066
 8058SOL     OW25072   2.811   0.540   2.250
 8058SOL    HW125073   2.844   0.459   2.202
 8058SOL    HW225074   2.753   0.511   2.326
 8059SOL     OW25075   3.436   2.107   4.995
 8059SOL    HW125076   3.473   2.160   5.072
 8059SOL    HW225077   3.429   2.167   4.915
 8060SOL     OW25078   0.087   1.001   4.293
 8060SOL    HW125079   0.012   1.019   4.229
 8060SOL    HW225080   0.125   1.088   4.324
 8061SOL     OW25081   6.367   5.626   2.859
 8061SOL    HW125082   6.342   5.686   2.935
 8061SOL    HW225083   6.291   5.623   2.794
 8062SOL     OW25084   1.443   4.262   4.554
 8062SOL    HW125085   1.442   4.273   4.454
 8062SOL    HW225086   1.393   4.178   4.578
 8063SOL     OW25087   3.019   3.487   6.864
 8063SOL    HW125088   3.014   3.388   6.850
 8063SOL    HW225089   2.933   3.519   6.905
 8064SOL     OW25090   0.315   3.938   0.070
 8064SOL    HW125091   0.371   3.882   0.130
 8064SOL    HW225092   0.361   3.949   7.005
 8065SOL     OW25093   5.007   6.863   4.525
 8065SOL    HW125094   4.928   6.808   4.497
 8065SOL    HW225095   4.987   6.960   4.513
 8066SOL     OW25096   1.856   1.269   0.447
 8066SOL    HW125097   1.927   1.337   0.425
 8066SOL    HW225098   1.798   1.254   0.367
 8067SOL     OW25099   4.196   2.831   1.637
 8067SOL    HW125100   4.290   2.805   1.612
 8067SOL    HW225101   4.154   2.881   1.561
 8068SOL     OW25102   0.368   4.843   4.685
 8068SOL    HW125103   0.275   4.809   4.693
 8068SOL    HW225104   0.370   4.939   4.713
 8069SOL     OW25105   1.826   6.176   1.308
 8069SOL    HW125106   1.914   6.201   1.349
 8069SOL    HW225107   1.837   6.171   1.208
 8070SOL     OW25108   3.527   5.943   1.790
 8070SOL    HW125109   3.485   5.888   1.862
 8070SOL    HW225110   3.569   6.024   1.830
 8071SOL     OW25111   3.973   6.414   5.319
 8071SOL    HW125112   3.902   6.435   5.387
 8071SOL    HW225113   4.004   6.499   5.276
 8072SOL     OW25114   4.502   1.282   0.664
 8072SOL    HW125115   4.538   1.361   0.614
 8072SOL    HW225116   4.422   1.246   0.617
 8073SOL     OW25117   4.897   6.883   6.291
 8073SOL    HW125118   4.858   6.840   6.210
 8073SOL    HW225119   4.877   6.981   6.291
 8074SOL     OW25120   3.369   3.582   0.403
 8074SOL    HW125121   3.387   3.681   0.408
 8074SOL    HW225122   3.305   3.556   0.476
 8075SOL     OW25123   6.813   1.145   2.131
 8075SOL    HW125124   6.810   1.204   2.211
 8075SOL    HW225125   6.797   1.050   2.159
 8076SOL     OW25126   5.425   2.405   5.352
 8076SOL    HW125127   5.405   2.493   5.308
 8076SOL    HW225128   5.441   2.335   5.282
 8077SOL     OW25129   1.391   0.158   1.440
 8077SOL    HW125130   1.362   0.208   1.358
 8077SOL    HW225131   1.466   0.207   1.484
 8078SOL     OW25132   7.019   2.337   0.878
 8078SOL    HW125133   0.042   2.288   0.952
 8078SOL    HW225134   6.920   2.329   0.892
 8079SOL     OW25135   6.505   2.356   3.156
 8079SOL    HW125136   6.585   2.345   3.097
 8079SOL    HW225137   6.422   2.360   3.100
 8080SOL     OW25138   2.114   3.730   0.481
 8080SOL    HW125139   2.150   3.737   0.388
 8080SOL    HW225140   2.185   3.754   0.546
 8081SOL     OW25141   5.722   0.792   5.205
 8081SOL    HW125142   5.722   0.876   5.259
 8081SOL    HW225143   5.662   0.724   5.248
 8082SOL     OW25144   6.060   2.461   3.210
 8082SOL    HW125145   5.992   2.523   3.170
 8082SOL    HW225146   6.068   2.379   3.154
 8083SOL     OW25147   4.951   3.152   2.759
 8083SOL    HW125148   4.907   3.177   2.845
 8083SOL    HW225149   4.917   3.064   2.729
 8084SOL     OW25150   6.421   6.249   1.493
 8084SOL    HW125151   6.385   6.318   1.555
 8084SOL    HW225152   6.476   6.293   1.422
 8085SOL     OW25153   5.505   0.530   0.832
 8085SOL    HW125154   5.560   0.455   0.795
 8085SOL    HW225155   5.487   0.513   0.929
 8086SOL     OW25156   4.100   0.262   4.490
 8086SOL    HW125157   4.031   0.243   4.420
 8086SOL    HW225158   4.080   0.351   4.532
 8087SOL     OW25159   2.850   2.279   0.994
 8087SOL    HW125160   2.920   2.338   1.034
 8087SOL    HW225161   2.788   2.334   0.937
 8088SOL     OW25162   5.828   0.715   2.349
 8088SOL    HW125163   5.914   0.687   2.306
 8088SOL    HW225164   5.775   0.634   2.375
 8089SOL     OW25165   4.932   2.711   0.694
 8089SOL    HW125166   5.022   2.747   0.718
 8089SOL    HW225167   4.907   2.742   0.602
 8090SOL     OW25168   5.409   1.723   6.819
 8090SOL    HW125169   5.453   1.716   6.729
 8090SOL    HW225170   5.476   1.709   6.891
 8091SOL     OW25171   3.233   4.411   7.002
 8091SOL    HW125172   3.275   4.356   6.930
 8091SOL    HW225173   3.205   4.499   6.965
 8092SOL     OW25174   1.088   1.368   5.100
 8092SOL    HW125175   0.998   1.338   5.069
 8092SOL    HW225176   1.129   1.427   5.030
 8093SOL     OW25177   5.638   5.759   1.617
 8093SOL    HW125178   5.595   5.849   1.630
 8093SOL    HW225179   5.585   5.689   1.665
 8094SOL     OW25180   1.324   4.323   6.478
 8094SOL    HW125181   1.350   4.402   6.424
 8094SOL    HW225182   1.385   4.246   6.457
 8095SOL     OW25183   5.324   3.281   4.114
 8095SOL    HW125184   5.338   3.182   4.106
 8095SOL    HW225185   5.411   3.328   4.106
 8096SOL     OW25186   3.045   5.393   1.877
 8096SOL    HW125187   2.977   5.413   1.947
 8096SOL    HW225188   3.129   5.361   1.921
 8097SOL     OW25189   5.212   0.473   3.060
 8097SOL    HW125190   5.160   0.414   2.998
 8097SOL    HW225191   5.196   0.444   3.154
 8098SOL     OW25192   2.736   6.173   4.045
 8098SOL    HW125193   2.719   6.078   4.019
 8098SOL    HW225194   2.805   6.213   3.984
 8099SOL     OW25195   5.096   6.786   5.021
 8099SOL    HW125196   5.116   6.692   4.996
 8099SOL    HW225197   5.053   6.833   4.943
 8100SOL     OW25198   0.133   6.831   0.537
 8100SOL    HW125199   0.117   6.799   0.443
 8100SOL    HW225200   0.137   6.931   0.538
 8101SOL     OW25201   1.657   0.183   4.318
 8101SOL    HW125202   1.681   0.123   4.242
 8101SOL    HW225203   1.622   0.128   4.394
 8102SOL     OW25204   0.364   5.071   6.055
 8102SOL    HW125205   0.416   5.075   6.140
 8102SOL    HW225206   0.329   4.978   6.042
 8103SOL     OW25207   3.965   1.250   2.109
 8103SOL    HW125208   3.943   1.320   2.041
 8103SOL    HW225209   3.955   1.289   2.201
 8104SOL     OW25210   3.038   6.593   5.720
 8104SOL    HW125211   3.138   6.585   5.729
 8104SOL    HW225212   3.016   6.678   5.672
 8105SOL     OW25213   2.773   2.377   3.775
 8105SOL    HW125214   2.725   2.311   3.717
 8105SOL    HW225215   2.866   2.344   3.793
 8106SOL     OW25216   1.252   4.031   3.666
 8106SOL    HW125217   1.180   4.054   3.601
 8106SOL    HW225218   1.247   3.934   3.690
 8107SOL     OW25219   1.813   6.608   5.897
 8107SOL    HW125220   1.872   6.673   5.849
 8107SOL    HW225221   1.868   6.532   5.930
 8108SOL     OW25222   0.155   3.796   4.605
 8108SOL    HW125223   0.115   3.795   4.514
 8108SOL    HW225224   0.111   3.867   4.660
 8109SOL     OW25225   1.971   4.689   5.409
 8109SOL    HW125226   2.068   4.704   5.429
 8109SOL    HW225227   1.931   4.630   5.480
 8110SOL     OW25228   2.097   6.788   0.503
 8110SOL    HW125229   2.182   6.750   0.538
 8110SOL    HW225230   2.104   6.800   0.404
 8111SOL     OW25231   2.756   6.108   4.913
 8111SOL    HW125232   2.743   6.203   4.883
 8111SOL    HW225233   2.817   6.061   4.849
 8112SOL     OW25234   2.823   0.552   5.562
 8112SOL    HW125235   2.836   0.453   5.570
 8112SOL    HW225236   2.818   0.592   5.654
 8113SOL     OW25237   3.546   2.407   0.087
 8113SOL    HW125238   3.638   2.423   0.123
 8113SOL    HW225239   3.548   2.329   0.025
 8114SOL     OW25240   2.214   3.038   2.467
 8114SOL    HW125241   2.270   2.986   2.532
 8114SOL    HW225242   2.234   3.006   2.374
 8115SOL     OW25243   3.345   1.155   1.276
 8115SOL    HW125244   3.298   1.185   1.193
 8115SOL    HW225245   3.401   1.075   1.255
 8116SOL     OW25246   5.986   0.125   5.218
 8116SOL    HW125247   6.039   0.085   5.293
 8116SOL    HW225248   5.922   0.057   5.182
 8117SOL     OW25249   1.138   1.974   4.227
 8117SOL    HW125250   1.155   1.880   4.197
 8117SOL    HW225251   1.047   2.003   4.198
 8118SOL     OW25252   1.228   4.325   5.417
 8118SOL    HW125253   1.269   4.249   5.367
 8118SOL    HW225254   1.237   4.310   5.516
 8119SOL     OW25255   0.473   5.718   3.596
 8119SOL    HW125256   0.554   5.719   3.537
 8119SOL    HW225257   0.494   5.668   3.680
 8120SOL     OW25258   4.292   4.482   0.739
 8120SOL    HW125259   4.251   4.467   0.649
 8120SOL    HW225260   4.227   4.528   0.799
 8121SOL     OW25261   0.102   0.059   2.759
 8121SOL    HW125262   0.036   0.098   2.823
 8121SOL    HW225263   0.185   0.034   2.808
 8122SOL     OW25264   0.141   5.908   1.936
 8122SOL    HW125265   0.098   5.878   2.021
 8122SOL    HW225266   0.237   5.930   1.953
 8123SOL     OW25267   0.886   6.607   6.469
 8123SOL    HW125268   0.900   6.509   6.452
 8123SOL    HW225269   0.961   6.642   6.526
 8124SOL     OW25270   1.662   5.451   1.736
 8124SOL    HW125271   1.602   5.390   1.684
 8124SOL    HW225272   1.757   5.423   1.721
 8125SOL     OW25273   6.184   4.407   2.853
 8125SOL    HW125274   6.094   4.372   2.828
 8125SOL    HW225275   6.178   4.458   2.939
 8126SOL     OW25276   5.941   4.301   2.768
 8126SOL    HW125277   5.872   4.301   2.696
 8126SOL    HW225278   5.930   4.218   2.824
 8127SOL     OW25279   2.234   4.988   0.550
 8127SOL    HW125280   2.184   4.903   0.533
 8127SOL    HW225281   2.223   5.049   0.472
 8128SOL     OW25282   3.298   2.836   6.068
 8128SOL    HW125283   3.200   2.853   6.054
 8128SOL    HW225284   3.321   2.852   6.164
 8129SOL     OW25285   5.651   0.998   6.574
 8129SOL    HW125286   5.618   0.932   6.507
 8129SOL    HW225287   5.630   1.091   6.543
 8130SOL     OW25288   0.992   5.319   6.685
 8130SOL    HW125289   0.925   5.370   6.632
 8130SOL    HW225290   1.084   5.345   6.656
 8131SOL     OW25291   3.254   0.467   0.371
 8131SOL    HW125292   3.158   0.481   0.347
 8131SOL    HW225293   3.312   0.508   0.300
 8132SOL     OW25294   5.747   5.206   4.282
 8132SOL    HW125295   5.727   5.296   4.243
 8132SOL    HW225296   5.845   5.189   4.276
 8133SOL     OW25297   3.030   5.440   3.205
 8133SOL    HW125298   3.077   5.360   3.243
 8133SOL    HW225299   2.951   5.462   3.262
 8134SOL     OW25300   2.288   2.522   4.166
 8134SOL    HW125301   2.267   2.499   4.071
 8134SOL    HW225302   2.234   2.464   4.227
 8135SOL     OW25303   3.802   5.393   2.112
 8135SOL    HW125304   3.771   5.311   2.160
 8135SOL    HW225305   3.723   5.440   2.073
 8136SOL     OW25306   3.766   5.739   2.419
 8136SOL    HW125307   3.790   5.642   2.424
 8136SOL    HW225308   3.727   5.768   2.506
 8137SOL     OW25309   2.087   3.789   5.030
 8137SOL    HW125310   2.064   3.886   5.024
 8137SOL    HW225311   2.164   3.776   5.093
 8138SOL     OW25312   5.401   1.798   2.131
 8138SOL    HW125313   5.484   1.761   2.088
 8138SOL    HW225314   5.350   1.852   2.063
 8139SOL     OW25315   1.111   3.042   3.494
 8139SOL    HW125316   1.015   3.017   3.506
 8139SOL    HW225317   1.118   3.126   3.441
 8140SOL     OW25318   5.144   0.188   0.077
 8140SOL    HW125319   5.168   0.170   7.005
 8140SOL    HW225320   5.099   0.108   0.116
 8141SOL     OW25321   5.049   1.218   6.099
 8141SOL    HW125322   4.973   1.160   6.127
 8141SOL    HW225323   5.044   1.305   6.146
 8142SOL     OW25324   1.709   5.738   0.056
 8142SOL    HW125325   1.789   5.763   0.110
 8142SOL    HW225326   1.664   5.659   0.097
 8143SOL     OW25327   5.225   4.266   0.551
 8143SOL    HW125328   5.319   4.297   0.535
 8143SOL    HW225329   5.168   4.293   0.474
 8144SOL     OW25330   0.392   5.302   5.802
 8144SOL    HW125331   0.459   5.375   5.790
 8144SOL    HW225332   0.333   5.323   5.880
 8145SOL     OW25333   6.019   5.736   0.279
 8145SOL    HW125334   6.059   5.821   0.313
 8145SOL    HW225335   6.093   5.672   0.256
 8146SOL     OW25336   5.886   0.266   4.564
 8146SOL    HW125337   5.975   0.221   4.556
 8146SOL    HW225338   5.895   0.346   4.624
 8147SOL     OW25339   0.772   0.861   5.903
 8147SOL    HW125340   0.752   0.882   5.999
 8147SOL    HW225341   0.871   0.864   5.888
 8148SOL     OW25342   4.030   4.507   6.486
 8148SOL    HW125343   3.947   4.499   6.542
 8148SOL    HW225344   4.064   4.415   6.464
 8149SOL     OW25345   1.489   6.940   4.257
 8149SOL    HW125346   1.437   6.993   4.191
 8149SOL    HW225347   1.553   6.880   4.208
 8150SOL     OW25348   1.090   3.288   0.429
 8150SOL    HW125349   1.035   3.214   0.391
 8150SOL    HW225350   1.187   3.270   0.410
 8151SOL     OW25351   6.356   4.433   3.914
 8151SOL    HW125352   6.376   4.528   3.889
 8151SOL    HW225353   6.344   4.379   3.831
 8152SOL     OW25354   4.392   1.918   3.324
 8152SOL    HW125355   4.384   2.008   3.368
 8152SOL    HW225356   4.485   1.907   3.288
 8153SOL     OW25357   0.647   1.604   3.479
 8153SOL    HW125358   0.688   1.545   3.548
 8153SOL    HW225359   0.698   1.596   3.393
 8154SOL     OW25360   2.529   1.793   3.521
 8154SOL    HW125361   2.607   1.845   3.556
 8154SOL    HW225362   2.554   1.697   3.515
 8155SOL     OW25363   1.441   4.253   1.861
 8155SOL    HW125364   1.426   4.312   1.941
 8155SOL    HW225365   1.403   4.162   1.879
 8156SOL     OW25366   6.254   5.089   1.786
 8156SOL    HW125367   6.332   5.057   1.734
 8156SOL    HW225368   6.231   5.023   1.858
 8157SOL     OW25369   6.602   2.922   6.291
 8157SOL    HW125370   6.682   2.886   6.242
 8157SOL    HW225371   6.631   2.959   6.379
 8158SOL     OW25372   5.672   4.909   6.068
 8158SOL    HW125373   5.707   4.994   6.108
 8158SOL    HW225374   5.639   4.927   5.975
 8159SOL     OW25375   3.590   5.857   5.988
 8159SOL    HW125376   3.582   5.803   6.072
 8159SOL    HW225377   3.682   5.844   5.950
 8160SOL     OW25378   5.009   1.285   3.480
 8160SOL    HW125379   5.010   1.186   3.461
 8160SOL    HW225380   5.088   1.327   3.436
 8161SOL     OW25381   5.969   3.572   0.250
 8161SOL    HW125382   6.039   3.524   0.197
 8161SOL    HW225383   5.917   3.506   0.304
 8162SOL     OW25384   0.446   4.924   6.703
 8162SOL    HW125385   0.373   4.993   6.700
 8162SOL    HW225386   0.502   4.939   6.785
 8163SOL     OW25387   4.200   4.703   5.454
 8163SOL    HW125388   4.245   4.645   5.522
 8163SOL    HW225389   4.101   4.686   5.456
 8164SOL     OW25390   5.648   1.106   0.022
 8164SOL    HW125391   5.682   1.067   0.107
 8164SOL    HW225392   5.647   1.036   6.975
 8165SOL     OW25393   6.742   2.117   6.205
 8165SOL    HW125394   6.791   2.113   6.292
 8165SOL    HW225395   6.647   2.144   6.222
 8166SOL     OW25396   1.874   2.162   4.323
 8166SOL    HW125397   1.783   2.191   4.291
 8166SOL    HW225398   1.864   2.077   4.375
 8167SOL     OW25399   6.374   1.886   3.983
 8167SOL    HW125400   6.288   1.924   4.018
 8167SOL    HW225401   6.356   1.829   3.903
 8168SOL     OW25402   2.561   0.591   1.171
 8168SOL    HW125403   2.548   0.662   1.240
 8168SOL    HW225404   2.504   0.610   1.091
 8169SOL     OW25405   5.380   2.245   0.645
 8169SOL    HW125406   5.437   2.323   0.619
 8169SOL    HW225407   5.435   2.162   0.647
 8170SOL     OW25408   6.403   4.193   2.071
 8170SOL    HW125409   6.497   4.184   2.104
 8170SOL    HW225410   6.375   4.107   2.027
 8171SOL     OW25411   1.628   1.340   0.053
 8171SOL    HW125412   1.584   1.292   7.001
 8171SOL    HW225413   1.631   1.438   0.033
 8172SOL     OW25414   1.023   2.611   2.195
 8172SOL    HW125415   1.035   2.535   2.257
 8172SOL    HW225416   1.003   2.577   2.103
 8173SOL     OW25417   5.462   2.101   2.186
 8173SOL    HW125418   5.461   2.001   2.176
 8173SOL    HW225419   5.544   2.138   2.143
 8174SOL     OW25420   1.784   5.823   2.852
 8174SOL    HW125421   1.790   5.794   2.756
 8174SOL    HW225422   1.802   5.921   2.858
 8175SOL     OW25423   0.637   2.483   4.553
 8175SOL    HW125424   0.713   2.524   4.605
 8175SOL    HW225425   0.572   2.442   4.617
 8176SOL     OW25426   1.665   4.566   1.068
 8176SOL    HW125427   1.668   4.619   0.984
 8176SOL    HW225428   1.702   4.474   1.052
 8177SOL     OW25429   3.867   1.435   2.431
 8177SOL    HW125430   3.944   1.391   2.477
 8177SOL    HW225431   3.790   1.444   2.494
 8178SOL     OW25432   2.539   6.768   0.858
 8178SOL    HW125433   2.460   6.782   0.799
 8178SOL    HW225434   2.527   6.683   0.910
 8179SOL     OW25435   5.253   0.923   3.770
 8179SOL    HW125436   5.196   0.935   3.689
 8179SOL    HW225437   5.199   0.883   3.844
 8180SOL     OW25438   5.464   6.636   6.981
 8180SOL    HW125439   5.424   6.726   6.966
 8180SOL    HW225440   5.563   6.641   6.965
 8181SOL     OW25441   1.021   1.201   1.286
 8181SOL    HW125442   1.081   1.202   1.206
 8181SOL    HW225443   1.015   1.108   1.322
 8182SOL     OW25444   3.189   3.542   5.197
 8182SOL    HW125445   3.280   3.558   5.237
 8182SOL    HW225446   3.182   3.589   5.109
 8183SOL     OW25447   6.371   0.337   4.960
 8183SOL    HW125448   6.449   0.399   4.954
 8183SOL    HW225449   6.333   0.321   4.869
 8184SOL     OW25450   0.731   6.851   6.775
 8184SOL    HW125451   0.812   6.795   6.794
 8184SOL    HW225452   0.757   6.948   6.776
 8185SOL     OW25453   0.693   0.110   0.418
 8185SOL    HW125454   0.739   0.027   0.450
 8185SOL    HW225455   0.633   0.145   0.489
 8186SOL     OW25456   1.334   5.020   6.481
 8186SOL    HW125457   1.360   4.929   6.511
 8186SOL    HW225458   1.415   5.069   6.448
 8187SOL     OW25459   1.721   1.200   5.084
 8187SOL    HW125460   1.651   1.145   5.037
 8187SOL    HW225461   1.799   1.215   5.023
 8188SOL     OW25462   3.774   2.119   3.644
 8188SOL    HW125463   3.731   2.144   3.558
 8188SOL    HW225464   3.707   2.126   3.718
 8189SOL     OW25465   4.657   4.394   3.835
 8189SOL    HW125466   4.736   4.453   3.855
 8189SOL    HW225467   4.624   4.413   3.743
 8190SOL     OW25468   5.208   3.409   3.007
 8190SOL    HW125469   5.305   3.432   3.005
 8190SOL    HW225470   5.197   3.310   3.018
 8191SOL     OW25471   4.395   5.031   1.740
 8191SOL    HW125472   4.406   4.933   1.726
 8191SOL    HW225473   4.484   5.076   1.740
 8192SOL     OW25474   1.905   4.889   3.492
 8192SOL    HW125475   1.859   4.959   3.546
 8192SOL    HW225476   1.901   4.802   3.540
 8193SOL     OW25477   6.894   5.312   5.017
 8193SOL    HW125478   6.840   5.229   5.032
 8193SOL    HW225479   6.978   5.289   4.967
 8194SOL     OW25480   4.554   6.968   1.529
 8194SOL    HW125481   4.491   0.016   1.560
 8194SOL    HW225482   4.584   6.914   1.608
 8195SOL     OW25483   6.128   6.774   3.347
 8195SOL    HW125484   6.136   6.682   3.308
 8195SOL    HW225485   6.191   6.783   3.424
 8196SOL     OW25486   4.920   1.198   0.163
 8196SOL    HW125487   4.969   1.279   0.196
 8196SOL    HW225488   4.897   1.211   0.066
 8197SOL     OW25489   4.669   1.551   1.269
 8197SOL    HW125490   4.601   1.616   1.235
 8197SOL    HW225491   4.626   1.488   1.333
 8198SOL     OW25492   2.176   0.171   1.825
 8198SOL    HW125493   2.133   0.165   1.915
 8198SOL    HW225494   2.238   0.249   1.822
 8199SOL     OW25495   5.066   2.766   6.010
 8199SOL    HW125496   5.062   2.866   6.005
 8199SOL    HW225497   4.998   2.733   6.074
 8200SOL     OW25498   5.837   3.836   0.876
 8200SOL    HW125499   5.786   3.907   0.924
 8200SOL    HW225500   5.838   3.856   0.778
 8201SOL     OW25501   0.092   0.591   5.309
 8201SOL    HW125502   0.190   0.595   5.329
 8201SOL    HW225503   0.047   0.673   5.345
 8202SOL     OW25504   0.115   6.198   1.988
 8202SOL    HW125505   0.101   6.269   1.918
 8202SOL    HW225506   0.104   6.108   1.946
 8203SOL     OW25507   2.020   3.067   0.524
 8203SOL    HW125508   2.006   3.022   0.612
 8203SOL    HW225509   2.049   3.162   0.539
 8204SOL     OW25510   4.715   3.566   0.958
 8204SOL    HW125511   4.697   3.648   0.903
 8204SOL    HW225512   4.704   3.485   0.901
 8205SOL     OW25513   0.481   2.966   0.662
 8205SOL    HW125514   0.503   3.042   0.601
 8205SOL    HW225515   0.388   2.934   0.643
 8206SOL     OW25516   4.189   1.354   0.137
 8206SOL    HW125517   4.120   1.412   0.094
 8206SOL    HW225518   4.208   1.387   0.229
 8207SOL     OW25519   3.624   2.897   4.417
 8207SOL    HW125520   3.650   2.861   4.506
 8207SOL    HW225521   3.584   2.988   4.428
 8208SOL     OW25522   1.060   1.114   0.482
 8208SOL    HW125523   1.062   1.024   0.439
 8208SOL    HW225524   1.101   1.181   0.421
 8209SOL     OW25525   6.903   0.709   4.944
 8209SOL    HW125526   6.812   0.749   4.935
 8209SOL    HW225527   6.917   0.679   5.038
 8210SOL     OW25528   2.042   2.768   0.176
 8210SOL    HW125529   1.972   2.833   0.205
 8210SOL    HW225530   2.002   2.677   0.168
 8211SOL     OW25531   3.324   3.754   1.296
 8211SOL    HW125532   3.315   3.827   1.229
 8211SOL    HW225533   3.338   3.793   1.387
 8212SOL     OW25534   1.731   2.594   3.022
 8212SOL    HW125535   1.775   2.639   2.944
 8212SOL    HW225536   1.728   2.496   3.007
 8213SOL     OW25537   0.435   5.284   1.765
 8213SOL    HW125538   0.354   5.311   1.713
 8213SOL    HW225539   0.455   5.352   1.835
 8214SOL     OW25540   5.931   4.949   3.364
 8214SOL    HW125541   5.931   5.042   3.401
 8214SOL    HW225542   5.967   4.885   3.432
 8215SOL     OW25543   3.468   4.923   4.655
 8215SOL    HW125544   3.503   4.914   4.562
 8215SOL    HW225545   3.368   4.919   4.654
 8216SOL     OW25546   4.840   4.914   4.036
 8216SOL    HW125547   4.759   4.911   3.978
 8216SOL    HW225548   4.921   4.889   3.982
 8217SOL     OW25549   1.894   5.105   0.901
 8217SOL    HW125550   1.804   5.094   0.943
 8217SOL    HW225551   1.883   5.109   0.801
 8218SOL     OW25552   0.701   2.094   6.857
 8218SOL    HW125553   0.733   2.186   6.835
 8218SOL    HW225554   0.755   2.057   6.932
 8219SOL     OW25555   4.645   2.447   0.510
 8219SOL    HW125556   4.558   2.414   0.547
 8219SOL    HW225557   4.719   2.423   0.573
 8220SOL     OW25558   3.817   3.342   3.085
 8220SOL    HW125559   3.911   3.334   3.049
 8220SOL    HW225560   3.807   3.282   3.164
 8221SOL     OW25561   4.646   6.172   4.224
 8221SOL    HW125562   4.679   6.115   4.149
 8221SOL    HW225563   4.649   6.120   4.309
 8222SOL     OW25564   5.245   1.911   1.930
 8222SOL    HW125565   5.280   1.902   1.837
 8222SOL    HW225566   5.171   1.979   1.932
 8223SOL     OW25567   0.516   4.585   5.546
 8223SOL    HW125568   0.530   4.488   5.566
 8223SOL    HW225569   0.436   4.596   5.487
 8224SOL     OW25570   1.392   2.605   3.304
 8224SOL    HW125571   1.301   2.565   3.315
 8224SOL    HW225572   1.398   2.690   3.356
 8225SOL     OW25573   4.810   0.963   0.080
 8225SOL    HW125574   4.840   1.039   0.137
 8225SOL    HW225575   4.800   0.994   7.009
 8226SOL     OW25576   5.493   0.406   1.641
 8226SOL    HW125577   5.478   0.318   1.687
 8226SOL    HW225578   5.493   0.479   1.709
 8227SOL     OW25579   6.874   2.496   3.935
 8227SOL    HW125580   6.903   2.537   4.022
 8227SOL    HW225581   6.863   2.568   3.866
 8228SOL     OW25582   0.533   2.637   5.330
 8228SOL    HW125583   0.467   2.574   5.289
 8228SOL    HW225584   0.626   2.604   5.311
 8229SOL     OW25585   3.032   5.354   0.278
 8229SOL    HW125586   2.997   5.448   0.279
 8229SOL    HW225587   3.011   5.311   0.366
 8230SOL     OW25588   5.228   0.318   5.878
 8230SOL    HW125589   5.300   0.352   5.816
 8230SOL    HW225590   5.190   0.234   5.841
 8231SOL     OW25591   4.869   5.816   1.758
 8231SOL    HW125592   4.916   5.856   1.836
 8231SOL    HW225593   4.894   5.720   1.749
 8232SOL     OW25594   4.281   1.500   0.384
 8232SOL    HW125595   4.356   1.445   0.421
 8232SOL    HW225596   4.301   1.597   0.398
 8233SOL     OW25597   0.622   5.679   6.278
 8233SOL    HW125598   0.526   5.658   6.259
 8233SOL    HW225599   0.680   5.608   6.237
 8234SOL     OW25600   2.848   2.807   0.180
 8234SOL    HW125601   2.856   2.708   0.184
 8234SOL    HW225602   2.761   2.831   0.137
 8235SOL     OW25603   2.864   3.342   0.659
 8235SOL    HW125604   2.860   3.269   0.592
 8235SOL    HW225605   2.772   3.367   0.687
 8236SOL     OW25606   0.117   3.735   6.862
 8236SOL    HW125607   0.081   3.701   6.776
 8236SOL    HW225608   0.091   3.831   6.874
 8237SOL     OW25609   4.867   5.850   4.978
 8237SOL    HW125610   4.895   5.941   5.010
 8237SOL    HW225611   4.932   5.817   4.909
 8238SOL     OW25612   1.426   3.991   0.279
 8238SOL    HW125613   1.388   4.060   0.217
 8238SOL    HW225614   1.381   3.903   0.263
 8239SOL     OW25615   6.176   2.108   5.789
 8239SOL    HW125616   6.121   2.111   5.872
 8239SOL    HW225617   6.123   2.066   5.715
 8240SOL     OW25618   3.446   3.935   2.831
 8240SOL    HW125619   3.356   3.892   2.839
 8240SOL    HW225620   3.516   3.864   2.822
 8241SOL     OW25621   2.817   6.897   0.613
 8241SOL    HW125622   2.900   6.854   0.647
 8241SOL    HW225623   2.765   6.934   0.690
 8242SOL     OW25624   0.818   4.430   5.404
 8242SOL    HW125625   0.860   4.520   5.414
 8242SOL    HW225626   0.718   4.439   5.406
 8243SOL     OW25627   0.723   2.998   6.226
 8243SOL    HW125628   0.817   2.965   6.225
 8243SOL    HW225629   0.665   2.938   6.171
 8244SOL     OW25630   0.577   6.809   3.952
 8244SOL    HW125631   0.656   6.865   3.972
 8244SOL    HW225632   0.526   6.791   4.037
 8245SOL     OW25633   4.663   1.810   2.217
 8245SOL    HW125634   4.625   1.748   2.286
 8245SOL    HW225635   4.762   1.802   2.215
 8246SOL     OW25636   6.617   4.565   5.690
 8246SOL    HW125637   6.670   4.646   5.662
 8246SOL    HW225638   6.554   4.591   5.763
 8247SOL     OW25639   1.113   1.618   1.277
 8247SOL    HW125640   1.204   1.659   1.269
 8247SOL    HW225641   1.097   1.559   1.198
 8248SOL     OW25642   6.394   4.769   3.421
 8248SOL    HW125643   6.448   4.853   3.420
 8248SOL    HW225644   6.433   4.706   3.489
 8249SOL     OW25645   2.164   4.343   4.736
 8249SOL    HW125646   2.180   4.379   4.644
 8249SOL    HW225647   2.124   4.252   4.729
 8250SOL     OW25648   3.369   4.135   3.030
 8250SOL    HW125649   3.376   4.219   2.975
 8250SOL    HW225650   3.376   4.055   2.970
 8251SOL     OW25651   5.150   2.149   5.054
 8251SOL    HW125652   5.170   2.080   5.124
 8251SOL    HW225653   5.197   2.125   4.969
 8252SOL     OW25654   3.286   3.628   6.263
 8252SOL    HW125655   3.286   3.600   6.359
 8252SOL    HW225656   3.207   3.687   6.246
 8253SOL     OW25657   3.692   2.962   5.249
 8253SOL    HW125658   3.683   2.920   5.158
 8253SOL    HW225659   3.727   3.055   5.239
 8254SOL     OW25660   4.330   4.822   5.007
 8254SOL    HW125661   4.404   4.885   4.983
 8254SOL    HW225662   4.340   4.737   4.956
 8255SOL     OW25663   3.756   6.105   4.448
 8255SOL    HW125664   3.775   6.184   4.507
 8255SOL    HW225665   3.773   6.021   4.500
 8256SOL     OW25666   6.231   0.248   3.254
 8256SOL    HW125667   6.154   0.185   3.258
 8256SOL    HW225668   6.279   0.249   3.341
 8257SOL     OW25669   6.312   4.476   3.307
 8257SOL    HW125670   6.374   4.405   3.276
 8257SOL    HW225671   6.364   4.550   3.349
 8258SOL     OW25672   4.580   1.539   0.541
 8258SOL    HW125673   4.666   1.522   0.492
 8258SOL    HW225674   4.568   1.638   0.551
 8259SOL     OW25675   4.415   1.484   3.659
 8259SOL    HW125676   4.411   1.582   3.641
 8259SOL    HW225677   4.500   1.462   3.707
 8260SOL     OW25678   2.469   0.131   1.590
 8260SOL    HW125679   2.553   0.093   1.628
 8260SOL    HW225680   2.438   0.207   1.647
 8261SOL     OW25681   5.670   0.975   1.545
 8261SOL    HW125682   5.581   0.944   1.578
 8261SOL    HW225683   5.676   1.075   1.550
 8262SOL     OW25684   0.747   2.417   1.290
 8262SOL    HW125685   0.765   2.514   1.308
 8262SOL    HW225686   0.678   2.409   1.218
 8263SOL     OW25687   0.623   2.376   0.973
 8263SOL    HW125688   0.530   2.393   0.941
 8263SOL    HW225689   0.672   2.319   0.907
 8264SOL     OW25690   1.149   5.536   2.255
 8264SOL    HW125691   1.170   5.477   2.333
 8264SOL    HW225692   1.233   5.573   2.216
 8265SOL     OW25693   1.630   0.187   1.564
 8265SOL    HW125694   1.696   0.127   1.519
 8265SOL    HW225695   1.633   0.172   1.663
 8266SOL     OW25696   2.119   0.171   2.918
 8266SOL    HW125697   2.201   0.173   2.860
 8266SOL    HW225698   2.126   0.241   2.988
 8267SOL     OW25699   2.151   3.503   1.244
 8267SOL    HW125700   2.226   3.443   1.214
 8267SOL    HW225701   2.180   3.556   1.323
 8268SOL     OW25702   2.176   6.241   6.325
 8268SOL    HW125703   2.088   6.209   6.360
 8268SOL    HW225704   2.162   6.325   6.273
 8269SOL     OW25705   5.778   1.492   1.192
 8269SOL    HW125706   5.729   1.572   1.157
 8269SOL    HW225707   5.777   1.420   1.122
 8270SOL     OW25708   2.525   6.924   4.686
 8270SOL    HW125709   2.507   6.840   4.736
 8270SOL    HW225710   2.548   6.902   4.591
 8271SOL     OW25711   6.750   0.571   2.450
 8271SOL    HW125712   6.825   0.511   2.425
 8271SOL    HW225713   6.696   0.594   2.369
 8272SOL     OW25714   4.716   0.993   1.479
 8272SOL    HW125715   4.675   0.943   1.402
 8272SOL    HW225716   4.810   0.963   1.491
 8273SOL     OW25717   1.800   6.112   1.033
 8273SOL    HW125718   1.875   6.085   0.973
 8273SOL    HW225719   1.754   6.192   0.995
 8274SOL     OW25720   4.897   4.849   3.238
 8274SOL    HW125721   4.843   4.819   3.317
 8274SOL    HW225722   4.974   4.786   3.225
 8275SOL     OW25723   4.414   1.559   6.312
 8275SOL    HW125724   4.434   1.646   6.358
 8275SOL    HW225725   4.500   1.512   6.291
 8276SOL     OW25726   1.197   2.131   3.986
 8276SOL    HW125727   1.147   2.045   3.989
 8276SOL    HW225728   1.176   2.185   4.068
 8277SOL     OW25729   0.280   0.844   6.815
 8277SOL    HW125730   0.214   0.918   6.810
 8277SOL    HW225731   0.363   0.875   6.862
 8278SOL     OW25732   2.507   2.173   6.757
 8278SOL    HW125733   2.436   2.150   6.689
 8278SOL    HW225734   2.523   2.095   6.816
 8279SOL     OW25735   1.051   6.899   4.432
 8279SOL    HW125736   0.987   6.831   4.467
 8279SOL    HW225737   1.000   6.975   4.392
 8280SOL     OW25738   2.757   3.581   6.922
 8280SOL    HW125739   2.693   3.505   6.907
 8280SOL    HW225740   2.706   3.662   6.953
 8281SOL     OW25741   1.071   5.422   1.589
 8281SOL    HW125742   1.148   5.462   1.538
 8281SOL    HW225743   1.067   5.462   1.680
 8282SOL     OW25744   5.428   3.293   6.233
 8282SOL    HW125745   5.430   3.320   6.329
 8282SOL    HW225746   5.428   3.194   6.225
 8283SOL     OW25747   1.179   4.602   6.322
 8283SOL    HW125748   1.208   4.694   6.295
 8283SOL    HW225749   1.093   4.607   6.371
 8284SOL     OW25750   0.524   3.752   1.468
 8284SOL    HW125751   0.448   3.812   1.442
 8284SOL    HW225752   0.597   3.806   1.510
 8285SOL     OW25753   3.841   3.228   5.148
 8285SOL    HW125754   3.921   3.281   5.177
 8285SOL    HW225755   3.850   3.206   5.051
 8286SOL     OW25756   5.726   2.789   6.242
 8286SOL    HW125757   5.746   2.796   6.144
 8286SOL    HW225758   5.782   2.716   6.282
 8287SOL     OW25759   1.348   5.707   4.645
 8287SOL    HW125760   1.280   5.733   4.714
 8287SOL    HW225761   1.333   5.611   4.618
 8288SOL     OW25762   2.765   2.276   2.801
 8288SOL    HW125763   2.707   2.316   2.730
 8288SOL    HW225764   2.858   2.265   2.766
 8289SOL     OW25765   0.374   7.003   1.365
 8289SOL    HW125766   0.283   6.967   1.347
 8289SOL    HW225767   0.366   0.075   1.394
 8290SOL     OW25768   6.585   1.171   6.799
 8290SOL    HW125769   6.524   1.138   6.871
 8290SOL    HW225770   6.548   1.146   6.710
 8291SOL     OW25771   4.917   6.878   6.935
 8291SOL    HW125772   4.939   6.921   7.022
 8291SOL    HW225773   4.987   6.809   6.913
 8292SOL     OW25774   2.490   6.684   6.911
 8292SOL    HW125775   2.495   6.623   6.989
 8292SOL    HW225776   2.569   6.668   6.851
 8293SOL     OW25777   3.626   6.870   0.307
 8293SOL    HW125778   3.656   6.781   0.342
 8293SOL    HW225779   3.598   6.860   0.211
 8294SOL     OW25780   5.822   3.939   5.178
 8294SOL    HW125781   5.725   3.916   5.191
 8294SOL    HW225782   5.835   4.037   5.196
 8295SOL     OW25783   5.257   5.335   1.735
 8295SOL    HW125784   5.192   5.274   1.780
 8295SOL    HW225785   5.348   5.322   1.775
 8296SOL     OW25786   1.642   6.923   5.983
 8296SOL    HW125787   1.661   6.986   6.059
 8296SOL    HW225788   1.608   6.836   6.020
 8297SOL     OW25789   6.285   2.352   2.957
 8297SOL    HW125790   6.366   2.356   2.899
 8297SOL    HW225791   6.279   2.262   3.000
 8298SOL     OW25792   6.093   1.368   1.447
 8298SOL    HW125793   6.094   1.339   1.351
 8298SOL    HW225794   6.038   1.451   1.456
 8299SOL     OW25795   6.931   2.472   2.243
 8299SOL    HW125796   6.980   2.458   2.329
 8299SOL    HW225797   6.848   2.526   2.261
 8300SOL     OW25798   0.958   5.594   5.942
 8300SOL    HW125799   0.948   5.513   5.885
 8300SOL    HW225800   1.055   5.618   5.950
 8301SOL     OW25801   3.943   1.357   1.352
 8301SOL    HW125802   4.023   1.333   1.406
 8301SOL    HW225803   3.967   1.361   1.255
 8302SOL     OW25804   6.221   5.929   5.938
 8302SOL    HW125805   6.164   5.957   5.861
 8302SOL    HW225806   6.275   5.849   5.912
 8303SOL     OW25807   6.678   0.251   4.193
 8303SOL    HW125808   6.756   0.193   4.215
 8303SOL    HW225809   6.645   0.295   4.277
 8304SOL     OW25810   1.561   3.565   6.692
 8304SOL    HW125811   1.601   3.636   6.634
 8304SOL    HW225812   1.466   3.551   6.666
 8305SOL     OW25813   3.376   4.889   4.135
 8305SOL    HW125814   3.393   4.885   4.234
 8305SOL    HW225815   3.462   4.901   4.087
 8306SOL     OW25816   0.238   3.267   5.065
 8306SOL    HW125817   0.212   3.185   5.116
 8306SOL    HW225818   0.272   3.241   4.975
 8307SOL     OW25819   4.231   5.304   1.800
 8307SOL    HW125820   4.328   5.307   1.826
 8307SOL    HW225821   4.186   5.389   1.826
 8308SOL     OW25822   4.505   6.286   1.313
 8308SOL    HW125823   4.563   6.262   1.391
 8308SOL    HW225824   4.418   6.323   1.347
 8309SOL     OW25825   5.887   5.471   3.526
 8309SOL    HW125826   5.901   5.386   3.476
 8309SOL    HW225827   5.814   5.525   3.483
 8310SOL     OW25828   1.109   4.521   1.169
 8310SOL    HW125829   1.081   4.469   1.089
 8310SOL    HW225830   1.043   4.507   1.243
 8311SOL     OW25831   0.521   1.161   5.676
 8311SOL    HW125832   0.526   1.224   5.598
 8311SOL    HW225833   0.459   1.198   5.745
 8312SOL     OW25834   4.588   6.026   1.577
 8312SOL    HW125835   4.557   5.933   1.561
 8312SOL    HW225836   4.658   6.050   1.510
 8313SOL     OW25837   4.084   1.353   2.566
 8313SOL    HW125838   4.154   1.419   2.595
 8313SOL    HW225839   4.128   1.267   2.542
 8314SOL     OW25840   5.032   6.658   0.684
 8314SOL    HW125841   5.112   6.696   0.638
 8314SOL    HW225842   5.056   6.571   0.726
 8315SOL     OW25843   3.928   3.348   0.576
 8315SOL    HW125844   3.887   3.320   0.663
 8315SOL    HW225845   3.865   3.328   0.501
 8316SOL     OW25846   0.689   3.023   1.447
 8316SOL    HW125847   0.679   2.989   1.354
 8316SOL    HW225848   0.674   2.948   1.511
 8317SOL     OW25849   2.180   2.964   2.188
 8317SOL    HW125850   2.207   2.917   2.104
 8317SOL    HW225851   2.136   3.050   2.165
 8318SOL     OW25852   4.752   1.531   4.413
 8318SOL    HW125853   4.779   1.460   4.349
 8318SOL    HW225854   4.821   1.603   4.415
 8319SOL     OW25855   2.643   1.931   5.857
 8319SOL    HW125856   2.592   2.012   5.889
 8319SOL    HW225857   2.656   1.937   5.758
 8320SOL     OW25858   3.454   4.687   1.375
 8320SOL    HW125859   3.393   4.613   1.402
 8320SOL    HW225860   3.404   4.754   1.321
 8321SOL     OW25861   0.624   1.169   6.490
 8321SOL    HW125862   0.559   1.164   6.414
 8321SOL    HW225863   0.635   1.078   6.530
 8322SOL     OW25864   0.058   0.079   0.545
 8322SOL    HW125865   7.000   0.130   0.568
 8322SOL    HW225866   0.126   0.088   0.618
 8323SOL     OW25867   0.030   6.998   2.515
 8323SOL    HW125868   0.050   7.023   2.610
 8323SOL    HW225869   0.104   0.006   2.457
 8324SOL     OW25870   6.513   0.265   2.584
 8324SOL    HW125871   6.543   0.350   2.627
 8324SOL    HW225872   6.414   0.267   2.571
 8325SOL     OW25873   3.485   3.151   4.539
 8325SOL    HW125874   3.535   3.230   4.574
 8325SOL    HW225875   3.399   3.181   4.498
 8326SOL     OW25876   4.427   3.124   5.367
 8326SOL    HW125877   4.438   3.222   5.347
 8326SOL    HW225878   4.341   3.110   5.414
 8327SOL     OW25879   5.198   1.802   5.961
 8327SOL    HW125880   5.100   1.811   5.941
 8327SOL    HW225881   5.247   1.881   5.924
 8328SOL     OW25882   2.346   4.055   5.912
 8328SOL    HW125883   2.425   4.023   5.860
 8328SOL    HW225884   2.280   3.981   5.923
 8329SOL     OW25885   0.661   3.274   5.850
 8329SOL    HW125886   0.693   3.219   5.927
 8329SOL    HW225887   0.735   3.287   5.785
 8330SOL     OW25888   1.639   0.245   6.873
 8330SOL    HW125889   1.573   0.253   6.797
 8330SOL    HW225890   1.700   0.324   6.872
 8331SOL     OW25891   3.158   0.004   0.830
 8331SOL    HW125892   3.116   0.073   0.888
 8331SOL    HW225893   3.258   0.016   0.830
 8332SOL     OW25894   4.733   4.907   2.744
 8332SOL    HW125895   4.655   4.967   2.762
 8332SOL    HW225896   4.788   4.897   2.827
 8333SOL     OW25897   0.316   6.198   0.427
 8333SOL    HW125898   0.222   6.164   0.433
 8333SOL    HW225899   0.325   6.282   0.480
 8334SOL     OW25900   5.721   1.608   3.760
 8334SOL    HW125901   5.755   1.684   3.816
 8334SOL    HW225902   5.794   1.576   3.700
 8335SOL     OW25903   6.493   5.531   5.562
 8335SOL    HW125904   6.534   5.611   5.604
 8335SOL    HW225905   6.527   5.448   5.607
 8336SOL     OW25906   0.181   0.566   2.008
 8336SOL    HW125907   0.113   0.570   1.935
 8336SOL    HW225908   0.267   0.530   1.971
 8337SOL     OW25909   1.056   6.737   3.526
 8337SOL    HW125910   1.153   6.758   3.520
 8337SOL    HW225911   1.044   6.639   3.544
 8338SOL     OW25912   1.890   4.470   1.966
 8338SOL    HW125913   1.976   4.483   1.916
 8338SOL    HW225914   1.822   4.536   1.934
 8339SOL     OW25915   5.628   1.263   1.588
 8339SOL    HW125916   5.717   1.304   1.609
 8339SOL    HW225917   5.582   1.317   1.519
 8340SOL     OW25918   5.004   3.962   0.841
 8340SOL    HW125919   4.976   4.040   0.898
 8340SOL    HW225920   5.103   3.951   0.846
 8341SOL     OW25921   2.315   6.140   0.157
 8341SOL    HW125922   2.352   6.091   0.078
 8341SOL    HW225923   2.309   6.077   0.234
 8342SOL     OW25924   3.557   6.811   1.285
 8342SOL    HW125925   3.609   6.756   1.220
 8342SOL    HW225926   3.616   6.885   1.319
 8343SOL     OW25927   1.512   4.705   6.274
 8343SOL    HW125928   1.565   4.787   6.256
 8343SOL    HW225929   1.574   4.626   6.279
 8344SOL     OW25930   4.863   6.739   5.568
 8344SOL    HW125931   4.810   6.716   5.487
 8344SOL    HW225932   4.808   6.725   5.650
 8345SOL     OW25933   5.297   1.955   3.347
 8345SOL    HW125934   5.323   1.996   3.434
 8345SOL    HW225935   5.315   2.021   3.273
 8346SOL     OW25936   2.633   4.640   0.347
 8346SOL    HW125937   2.584   4.600   0.425
 8346SOL    HW225938   2.667   4.567   0.288
 8347SOL     OW25939   2.994   6.764   5.031
 8347SOL    HW125940   3.080   6.761   5.082
 8347SOL    HW225941   2.979   6.857   4.998
 8348SOL     OW25942   1.752   0.368   1.399
 8348SOL    HW125943   1.684   0.419   1.345
 8348SOL    HW225944   1.708   0.291   1.444
 8349SOL     OW25945   5.961   4.658   0.727
 8349SOL    HW125946   5.890   4.666   0.658
 8349SOL    HW225947   5.921   4.663   0.818
 8350SOL     OW25948   4.883   0.993   4.893
 8350SOL    HW125949   4.930   0.915   4.935
 8350SOL    HW225950   4.850   1.054   4.965
 8351SOL     OW25951   3.789   5.145   4.913
 8351SOL    HW125952   3.712   5.089   4.881
 8351SOL    HW225953   3.850   5.166   4.837
 8352SOL     OW25954   6.742   0.021   2.059
 8352SOL    HW125955   6.787   0.110   2.056
 8352SOL    HW225956   6.769   6.996   2.142
 8353SOL     OW25957   5.563   3.974   2.158
 8353SOL    HW125958   5.516   3.999   2.074
 8353SOL    HW225959   5.562   3.874   2.168
 8354SOL     OW25960   3.509   1.064   6.789
 8354SOL    HW125961   3.450   1.139   6.820
 8354SOL    HW225962   3.563   1.095   6.710
 8355SOL     OW25963   3.037   0.742   6.746
 8355SOL    HW125964   2.948   0.778   6.771
 8355SOL    HW225965   3.068   0.678   6.817
 8356SOL     OW25966   1.230   6.489   0.682
 8356SOL    HW125967   1.181   6.479   0.768
 8356SOL    HW225968   1.222   6.583   0.649
 8357SOL     OW25969   3.844   5.847   5.863
 8357SOL    HW125970   3.874   5.874   5.955
 8357SOL    HW225971   3.853   5.748   5.853
 8358SOL     OW25972   2.068   2.919   5.347
 8358SOL    HW125973   1.974   2.948   5.367
 8358SOL    HW225974   2.068   2.865   5.262
 8359SOL     OW25975   3.587   6.188   4.247
 8359SOL    HW125976   3.609   6.191   4.149
 8359SOL    HW225977   3.671   6.174   4.299
 8360SOL     OW25978   3.695   0.127   2.196
 8360SOL    HW125979   3.656   0.069   2.125
 8360SOL    HW225980   3.624   0.153   2.261
 8361SOL     OW25981   1.445   1.355   1.820
 8361SOL    HW125982   1.449   1.450   1.789
 8361SOL    HW225983   1.510   1.342   1.896
 8362SOL     OW25984   2.800   2.414   0.511
 8362SOL    HW125985   2.720   2.470   0.491
 8362SOL    HW225986   2.797   2.383   0.606
 8363SOL     OW25987   0.810   2.596   0.323
 8363SOL    HW125988   0.833   2.499   0.314
 8363SOL    HW225989   0.726   2.605   0.376
 8364SOL     OW25990   0.273   3.706   3.153
 8364SOL    HW125991   0.351   3.743   3.103
 8364SOL    HW225992   0.305   3.647   3.227
 8365SOL     OW25993   1.590   4.016   1.585
 8365SOL    HW125994   1.565   4.090   1.648
 8365SOL    HW225995   1.643   3.947   1.633
 8366SOL     OW25996   4.036   6.106   2.453
 8366SOL    HW125997   4.020   6.151   2.365
 8366SOL    HW225998   3.981   6.023   2.459
 8367SOL     OW25999   4.148   5.953   4.468
 8367SOL    HW126000   4.059   5.951   4.513
 8367SOL    HW226001   4.138   5.996   4.378
 8368SOL     OW26002   3.370   6.203   5.956
 8368SOL    HW126003   3.296   6.259   5.921
 8368SOL    HW226004   3.364   6.111   5.916
 8369SOL     OW26005   1.675   1.310   6.347
 8369SOL    HW126006   1.686   1.316   6.446
 8369SOL    HW226007   1.585   1.345   6.322
 8370SOL     OW26008   2.828   2.156   6.034
 8370SOL    HW126009   2.849   2.154   6.132
 8370SOL    HW226010   2.731   2.177   6.022
 8371SOL     OW26011   1.587   3.962   0.865
 8371SOL    HW126012   1.606   3.897   0.791
 8371SOL    HW226013   1.493   3.995   0.855
 8372SOL     OW26014   1.273   6.044   2.674
 8372SOL    HW126015   1.242   6.105   2.747
 8372SOL    HW226016   1.214   6.055   2.594
 8373SOL     OW26017   0.769   0.101   5.003
 8373SOL    HW126018   0.828   0.029   4.967
 8373SOL    HW226019   0.677   0.091   4.964
 8374SOL     OW26020   0.121   1.071   6.736
 8374SOL    HW126021   0.160   1.082   6.645
 8374SOL    HW226022   0.128   1.157   6.786
 8375SOL     OW26023   3.430   5.732   6.198
 8375SOL    HW126024   3.340   5.725   6.241
 8375SOL    HW226025   3.490   5.789   6.255
 8376SOL     OW26026   2.439   0.359   4.461
 8376SOL    HW126027   2.515   0.354   4.526
 8376SOL    HW226028   2.433   0.451   4.423
 8377SOL     OW26029   6.044   5.825   1.930
 8377SOL    HW126030   5.979   5.836   2.006
 8377SOL    HW226031   5.995   5.831   1.844
 8378SOL     OW26032   4.736   4.506   3.283
 8378SOL    HW126033   4.820   4.465   3.319
 8378SOL    HW226034   4.698   4.446   3.212
 8379SOL     OW26035   6.646   3.040   1.378
 8379SOL    HW126036   6.675   2.966   1.317
 8379SOL    HW226037   6.723   3.068   1.435
 8380SOL     OW26038   6.298   0.616   2.105
 8380SOL    HW126039   6.312   0.672   2.187
 8380SOL    HW226040   6.295   0.676   2.025
 8381SOL     OW26041   0.915   4.861   4.476
 8381SOL    HW126042   0.816   4.878   4.475
 8381SOL    HW226043   0.962   4.939   4.517
 8382SOL     OW26044   1.401   1.604   2.012
 8382SOL    HW126045   1.345   1.553   1.946
 8382SOL    HW226046   1.481   1.641   1.966
 8383SOL     OW26047   2.752   2.060   6.583
 8383SOL    HW126048   2.812   2.060   6.503
 8383SOL    HW226049   2.679   2.128   6.571
 8384SOL     OW26050   0.191   0.091   0.795
 8384SOL    HW126051   0.271   0.064   0.848
 8384SOL    HW226052   0.180   0.191   0.800
 8385SOL     OW26053   6.068   2.651   1.902
 8385SOL    HW126054   6.120   2.626   1.821
 8385SOL    HW226055   6.039   2.568   1.950
 8386SOL     OW26056   0.752   4.068   2.215
 8386SOL    HW126057   0.667   4.101   2.255
 8386SOL    HW226058   0.761   4.104   2.122
 8387SOL     OW26059   1.267   1.528   1.628
 8387SOL    HW126060   1.244   1.624   1.643
 8387SOL    HW226061   1.184   1.473   1.627
 8388SOL     OW26062   2.294   6.156   1.696
 8388SOL    HW126063   2.350   6.123   1.771
 8388SOL    HW226064   2.320   6.250   1.674
 8389SOL     OW26065   5.147   3.724   2.110
 8389SOL    HW126066   5.063   3.746   2.060
 8389SOL    HW226067   5.157   3.624   2.115
 8390SOL     OW26068   3.633   1.724   6.372
 8390SOL    HW126069   3.585   1.682   6.296
 8390SOL    HW226070   3.597   1.687   6.458
 8391SOL     OW26071   5.935   6.558   0.721
 8391SOL    HW126072   5.866   6.591   0.785
 8391SOL    HW226073   6.016   6.528   0.771
 8392SOL     OW26074   6.290   3.645   3.678
 8392SOL    HW126075   6.225   3.640   3.602
 8392SOL    HW226076   6.261   3.716   3.742
 8393SOL     OW26077   5.318   0.475   2.546
 8393SOL    HW126078   5.400   0.436   2.588
 8393SOL    HW226079   5.291   0.558   2.597
 8394SOL     OW26080   5.965   3.502   1.517
 8394SOL    HW126081   5.888   3.539   1.466
 8394SOL    HW226082   6.050   3.544   1.484
 8395SOL     OW26083   2.667   0.142   5.566
 8395SOL    HW126084   2.743   0.203   5.542
 8395SOL    HW226085   2.659   0.136   5.665
 8396SOL     OW26086   3.930   4.874   3.788
 8396SOL    HW126087   3.835   4.854   3.810
 8396SOL    HW226088   3.987   4.859   3.870
 8397SOL     OW26089   0.865   1.394   3.659
 8397SOL    HW126090   0.924   1.400   3.740
 8397SOL    HW226091   0.773   1.369   3.688
 8398SOL     OW26092   5.132   1.779   6.897
 8398SOL    HW126093   5.231   1.774   6.912
 8398SOL    HW226094   5.097   1.864   6.937
 8399SOL     OW26095   6.670   6.459   6.735
 8399SOL    HW126096   6.646   6.444   6.831
 8399SOL    HW226097   6.756   6.510   6.729
 8400SOL     OW26098   1.500   2.502   4.195
 8400SOL    HW126099   1.484   2.578   4.257
 8400SOL    HW226100   1.537   2.536   4.109
 8401SOL     OW26101   1.717   0.684   5.515
 8401SOL    HW126102   1.748   0.596   5.480
 8401SOL    HW226103   1.775   0.710   5.593
 8402SOL     OW26104   4.917   1.058   6.454
 8402SOL    HW126105   4.906   1.078   6.357
 8402SOL    HW226106   4.840   1.004   6.486
 8403SOL     OW26107   0.254   4.302   4.037
 8403SOL    HW126108   0.278   4.214   4.076
 8403SOL    HW226109   0.177   4.342   4.087
 8404SOL     OW26110   3.192   0.975   6.094
 8404SOL    HW126111   3.107   0.968   6.042
 8404SOL    HW226112   3.252   0.899   6.069
 8405SOL     OW26113   4.180   1.705   6.318
 8405SOL    HW126114   4.267   1.660   6.297
 8405SOL    HW226115   4.168   1.783   6.256
 8406SOL     OW26116   4.826   0.488   0.467
 8406SOL    HW126117   4.785   0.528   0.549
 8406SOL    HW226118   4.920   0.521   0.458
 8407SOL     OW26119   4.217   6.070   3.660
 8407SOL    HW126120   4.215   6.168   3.682
 8407SOL    HW226121   4.162   6.054   3.578
 8408SOL     OW26122   5.230   6.484   0.423
 8408SOL    HW126123   5.281   6.507   0.340
 8408SOL    HW226124   5.233   6.560   0.486
 8409SOL     OW26125   4.475   2.403   2.051
 8409SOL    HW126126   4.562   2.443   2.079
 8409SOL    HW226127   4.442   2.451   1.970
 8410SOL     OW26128   6.165   1.691   1.827
 8410SOL    HW126129   6.250   1.714   1.875
 8410SOL    HW226130   6.147   1.593   1.836
 8411SOL     OW26131   0.209   6.644   1.565
 8411SOL    HW126132   0.229   6.574   1.634
 8411SOL    HW226133   0.114   6.634   1.534
 8412SOL     OW26134   3.636   2.956   1.033
 8412SOL    HW126135   3.683   2.955   1.121
 8412SOL    HW226136   3.589   3.044   1.022
 8413SOL     OW26137   4.226   5.989   6.352
 8413SOL    HW126138   4.253   5.913   6.411
 8413SOL    HW226139   4.302   6.014   6.293
 8414SOL     OW26140   2.391   1.719   2.602
 8414SOL    HW126141   2.490   1.707   2.597
 8414SOL    HW226142   2.348   1.635   2.634
 8415SOL     OW26143   3.219   6.906   4.068
 8415SOL    HW126144   3.120   6.920   4.073
 8415SOL    HW226145   3.252   6.932   3.977
 8416SOL     OW26146   5.839   1.898   5.129
 8416SOL    HW126147   5.798   1.858   5.211
 8416SOL    HW226148   5.906   1.835   5.090
 8417SOL     OW26149   1.970   3.220   5.510
 8417SOL    HW126150   2.067   3.218   5.487
 8417SOL    HW226151   1.921   3.152   5.456
 8418SOL     OW26152   0.915   5.616   2.498
 8418SOL    HW126153   0.889   5.618   2.595
 8418SOL    HW226154   1.003   5.662   2.487
 8419SOL     OW26155   6.012   1.216   3.361
 8419SOL    HW126156   5.966   1.219   3.450
 8419SOL    HW226157   6.106   1.249   3.370
 8420SOL     OW26158   3.325   6.816   1.974
 8420SOL    HW126159   3.277   6.773   2.051
 8420SOL    HW226160   3.346   6.746   1.905
 8421SOL     OW26161   2.798   6.258   6.812
 8421SOL    HW126162   2.881   6.207   6.832
 8421SOL    HW226163   2.737   6.256   6.891
 8422SOL     OW26164   4.823   2.422   2.397
 8422SOL    HW126165   4.830   2.328   2.432
 8422SOL    HW226166   4.756   2.473   2.451
 8423SOL     OW26167   4.523   4.541   5.766
 8423SOL    HW126168   4.552   4.622   5.816
 8423SOL    HW226169   4.591   4.469   5.777
 8424SOL     OW26170   2.061   0.852   3.876
 8424SOL    HW126171   2.019   0.901   3.800
 8424SOL    HW226172   2.014   0.764   3.888
 8425SOL     OW26173   3.247   3.719   3.971
 8425SOL    HW126174   3.272   3.708   4.067
 8425SOL    HW226175   3.163   3.773   3.964
 8426SOL     OW26176   3.461   3.238   2.484
 8426SOL    HW126177   3.433   3.333   2.498
 8426SOL    HW226178   3.393   3.177   2.523
 8427SOL     OW26179   2.959   3.583   3.124
 8427SOL    HW126180   3.022   3.530   3.067
 8427SOL    HW226181   2.963   3.680   3.098
 8428SOL     OW26182   0.324   0.351   1.190
 8428SOL    HW126183   0.332   0.341   1.289
 8428SOL    HW226184   0.414   0.368   1.151
 8429SOL     OW26185   2.033   5.881   5.921
 8429SOL    HW126186   2.133   5.868   5.921
 8429SOL    HW226187   1.997   5.857   6.012
 8430SOL     OW26188   3.891   4.884   4.752
 8430SOL    HW126189   3.970   4.892   4.813
 8430SOL    HW226190   3.807   4.895   4.806
 8431SOL     OW26191   3.114   3.894   6.635
 8431SOL    HW126192   3.018   3.920   6.645
 8431SOL    HW226193   3.121   3.820   6.568
 8432SOL     OW26194   6.929   5.202   6.447
 8432SOL    HW126195   6.910   5.239   6.355
 8432SOL    HW226196   6.908   5.272   6.515
 8433SOL     OW26197   4.231   2.468   0.984
 8433SOL    HW126198   4.197   2.557   1.014
 8433SOL    HW226199   4.312   2.444   1.038
 8434SOL     OW26200   2.131   5.385   5.050
 8434SOL    HW126201   2.185   5.345   4.976
 8434SOL    HW226202   2.146   5.334   5.134
 8435SOL     OW26203   5.220   0.791   3.002
 8435SOL    HW126204   5.291   0.810   2.936
 8435SOL    HW226205   5.199   0.693   3.003
 8436SOL     OW26206   2.490   6.364   3.660
 8436SOL    HW126207   2.470   6.273   3.697
 8436SOL    HW226208   2.525   6.423   3.733
 8437SOL     OW26209   1.987   3.220   2.462
 8437SOL    HW126210   1.946   3.217   2.371
 8437SOL    HW226211   2.069   3.164   2.465
 8438SOL     OW26212   1.993   3.982   2.695
 8438SOL    HW126213   2.018   4.074   2.727
 8438SOL    HW226214   2.069   3.943   2.643
 8439SOL     OW26215   6.268   5.511   4.119
 8439SOL    HW126216   6.189   5.469   4.162
 8439SOL    HW226217   6.239   5.568   4.042
 8440SOL     OW26218   2.588   1.747   3.818
 8440SOL    HW126219   2.601   1.831   3.871
 8440SOL    HW226220   2.507   1.700   3.850
 8441SOL     OW26221   5.492   5.179   5.140
 8441SOL    HW126222   5.572   5.161   5.084
 8441SOL    HW226223   5.469   5.277   5.137
 8442SOL     OW26224   3.258   0.885   5.100
 8442SOL    HW126225   3.319   0.923   5.030
 8442SOL    HW226226   3.164   0.884   5.065
 8443SOL     OW26227   1.982   5.125   4.138
 8443SOL    HW126228   2.038   5.137   4.055
 8443SOL    HW226229   1.909   5.194   4.139
 8444SOL     OW26230   3.989   6.642   3.470
 8444SOL    HW126231   3.977   6.543   3.458
 8444SOL    HW226232   3.900   6.686   3.483
 8445SOL     OW26233   1.889   0.353   6.860
 8445SOL    HW126234   1.851   0.445   6.850
 8445SOL    HW226235   1.955   0.352   6.935
 8446SOL     OW26236   0.290   6.244   4.903
 8446SOL    HW126237   0.213   6.180   4.902
 8446SOL    HW226238   0.334   6.241   4.993
 8447SOL     OW26239   4.105   1.597   2.385
 8447SOL    HW126240   4.048   1.516   2.397
 8447SOL    HW226241   4.067   1.672   2.439
 8448SOL     OW26242   4.598   5.946   3.809
 8448SOL    HW126243   4.582   5.860   3.761
 8448SOL    HW226244   4.522   5.964   3.872
 8449SOL     OW26245   1.382   3.344   3.787
 8449SOL    HW126246   1.349   3.254   3.761
 8449SOL    HW226247   1.467   3.364   3.738
 8450SOL     OW26248   0.420   1.195   0.220
 8450SOL    HW126249   0.449   1.112   0.172
 8450SOL    HW226250   0.409   1.176   0.317
 8451SOL     OW26251   3.661   0.902   0.986
 8451SOL    HW126252   3.668   0.803   0.977
 8451SOL    HW226253   3.690   0.946   0.901
 8452SOL     OW26254   5.179   1.942   4.617
 8452SOL    HW126255   5.089   1.904   4.593
 8452SOL    HW226256   5.166   2.018   4.681
 8453SOL     OW26257   0.573   5.536   0.073
 8453SOL    HW126258   0.494   5.486   0.109
 8453SOL    HW226259   0.588   5.512   7.001
 8454SOL     OW26260   0.711   4.403   0.349
 8454SOL    HW126261   0.684   4.490   0.390
 8454SOL    HW226262   0.630   4.354   0.319
 8455SOL     OW26263   0.591   0.625   2.631
 8455SOL    HW126264   0.662   0.694   2.647
 8455SOL    HW226265   0.594   0.556   2.704
 8456SOL     OW26266   5.442   0.741   3.417
 8456SOL    HW126267   5.509   0.805   3.454
 8456SOL    HW226268   5.384   0.788   3.349
 8457SOL     OW26269   6.370   0.083   4.507
 8457SOL    HW126270   6.431   0.085   4.428
 8457SOL    HW226271   6.315   7.024   4.505
 8458SOL     OW26272   0.478   0.344   0.344
 8458SOL    HW126273   0.551   0.376   0.404
 8458SOL    HW226274   0.396   0.399   0.359
 8459SOL     OW26275   1.826   5.714   3.087
 8459SOL    HW126276   1.807   5.773   3.008
 8459SOL    HW226277   1.770   5.743   3.164
 8460SOL     OW26278   4.388   3.957   5.378
 8460SOL    HW126279   4.447   3.877   5.380
 8460SOL    HW226280   4.442   4.039   5.395
 8461SOL     OW26281   0.147   2.823   5.045
 8461SOL    HW126282   0.238   2.806   5.009
 8461SOL    HW226283   0.151   2.898   5.112
 8462SOL     OW26284   3.358   1.785   1.378
 8462SOL    HW126285   3.328   1.780   1.283
 8462SOL    HW226286   3.352   1.694   1.419
 8463SOL     OW26287   6.149   0.106   1.773
 8463SOL    HW126288   6.134   0.172   1.699
 8463SOL    HW226289   6.114   0.145   1.859
 8464SOL     OW26290   5.982   3.277   4.418
 8464SOL    HW126291   5.930   3.358   4.392
 8464SOL    HW226292   5.978   3.266   4.517
 8465SOL     OW26293   1.598   2.018   0.314
 8465SOL    HW126294   1.551   2.081   0.376
 8465SOL    HW226295   1.568   2.035   0.220
 8466SOL     OW26296   1.349   5.331   3.509
 8466SOL    HW126297   1.344   5.410   3.448
 8466SOL    HW226298   1.441   5.324   3.548
 8467SOL     OW26299   2.676   6.003   1.106
 8467SOL    HW126300   2.624   6.015   1.191
 8467SOL    HW226301   2.660   5.910   1.071
 8468SOL     OW26302   3.914   2.293   0.347
 8468SOL    HW126303   3.866   2.338   0.271
 8468SOL    HW226304   3.874   2.322   0.434
 8469SOL     OW26305   3.314   2.924   6.794
 8469SOL    HW126306   3.408   2.896   6.814
 8469SOL    HW226307   3.254   2.843   6.794
 8470SOL     OW26308   2.094   2.641   0.995
 8470SOL    HW126309   2.107   2.694   0.911
 8470SOL    HW226310   2.182   2.623   1.038
 8471SOL     OW26311   2.959   0.536   3.963
 8471SOL    HW126312   3.008   0.453   3.989
 8471SOL    HW226313   2.974   0.554   3.865
 8472SOL     OW26314   0.405   6.631   4.250
 8472SOL    HW126315   0.332   6.613   4.184
 8472SOL    HW226316   0.425   6.729   4.251
 8473SOL     OW26317   0.099   5.921   0.634
 8473SOL    HW126318   0.038   5.843   0.616
 8473SOL    HW226319   0.097   5.983   0.555
 8474SOL     OW26320   3.065   2.894   1.862
 8474SOL    HW126321   3.139   2.872   1.926
 8474SOL    HW226322   3.027   2.809   1.825
 8475SOL     OW26323   5.657   1.563   2.601
 8475SOL    HW126324   5.600   1.534   2.524
 8475SOL    HW226325   5.751   1.531   2.587
 8476SOL     OW26326   5.889   6.905   2.147
 8476SOL    HW126327   5.907   6.876   2.053
 8476SOL    HW226328   5.797   6.877   2.175
 8477SOL     OW26329   2.867   6.756   1.053
 8477SOL    HW126330   2.938   6.722   0.991
 8477SOL    HW226331   2.830   6.680   1.106
 8478SOL     OW26332   1.914   0.750   5.699
 8478SOL    HW126333   1.887   0.844   5.720
 8478SOL    HW226334   2.014   0.743   5.704
 8479SOL     OW26335   6.457   1.156   0.039
 8479SOL    HW126336   6.392   1.084   0.064
 8479SOL    HW226337   6.503   1.188   0.121
 8480SOL     OW26338   3.523   0.663   0.865
 8480SOL    HW126339   3.493   0.570   0.843
 8480SOL    HW226340   3.570   0.702   0.787
 8481SOL     OW26341   4.230   1.486   4.608
 8481SOL    HW126342   4.263   1.536   4.688
 8481SOL    HW226343   4.306   1.470   4.545
 8482SOL     OW26344   1.732   0.542   2.098
 8482SOL    HW126345   1.657   0.592   2.141
 8482SOL    HW226346   1.712   0.527   2.002
 8483SOL     OW26347   3.431   5.686   2.369
 8483SOL    HW126348   3.469   5.777   2.386
 8483SOL    HW226349   3.342   5.695   2.323
 8484SOL     OW26350   0.548   4.646   3.458
 8484SOL    HW126351   0.624   4.696   3.417
 8484SOL    HW226352   0.555   4.650   3.557
 8485SOL     OW26353   1.665   3.902   0.328
 8485SOL    HW126354   1.566   3.917   0.326
 8485SOL    HW226355   1.705   3.953   0.403
 8486SOL     OW26356   5.586   1.191   2.269
 8486SOL    HW126357   5.524   1.190   2.190
 8486SOL    HW226358   5.612   1.098   2.293
 8487SOL     OW26359   5.277   6.834   1.689
 8487SOL    HW126360   5.343   6.863   1.620
 8487SOL    HW226361   5.230   6.915   1.726
 8488SOL     OW26362   5.511   4.598   4.158
 8488SOL    HW126363   5.582   4.662   4.130
 8488SOL    HW226364   5.482   4.543   4.079
 8489SOL     OW26365   5.670   4.946   1.285
 8489SOL    HW126366   5.675   4.846   1.285
 8489SOL    HW226367   5.672   4.980   1.190
 8490SOL     OW26368   4.513   5.345   3.168
 8490SOL    HW126369   4.460   5.303   3.094
 8490SOL    HW226370   4.547   5.434   3.139
 8491SOL     OW26371   2.237   0.567   2.197
 8491SOL    HW126372   2.202   0.580   2.104
 8491SOL    HW226373   2.290   0.648   2.224
 8492SOL     OW26374   5.073   3.420   5.456
 8492SOL    HW126375   4.975   3.407   5.472
 8492SOL    HW226376   5.094   3.517   5.460
 8493SOL     OW26377   4.057   1.858   6.994
 8493SOL    HW126378   4.116   1.830   6.918
 8493SOL    HW226379   4.095   1.823   0.056
 8494SOL     OW26380   2.612   5.584   6.917
 8494SOL    HW126381   2.586   5.502   6.865
 8494SOL    HW226382   2.530   5.634   6.944
 8495SOL     OW26383   6.437   3.385   0.559
 8495SOL    HW126384   6.382   3.440   0.497
 8495SOL    HW226385   6.532   3.387   0.531
 8496SOL     OW26386   0.431   2.028   3.555
 8496SOL    HW126387   0.460   2.093   3.484
 8496SOL    HW226388   0.466   2.058   3.643
 8497SOL     OW26389   5.056   5.363   4.844
 8497SOL    HW126390   5.152   5.361   4.873
 8497SOL    HW226391   5.003   5.300   4.901
 8498SOL     OW26392   0.344   0.321   1.460
 8498SOL    HW126393   0.268   0.333   1.523
 8498SOL    HW226394   0.423   0.285   1.510
 8499SOL     OW26395   3.272   5.143   6.971
 8499SOL    HW126396   3.186   5.096   6.992
 8499SOL    HW226397   3.252   5.228   6.922
 8500SOL     OW26398   2.417   6.791   5.669
 8500SOL    HW126399   2.379   6.774   5.760
 8500SOL    HW226400   2.343   6.790   5.602
 8501SOL     OW26401   1.873   3.295   6.496
 8501SOL    HW126402   1.930   3.270   6.418
 8501SOL    HW226403   1.787   3.244   6.493
 8502SOL     OW26404   0.636   6.114   1.677
 8502SOL    HW126405   0.543   6.151   1.677
 8502SOL    HW226406   0.690   6.161   1.607
 8503SOL     OW26407   1.345   4.928   3.579
 8503SOL    HW126408   1.390   4.985   3.647
 8503SOL    HW226409   1.401   4.923   3.497
 8504SOL     OW26410   2.219   6.054   3.763
 8504SOL    HW126411   2.307   6.097   3.787
 8504SOL    HW226412   2.177   6.016   3.846
 8505SOL     OW26413   5.547   4.076   3.456
 8505SOL    HW126414   5.447   4.072   3.455
 8505SOL    HW226415   5.584   4.014   3.387
 8506SOL     OW26416   1.066   6.261   0.352
 8506SOL    HW126417   0.974   6.256   0.389
 8506SOL    HW226418   1.133   6.260   0.427
 8507SOL     OW26419   2.408   0.978   5.903
 8507SOL    HW126420   2.334   1.023   5.953
 8507SOL    HW226421   2.495   0.996   5.949
 8508SOL     OW26422   6.595   2.480   5.263
 8508SOL    HW126423   6.506   2.477   5.218
 8508SOL    HW226424   6.667   2.464   5.195
 8509SOL     OW26425   5.812   0.962   4.366
 8509SOL    HW126426   5.902   0.934   4.399
 8509SOL    HW226427   5.789   0.911   4.283
 8510SOL     OW26428   6.239   5.777   3.053
 8510SOL    HW126429   6.191   5.782   3.141
 8510SOL    HW226430   6.332   5.814   3.064
 8511SOL     OW26431   6.466   4.329   0.925
 8511SOL    HW126432   6.499   4.279   0.844
 8511SOL    HW226433   6.529   4.403   0.947
 8512SOL     OW26434   4.286   2.435   0.081
 8512SOL    HW126435   4.259   2.527   0.109
 8512SOL    HW226436   4.359   2.402   0.141
 8513SOL     OW26437   5.104   4.077   0.318
 8513SOL    HW126438   5.169   4.128   0.263
 8513SOL    HW226439   5.110   3.980   0.295
 8514SOL     OW26440   3.078   1.679   3.936
 8514SOL    HW126441   3.028   1.669   4.023
 8514SOL    HW226442   3.014   1.701   3.863
 8515SOL     OW26443   0.467   1.488   6.824
 8515SOL    HW126444   0.419   1.559   6.772
 8515SOL    HW226445   0.411   1.405   6.827
 8516SOL     OW26446   5.742   2.552   2.455
 8516SOL    HW126447   5.648   2.582   2.439
 8516SOL    HW226448   5.804   2.630   2.448
 8517SOL     OW26449   2.262   2.968   5.743
 8517SOL    HW126450   2.354   2.943   5.712
 8517SOL    HW226451   2.196   2.902   5.707
 8518SOL     OW26452   5.051   4.196   6.101
 8518SOL    HW126453   5.128   4.165   6.045
 8518SOL    HW226454   5.080   4.272   6.158
 8519SOL     OW26455   1.381   4.633   0.878
 8519SOL    HW126456   1.288   4.655   0.850
 8519SOL    HW226457   1.409   4.694   0.953
 8520SOL     OW26458   3.865   3.768   5.063
 8520SOL    HW126459   3.885   3.743   5.158
 8520SOL    HW226460   3.951   3.770   5.011
 8521SOL     OW26461   1.990   6.488   5.467
 8521SOL    HW126462   2.046   6.409   5.490
 8521SOL    HW226463   2.040   6.572   5.489
 8522SOL     OW26464   1.337   0.762   1.096
 8522SOL    HW126465   1.381   0.810   1.172
 8522SOL    HW226466   1.404   0.745   1.023
 8523SOL     OW26467   2.726   6.768   6.372
 8523SOL    HW126468   2.720   6.775   6.273
 8523SOL    HW226469   2.639   6.737   6.409
 8524SOL     OW26470   1.058   4.843   4.782
 8524SOL    HW126471   1.083   4.788   4.702
 8524SOL    HW226472   1.076   4.791   4.865
 8525SOL     OW26473   6.159   4.939   0.769
 8525SOL    HW126474   6.134   5.006   0.839
 8525SOL    HW226475   6.084   4.928   0.704
 8526SOL     OW26476   3.070   6.816   1.244
 8526SOL    HW126477   2.996   6.755   1.213
 8526SOL    HW226478   3.040   6.911   1.236
 8527SOL     OW26479   3.263   0.576   6.931
 8527SOL    HW126480   3.311   0.502   6.884
 8527SOL    HW226481   3.316   0.605   7.011
 8528SOL     OW26482   4.780   1.836   1.044
 8528SOL    HW126483   4.736   1.849   1.133
 8528SOL    HW226484   4.710   1.815   0.975
 8529SOL     OW26485   1.188   6.352   6.926
 8529SOL    HW126486   1.091   6.372   6.938
 8529SOL    HW226487   1.228   6.414   6.859
 8530SOL     OW26488   2.912   3.622   4.052
 8530SOL    HW126489   2.957   3.711   4.046
 8530SOL    HW226490   2.879   3.595   3.961
 8531SOL     OW26491   6.971   5.456   3.692
 8531SOL    HW126492   6.994   5.487   3.784
 8531SOL    HW226493   7.011   5.366   3.675
 8532SOL     OW26494   3.479   6.628   4.145
 8532SOL    HW126495   3.533   6.621   4.061
 8532SOL    HW226496   3.444   6.537   4.169
 8533SOL     OW26497   0.721   5.992   6.947
 8533SOL    HW126498   0.713   6.083   6.988
 8533SOL    HW226499   0.700   5.923   7.016
 8534SOL     OW26500   4.554   2.471   3.870
 8534SOL    HW126501   4.621   2.398   3.869
 8534SOL    HW226502   4.565   2.528   3.789
 8535SOL     OW26503   5.539   1.014   4.418
 8535SOL    HW126504   5.514   0.973   4.506
 8535SOL    HW226505   5.639   1.011   4.407
 8536SOL     OW26506   1.000   1.977   4.988
 8536SOL    HW126507   0.957   1.911   4.925
 8536SOL    HW226508   1.070   2.028   4.940
 8537SOL     OW26509   6.249   1.425   3.296
 8537SOL    HW126510   6.246   1.501   3.361
 8537SOL    HW226511   6.226   1.458   3.205
 8538SOL     OW26512   1.948   1.675   0.166
 8538SOL    HW126513   1.888   1.633   0.098
 8538SOL    HW226514   1.898   1.750   0.212
 8539SOL     OW26515   6.114   2.114   2.144
 8539SOL    HW126516   6.112   2.168   2.060
 8539SOL    HW226517   6.030   2.131   2.196
 8540SOL     OW26518   4.933   0.105   6.759
 8540SOL    HW126519   4.846   0.152   6.747
 8540SOL    HW226520   4.919   0.022   6.813
 8541SOL     OW26521   2.837   1.903   3.960
 8541SOL    HW126522   2.804   1.929   3.869
 8541SOL    HW226523   2.813   1.974   4.026
 8542SOL     OW26524   3.251   5.251   6.456
 8542SOL    HW126525   3.325   5.314   6.431
 8542SOL    HW226526   3.277   5.201   6.539
 8543SOL     OW26527   2.000   2.269   0.609
 8543SOL    HW126528   1.975   2.254   0.513
 8543SOL    HW226529   1.966   2.193   0.665
 8544SOL     OW26530   5.253   2.950   4.564
 8544SOL    HW126531   5.269   2.887   4.489
 8544SOL    HW226532   5.164   2.995   4.552
 8545SOL     OW26533   4.975   6.491   6.247
 8545SOL    HW126534   5.071   6.493   6.220
 8545SOL    HW226535   4.958   6.562   6.316
 8546SOL     OW26536   6.210   2.129   3.451
 8546SOL    HW126537   6.204   2.042   3.498
 8546SOL    HW226538   6.277   2.122   3.377
 8547SOL     OW26539   1.311   5.735   5.777
 8547SOL    HW126540   1.408   5.722   5.798
 8547SOL    HW226541   1.281   5.663   5.713
 8548SOL     OW26542   5.685   1.792   5.693
 8548SOL    HW126543   5.714   1.837   5.778
 8548SOL    HW226544   5.748   1.718   5.672
 8549SOL     OW26545   6.852   4.203   4.023
 8549SOL    HW126546   6.869   4.183   4.119
 8549SOL    HW226547   6.862   4.119   3.969
 8550SOL     OW26548   1.591   4.650   6.911
 8550SOL    HW126549   1.515   4.611   6.964
 8550SOL    HW226550   1.590   4.611   6.819
 8551SOL     OW26551   3.499   4.169   6.597
 8551SOL    HW126552   3.474   4.257   6.558
 8551SOL    HW226553   3.585   4.137   6.556
 8552SOL     OW26554   3.323   5.684   3.192
 8552SOL    HW126555   3.291   5.605   3.139
 8552SOL    HW226556   3.384   5.739   3.135
 8553SOL     OW26557   5.307   6.285   0.081
 8553SOL    HW126558   5.219   6.237   0.077
 8553SOL    HW226559   5.297   6.367   0.136
 8554SOL     OW26560   0.217   4.082   0.277
 8554SOL    HW126561   0.286   4.038   0.220
 8554SOL    HW226562   0.250   4.171   0.308
 8555SOL     OW26563   1.189   0.441   3.336
 8555SOL    HW126564   1.209   0.346   3.359
 8555SOL    HW226565   1.152   0.445   3.243
 8556SOL     OW26566   0.688   0.370   3.332
 8556SOL    HW126567   0.651   0.297   3.388
 8556SOL    HW226568   0.614   0.430   3.301
 8557SOL     OW26569   6.440   6.884   2.120
 8557SOL    HW126570   6.490   6.922   2.197
 8557SOL    HW226571   6.351   6.850   2.150
 8558SOL     OW26572   2.160   5.785   2.619
 8558SOL    HW126573   2.105   5.839   2.556
 8558SOL    HW226574   2.196   5.844   2.691
 8559SOL     OW26575   1.070   1.059   1.997
 8559SOL    HW126576   1.128   1.118   1.941
 8559SOL    HW226577   1.093   1.070   2.093
 8560SOL     OW26578   0.331   1.093   0.472
 8560SOL    HW126579   0.251   1.136   0.431
 8560SOL    HW226580   0.305   1.003   0.509
 8561SOL     OW26581   4.247   6.226   2.573
 8561SOL    HW126582   4.264   6.282   2.492
 8561SOL    HW226583   4.170   6.164   2.555
 8562SOL     OW26584   4.318   6.372   4.731
 8562SOL    HW126585   4.345   6.310   4.804
 8562SOL    HW226586   4.230   6.343   4.692
 8563SOL     OW26587   2.959   3.205   6.893
 8563SOL    HW126588   3.023   3.129   6.885
 8563SOL    HW226589   2.890   3.184   6.962
 8564SOL     OW26590   1.375   0.621   3.458
 8564SOL    HW126591   1.429   0.563   3.519
 8564SOL    HW226592   1.304   0.567   3.414
 8565SOL     OW26593   3.952   6.965   1.167
 8565SOL    HW126594   3.951   0.027   1.218
 8565SOL    HW226595   4.004   6.977   1.082
 8566SOL     OW26596   1.376   2.061   2.969
 8566SOL    HW126597   1.447   2.013   3.022
 8566SOL    HW226598   1.404   2.067   2.874
 8567SOL     OW26599   5.913   1.279   1.660
 8567SOL    HW126600   5.979   1.321   1.599
 8567SOL    HW226601   5.934   1.182   1.670
 8568SOL     OW26602   4.793   1.577   0.287
 8568SOL    HW126603   4.834   1.667   0.286
 8568SOL    HW226604   4.710   1.577   0.231
 8569SOL     OW26605   4.498   0.552   5.281
 8569SOL    HW126606   4.500   0.457   5.250
 8569SOL    HW226607   4.421   0.599   5.238
 8570SOL     OW26608   1.279   4.405   5.955
 8570SOL    HW126609   1.302   4.310   5.976
 8570SOL    HW226610   1.343   4.466   6.004
 8571SOL     OW26611   0.033   4.557   5.205
 8571SOL    HW126612   0.123   4.533   5.239
 8571SOL    HW226613   6.993   4.568   5.282
 8572SOL     OW26614   1.862   5.417   5.407
 8572SOL    HW126615   1.950   5.441   5.447
 8572SOL    HW226616   1.789   5.439   5.472
 8573SOL     OW26617   4.282   5.799   6.767
 8573SOL    HW126618   4.212   5.871   6.769
 8573SOL    HW226619   4.334   5.800   6.852
 8574SOL     OW26620   1.067   4.557   6.053
 8574SOL    HW126621   1.090   4.567   6.149
 8574SOL    HW226622   1.114   4.477   6.015
 8575SOL     OW26623   3.255   2.652   6.460
 8575SOL    HW126624   3.305   2.651   6.374
 8575SOL    HW226625   3.319   2.666   6.536
 8576SOL     OW26626   0.889   6.987   2.294
 8576SOL    HW126627   0.929   6.896   2.310
 8576SOL    HW226628   0.799   6.976   2.251
 8577SOL     OW26629   6.439   5.508   3.685
 8577SOL    HW126630   6.352   5.544   3.718
 8577SOL    HW226631   6.424   5.457   3.601
 8578SOL     OW26632   4.460   0.058   4.304
 8578SOL    HW126633   4.551   0.074   4.342
 8578SOL    HW226634   4.402   0.013   4.373
 8579SOL     OW26635   0.985   4.724   3.309
 8579SOL    HW126636   0.903   4.763   3.350
 8579SOL    HW226637   1.032   4.794   3.255
 8580SOL     OW26638   1.806   6.550   2.060
 8580SOL    HW126639   1.715   6.524   2.026
 8580SOL    HW226640   1.857   6.467   2.083
 8581SOL     OW26641   3.588   1.886   0.753
 8581SOL    HW126642   3.629   1.862   0.840
 8581SOL    HW226643   3.623   1.974   0.722
 8582SOL     OW26644   4.743   4.695   2.149
 8582SOL    HW126645   4.798   4.778   2.146
 8582SOL    HW226646   4.781   4.633   2.217
 8583SOL     OW26647   6.606   0.471   6.332
 8583SOL    HW126648   6.678   0.496   6.266
 8583SOL    HW226649   6.549   0.399   6.293
 8584SOL     OW26650   6.933   4.437   0.539
 8584SOL    HW126651   6.951   4.505   0.610
 8584SOL    HW226652   7.014   4.379   0.527
 8585SOL     OW26653   0.644   0.662   0.737
 8585SOL    HW126654   0.563   0.653   0.795
 8585SOL    HW226655   0.621   0.716   0.656
 8586SOL     OW26656   3.461   5.998   2.882
 8586SOL    HW126657   3.460   6.027   2.786
 8586SOL    HW226658   3.371   6.016   2.922
 8587SOL     OW26659   0.852   1.988   2.800
 8587SOL    HW126660   0.804   1.935   2.730
 8587SOL    HW226661   0.922   2.044   2.757
 8588SOL     OW26662   3.373   2.117   0.872
 8588SOL    HW126663   3.362   2.018   0.866
 8588SOL    HW226664   3.380   2.144   0.968
 8589SOL     OW26665   3.582   1.116   5.074
 8589SOL    HW126666   3.626   1.099   4.986
 8589SOL    HW226667   3.579   1.214   5.091
 8590SOL     OW26668   6.673   5.374   4.779
 8590SOL    HW126669   6.629   5.331   4.858
 8590SOL    HW226670   6.753   5.320   4.752
 8591SOL     OW26671   1.068   4.155   6.362
 8591SOL    HW126672   1.106   4.179   6.451
 8591SOL    HW226673   1.074   4.234   6.301
 8592SOL     OW26674   6.958   4.173   0.349
 8592SOL    HW126675   6.911   4.131   0.427
 8592SOL    HW226676   0.022   4.127   0.336
 8593SOL     OW26677   1.397   6.799   2.362
 8593SOL    HW126678   1.401   6.810   2.262
 8593SOL    HW226679   1.331   6.727   2.384
 8594SOL     OW26680   3.020   3.864   4.157
 8594SOL    HW126681   3.099   3.922   4.176
 8594SOL    HW226682   2.997   3.812   4.239
 8595SOL     OW26683   1.926   2.061   2.674
 8595SOL    HW126684   1.958   2.061   2.579
 8595SOL    HW226685   1.999   2.026   2.733
 8596SOL     OW26686   5.498   5.153   1.666
 8596SOL    HW126687   5.459   5.070   1.706
 8596SOL    HW226688   5.566   5.192   1.728
 8597SOL     OW26689   3.300   1.722   1.102
 8597SOL    HW126690   3.273   1.812   1.067
 8597SOL    HW226691   3.226   1.656   1.087
 8598SOL     OW26692   6.401   5.057   1.169
 8598SOL    HW126693   6.384   4.989   1.097
 8598SOL    HW226694   6.420   5.010   1.255
 8599SOL     OW26695   0.701   2.674   3.960
 8599SOL    HW126696   0.793   2.635   3.952
 8599SOL    HW226697   0.707   2.766   3.998
 8600SOL     OW26698   6.822   4.882   6.562
 8600SOL    HW126699   6.773   4.795   6.551
 8600SOL    HW226700   6.835   4.925   6.472
 8601SOL     OW26701   0.266   1.512   4.386
 8601SOL    HW126702   0.341   1.560   4.431
 8601SOL    HW226703   0.265   1.535   4.288
 8602SOL     OW26704   2.930   6.228   2.647
 8602SOL    HW126705   2.879   6.227   2.733
 8602SOL    HW226706   2.897   6.303   2.589
 8603SOL     OW26707   3.790   3.641   0.341
 8603SOL    HW126708   3.886   3.643   0.314
 8603SOL    HW226709   3.742   3.572   0.287
 8604SOL     OW26710   5.822   3.104   3.646
 8604SOL    HW126711   5.862   3.013   3.659
 8604SOL    HW226712   5.895   3.172   3.641
 8605SOL     OW26713   3.475   5.581   3.798
 8605SOL    HW126714   3.431   5.543   3.717
 8605SOL    HW226715   3.443   5.675   3.812
 8606SOL     OW26716   2.937   4.416   6.364
 8606SOL    HW126717   2.896   4.398   6.275
 8606SOL    HW226718   3.036   4.406   6.358
 8607SOL     OW26719   3.435   5.482   1.596
 8607SOL    HW126720   3.509   5.522   1.651
 8607SOL    HW226721   3.438   5.383   1.603
 8608SOL     OW26722   4.113   4.691   2.674
 8608SOL    HW126723   4.178   4.638   2.728
 8608SOL    HW226724   4.122   4.667   2.577
 8609SOL     OW26725   3.637   0.450   4.597
 8609SOL    HW126726   3.574   0.382   4.634
 8609SOL    HW226727   3.695   0.485   4.670
 8610SOL     OW26728   1.322   6.783   3.487
 8610SOL    HW126729   1.349   6.699   3.439
 8610SOL    HW226730   1.403   6.838   3.505
 8611SOL     OW26731   1.208   2.009   4.541
 8611SOL    HW126732   1.182   1.998   4.445
 8611SOL    HW226733   1.242   2.102   4.556
 8612SOL     OW26734   3.026   3.371   6.415
 8612SOL    HW126735   3.088   3.391   6.339
 8612SOL    HW226736   2.970   3.291   6.393
 8613SOL     OW26737   1.556   1.718   0.939
 8613SOL    HW126738   1.594   1.778   0.869
 8613SOL    HW226739   1.580   1.753   1.030
 8614SOL     OW26740   0.855   3.828   2.680
 8614SOL    HW126741   0.948   3.816   2.645
 8614SOL    HW226742   0.799   3.750   2.652
 8615SOL     OW26743   4.535   1.888   5.559
 8615SOL    HW126744   4.584   1.831   5.625
 8615SOL    HW226745   4.535   1.842   5.470
 8616SOL     OW26746   0.777   4.901   0.204
 8616SOL    HW126747   0.732   4.989   0.187
 8616SOL    HW226748   0.854   4.915   0.265
 8617SOL     OW26749   6.742   1.968   0.554
 8617SOL    HW126750   6.686   1.966   0.637
 8617SOL    HW226751   6.763   1.874   0.526
 8618SOL     OW26752   4.555   6.539   2.530
 8618SOL    HW126753   4.643   6.493   2.518
 8618SOL    HW226754   4.483   6.484   2.486
 8619SOL     OW26755   4.079   4.959   6.872
 8619SOL    HW126756   4.033   5.028   6.929
 8619SOL    HW226757   4.027   4.874   6.876
 8620SOL     OW26758   5.789   6.722   2.809
 8620SOL    HW126759   5.740   6.804   2.779
 8620SOL    HW226760   5.832   6.740   2.898
 8621SOL     OW26761   6.393   1.192   4.193
 8621SOL    HW126762   6.388   1.195   4.094
 8621SOL    HW226763   6.348   1.109   4.227
 8622SOL     OW26764   4.329   4.795   0.363
 8622SOL    HW126765   4.386   4.734   0.419
 8622SOL    HW226766   4.253   4.744   0.324
 8623SOL     OW26767   0.693   4.050   2.696
 8623SOL    HW126768   0.690   4.072   2.793
 8623SOL    HW226769   0.740   3.963   2.683
 8624SOL     OW26770   1.499   4.082   3.536
 8624SOL    HW126771   1.496   4.041   3.445
 8624SOL    HW226772   1.413   4.064   3.584
 8625SOL     OW26773   4.449   0.864   4.656
 8625SOL    HW126774   4.476   0.789   4.717
 8625SOL    HW226775   4.476   0.951   4.696
 8626SOL     OW26776   3.427   3.521   3.881
 8626SOL    HW126777   3.391   3.444   3.828
 8626SOL    HW226778   3.356   3.590   3.892
 8627SOL     OW26779   1.401   1.052   1.272
 8627SOL    HW126780   1.494   1.082   1.294
 8627SOL    HW226781   1.359   1.015   1.355
 8628SOL     OW26782   6.603   0.508   0.299
 8628SOL    HW126783   6.612   0.602   0.269
 8628SOL    HW226784   6.508   0.479   0.293
 8629SOL     OW26785   0.862   5.247   4.217
 8629SOL    HW126786   0.923   5.234   4.139
 8629SOL    HW226787   0.767   5.253   4.185
 8630SOL     OW26788   5.767   3.654   3.933
 8630SOL    HW126789   5.717   3.595   3.870
 8630SOL    HW226790   5.719   3.741   3.943
 8631SOL     OW26791   3.967   5.588   5.821
 8631SOL    HW126792   4.020   5.628   5.896
 8631SOL    HW226793   3.964   5.488   5.831
 8632SOL     OW26794   3.668   0.357   3.546
 8632SOL    HW126795   3.592   0.293   3.562
 8632SOL    HW226796   3.700   0.392   3.634
 8633SOL     OW26797   5.808   1.138   3.879
 8633SOL    HW126798   5.709   1.144   3.890
 8633SOL    HW226799   5.853   1.177   3.960
 8634SOL     OW26800   6.351   4.175   1.651
 8634SOL    HW126801   6.445   4.171   1.614
 8634SOL    HW226802   6.318   4.082   1.668
 8635SOL     OW26803   6.196   3.874   6.042
 8635SOL    HW126804   6.156   3.822   5.966
 8635SOL    HW226805   6.123   3.914   6.097
 8636SOL     OW26806   6.031   5.433   0.184
 8636SOL    HW126807   6.028   5.423   0.084
 8636SOL    HW226808   6.117   5.478   0.210
 8637SOL     OW26809   1.900   1.025   0.186
 8637SOL    HW126810   1.977   1.009   0.248
 8637SOL    HW226811   1.834   0.950   0.195
 8638SOL     OW26812   1.977   4.082   0.227
 8638SOL    HW126813   1.909   4.038   0.168
 8638SOL    HW226814   2.039   4.137   0.172
 8639SOL     OW26815   5.099   2.809   2.284
 8639SOL    HW126816   5.004   2.811   2.252
 8639SOL    HW226817   5.130   2.714   2.291
 8640SOL     OW26818   4.331   4.009   0.793
 8640SOL    HW126819   4.301   3.940   0.728
 8640SOL    HW226820   4.368   3.965   0.875
 8641SOL     OW26821   6.839   4.018   3.161
 8641SOL    HW126822   6.863   3.970   3.245
 8641SOL    HW226823   6.922   4.043   3.111
 8642SOL     OW26824   4.920   0.356   2.254
 8642SOL    HW126825   4.827   0.386   2.278
 8642SOL    HW226826   4.918   0.260   2.227
 8643SOL     OW26827   4.545   7.000   6.864
 8643SOL    HW126828   4.604   0.048   6.899
 8643SOL    HW226829   4.480   6.972   6.934
 8644SOL     OW26830   5.646   2.306   5.188
 8644SOL    HW126831   5.615   2.242   5.260
 8644SOL    HW226832   5.697   2.381   5.230
 8645SOL     OW26833   6.254   4.547   1.005
 8645SOL    HW126834   6.236   4.561   1.102
 8645SOL    HW226835   6.346   4.510   0.992
 8646SOL     OW26836   4.671   1.071   0.715
 8646SOL    HW126837   4.619   1.156   0.709
 8646SOL    HW226838   4.623   1.007   0.774
 8647SOL     OW26839   3.581   5.132   0.267
 8647SOL    HW126840   3.539   5.060   0.323
 8647SOL    HW226841   3.637   5.190   0.326
 8648SOL     OW26842   6.005   0.692   4.107
 8648SOL    HW126843   6.013   0.626   4.182
 8648SOL    HW226844   5.908   0.705   4.085
 8649SOL     OW26845   6.405   4.247   5.457
 8649SOL    HW126846   6.348   4.198   5.522
 8649SOL    HW226847   6.440   4.184   5.388
 8650SOL     OW26848   1.620   5.066   4.361
 8650SOL    HW126849   1.668   4.993   4.409
 8650SOL    HW226850   1.656   5.075   4.268
 8651SOL     OW26851   3.812   0.964   0.132
 8651SOL    HW126852   3.796   0.937   0.227
 8651SOL    HW226853   3.791   1.061   0.121
 8652SOL     OW26854   1.627   4.045   3.769
 8652SOL    HW126855   1.594   4.042   3.674
 8652SOL    HW226856   1.648   4.139   3.794
 8653SOL     OW26857   0.169   1.957   6.060
 8653SOL    HW126858   0.096   1.900   6.024
 8653SOL    HW226859   0.159   1.964   6.160
 8654SOL     OW26860   0.328   6.368   2.772
 8654SOL    HW126861   0.367   6.381   2.863
 8654SOL    HW226862   0.283   6.279   2.768
 8655SOL     OW26863   6.099   6.744   3.978
 8655SOL    HW126864   6.080   6.838   4.006
 8655SOL    HW226865   6.048   6.723   3.895
 8656SOL     OW26866   6.264   1.027   1.344
 8656SOL    HW126867   6.312   1.113   1.331
 8656SOL    HW226868   6.330   0.952   1.348
 8657SOL     OW26869   4.842   5.039   5.910
 8657SOL    HW126870   4.794   5.006   5.992
 8657SOL    HW226871   4.798   5.123   5.877
 8658SOL     OW26872   5.282   4.912   0.098
 8658SOL    HW126873   5.267   4.818   0.066
 8658SOL    HW226874   5.209   4.937   0.162
 8659SOL     OW26875   4.471   0.613   3.425
 8659SOL    HW126876   4.444   0.704   3.453
 8659SOL    HW226877   4.530   0.572   3.495
 8660SOL     OW26878   6.191   4.037   6.844
 8660SOL    HW126879   6.125   4.111   6.854
 8660SOL    HW226880   6.163   3.960   6.901
 8661SOL     OW26881   5.581   3.654   1.676
 8661SOL    HW126882   5.570   3.557   1.654
 8661SOL    HW226883   5.679   3.675   1.687
 8662SOL     OW26884   5.761   6.383   1.398
 8662SOL    HW126885   5.814   6.344   1.323
 8662SOL    HW226886   5.716   6.310   1.449
 8663SOL     OW26887   2.632   5.499   0.694
 8663SOL    HW126888   2.683   5.532   0.615
 8663SOL    HW226889   2.667   5.409   0.721
 8664SOL     OW26890   4.500   5.276   6.864
 8664SOL    HW126891   4.524   5.252   6.958
 8664SOL    HW226892   4.497   5.193   6.808
 8665SOL     OW26893   4.784   5.670   5.597
 8665SOL    HW126894   4.864   5.687   5.654
 8665SOL    HW226895   4.812   5.661   5.501
 8666SOL     OW26896   4.641   1.745   4.818
 8666SOL    HW126897   4.706   1.809   4.775
 8666SOL    HW226898   4.688   1.660   4.839
 8667SOL     OW26899   5.182   1.603   3.522
 8667SOL    HW126900   5.265   1.655   3.500
 8667SOL    HW226901   5.184   1.517   3.471
 8668SOL     OW26902   5.195   2.256   4.225
 8668SOL    HW126903   5.137   2.175   4.226
 8668SOL    HW226904   5.139   2.338   4.238
 8669SOL     OW26905   3.832   0.432   6.341
 8669SOL    HW126906   3.931   0.442   6.356
 8669SOL    HW226907   3.815   0.356   6.279
 8670SOL     OW26908   3.658   5.500   4.393
 8670SOL    HW126909   3.631   5.585   4.438
 8670SOL    HW226910   3.627   5.501   4.298
 8671SOL     OW26911   5.785   0.265   3.958
 8671SOL    HW126912   5.775   0.327   4.036
 8671SOL    HW226913   5.700   0.214   3.945
 8672SOL     OW26914   2.581   5.506   4.467
 8672SOL    HW126915   2.616   5.589   4.509
 8672SOL    HW226916   2.513   5.529   4.398
 8673SOL     OW26917   0.663   1.881   0.099
 8673SOL    HW126918   0.644   1.846   0.007
 8673SOL    HW226919   0.759   1.864   0.122
 8674SOL     OW26920   6.932   6.351   2.411
 8674SOL    HW126921   7.013   6.355   2.352
 8674SOL    HW226922   6.932   6.264   2.460
 8675SOL     OW26923   3.132   1.878   4.410
 8675SOL    HW126924   3.037   1.851   4.426
 8675SOL    HW226925   3.161   1.845   4.320
 8676SOL     OW26926   3.059   1.004   2.967
 8676SOL    HW126927   2.969   0.989   2.924
 8676SOL    HW226928   3.068   1.100   2.992
 8677SOL     OW26929   2.431   5.888   6.382
 8677SOL    HW126930   2.390   5.797   6.371
 8677SOL    HW226931   2.433   5.912   6.479
 8678SOL     OW26932   0.590   0.449   0.005
 8678SOL    HW126933   0.584   0.470   6.932
 8678SOL    HW226934   0.513   0.492   0.054
 8679SOL     OW26935   5.691   2.051   4.681
 8679SOL    HW126936   5.704   1.964   4.634
 8679SOL    HW226937   5.625   2.039   4.756
 8680SOL     OW26938   1.320   3.874   1.229
 8680SOL    HW126939   1.374   3.795   1.202
 8680SOL    HW226940   1.379   3.955   1.235
 8681SOL     OW26941   4.985   4.747   6.875
 8681SOL    HW126942   5.076   4.725   6.908
 8681SOL    HW226943   4.922   4.756   6.952
 8682SOL     OW26944   3.279   6.764   3.211
 8682SOL    HW126945   3.373   6.770   3.243
 8682SOL    HW226946   3.238   6.856   3.211
 8683SOL     OW26947   1.326   2.856   2.229
 8683SOL    HW126948   1.380   2.937   2.252
 8683SOL    HW226949   1.277   2.872   2.143
 8684SOL     OW26950   6.922   2.869   4.936
 8684SOL    HW126951   6.876   2.781   4.922
 8684SOL    HW226952   7.001   2.857   4.995
 8685SOL     OW26953   1.563   2.527   5.946
 8685SOL    HW126954   1.533   2.528   5.851
 8685SOL    HW226955   1.548   2.437   5.986
 8686SOL     OW26956   6.584   2.259   2.267
 8686SOL    HW126957   6.660   2.282   2.206
 8686SOL    HW226958   6.523   2.194   2.222
 8687SOL     OW26959   3.602   6.438   2.745
 8687SOL    HW126960   3.699   6.460   2.737
 8687SOL    HW226961   3.554   6.466   2.663
 8688SOL     OW26962   2.774   6.498   0.709
 8688SOL    HW126963   2.792   6.457   0.619
 8688SOL    HW226964   2.792   6.597   0.704
 8689SOL     OW26965   3.967   5.731   0.017
 8689SOL    HW126966   3.895   5.666   0.041
 8689SOL    HW226967   3.968   5.806   0.084
 8690SOL     OW26968   1.025   2.318   4.167
 8690SOL    HW126969   1.108   2.303   4.222
 8690SOL    HW226970   1.032   2.407   4.121
 8691SOL     OW26971   4.344   2.573   6.490
 8691SOL    HW126972   4.387   2.663   6.493
 8691SOL    HW226973   4.306   2.551   6.580
 8692SOL     OW26974   3.191   1.998   3.099
 8692SOL    HW126975   3.283   2.038   3.095
 8692SOL    HW226976   3.124   2.071   3.114
 8693SOL     OW26977   5.451   2.154   1.113
 8693SOL    HW126978   5.364   2.138   1.160
 8693SOL    HW226979   5.442   2.233   1.052
 8694SOL     OW26980   4.927   0.633   6.209
 8694SOL    HW126981   4.910   0.549   6.260
 8694SOL    HW226982   4.975   0.611   6.124
 8695SOL     OW26983   4.575   2.755   6.031
 8695SOL    HW126984   4.493   2.745   6.087
 8695SOL    HW226985   4.599   2.852   6.022
 8696SOL     OW26986   3.323   5.903   0.998
 8696SOL    HW126987   3.357   5.954   1.077
 8696SOL    HW226988   3.361   5.944   0.914
 8697SOL     OW26989   6.663   3.626   6.665
 8697SOL    HW126990   6.675   3.527   6.672
 8697SOL    HW226991   6.752   3.671   6.670
 8698SOL     OW26992   5.256   5.575   3.959
 8698SOL    HW126993   5.176   5.629   3.985
 8698SOL    HW226994   5.279   5.513   4.033
 8699SOL     OW26995   1.319   2.554   5.491
 8699SOL    HW126996   1.294   2.589   5.581
 8699SOL    HW226997   1.240   2.561   5.429
 8700SOL     OW26998   1.985   0.597   5.007
 8700SOL    HW126999   1.947   0.508   4.983
 8700SOL    HW227000   2.013   0.644   4.923
 8701SOL     OW27001   0.414   0.894   5.884
 8701SOL    HW127002   0.456   0.905   5.974
 8701SOL    HW227003   0.316   0.915   5.890
 8702SOL     OW27004   5.429   4.460   6.905
 8702SOL    HW127005   5.354   4.396   6.923
 8702SOL    HW227006   5.501   4.448   6.973
 8703SOL     OW27007   3.171   5.879   1.601
 8703SOL    HW127008   3.147   5.789   1.639
 8703SOL    HW227009   3.269   5.894   1.611
 8704SOL     OW27010   6.576   4.032   2.389
 8704SOL    HW127011   6.539   3.971   2.460
 8704SOL    HW227012   6.662   4.070   2.421
 8705SOL     OW27013   4.752   0.874   6.561
 8705SOL    HW127014   4.810   0.793   6.552
 8705SOL    HW227015   4.659   0.846   6.584
 8706SOL     OW27016   5.045   2.082   6.282
 8706SOL    HW127017   5.084   1.997   6.246
 8706SOL    HW227018   4.954   2.063   6.320
 8707SOL     OW27019   4.292   3.140   0.385
 8707SOL    HW127020   4.332   3.053   0.356
 8707SOL    HW227021   4.230   3.123   0.462
 8708SOL     OW27022   3.516   0.844   2.318
 8708SOL    HW127023   3.531   0.746   2.303
 8708SOL    HW227024   3.463   0.857   2.402
 8709SOL     OW27025   6.709   4.803   6.879
 8709SOL    HW127026   6.701   4.775   6.975
 8709SOL    HW227027   6.806   4.812   6.856
 8710SOL     OW27028   1.638   2.713   3.255
 8710SOL    HW127029   1.543   2.697   3.231
 8710SOL    HW227030   1.698   2.675   3.184
 8711SOL     OW27031   0.276   6.679   2.351
 8711SOL    HW127032   0.226   6.665   2.437
 8711SOL    HW227033   0.235   6.755   2.301
 8712SOL     OW27034   3.595   2.131   3.432
 8712SOL    HW127035   3.571   2.050   3.378
 8712SOL    HW227036   3.518   2.156   3.490
 8713SOL     OW27037   6.974   4.068   3.577
 8713SOL    HW127038   6.914   3.995   3.542
 8713SOL    HW227039   6.973   4.145   3.514
 8714SOL     OW27040   0.620   0.717   5.704
 8714SOL    HW127041   0.635   0.780   5.781
 8714SOL    HW227042   0.538   0.746   5.654
 8715SOL     OW27043   5.994   1.011   1.193
 8715SOL    HW127044   5.906   0.975   1.225
 8715SOL    HW227045   6.067   0.982   1.255
 8716SOL     OW27046   1.118   1.897   0.932
 8716SOL    HW127047   1.137   1.888   0.834
 8716SOL    HW227048   1.048   1.831   0.958
 8717SOL     OW27049   4.035   3.619   2.448
 8717SOL    HW127050   4.028   3.718   2.462
 8717SOL    HW227051   4.078   3.577   2.528
 8718SOL     OW27052   0.333   2.448   5.187
 8718SOL    HW127053   0.256   2.508   5.209
 8718SOL    HW227054   0.319   2.409   5.096
 8719SOL     OW27055   1.424   1.190   5.196
 8719SOL    HW127056   1.337   1.143   5.207
 8719SOL    HW227057   1.462   1.170   5.106
 8720SOL     OW27058   6.695   4.855   5.249
 8720SOL    HW127059   6.631   4.857   5.326
 8720SOL    HW227060   6.788   4.844   5.283
 8721SOL     OW27061   6.169   2.538   4.461
 8721SOL    HW127062   6.205   2.630   4.447
 8721SOL    HW227063   6.179   2.513   4.558
 8722SOL     OW27064   3.716   1.010   0.758
 8722SOL    HW127065   3.742   1.098   0.719
 8722SOL    HW227066   3.663   0.958   0.691
 8723SOL     OW27067   5.892   5.847   0.939
 8723SOL    HW127068   5.960   5.776   0.954
 8723SOL    HW227069   5.916   5.900   0.857
 8724SOL     OW27070   6.061   0.026   5.485
 8724SOL    HW127071   6.112   0.108   5.510
 8724SOL    HW227072   6.124   6.980   5.452
 8725SOL     OW27073   1.519   1.119   6.886
 8725SOL    HW127074   1.606   1.071   6.899
 8725SOL    HW227075   1.493   1.117   6.789
 8726SOL     OW27076   5.912   0.028   1.216
 8726SOL    HW127077   5.833   6.997   1.243
 8726SOL    HW227078   5.962   7.004   1.143
 8727SOL     OW27079   6.251   6.303   1.857
 8727SOL    HW127080   6.269   6.363   1.778
 8727SOL    HW227081   6.320   6.319   1.927
 8728SOL     OW27082   3.527   0.199   5.101
 8728SOL    HW127083   3.527   0.151   5.013
 8728SOL    HW227084   3.615   0.184   5.146
 8729SOL     OW27085   4.794   5.372   2.989
 8729SOL    HW127086   4.852   5.448   3.019
 8729SOL    HW227087   4.700   5.389   3.018
 8730SOL     OW27088   0.166   5.303   2.761
 8730SOL    HW127089   0.082   5.357   2.763
 8730SOL    HW227090   0.234   5.349   2.704
 8731SOL     OW27091   1.915   2.010   3.472
 8731SOL    HW127092   1.885   1.917   3.491
 8731SOL    HW227093   1.844   2.058   3.419
 8732SOL     OW27094   5.325   4.677   1.780
 8732SOL    HW127095   5.348   4.607   1.848
 8732SOL    HW227096   5.225   4.685   1.774
 8733SOL     OW27097   1.106   5.725   2.924
 8733SOL    HW127098   1.045   5.784   2.870
 8733SOL    HW227099   1.194   5.718   2.878
 8734SOL     OW27100   1.082   5.016   1.905
 8734SOL    HW127101   1.075   5.069   1.820
 8734SOL    HW227102   1.012   4.944   1.905
 8735SOL     OW27103   0.887   1.981   6.675
 8735SOL    HW127104   0.894   1.895   6.725
 8735SOL    HW227105   0.802   2.028   6.699
 8736SOL     OW27106   0.593   6.693   0.259
 8736SOL    HW127107   0.496   6.671   0.268
 8736SOL    HW227108   0.611   6.730   0.168
 8737SOL     OW27109   4.316   6.582   6.048
 8737SOL    HW127110   4.240   6.560   5.987
 8737SOL    HW227111   4.285   6.574   6.143
 8738SOL     OW27112   1.160   3.922   4.955
 8738SOL    HW127113   1.078   3.965   4.993
 8738SOL    HW227114   1.134   3.841   4.902
 8739SOL     OW27115   6.965   4.246   6.379
 8739SOL    HW127116   6.902   4.242   6.302
 8739SOL    HW227117   0.013   4.177   6.367
 8740SOL     OW27118   3.958   0.688   5.699
 8740SOL    HW127119   3.869   0.679   5.743
 8740SOL    HW227120   3.955   0.767   5.636
 8741SOL     OW27121   2.060   1.897   1.839
 8741SOL    HW127122   2.146   1.865   1.877
 8741SOL    HW227123   2.071   1.990   1.805
 8742SOL     OW27124   4.921   6.055   1.652
 8742SOL    HW127125   4.907   6.128   1.718
 8742SOL    HW227126   4.883   5.969   1.688
 8743SOL     OW27127   2.029   5.911   2.419
 8743SOL    HW127128   2.081   5.995   2.432
 8743SOL    HW227129   1.999   5.904   2.324
 8744SOL     OW27130   4.169   2.588   6.265
 8744SOL    HW127131   4.221   2.571   6.348
 8744SOL    HW227132   4.147   2.685   6.258
 8745SOL     OW27133   6.145   1.686   5.448
 8745SOL    HW127134   6.157   1.720   5.541
 8745SOL    HW227135   6.055   1.643   5.440
 8746SOL     OW27136   4.161   4.165   5.522
 8746SOL    HW127137   4.214   4.212   5.451
 8746SOL    HW227138   4.131   4.231   5.591
 8747SOL     OW27139   0.798   2.676   3.548
 8747SOL    HW127140   0.839   2.718   3.467
 8747SOL    HW227141   0.865   2.616   3.591
 8748SOL     OW27142   0.536   0.699   0.291
 8748SOL    HW127143   0.498   0.678   0.381
 8748SOL    HW227144   0.596   0.624   0.262
 8749SOL     OW27145   2.887   0.494   4.485
 8749SOL    HW127146   2.867   0.461   4.392
 8749SOL    HW227147   2.820   0.564   4.510
 8750SOL     OW27148   2.321   2.595   5.429
 8750SOL    HW127149   2.363   2.685   5.418
 8750SOL    HW227150   2.315   2.550   5.340
 8751SOL     OW27151   6.904   0.248   1.970
 8751SOL    HW127152   6.857   0.336   1.980
 8751SOL    HW227153   6.885   0.211   1.879
 8752SOL     OW27154   2.778   4.376   0.213
 8752SOL    HW127155   2.852   4.390   0.147
 8752SOL    HW227156   2.695   4.348   0.164
 8753SOL     OW27157   5.150   1.222   4.561
 8753SOL    HW127158   5.129   1.319   4.572
 8753SOL    HW227159   5.125   1.193   4.468
 8754SOL     OW27160   0.724   2.100   5.812
 8754SOL    HW127161   0.803   2.052   5.850
 8754SOL    HW227162   0.692   2.052   5.730
 8755SOL     OW27163   2.745   1.562   6.709
 8755SOL    HW127164   2.804   1.636   6.679
 8755SOL    HW227165   2.780   1.475   6.673
 8756SOL     OW27166   2.257   3.018   3.552
 8756SOL    HW127167   2.216   2.927   3.542
 8756SOL    HW227168   2.312   3.021   3.635
 8757SOL     OW27169   5.846   6.443   5.921
 8757SOL    HW127170   5.835   6.428   6.019
 8757SOL    HW227171   5.758   6.433   5.875
 8758SOL     OW27172   5.398   6.274   2.072
 8758SOL    HW127173   5.306   6.312   2.072
 8758SOL    HW227174   5.395   6.180   2.036
 8759SOL     OW27175   4.568   1.170   6.130
 8759SOL    HW127176   4.551   1.145   6.035
 8759SOL    HW227177   4.495   1.134   6.188
 8760SOL     OW27178   2.064   1.812   4.120
 8760SOL    HW127179   2.029   1.751   4.050
 8760SOL    HW227180   2.025   1.903   4.109
 8761SOL     OW27181   5.223   0.586   0.806
 8761SOL    HW127182   5.181   0.557   0.892
 8761SOL    HW227183   5.309   0.537   0.793
 8762SOL     OW27184   1.250   3.686   2.657
 8762SOL    HW127185   1.348   3.705   2.662
 8762SOL    HW227186   1.210   3.693   2.748
 8763SOL     OW27187   6.550   6.003   5.034
 8763SOL    HW127188   6.598   6.082   4.995
 8763SOL    HW227189   6.616   5.934   5.062
 8764SOL     OW27190   5.424   2.283   3.780
 8764SOL    HW127191   5.433   2.301   3.878
 8764SOL    HW227192   5.403   2.369   3.732
 8765SOL     OW27193   5.547   6.581   4.531
 8765SOL    HW127194   5.534   6.613   4.437
 8765SOL    HW227195   5.556   6.659   4.592
 8766SOL     OW27196   3.102   4.945   3.643
 8766SOL    HW127197   3.037   4.913   3.712
 8766SOL    HW227198   3.052   4.978   3.563
 8767SOL     OW27199   4.547   0.770   2.720
 8767SOL    HW127200   4.506   0.695   2.668
 8767SOL    HW227201   4.640   0.744   2.746
 8768SOL     OW27202   1.907   2.999   0.265
 8768SOL    HW127203   1.939   3.026   0.355
 8768SOL    HW227204   1.820   3.043   0.245
 8769SOL     OW27205   0.261   0.120   4.939
 8769SOL    HW127206   0.177   0.174   4.936
 8769SOL    HW227207   0.314   0.148   5.019
 8770SOL     OW27208   4.817   4.301   1.999
 8770SOL    HW127209   4.721   4.279   2.016
 8770SOL    HW227210   4.874   4.263   2.072
 8771SOL     OW27211   1.785   1.596   6.509
 8771SOL    HW127212   1.690   1.568   6.522
 8771SOL    HW227213   1.791   1.696   6.510
 8772SOL     OW27214   6.595   0.948   6.454
 8772SOL    HW127215   6.574   1.040   6.486
 8772SOL    HW227216   6.522   0.885   6.483
 8773SOL     OW27217   3.883   2.141   3.367
 8773SOL    HW127218   3.788   2.164   3.347
 8773SOL    HW227219   3.890   2.043   3.386
 8774SOL     OW27220   1.358   1.655   0.615
 8774SOL    HW127221   1.421   1.701   0.553
 8774SOL    HW227222   1.364   1.697   0.706
 8775SOL     OW27223   5.860   6.813   3.517
 8775SOL    HW127224   5.905   6.806   3.428
 8775SOL    HW227225   5.845   6.721   3.553
 8776SOL     OW27226   3.634   3.408   4.942
 8776SOL    HW127227   3.719   3.369   4.979
 8776SOL    HW227228   3.617   3.497   4.984
 8777SOL     OW27229   6.809   4.833   1.312
 8777SOL    HW127230   6.711   4.850   1.327
 8777SOL    HW227231   6.862   4.905   1.358
 8778SOL     OW27232   6.984   1.982   3.401
 8778SOL    HW127233   7.008   1.901   3.347
 8778SOL    HW227234   0.025   2.055   3.383
 8779SOL     OW27235   1.867   4.457   2.458
 8779SOL    HW127236   1.888   4.412   2.371
 8779SOL    HW227237   1.772   4.437   2.484
 8780SOL     OW27238   1.579   6.020   3.915
 8780SOL    HW127239   1.555   5.927   3.941
 8780SOL    HW227240   1.566   6.081   3.993
 8781SOL     OW27241   0.300   1.138   3.390
 8781SOL    HW127242   0.216   1.137   3.336
 8781SOL    HW227243   0.307   1.054   3.443
 8782SOL     OW27244   5.565   0.787   2.090
 8782SOL    HW127245   5.586   0.827   2.180
 8782SOL    HW227246   5.633   0.717   2.068
 8783SOL     OW27247   6.151   3.854   3.800
 8783SOL    HW127248   6.100   3.847   3.714
 8783SOL    HW227249   6.172   3.949   3.819
 8784SOL     OW27250   5.510   4.814   5.273
 8784SOL    HW127251   5.430   4.861   5.238
 8784SOL    HW227252   5.486   4.766   5.358
 8785SOL     OW27253   5.562   4.026   6.623
 8785SOL    HW127254   5.630   4.099   6.617
 8785SOL    HW227255   5.494   4.038   6.550
 8786SOL     OW27256   1.532   6.526   6.936
 8786SOL    HW127257   1.591   6.458   6.894
 8786SOL    HW227258   1.577   6.562   7.018
 8787SOL     OW27259   1.283   3.423   2.559
 8787SOL    HW127260   1.381   3.404   2.549
 8787SOL    HW227261   1.270   3.520   2.579
 8788SOL     OW27262   6.790   1.800   5.041
 8788SOL    HW127263   6.840   1.886   5.027
 8788SOL    HW227264   6.751   1.799   5.133
 8789SOL     OW27265   6.774   0.630   6.564
 8789SOL    HW127266   6.739   0.696   6.498
 8789SOL    HW227267   6.702   0.563   6.585
 8790SOL     OW27268   6.709   1.724   6.808
 8790SOL    HW127269   6.783   1.758   6.866
 8790SOL    HW227270   6.693   1.788   6.733
 8791SOL     OW27271   5.375   6.964   5.788
 8791SOL    HW127272   5.366   6.972   5.887
 8791SOL    HW227273   5.472   6.966   5.763
 8792SOL     OW27274   3.909   0.094   3.359
 8792SOL    HW127275   4.004   0.064   3.360
 8792SOL    HW227276   3.861   0.053   3.282
 8793SOL     OW27277   2.588   5.772   4.169
 8793SOL    HW127278   2.600   5.674   4.189
 8793SOL    HW227279   2.583   5.823   4.255
 8794SOL     OW27280   2.956   6.743   2.788
 8794SOL    HW127281   3.041   6.790   2.764
 8794SOL    HW227282   2.974   6.645   2.798
 8795SOL     OW27283   1.670   6.812   5.283
 8795SOL    HW127284   1.755   6.815   5.231
 8795SOL    HW227285   1.598   6.768   5.229
 8796SOL     OW27286   4.383   1.545   5.691
 8796SOL    HW127287   4.361   1.523   5.785
 8796SOL    HW227288   4.321   1.497   5.629
 8797SOL     OW27289   1.875   6.714   6.255
 8797SOL    HW127290   1.931   6.729   6.173
 8797SOL    HW227291   1.809   6.641   6.237
 8798SOL     OW27292   5.545   3.936   5.172
 8798SOL    HW127293   5.491   3.940   5.256
 8798SOL    HW227294   5.488   3.963   5.094
 8799SOL     OW27295   2.301   4.265   3.556
 8799SOL    HW127296   2.325   4.310   3.470
 8799SOL    HW227297   2.235   4.191   3.537
 8800SOL     OW27298   4.300   3.617   5.489
 8800SOL    HW127299   4.388   3.649   5.453
 8800SOL    HW227300   4.293   3.518   5.476
 8801SOL     OW27301   2.329   1.397   4.224
 8801SOL    HW127302   2.233   1.386   4.248
 8801SOL    HW227303   2.337   1.413   4.125
 8802SOL     OW27304   1.567   6.545   2.244
 8802SOL    HW127305   1.571   6.515   2.148
 8802SOL    HW227306   1.546   6.642   2.248
 8803SOL     OW27307   1.926   5.345   6.618
 8803SOL    HW127308   1.994   5.358   6.546
 8803SOL    HW227309   1.839   5.385   6.588
 8804SOL     OW27310   4.003   0.608   1.855
 8804SOL    HW127311   4.090   0.572   1.821
 8804SOL    HW227312   4.020   0.679   1.923
 8805SOL     OW27313   1.588   0.472   3.534
 8805SOL    HW127314   1.609   0.377   3.558
 8805SOL    HW227315   1.589   0.528   3.617
 8806SOL     OW27316   1.649   5.322   0.746
 8806SOL    HW127317   1.600   5.325   0.833
 8806SOL    HW227318   1.613   5.392   0.685
 8807SOL     OW27319   6.212   5.700   5.774
 8807SOL    HW127320   6.235   5.728   5.681
 8807SOL    HW227321   6.127   5.648   5.773
 8808SOL     OW27322   5.657   1.347   0.978
 8808SOL    HW127323   5.619   1.435   1.006
 8808SOL    HW227324   5.622   1.323   0.887
 8809SOL     OW27325   5.491   3.329   1.351
 8809SOL    HW127326   5.441   3.247   1.380
 8809SOL    HW227327   5.551   3.305   1.275
 8810SOL     OW27328   5.547   1.643   4.143
 8810SOL    HW127329   5.621   1.684   4.089
 8810SOL    HW227330   5.460   1.658   4.097
 8811SOL     OW27331   2.563   1.797   4.328
 8811SOL    HW127332   2.587   1.754   4.241
 8811SOL    HW227333   2.520   1.730   4.388
 8812SOL     OW27334   0.868   0.884   0.560
 8812SOL    HW127335   0.811   0.921   0.633
 8812SOL    HW227336   0.829   0.798   0.527
 8813SOL     OW27337   0.790   5.759   1.487
 8813SOL    HW127338   0.819   5.817   1.410
 8813SOL    HW227339   0.805   5.663   1.463
 8814SOL     OW27340   0.345   0.617   6.700
 8814SOL    HW127341   0.434   0.596   6.739
 8814SOL    HW227342   0.318   0.710   6.726
 8815SOL     OW27343   6.967   5.704   1.552
 8815SOL    HW127344   6.875   5.700   1.512
 8815SOL    HW227345   0.004   5.754   1.490
 8816SOL     OW27346   1.359   6.358   1.145
 8816SOL    HW127347   1.377   6.313   1.058
 8816SOL    HW227348   1.413   6.314   1.217
 8817SOL     OW27349   0.970   6.293   5.319
 8817SOL    HW127350   1.050   6.351   5.307
 8817SOL    HW227351   0.995   6.212   5.372
 8818SOL     OW27352   0.268   3.876   3.474
 8818SOL    HW127353   0.194   3.938   3.450
 8818SOL    HW227354   0.232   3.802   3.532
 8819SOL     OW27355   4.222   6.234   4.382
 8819SOL    HW127356   4.241   6.319   4.333
 8819SOL    HW227357   4.214   6.159   4.316
 8820SOL     OW27358   1.414   2.740   4.569
 8820SOL    HW127359   1.431   2.836   4.588
 8820SOL    HW227360   1.421   2.687   4.654
 8821SOL     OW27361   1.738   0.075   6.176
 8821SOL    HW127362   1.781   0.014   6.243
 8821SOL    HW227363   1.804   0.143   6.146
 8822SOL     OW27364   0.830   0.384   2.646
 8822SOL    HW127365   0.776   0.389   2.730
 8822SOL    HW227366   0.793   0.311   2.588
 8823SOL     OW27367   2.105   0.359   0.994
 8823SOL    HW127368   2.016   0.406   0.993
 8823SOL    HW227369   2.096   0.275   1.047
 8824SOL     OW27370   2.426   3.904   0.846
 8824SOL    HW127371   2.487   3.975   0.811
 8824SOL    HW227372   2.398   3.927   0.939
 8825SOL     OW27373   1.717   1.342   2.016
 8825SOL    HW127374   1.779   1.408   1.974
 8825SOL    HW227375   1.723   1.254   1.968
 8826SOL     OW27376   6.113   2.144   0.196
 8826SOL    HW127377   6.027   2.180   0.158
 8826SOL    HW227378   6.094   2.102   0.285
 8827SOL     OW27379   2.517   1.213   3.556
 8827SOL    HW127380   2.464   1.295   3.576
 8827SOL    HW227381   2.482   1.170   3.473
 8828SOL     OW27382   3.347   5.818   3.821
 8828SOL    HW127383   3.276   5.757   3.788
 8828SOL    HW227384   3.379   5.877   3.747
 8829SOL     OW27385   0.264   3.083   6.945
 8829SOL    HW127386   0.261   2.985   6.966
 8829SOL    HW227387   0.335   3.100   6.877
 8830SOL     OW27388   0.291   1.413   0.091
 8830SOL    HW127389   0.289   1.481   0.163
 8830SOL    HW227390   0.325   1.326   0.128
 8831SOL     OW27391   5.695   0.976   3.205
 8831SOL    HW127392   5.794   0.970   3.191
 8831SOL    HW227393   5.652   0.891   3.177
 8832SOL     OW27394   0.636   6.903   2.204
 8832SOL    HW127395   0.615   6.837   2.131
 8832SOL    HW227396   0.572   6.889   2.280
 8833SOL     OW27397   1.932   5.941   4.653
 8833SOL    HW127398   1.931   5.977   4.746
 8833SOL    HW227399   1.870   5.863   4.647
 8834SOL     OW27400   5.938   3.280   4.692
 8834SOL    HW127401   5.906   3.345   4.761
 8834SOL    HW227402   5.868   3.211   4.677
 8835SOL     OW27403   6.590   0.345   5.579
 8835SOL    HW127404   6.690   0.342   5.585
 8835SOL    HW227405   6.551   0.282   5.647
 8836SOL     OW27406   4.056   0.556   0.630
 8836SOL    HW127407   4.113   0.474   0.622
 8836SOL    HW227408   4.035   0.572   0.727
 8837SOL     OW27409   0.838   0.887   1.798
 8837SOL    HW127410   0.835   0.979   1.838
 8837SOL    HW227411   0.806   0.820   1.866
 8838SOL     OW27412   2.533   4.949   3.585
 8838SOL    HW127413   2.461   4.933   3.518
 8838SOL    HW227414   2.508   5.027   3.643
 8839SOL     OW27415   6.222   6.119   3.198
 8839SOL    HW127416   6.134   6.159   3.173
 8839SOL    HW227417   6.217   6.079   3.289
 8840SOL     OW27418   5.697   2.193   2.105
 8840SOL    HW127419   5.690   2.169   2.008
 8840SOL    HW227420   5.759   2.128   2.150
 8841SOL     OW27421   1.188   1.516   5.376
 8841SOL    HW127422   1.192   1.580   5.299
 8841SOL    HW227423   1.107   1.459   5.369
 8842SOL     OW27424   2.847   2.914   1.225
 8842SOL    HW127425   2.904   2.996   1.238
 8842SOL    HW227426   2.850   2.859   1.308
 8843SOL     OW27427   1.219   3.038   5.117
 8843SOL    HW127428   1.267   3.103   5.058
 8843SOL    HW227429   1.126   3.072   5.136
 8844SOL     OW27430   5.877   1.192   6.073
 8844SOL    HW127431   5.967   1.216   6.110
 8844SOL    HW227432   5.834   1.124   6.132
 8845SOL     OW27433   4.276   4.377   6.930
 8845SOL    HW127434   4.244   4.316   7.002
 8845SOL    HW227435   4.261   4.336   6.841
 8846SOL     OW27436   1.889   5.220   3.765
 8846SOL    HW127437   1.949   5.267   3.701
 8846SOL    HW227438   1.885   5.270   3.851
 8847SOL     OW27439   2.919   0.696   2.846
 8847SOL    HW127440   2.948   0.662   2.756
 8847SOL    HW227441   2.831   0.654   2.870
 8848SOL     OW27442   2.079   1.094   1.579
 8848SOL    HW127443   2.169   1.059   1.554
 8848SOL    HW227444   2.089   1.174   1.638
 8849SOL     OW27445   1.612   5.957   2.448
 8849SOL    HW127446   1.649   6.049   2.459
 8849SOL    HW227447   1.529   5.960   2.392
 8850SOL     OW27448   2.868   1.923   6.809
 8850SOL    HW127449   2.957   1.954   6.841
 8850SOL    HW227450   2.846   1.968   6.722
 8851SOL     OW27451   1.825   4.820   2.559
 8851SOL    HW127452   1.809   4.722   2.556
 8851SOL    HW227453   1.885   4.842   2.636
 8852SOL     OW27454   1.476   1.880   5.212
 8852SOL    HW127455   1.482   1.793   5.262
 8852SOL    HW227456   1.537   1.877   5.133
 8853SOL     OW27457   3.015   0.532   1.450
 8853SOL    HW127458   3.061   0.582   1.524
 8853SOL    HW227459   2.935   0.583   1.420
 8854SOL     OW27460   1.735   2.649   4.875
 8854SOL    HW127461   1.749   2.553   4.898
 8854SOL    HW227462   1.652   2.658   4.821
 8855SOL     OW27463   6.287   5.272   1.536
 8855SOL    HW127464   6.195   5.268   1.498
 8855SOL    HW227465   6.283   5.257   1.635
 8856SOL     OW27466   6.870   5.550   6.284
 8856SOL    HW127467   6.833   5.488   6.214
 8856SOL    HW227468   6.948   5.507   6.329
 8857SOL     OW27469   6.340   1.260   5.513
 8857SOL    HW127470   6.389   1.310   5.442
 8857SOL    HW227471   6.342   1.313   5.598
 8858SOL     OW27472   6.833   5.139   5.460
 8858SOL    HW127473   6.760   5.127   5.393
 8858SOL    HW227474   6.918   5.163   5.414
 8859SOL     OW27475   0.959   0.782   3.529
 8859SOL    HW127476   0.907   0.855   3.484
 8859SOL    HW227477   0.933   0.694   3.491
 8860SOL     OW27478   6.908   2.603   1.558
 8860SOL    HW127479   6.916   2.566   1.651
 8860SOL    HW227480   6.985   2.570   1.503
 8861SOL     OW27481   4.432   1.485   1.368
 8861SOL    HW127482   4.413   1.451   1.275
 8861SOL    HW227483   4.362   1.552   1.393
 8862SOL     OW27484   4.394   5.872   4.873
 8862SOL    HW127485   4.493   5.866   4.859
 8862SOL    HW227486   4.354   5.933   4.804
 8863SOL     OW27487   2.527   4.535   3.581
 8863SOL    HW127488   2.613   4.577   3.552
 8863SOL    HW227489   2.459   4.546   3.508
 8864SOL     OW27490   5.314   2.580   6.640
 8864SOL    HW127491   5.248   2.516   6.678
 8864SOL    HW227492   5.312   2.575   6.540
 8865SOL     OW27493   2.943   1.608   6.176
 8865SOL    HW127494   3.024   1.606   6.234
 8865SOL    HW227495   2.864   1.575   6.228
 8866SOL     OW27496   5.934   6.048   2.561
 8866SOL    HW127497   6.031   6.026   2.566
 8866SOL    HW227498   5.899   6.068   2.653
 8867SOL     OW27499   6.217   3.624   2.418
 8867SOL    HW127500   6.157   3.577   2.354
 8867SOL    HW227501   6.163   3.654   2.497
 8868SOL     OW27502   6.946   3.699   2.818
 8868SOL    HW127503   6.874   3.762   2.846
 8868SOL    HW227504   6.979   3.723   2.726
 8869SOL     OW27505   3.572   5.879   3.999
 8869SOL    HW127506   3.612   5.836   4.080
 8869SOL    HW227507   3.474   5.859   3.996
 8870SOL     OW27508   1.865   6.924   1.766
 8870SOL    HW127509   1.802   6.945   1.841
 8870SOL    HW227510   1.879   7.006   1.711
 8871SOL     OW27511   1.528   0.468   3.017
 8871SOL    HW127512   1.520   0.415   3.101
 8871SOL    HW227513   1.452   0.445   2.956
 8872SOL     OW27514   0.785   4.494   6.017
 8872SOL    HW127515   0.877   4.531   6.018
 8872SOL    HW227516   0.784   4.403   6.060
 8873SOL     OW27517   1.658   0.436   1.863
 8873SOL    HW127518   1.708   0.467   1.782
 8873SOL    HW227519   1.582   0.499   1.882
 8874SOL     OW27520   1.807   5.096   0.639
 8874SOL    HW127521   1.760   5.181   0.663
 8874SOL    HW227522   1.819   5.090   0.540
 8875SOL     OW27523   0.063   2.787   3.657
 8875SOL    HW127524   0.158   2.754   3.658
 8875SOL    HW227525   0.059   2.878   3.698
 8876SOL     OW27526   2.968   0.456   5.847
 8876SOL    HW127527   3.036   0.483   5.779
 8876SOL    HW227528   2.978   0.359   5.868
 8877SOL     OW27529   1.056   3.803   1.341
 8877SOL    HW127530   1.143   3.833   1.302
 8877SOL    HW227531   1.019   3.728   1.286
 8878SOL     OW27532   4.048   4.712   0.858
 8878SOL    HW127533   4.015   4.628   0.902
 8878SOL    HW227534   3.970   4.764   0.825
 8879SOL     OW27535   6.347   4.852   2.994
 8879SOL    HW127536   6.446   4.854   2.983
 8879SOL    HW227537   6.322   4.782   3.061
 8880SOL     OW27538   4.726   6.678   3.685
 8880SOL    HW127539   4.807   6.654   3.632
 8880SOL    HW227540   4.753   6.716   3.774
 8881SOL     OW27541   4.238   5.415   3.586
 8881SOL    HW127542   4.161   5.384   3.642
 8881SOL    HW227543   4.270   5.503   3.619
 8882SOL     OW27544   3.828   0.585   0.456
 8882SOL    HW127545   3.888   0.600   0.534
 8882SOL    HW227546   3.864   0.512   0.399
 8883SOL     OW27547   6.974   6.666   5.409
 8883SOL    HW127548   7.006   6.658   5.315
 8883SOL    HW227549   6.914   6.589   5.430
 8884SOL     OW27550   5.704   3.966   4.274
 8884SOL    HW127551   5.737   4.051   4.314
 8884SOL    HW227552   5.774   3.927   4.213
 8885SOL     OW27553   5.779   5.435   0.255
 8885SOL    HW127554   5.759   5.397   0.346
 8885SOL    HW227555   5.878   5.439   0.242
 8886SOL     OW27556   3.027   5.442   0.017
 8886SOL    HW127557   2.947   5.502   0.015
 8886SOL    HW227558   3.018   5.378   0.093
 8887SOL     OW27559   4.380   0.963   0.750
 8887SOL    HW127560   4.406   0.918   0.664
 8887SOL    HW227561   4.353   1.057   0.732
 8888SOL     OW27562   2.265   1.716   3.571
 8888SOL    HW127563   2.354   1.734   3.529
 8888SOL    HW227564   2.276   1.702   3.669
 8889SOL     OW27565   6.784   6.566   6.338
 8889SOL    HW127566   6.813   6.493   6.276
 8889SOL    HW227567   6.698   6.605   6.304
 8890SOL     OW27568   0.159   6.884   0.197
 8890SOL    HW127569   0.063   6.884   0.170
 8890SOL    HW227570   0.201   6.970   0.169
 8891SOL     OW27571   5.808   4.549   6.202
 8891SOL    HW127572   5.898   4.531   6.241
 8891SOL    HW227573   5.817   4.617   6.129
 8892SOL     OW27574   3.340   5.057   3.685
 8892SOL    HW127575   3.322   5.151   3.714
 8892SOL    HW227576   3.254   5.005   3.686
 8893SOL     OW27577   1.290   5.463   4.473
 8893SOL    HW127578   1.198   5.440   4.443
 8893SOL    HW227579   1.353   5.456   4.396
 8894SOL     OW27580   4.584   2.696   0.393
 8894SOL    HW127581   4.598   2.743   0.480
 8894SOL    HW227582   4.601   2.598   0.404
 8895SOL     OW27583   0.929   3.194   0.981
 8895SOL    HW127584   1.009   3.195   0.921
 8895SOL    HW227585   0.883   3.106   0.974
 8896SOL     OW27586   0.328   2.313   4.077
 8896SOL    HW127587   0.407   2.262   4.112
 8896SOL    HW227588   0.247   2.291   4.133
 8897SOL     OW27589   1.556   3.792   3.854
 8897SOL    HW127590   1.500   3.741   3.789
 8897SOL    HW227591   1.563   3.887   3.825
 8898SOL     OW27592   4.967   3.557   2.580
 8898SOL    HW127593   5.034   3.575   2.508
 8898SOL    HW227594   4.938   3.461   2.574
 8899SOL     OW27595   0.449   4.159   6.058
 8899SOL    HW127596   0.421   4.064   6.072
 8899SOL    HW227597   0.418   4.189   5.967
 8900SOL     OW27598   5.696   2.272   3.494
 8900SOL    HW127599   5.777   2.288   3.438
 8900SOL    HW227600   5.723   2.256   3.589
 8901SOL     OW27601   0.537   2.407   3.670
 8901SOL    HW127602   0.511   2.483   3.729
 8901SOL    HW227603   0.512   2.321   3.715
 8902SOL     OW27604   1.173   4.300   0.091
 8902SOL    HW127605   1.206   4.395   0.088
 8902SOL    HW227606   1.152   4.275   0.185
 8903SOL     OW27607   1.473   1.386   4.555
 8903SOL    HW127608   1.530   1.325   4.610
 8903SOL    HW227609   1.517   1.476   4.548
 8904SOL     OW27610   0.554   1.259   2.456
 8904SOL    HW127611   0.522   1.215   2.540
 8904SOL    HW227612   0.641   1.306   2.475
 8905SOL     OW27613   1.524   3.653   2.222
 8905SOL    HW127614   1.586   3.576   2.232
 8905SOL    HW227615   1.562   3.733   2.269
 8906SOL     OW27616   0.084   0.344   0.798
 8906SOL    HW127617   0.113   0.386   0.711
 8906SOL    HW227618   0.099   0.408   0.873
 8907SOL     OW27619   3.272   2.601   5.328
 8907SOL    HW127620   3.205   2.544   5.280
 8907SOL    HW227621   3.246   2.610   5.424
 8908SOL     OW27622   1.324   5.367   0.522
 8908SOL    HW127623   1.333   5.387   0.620
 8908SOL    HW227624   1.228   5.371   0.496
 8909SOL     OW27625   2.181   1.542   6.488
 8909SOL    HW127626   2.246   1.615   6.467
 8909SOL    HW227627   2.121   1.527   6.409
 8910SOL     OW27628   0.953   2.783   4.934
 8910SOL    HW127629   0.917   2.860   4.986
 8910SOL    HW227630   0.896   2.703   4.949
 8911SOL     OW27631   5.308   1.931   4.206
 8911SOL    HW127632   5.376   1.927   4.279
 8911SOL    HW227633   5.217   1.947   4.246
 8912SOL     OW27634   4.211   3.847   5.206
 8912SOL    HW127635   4.159   3.925   5.172
 8912SOL    HW227636   4.285   3.879   5.266
 8913SOL     OW27637   5.019   5.242   0.317
 8913SOL    HW127638   5.084   5.263   0.244
 8913SOL    HW227639   4.930   5.221   0.277
 8914SOL     OW27640   5.156   6.527   4.972
 8914SOL    HW127641   5.146   6.456   5.042
 8914SOL    HW227642   5.249   6.526   4.936
 8915SOL     OW27643   0.652   1.062   3.690
 8915SOL    HW127644   0.703   1.057   3.776
 8915SOL    HW227645   0.564   1.106   3.706
 8916SOL     OW27646   5.866   1.451   6.294
 8916SOL    HW127647   5.826   1.504   6.369
 8916SOL    HW227648   5.906   1.367   6.330
 8917SOL     OW27649   6.150   1.907   0.681
 8917SOL    HW127650   6.060   1.888   0.641
 8917SOL    HW227651   6.153   2.003   0.710
 8918SOL     OW27652   1.863   5.258   1.711
 8918SOL    HW127653   1.954   5.218   1.709
 8918SOL    HW227654   1.795   5.185   1.715
 8919SOL     OW27655   5.648   4.399   6.547
 8919SOL    HW127656   5.702   4.363   6.623
 8919SOL    HW227657   5.575   4.456   6.583
 8920SOL     OW27658   0.443   1.190   6.781
 8920SOL    HW127659   0.501   1.218   6.858
 8920SOL    HW227660   0.493   1.126   6.724
 8921SOL     OW27661   1.300   3.062   1.336
 8921SOL    HW127662   1.358   3.100   1.264
 8921SOL    HW227663   1.239   2.994   1.296
 8922SOL     OW27664   3.769   6.980   3.174
 8922SOL    HW127665   3.798   6.887   3.151
 8922SOL    HW227666   3.693   7.006   3.114
 8923SOL     OW27667   1.665   2.187   5.598
 8923SOL    HW127668   1.566   2.204   5.596
 8923SOL    HW227669   1.682   2.093   5.625
 8924SOL     OW27670   5.461   4.944   4.460
 8924SOL    HW127671   5.387   4.974   4.519
 8924SOL    HW227672   5.548   4.978   4.496
 8925SOL     OW27673   1.162   0.685   2.771
 8925SOL    HW127674   1.186   0.626   2.694
 8925SOL    HW227675   1.234   0.681   2.840
 8926SOL     OW27676   6.577   3.597   5.547
 8926SOL    HW127677   6.599   3.590   5.450
 8926SOL    HW227678   6.566   3.506   5.586
 8927SOL     OW27679   6.508   2.137   5.473
 8927SOL    HW127680   6.442   2.211   5.461
 8927SOL    HW227681   6.488   2.088   5.558
 8928SOL     OW27682   2.641   0.094   5.294
 8928SOL    HW127683   2.651   0.181   5.247
 8928SOL    HW227684   2.634   0.110   5.393
 8929SOL     OW27685   6.380   2.496   5.115
 8929SOL    HW127686   6.381   2.450   5.026
 8929SOL    HW227687   6.288   2.494   5.152
 8930SOL     OW27688   1.317   4.264   3.284
 8930SOL    HW127689   1.373   4.211   3.221
 8930SOL    HW227690   1.256   4.323   3.231
 8931SOL     OW27691   3.518   3.093   1.840
 8931SOL    HW127692   3.564   3.057   1.921
 8931SOL    HW227693   3.428   3.129   1.866
 8932SOL     OW27694   0.682   2.514   3.146
 8932SOL    HW127695   0.680   2.508   3.245
 8932SOL    HW227696   0.646   2.603   3.117
 8933SOL     OW27697   3.568   2.547   6.318
 8933SOL    HW127698   3.618   2.612   6.261
 8933SOL    HW227699   3.519   2.482   6.259
 8934SOL     OW27700   3.725   5.484   3.671
 8934SOL    HW127701   3.640   5.512   3.715
 8934SOL    HW227702   3.760   5.401   3.714
 8935SOL     OW27703   6.923   5.413   1.082
 8935SOL    HW127704   6.995   5.360   1.127
 8935SOL    HW227705   6.890   5.485   1.144
 8936SOL     OW27706   1.882   3.602   0.552
 8936SOL    HW127707   1.844   3.546   0.478
 8936SOL    HW227708   1.969   3.641   0.522
 8937SOL     OW27709   0.091   6.687   5.167
 8937SOL    HW127710   0.169   6.628   5.191
 8937SOL    HW227711   0.124   6.766   5.115
 8938SOL     OW27712   6.675   5.134   1.767
 8938SOL    HW127713   6.690   5.087   1.853
 8938SOL    HW227714   6.720   5.223   1.769
 8939SOL     OW27715   4.667   2.196   4.929
 8939SOL    HW127716   4.678   2.182   5.027
 8939SOL    HW227717   4.713   2.281   4.902
 8940SOL     OW27718   6.803   0.707   4.118
 8940SOL    HW127719   6.881   0.651   4.145
 8940SOL    HW227720   6.719   0.655   4.131
 8941SOL     OW27721   5.503   2.060   5.598
 8941SOL    HW127722   5.580   2.094   5.653
 8941SOL    HW227723   5.427   2.125   5.603
 8942SOL     OW27724   0.386   2.902   5.320
 8942SOL    HW127725   0.454   2.953   5.372
 8942SOL    HW227726   0.378   2.809   5.357
 8943SOL     OW27727   5.474   4.056   0.378
 8943SOL    HW127728   5.558   4.016   0.344
 8943SOL    HW227729   5.445   4.009   0.461
 8944SOL     OW27730   5.402   5.441   6.479
 8944SOL    HW127731   5.339   5.387   6.534
 8944SOL    HW227732   5.354   5.519   6.440
 8945SOL     OW27733   2.595   0.391   4.837
 8945SOL    HW127734   2.498   0.418   4.834
 8945SOL    HW227735   2.614   0.328   4.762
 8946SOL     OW27736   3.396   1.891   5.211
 8946SOL    HW127737   3.344   1.913   5.129
 8946SOL    HW227738   3.472   1.955   5.221
 8947SOL     OW27739   2.547   3.883   5.828
 8947SOL    HW127740   2.611   3.910   5.757
 8947SOL    HW227741   2.498   3.801   5.799
 8948SOL     OW27742   5.439   4.934   3.249
 8948SOL    HW127743   5.463   4.977   3.162
 8948SOL    HW227744   5.340   4.938   3.262
 8949SOL     OW27745   1.805   6.823   6.806
 8949SOL    HW127746   1.800   6.913   6.848
 8949SOL    HW227747   1.730   6.812   6.741
 8950SOL     OW27748   4.656   3.062   5.633
 8950SOL    HW127749   4.738   3.119   5.639
 8950SOL    HW227750   4.641   3.036   5.538
 8951SOL     OW27751   1.412   2.731   5.740
 8951SOL    HW127752   1.498   2.723   5.690
 8951SOL    HW227753   1.378   2.825   5.733
 8952SOL     OW27754   1.152   1.205   2.654
 8952SOL    HW127755   1.202   1.254   2.725
 8952SOL    HW227756   1.159   1.256   2.568
 8953SOL     OW27757   1.608   3.539   6.992
 8953SOL    HW127758   1.556   3.612   0.014
 8953SOL    HW227759   1.589   3.541   6.894
 8954SOL     OW27760   0.370   6.008   6.255
 8954SOL    HW127761   0.387   5.987   6.158
 8954SOL    HW227762   0.271   6.020   6.269
 8955SOL     OW27763   6.847   4.320   3.381
 8955SOL    HW127764   6.819   4.416   3.373
 8955SOL    HW227765   6.936   4.309   3.338
 8956SOL     OW27766   0.376   0.741   6.445
 8956SOL    HW127767   0.284   0.762   6.412
 8956SOL    HW227768   0.370   0.703   6.537
 8957SOL     OW27769   2.842   4.468   1.628
 8957SOL    HW127770   2.847   4.491   1.726
 8957SOL    HW227771   2.851   4.552   1.575
 8958SOL     OW27772   0.537   6.863   4.224
 8958SOL    HW127773   0.530   6.959   4.250
 8958SOL    HW227774   0.632   6.841   4.203
 8959SOL     OW27775   1.176   4.749   0.719
 8959SOL    HW127776   1.210   4.841   0.700
 8959SOL    HW227777   1.096   4.730   0.662
 8960SOL     OW27778   4.420   5.385   2.690
 8960SOL    HW127779   4.433   5.480   2.716
 8960SOL    HW227780   4.501   5.332   2.716
 8961SOL     OW27781   1.280   1.687   4.569
 8961SOL    HW127782   1.334   1.720   4.491
 8961SOL    HW227783   1.200   1.637   4.535
 8962SOL     OW27784   5.636   6.947   2.668
 8962SOL    HW127785   5.571   6.936   2.593
 8962SOL    HW227786   5.586   6.956   2.755
 8963SOL     OW27787   5.161   6.560   4.064
 8963SOL    HW127788   5.078   6.524   4.021
 8963SOL    HW227789   5.210   6.487   4.109
 8964SOL     OW27790   5.456   5.323   1.922
 8964SOL    HW127791   5.474   5.226   1.940
 8964SOL    HW227792   5.436   5.369   2.009
 8965SOL     OW27793   1.763   5.560   0.953
 8965SOL    HW127794   1.847   5.508   0.936
 8965SOL    HW227795   1.734   5.606   0.869
 8966SOL     OW27796   1.655   2.998   6.258
 8966SOL    HW127797   1.722   2.923   6.258
 8966SOL    HW227798   1.565   2.962   6.281
 8967SOL     OW27799   3.788   6.683   1.522
 8967SOL    HW127800   3.716   6.750   1.539
 8967SOL    HW227801   3.747   6.597   1.490
 8968SOL     OW27802   5.145   5.598   2.012
 8968SOL    HW127803   5.235   5.641   2.000
 8968SOL    HW227804   5.078   5.668   2.036
 8969SOL     OW27805   6.190   0.633   3.392
 8969SOL    HW127806   6.129   0.647   3.470
 8969SOL    HW227807   6.282   0.665   3.415
 8970SOL     OW27808   3.019   2.403   1.458
 8970SOL    HW127809   3.077   2.339   1.408
 8970SOL    HW227810   3.032   2.390   1.557
 8971SOL     OW27811   3.447   6.309   2.249
 8971SOL    HW127812   3.352   6.339   2.262
 8971SOL    HW227813   3.449   6.215   2.216
 8972SOL     OW27814   4.682   6.077   0.114
 8972SOL    HW127815   4.772   6.060   0.074
 8972SOL    HW227816   4.638   6.154   0.067
 8973SOL     OW27817   1.191   4.449   1.495
 8973SOL    HW127818   1.250   4.395   1.555
 8973SOL    HW227819   1.188   4.408   1.404
 8974SOL     OW27820   1.180   4.249   6.718
 8974SOL    HW127821   1.227   4.264   6.631
 8974SOL    HW227822   1.183   4.152   6.741
 8975SOL     OW27823   2.644   0.515   6.935
 8975SOL    HW127824   2.649   0.572   7.017
 8975SOL    HW227825   2.548   0.508   6.906
 8976SOL     OW27826   1.600   5.668   5.006
 8976SOL    HW127827   1.631   5.635   5.095
 8976SOL    HW227828   1.571   5.589   4.951
 8977SOL     OW27829   6.470   1.108   5.881
 8977SOL    HW127830   6.542   1.127   5.948
 8977SOL    HW227831   6.395   1.059   5.925
 8978SOL     OW27832   5.832   6.416   0.021
 8978SOL    HW127833   5.744   6.456   0.047
 8978SOL    HW227834   5.851   6.337   0.078
 8979SOL     OW27835   1.590   3.924   4.770
 8979SOL    HW127836   1.542   3.893   4.687
 8979SOL    HW227837   1.522   3.947   4.840
 8980SOL     OW27838   2.978   3.680   5.507
 8980SOL    HW127839   2.964   3.659   5.410
 8980SOL    HW227840   2.992   3.778   5.519
 8981SOL     OW27841   3.876   1.432   5.453
 8981SOL    HW127842   3.899   1.415   5.357
 8981SOL    HW227843   3.895   1.527   5.475
 8982SOL     OW27844   1.915   3.410   0.321
 8982SOL    HW127845   1.981   3.453   0.260
 8982SOL    HW227846   1.957   3.397   0.411
 8983SOL     OW27847   3.267   6.242   6.774
 8983SOL    HW127848   3.227   6.253   6.683
 8983SOL    HW227849   3.281   6.145   6.793
 8984SOL     OW27850   2.389   6.440   2.958
 8984SOL    HW127851   2.461   6.492   2.913
 8984SOL    HW227852   2.305   6.495   2.963
 8985SOL     OW27853   3.192   2.248   0.359
 8985SOL    HW127854   3.262   2.315   0.331
 8985SOL    HW227855   3.163   2.268   0.453
 8986SOL     OW27856   3.273   4.882   2.767
 8986SOL    HW127857   3.302   4.916   2.856
 8986SOL    HW227858   3.223   4.796   2.779
 8987SOL     OW27859   4.531   6.516   3.230
 8987SOL    HW127860   4.482   6.598   3.199
 8987SOL    HW227861   4.488   6.481   3.313
 8988SOL     OW27862   0.407   6.157   3.781
 8988SOL    HW127863   0.499   6.195   3.790
 8988SOL    HW227864   0.396   6.081   3.844
 8989SOL     OW27865   4.107   3.279   6.528
 8989SOL    HW127866   4.196   3.269   6.484
 8989SOL    HW227867   4.092   3.374   6.553
 8990SOL     OW27868   0.364   4.547   3.776
 8990SOL    HW127869   0.264   4.540   3.781
 8990SOL    HW227870   0.399   4.475   3.716
 8991SOL     OW27871   1.674   3.094   4.696
 8991SOL    HW127872   1.727   3.102   4.612
 8991SOL    HW227873   1.729   3.125   4.774
 8992SOL     OW27874   4.903   1.443   0.489
 8992SOL    HW127875   4.874   1.348   0.504
 8992SOL    HW227876   4.861   1.477   0.404
 8993SOL     OW27877   4.031   3.000   6.985
 8993SOL    HW127878   4.122   3.010   7.023
 8993SOL    HW227879   3.963   3.013   0.033
 8994SOL     OW27880   1.567   4.728   4.550
 8994SOL    HW127881   1.630   4.797   4.586
 8994SOL    HW227882   1.474   4.765   4.549
 8995SOL     OW27883   6.295   1.612   0.927
 8995SOL    HW127884   6.372   1.633   0.866
 8995SOL    HW227885   6.213   1.593   0.872
 8996SOL     OW27886   5.380   4.302   5.804
 8996SOL    HW127887   5.284   4.277   5.787
 8996SOL    HW227888   5.385   4.366   5.880
 8997SOL     OW27889   4.719   0.815   6.174
 8997SOL    HW127890   4.752   0.721   6.166
 8997SOL    HW227891   4.635   0.816   6.228
 8998SOL     OW27892   6.007   3.318   3.691
 8998SOL    HW127893   6.023   3.268   3.776
 8998SOL    HW227894   5.987   3.414   3.712
 8999SOL     OW27895   5.169   6.895   6.298
 8999SOL    HW127896   5.070   6.896   6.284
 8999SOL    HW227897   5.190   6.887   6.395
 9000SOL     OW27898   1.466   3.383   2.094
 9000SOL    HW127899   1.560   3.398   2.124
 9000SOL    HW227900   1.450   3.431   2.008
 9001SOL     OW27901   0.069   5.485   1.912
 9001SOL    HW127902   0.099   5.573   1.875
 9001SOL    HW227903   0.068   5.490   2.012
 9002SOL     OW27904   1.395   4.790   5.092
 9002SOL    HW127905   1.435   4.731   5.021
 9002SOL    HW227906   1.296   4.798   5.077
 9003SOL     OW27907   4.849   3.176   1.127
 9003SOL    HW127908   4.807   3.207   1.213
 9003SOL    HW227909   4.917   3.243   1.098
 9004SOL     OW27910   4.298   4.912   0.876
 9004SOL    HW127911   4.373   4.868   0.925
 9004SOL    HW227912   4.274   4.857   0.796
 9005SOL     OW27913   5.865   1.589   5.524
 9005SOL    HW127914   5.791   1.534   5.562
 9005SOL    HW227915   5.930   1.530   5.476
 9006SOL     OW27916   2.480   6.526   0.658
 9006SOL    HW127917   2.569   6.517   0.702
 9006SOL    HW227918   2.463   6.445   0.601
 9007SOL     OW27919   2.714   1.528   2.250
 9007SOL    HW127920   2.800   1.577   2.264
 9007SOL    HW227921   2.728   1.456   2.182
 9008SOL     OW27922   0.331   4.871   2.916
 9008SOL    HW127923   0.295   4.829   2.832
 9008SOL    HW227924   0.285   4.959   2.932
 9009SOL     OW27925   3.252   5.545   1.411
 9009SOL    HW127926   3.334   5.531   1.466
 9009SOL    HW227927   3.181   5.481   1.439
 9010SOL     OW27928   2.483   6.251   4.386
 9010SOL    HW127929   2.583   6.256   4.375
 9010SOL    HW227930   2.448   6.341   4.412
 9011SOL     OW27931   4.045   0.929   1.284
 9011SOL    HW127932   4.009   0.955   1.373
 9011SOL    HW227933   4.003   0.843   1.254
 9012SOL     OW27934   2.456   5.608   0.256
 9012SOL    HW127935   2.459   5.676   0.329
 9012SOL    HW227936   2.490   5.648   0.172
 9013SOL     OW27937   0.548   0.428   4.877
 9013SOL    HW127938   0.630   0.432   4.935
 9013SOL    HW227939   0.555   0.351   4.814
 9014SOL     OW27940   6.180   2.759   1.316
 9014SOL    HW127941   6.173   2.768   1.416
 9014SOL    HW227942   6.271   2.788   1.286
 9015SOL     OW27943   4.754   2.222   1.790
 9015SOL    HW127944   4.749   2.312   1.747
 9015SOL    HW227945   4.778   2.153   1.722
 9016SOL     OW27946   5.545   5.077   6.761
 9016SOL    HW127947   5.513   5.088   6.667
 9016SOL    HW227948   5.502   4.997   6.802
 9017SOL     OW27949   4.109   1.115   4.303
 9017SOL    HW127950   4.154   1.040   4.353
 9017SOL    HW227951   4.179   1.176   4.266
 9018SOL     OW27952   3.558   3.943   6.323
 9018SOL    HW127953   3.544   4.041   6.311
 9018SOL    HW227954   3.635   3.912   6.266
 9019SOL     OW27955   1.047   4.155   2.716
 9019SOL    HW127956   0.961   4.147   2.666
 9019SOL    HW227957   1.028   4.165   2.814
 9020SOL     OW27958   6.901   4.468   1.103
 9020SOL    HW127959   6.850   4.384   1.121
 9020SOL    HW227960   6.999   4.451   1.113
 9021SOL     OW27961   6.732   0.857   3.715
 9021SOL    HW127962   6.657   0.923   3.712
 9021SOL    HW227963   6.813   0.901   3.754
 9022SOL     OW27964   3.702   1.173   6.989
 9022SOL    HW127965   3.780   1.174   6.926
 9022SOL    HW227966   3.620   1.143   6.940
 9023SOL     OW27967   4.463   3.416   1.722
 9023SOL    HW127968   4.391   3.397   1.789
 9023SOL    HW227969   4.493   3.511   1.733
 9024SOL     OW27970   1.082   4.479   5.024
 9024SOL    HW127971   1.138   4.424   4.963
 9024SOL    HW227972   1.058   4.426   5.105
 9025SOL     OW27973   6.608   6.036   0.658
 9025SOL    HW127974   6.698   6.004   0.627
 9025SOL    HW227975   6.594   6.007   0.753
 9026SOL     OW27976   2.940   1.926   0.627
 9026SOL    HW127977   2.962   1.831   0.648
 9026SOL    HW227978   2.993   1.986   0.686
 9027SOL     OW27979   0.814   3.655   3.559
 9027SOL    HW127980   0.853   3.575   3.604
 9027SOL    HW227981   0.865   3.737   3.587
 9028SOL     OW27982   4.034   2.813   5.367
 9028SOL    HW127983   3.970   2.889   5.355
 9028SOL    HW227984   4.010   2.760   5.448
 9029SOL     OW27985   4.258   6.998   5.013
 9029SOL    HW127986   4.302   0.047   5.065
 9029SOL    HW227987   4.253   6.915   5.070
 9030SOL     OW27988   2.016   2.706   4.312
 9030SOL    HW127989   1.973   2.786   4.269
 9030SOL    HW227990   2.009   2.628   4.251
 9031SOL     OW27991   4.110   6.798   4.676
 9031SOL    HW127992   4.030   6.841   4.718
 9031SOL    HW227993   4.166   6.755   4.746
 9032SOL     OW27994   4.611   3.858   1.193
 9032SOL    HW127995   4.695   3.820   1.155
 9032SOL    HW227996   4.548   3.882   1.118
 9033SOL     OW27997   0.608   4.565   2.740
 9033SOL    HW127998   0.558   4.565   2.826
 9033SOL    HW227999   0.546   4.544   2.665
 9034SOL     OW28000   3.323   6.123   4.657
 9034SOL    HW128001   3.325   6.068   4.741
 9034SOL    HW228002   3.357   6.067   4.581
 9035SOL     OW28003   1.823   5.695   6.795
 9035SOL    HW128004   1.767   5.717   6.875
 9035SOL    HW228005   1.902   5.641   6.824
 9036SOL     OW28006   1.542   4.142   5.501
 9036SOL    HW128007   1.565   4.046   5.515
 9036SOL    HW228008   1.573   4.195   5.580
 9037SOL     OW28009   1.130   2.957   4.273
 9037SOL    HW128010   1.103   2.886   4.338
 9037SOL    HW228011   1.229   2.970   4.277
 9038SOL     OW28012   4.511   3.334   0.113
 9038SOL    HW128013   4.523   3.238   0.136
 9038SOL    HW228014   4.446   3.342   0.038
 9039SOL     OW28015   3.191   4.666   6.928
 9039SOL    HW128016   3.284   4.687   6.958
 9039SOL    HW228017   3.152   4.745   6.880
 9040SOL     OW28018   2.970   2.145   2.215
 9040SOL    HW128019   2.956   2.215   2.146
 9040SOL    HW228020   2.940   2.056   2.178
 9041SOL     OW28021   1.018   2.414   1.270
 9041SOL    HW128022   1.066   2.377   1.190
 9041SOL    HW228023   0.922   2.389   1.266
 9042SOL     OW28024   3.628   6.551   4.925
 9042SOL    HW128025   3.699   6.597   4.977
 9042SOL    HW228026   3.668   6.506   4.845
 9043SOL     OW28027   2.106   1.715   6.137
 9043SOL    HW128028   2.154   1.635   6.101
 9043SOL    HW228029   2.165   1.795   6.130
 9044SOL     OW28030   0.595   1.244   7.004
 9044SOL    HW128031   0.679   1.205   0.019
 9044SOL    HW228032   0.534   1.271   0.054
 9045SOL     OW28033   3.907   0.402   2.969
 9045SOL    HW128034   3.924   0.307   2.995
 9045SOL    HW228035   3.993   0.445   2.942
 9046SOL     OW28036   4.019   3.866   2.546
 9046SOL    HW128037   3.999   3.838   2.641
 9046SOL    HW228038   4.051   3.961   2.546
 9047SOL     OW28039   0.944   4.151   5.000
 9047SOL    HW128040   0.914   4.159   4.905
 9047SOL    HW228041   1.021   4.212   5.016
 9048SOL     OW28042   6.440   2.632   6.301
 9048SOL    HW128043   6.505   2.692   6.349
 9048SOL    HW228044   6.396   2.683   6.227
 9049SOL     OW28045   3.587   6.306   5.594
 9049SOL    HW128046   3.583   6.224   5.650
 9049SOL    HW228047   3.495   6.333   5.566
 9050SOL     OW28048   0.397   3.421   1.235
 9050SOL    HW128049   0.454   3.358   1.182
 9050SOL    HW228050   0.301   3.402   1.219
 9051SOL     OW28051   2.011   0.501   1.746
 9051SOL    HW128052   2.055   0.422   1.704
 9051SOL    HW228053   1.928   0.525   1.696
 9052SOL     OW28054   2.207   3.192   4.045
 9052SOL    HW128055   2.206   3.160   4.140
 9052SOL    HW228056   2.211   3.292   4.044
 9053SOL     OW28057   2.036   1.219   0.642
 9053SOL    HW128058   1.964   1.190   0.579
 9053SOL    HW228059   2.039   1.319   0.646
 9054SOL     OW28060   2.331   5.797   4.524
 9054SOL    HW128061   2.344   5.736   4.602
 9054SOL    HW228062   2.284   5.749   4.450
 9055SOL     OW28063   6.331   3.822   4.446
 9055SOL    HW128064   6.420   3.814   4.492
 9055SOL    HW228065   6.336   3.780   4.356
 9056SOL     OW28066   6.473   1.760   2.421
 9056SOL    HW128067   6.425   1.749   2.334
 9056SOL    HW228068   6.470   1.674   2.472
 9057SOL     OW28069   4.536   2.204   4.671
 9057SOL    HW128070   4.593   2.209   4.752
 9057SOL    HW228071   4.440   2.217   4.696
 9058SOL     OW28072   1.226   0.768   0.255
 9058SOL    HW128073   1.263   0.858   0.278
 9058SOL    HW228074   1.131   0.777   0.227
 9059SOL     OW28075   1.175   2.435   2.977
 9059SOL    HW128076   1.079   2.419   2.997
 9059SOL    HW228077   1.185   2.515   2.918
 9060SOL     OW28078   5.769   2.916   4.596
 9060SOL    HW128079   5.809   2.949   4.682
 9060SOL    HW228080   5.706   2.840   4.616
 9061SOL     OW28081   3.839   5.453   2.432
 9061SOL    HW128082   3.876   5.438   2.340
 9061SOL    HW228083   3.876   5.384   2.494
 9062SOL     OW28084   1.399   5.285   1.532
 9062SOL    HW128085   1.395   5.188   1.557
 9062SOL    HW228086   1.315   5.330   1.561
 9063SOL     OW28087   2.708   1.193   4.001
 9063SOL    HW128088   2.794   1.192   3.949
 9063SOL    HW228089   2.724   1.151   4.091
 9064SOL     OW28090   6.694   3.527   6.389
 9064SOL    HW128091   6.680   3.441   6.437
 9064SOL    HW228092   6.655   3.602   6.442
 9065SOL     OW28093   4.422   0.181   0.554
 9065SOL    HW128094   4.460   0.225   0.635
 9065SOL    HW228095   4.496   0.146   0.497
 9066SOL     OW28096   5.691   0.284   0.480
 9066SOL    HW128097   5.739   0.302   0.394
 9066SOL    HW228098   5.658   0.190   0.481
 9067SOL     OW28099   1.900   0.219   3.546
 9067SOL    HW128100   1.950   0.276   3.480
 9067SOL    HW228101   1.962   0.190   3.619
 9068SOL     OW28102   0.931   6.475   4.845
 9068SOL    HW128103   0.935   6.413   4.923
 9068SOL    HW228104   0.946   6.569   4.876
 9069SOL     OW28105   1.360   3.224   6.390
 9069SOL    HW128106   1.296   3.216   6.466
 9069SOL    HW228107   1.381   3.134   6.353
 9070SOL     OW28108   2.096   4.004   4.764
 9070SOL    HW128109   1.998   4.004   4.779
 9070SOL    HW228110   2.144   3.995   4.851
 9071SOL     OW28111   6.508   6.300   0.892
 9071SOL    HW128112   6.475   6.208   0.913
 9071SOL    HW228113   6.469   6.365   0.958
 9072SOL     OW28114   0.165   3.607   0.720
 9072SOL    HW128115   0.171   3.584   0.623
 9072SOL    HW228116   0.085   3.563   0.761
 9073SOL     OW28117   1.956   0.791   1.529
 9073SOL    HW128118   2.021   0.725   1.566
 9073SOL    HW228119   1.876   0.796   1.588
 9074SOL     OW28120   1.669   0.219   2.453
 9074SOL    HW128121   1.630   0.297   2.501
 9074SOL    HW228122   1.644   0.134   2.500
 9075SOL     OW28123   6.378   0.351   2.095
 9075SOL    HW128124   6.403   0.331   2.190
 9075SOL    HW228125   6.377   0.450   2.081
 9076SOL     OW28126   0.562   0.851   6.142
 9076SOL    HW128127   0.644   0.908   6.147
 9076SOL    HW228128   0.507   0.865   6.225
 9077SOL     OW28129   3.951   6.811   2.276
 9077SOL    HW128130   4.038   6.859   2.287
 9077SOL    HW228131   3.917   6.783   2.365
 9078SOL     OW28132   4.040   3.428   4.719
 9078SOL    HW128133   3.957   3.484   4.729
 9078SOL    HW228134   4.069   3.429   4.623
 9079SOL     OW28135   3.389   0.008   4.541
 9079SOL    HW128136   3.405   6.965   4.468
 9079SOL    HW228137   3.293   0.006   4.568
 9080SOL     OW28138   5.275   2.415   6.949
 9080SOL    HW128139   5.208   2.451   7.015
 9080SOL    HW228140   5.229   2.396   6.862
 9081SOL     OW28141   5.049   6.119   2.962
 9081SOL    HW128142   5.135   6.084   2.924
 9081SOL    HW228143   5.052   6.219   2.961
 9082SOL     OW28144   2.138   0.339   3.444
 9082SOL    HW128145   2.157   0.435   3.465
 9082SOL    HW228146   2.196   0.281   3.502
 9083SOL     OW28147   4.983   4.701   5.402
 9083SOL    HW128148   5.012   4.611   5.370
 9083SOL    HW228149   4.961   4.696   5.499
 9084SOL     OW28150   2.926   3.847   3.094
 9084SOL    HW128151   2.907   3.842   2.996
 9084SOL    HW228152   2.996   3.915   3.112
 9085SOL     OW28153   1.994   1.442   1.054
 9085SOL    HW128154   1.996   1.432   0.954
 9085SOL    HW228155   1.901   1.467   1.083
 9086SOL     OW28156   0.805   3.616   0.694
 9086SOL    HW128157   0.745   3.608   0.614
 9086SOL    HW228158   0.884   3.555   0.682
 9087SOL     OW28159   4.910   3.292   2.516
 9087SOL    HW128160   4.862   3.232   2.452
 9087SOL    HW228161   4.923   3.246   2.603
 9088SOL     OW28162   6.618   0.493   6.972
 9088SOL    HW128163   6.589   0.406   6.930
 9088SOL    HW228164   6.572   0.503   0.037
 9089SOL     OW28165   4.991   6.724   5.953
 9089SOL    HW128166   5.013   6.712   5.857
 9089SOL    HW228167   4.955   6.817   5.968
 9090SOL     OW28168   5.439   0.434   4.754
 9090SOL    HW128169   5.479   0.523   4.775
 9090SOL    HW228170   5.348   0.448   4.714
 9091SOL     OW28171   3.248   3.917   6.855
 9091SOL    HW128172   3.248   4.007   6.899
 9091SOL    HW228173   3.204   3.924   6.766
 9092SOL     OW28174   7.001   1.835   6.666
 9092SOL    HW128175   7.006   1.934   6.664
 9092SOL    HW228176   7.007   1.803   6.761
 9093SOL     OW28177   1.386   6.846   5.436
 9093SOL    HW128178   1.355   6.757   5.470
 9093SOL    HW228179   1.326   6.918   5.472
 9094SOL     OW28180   0.371   3.093   2.028
 9094SOL    HW128181   0.452   3.050   1.990
 9094SOL    HW228182   0.344   3.170   1.970
 9095SOL     OW28183   5.214   5.191   5.408
 9095SOL    HW128184   5.267   5.275   5.420
 9095SOL    HW228185   5.248   5.142   5.327
 9096SOL     OW28186   6.274   5.270   2.863
 9096SOL    HW128187   6.298   5.275   2.960
 9096SOL    HW228188   6.257   5.362   2.828
 9097SOL     OW28189   0.631   2.800   6.082
 9097SOL    HW128190   0.588   2.754   6.005
 9097SOL    HW228191   0.579   2.780   6.166
 9098SOL     OW28192   1.679   2.439   4.610
 9098SOL    HW128193   1.752   2.495   4.571
 9098SOL    HW228194   1.716   2.349   4.634
 9099SOL     OW28195   2.136   3.422   6.184
 9099SOL    HW128196   2.154   3.482   6.261
 9099SOL    HW228197   2.218   3.416   6.126
 9100SOL     OW28198   1.574   4.430   2.479
 9100SOL    HW128199   1.545   4.523   2.504
 9100SOL    HW228200   1.512   4.394   2.409
 9101SOL     OW28201   2.885   1.042   2.178
 9101SOL    HW128202   2.814   0.982   2.141
 9101SOL    HW228203   2.864   1.137   2.153
 9102SOL     OW28204   4.274   6.478   3.072
 9102SOL    HW128205   4.287   6.567   3.116
 9102SOL    HW228206   4.245   6.492   2.977
 9103SOL     OW28207   6.437   1.793   6.763
 9103SOL    HW128208   6.526   1.779   6.807
 9103SOL    HW228209   6.421   1.718   6.698
 9104SOL     OW28210   0.227   0.849   0.533
 9104SOL    HW128211   0.183   0.807   0.454
 9104SOL    HW228212   0.172   0.833   0.615
 9105SOL     OW28213   1.942   0.115   5.880
 9105SOL    HW128214   1.868   0.137   5.817
 9105SOL    HW228215   1.939   0.177   5.959
 9106SOL     OW28216   0.546   4.651   6.546
 9106SOL    HW128217   0.448   4.672   6.551
 9106SOL    HW228218   0.579   4.673   6.454
 9107SOL     OW28219   2.412   0.689   6.288
 9107SOL    HW128220   2.312   0.693   6.292
 9107SOL    HW228221   2.450   0.719   6.375
 9108SOL     OW28222   5.412   5.601   5.539
 9108SOL    HW128223   5.316   5.590   5.565
 9108SOL    HW228224   5.458   5.512   5.545
 9109SOL     OW28225   5.465   2.614   1.836
 9109SOL    HW128226   5.436   2.595   1.930
 9109SOL    HW228227   5.547   2.672   1.838
 9110SOL     OW28228   1.605   5.661   5.314
 9110SOL    HW128229   1.582   5.759   5.310
 9110SOL    HW228230   1.702   5.650   5.333
 9111SOL     OW28231   4.650   2.518   5.305
 9111SOL    HW128232   4.599   2.487   5.225
 9111SOL    HW228233   4.621   2.611   5.330
 9112SOL     OW28234   2.262   5.390   2.703
 9112SOL    HW128235   2.264   5.307   2.647
 9112SOL    HW228236   2.186   5.448   2.674
 9113SOL     OW28237   4.902   2.217   3.355
 9113SOL    HW128238   5.001   2.229   3.354
 9113SOL    HW228239   4.880   2.120   3.345
 9114SOL     OW28240   1.225   6.255   5.032
 9114SOL    HW128241   1.130   6.250   4.999
 9114SOL    HW228242   1.251   6.351   5.044
 9115SOL     OW28243   6.050   4.600   3.680
 9115SOL    HW128244   5.960   4.559   3.662
 9115SOL    HW228245   6.043   4.659   3.760
 9116SOL     OW28246   0.701   6.848   3.595
 9116SOL    HW128247   0.798   6.861   3.573
 9116SOL    HW228248   0.676   6.907   3.671
 9117SOL     OW28249   4.088   0.229   6.956
 9117SOL    HW128250   4.009   0.291   6.956
 9117SOL    HW228251   4.111   0.203   6.862
 9118SOL     OW28252   5.482   4.315   0.507
 9118SOL    HW128253   5.483   4.217   0.486
 9118SOL    HW228254   5.536   4.332   0.590
 9119SOL     OW28255   3.588   6.736   0.879
 9119SOL    HW128256   3.601   6.642   0.848
 9119SOL    HW228257   3.491   6.754   0.892
 9120SOL     OW28258   6.155   2.769   5.816
 9120SOL    HW128259   6.110   2.709   5.750
 9120SOL    HW228260   6.160   2.862   5.778
 9121SOL     OW28261   3.288   0.207   5.459
 9121SOL    HW128262   3.362   0.141   5.447
 9121SOL    HW228263   3.297   0.279   5.389
 9122SOL     OW28264   2.443   4.337   1.780
 9122SOL    HW128265   2.483   4.246   1.770
 9122SOL    HW228266   2.407   4.347   1.873
 9123SOL     OW28267   1.118   0.965   3.161
 9123SOL    HW128268   1.209   0.924   3.166
 9123SOL    HW228269   1.081   0.976   3.253
 9124SOL     OW28270   3.196   5.254   1.467
 9124SOL    HW128271   3.295   5.247   1.477
 9124SOL    HW228272   3.152   5.228   1.553
 9125SOL     OW28273   4.100   6.466   0.664
 9125SOL    HW128274   4.190   6.437   0.695
 9125SOL    HW228275   4.052   6.389   0.623
 9126SOL     OW28276   3.966   5.183   0.511
 9126SOL    HW128277   4.010   5.119   0.448
 9126SOL    HW228278   3.983   5.153   0.606
 9127SOL     OW28279   6.992   3.766   5.270
 9127SOL    HW128280   6.894   3.748   5.281
 9127SOL    HW228281   7.011   3.862   5.291
 9128SOL     OW28282   5.850   3.463   4.877
 9128SOL    HW128283   5.911   3.469   4.955
 9128SOL    HW228284   5.847   3.551   4.829
 9129SOL     OW28285   1.896   1.809   0.812
 9129SOL    HW128286   1.981   1.786   0.858
 9129SOL    HW228287   1.823   1.822   0.880
 9130SOL     OW28288   2.745   4.222   5.510
 9130SOL    HW128289   2.692   4.176   5.439
 9130SOL    HW228290   2.826   4.265   5.468
 9131SOL     OW28291   6.037   2.504   1.031
 9131SOL    HW128292   6.093   2.529   0.952
 9131SOL    HW228293   5.989   2.584   1.065
 9132SOL     OW28294   0.567   3.733   3.706
 9132SOL    HW128295   0.647   3.715   3.649
 9132SOL    HW228296   0.500   3.659   3.695
 9133SOL     OW28297   4.913   0.723   0.929
 9133SOL    HW128298   4.866   0.768   1.005
 9133SOL    HW228299   4.943   0.632   0.959
 9134SOL     OW28300   4.484   5.237   0.936
 9134SOL    HW128301   4.530   5.305   0.992
 9134SOL    HW228302   4.547   5.203   0.866
 9135SOL     OW28303   0.771   6.042   2.565
 9135SOL    HW128304   0.701   6.112   2.584
 9135SOL    HW228305   0.740   5.984   2.490
 9136SOL     OW28306   6.383   4.835   6.435
 9136SOL    HW128307   6.354   4.854   6.342
 9136SOL    HW228308   6.407   4.921   6.481
 9137SOL     OW28309   4.365   5.865   0.051
 9137SOL    HW128310   4.378   5.940   7.010
 9137SOL    HW228311   4.409   5.888   0.138
 9138SOL     OW28312   2.797   3.205   0.890
 9138SOL    HW128313   2.844   3.244   0.970
 9138SOL    HW228314   2.840   3.240   0.807
 9139SOL     OW28315   6.954   0.566   1.423
 9139SOL    HW128316   7.022   0.580   1.495
 9139SOL    HW228317   6.869   0.531   1.464
 9140SOL     OW28318   0.601   4.299   2.245
 9140SOL    HW128319   0.663   4.312   2.322
 9140SOL    HW228320   0.590   4.385   2.195
 9141SOL     OW28321   6.660   5.750   6.345
 9141SOL    HW128322   6.660   5.802   6.430
 9141SOL    HW228323   6.754   5.741   6.312
 9142SOL     OW28324   0.959   3.907   3.572
 9142SOL    HW128325   0.952   3.972   3.648
 9142SOL    HW228326   1.009   3.948   3.496
 9143SOL     OW28327   0.042   3.287   2.364
 9143SOL    HW128328   6.984   3.343   2.373
 9143SOL    HW228329   0.017   3.190   2.371
 9144SOL     OW28330   2.732   4.574   5.617
 9144SOL    HW128331   2.820   4.531   5.636
 9144SOL    HW228332   2.659   4.505   5.621
 9145SOL     OW28333   1.350   6.601   5.830
 9145SOL    HW128334   1.251   6.591   5.824
 9145SOL    HW228335   1.394   6.515   5.806
 9146SOL     OW28336   5.884   3.284   2.868
 9146SOL    HW128337   5.842   3.219   2.931
 9146SOL    HW228338   5.981   3.294   2.890
 9147SOL     OW28339   4.397   0.322   4.394
 9147SOL    HW128340   4.326   0.301   4.460
 9147SOL    HW228341   4.421   0.239   4.343
 9148SOL     OW28342   6.234   6.887   1.886
 9148SOL    HW128343   6.261   6.893   1.982
 9148SOL    HW228344   6.202   6.977   1.855
 9149SOL     OW28345   6.924   3.708   1.028
 9149SOL    HW128346   6.977   3.793   1.032
 9149SOL    HW228347   6.945   3.653   1.108
 9150SOL     OW28348   2.810   3.165   0.091
 9150SOL    HW128349   2.764   3.124   0.170
 9150SOL    HW228350   2.817   3.264   0.104
 9151SOL     OW28351   1.632   3.442   3.682
 9151SOL    HW128352   1.689   3.521   3.658
 9151SOL    HW228353   1.689   3.372   3.724
 9152SOL     OW28354   2.011   4.307   3.932
 9152SOL    HW128355   2.094   4.253   3.951
 9152SOL    HW228356   1.995   4.369   4.009
 9153SOL     OW28357   6.657   3.331   6.688
 9153SOL    HW128358   6.576   3.353   6.634
 9153SOL    HW228359   6.638   3.349   6.785
 9154SOL     OW28360   5.969   4.895   2.848
 9154SOL    HW128361   5.969   4.796   2.831
 9154SOL    HW228362   5.898   4.938   2.792
 9155SOL     OW28363   0.676   6.148   3.060
 9155SOL    HW128364   0.605   6.105   3.115
 9155SOL    HW228365   0.639   6.227   3.013
 9156SOL     OW28366   6.569   3.943   6.627
 9156SOL    HW128367   6.583   3.909   6.720
 9156SOL    HW228368   6.652   3.927   6.573
 9157SOL     OW28369   2.426   5.219   6.223
 9157SOL    HW128370   2.364   5.295   6.206
 9157SOL    HW228371   2.380   5.133   6.199
 9158SOL     OW28372   7.018   3.215   4.330
 9158SOL    HW128373   7.001   3.126   4.373
 9158SOL    HW228374   6.931   3.253   4.299
 9159SOL     OW28375   3.507   1.155   3.207
 9159SOL    HW128376   3.448   1.077   3.228
 9159SOL    HW228377   3.588   1.152   3.266
 9160SOL     OW28378   0.247   4.445   0.330
 9160SOL    HW128379   0.307   4.502   0.273
 9160SOL    HW228380   0.162   4.427   0.281
 9161SOL     OW28381   6.055   3.884   1.558
 9161SOL    HW128382   5.988   3.954   1.532
 9161SOL    HW228383   6.107   3.856   1.477
 9162SOL     OW28384   4.605   1.952   1.847
 9162SOL    HW128385   4.509   1.924   1.856
 9162SOL    HW228386   4.625   2.021   1.917
 9163SOL     OW28387   1.692   2.613   3.525
 9163SOL    HW128388   1.691   2.658   3.435
 9163SOL    HW228389   1.608   2.635   3.574
 9164SOL     OW28390   2.138   0.633   6.288
 9164SOL    HW128391   2.144   0.535   6.270
 9164SOL    HW228392   2.127   0.649   6.386
 9165SOL     OW28393   5.265   1.899   5.610
 9165SOL    HW128394   5.349   1.944   5.639
 9165SOL    HW228395   5.186   1.948   5.647
 9166SOL     OW28396   5.179   5.046   1.486
 9166SOL    HW128397   5.191   5.094   1.573
 9166SOL    HW228398   5.268   5.022   1.448
 9167SOL     OW28399   1.948   0.911   4.702
 9167SOL    HW128400   1.923   0.986   4.641
 9167SOL    HW228401   1.905   0.826   4.670
 9168SOL     OW28402   6.510   5.926   4.547
 9168SOL    HW128403   6.485   6.001   4.608
 9168SOL    HW228404   6.510   5.958   4.452
 9169SOL     OW28405   6.297   6.337   0.700
 9169SOL    HW128406   6.315   6.424   0.655
 9169SOL    HW228407   6.374   6.313   0.760
 9170SOL     OW28408   1.400   1.454   5.206
 9170SOL    HW128409   1.307   1.466   5.243
 9170SOL    HW228410   1.417   1.357   5.191
 9171SOL     OW28411   3.153   4.691   0.598
 9171SOL    HW128412   3.071   4.637   0.577
 9171SOL    HW228413   3.136   4.787   0.576
 9172SOL     OW28414   5.156   1.426   4.141
 9172SOL    HW128415   5.205   1.343   4.170
 9172SOL    HW228416   5.119   1.412   4.050
 9173SOL     OW28417   5.625   3.147   4.217
 9173SOL    HW128418   5.584   3.116   4.303
 9173SOL    HW228419   5.611   3.077   4.146
 9174SOL     OW28420   6.827   5.068   0.394
 9174SOL    HW128421   6.851   5.145   0.453
 9174SOL    HW228422   6.806   5.101   0.302
 9175SOL     OW28423   1.837   6.535   6.755
 9175SOL    HW128424   1.837   6.621   6.806
 9175SOL    HW228425   1.878   6.551   6.664
 9176SOL     OW28426   1.915   1.493   2.509
 9176SOL    HW128427   1.932   1.422   2.578
 9176SOL    HW228428   1.845   1.556   2.544
 9177SOL     OW28429   0.690   3.922   3.899
 9177SOL    HW128430   0.655   3.876   3.817
 9177SOL    HW228431   0.782   3.888   3.920
 9178SOL     OW28432   1.822   6.620   0.479
 9178SOL    HW128433   1.879   6.669   0.544
 9178SOL    HW228434   1.825   6.666   0.391
 9179SOL     OW28435   4.268   5.670   5.355
 9179SOL    HW128436   4.270   5.614   5.271
 9179SOL    HW228437   4.172   5.683   5.382
 9180SOL     OW28438   0.384   0.918   4.216
 9180SOL    HW128439   0.357   0.921   4.120
 9180SOL    HW228440   0.305   0.892   4.271
 9181SOL     OW28441   3.816   1.818   3.588
 9181SOL    HW128442   3.874   1.841   3.510
 9181SOL    HW228443   3.857   1.743   3.640
 9182SOL     OW28444   1.959   1.267   2.686
 9182SOL    HW128445   2.058   1.248   2.685
 9182SOL    HW228446   1.923   1.254   2.778
 9183SOL     OW28447   6.463   2.941   5.631
 9183SOL    HW128448   6.373   2.937   5.587
 9183SOL    HW228449   6.474   2.864   5.694
 9184SOL     OW28450   3.614   3.271   1.001
 9184SOL    HW128451   3.633   3.296   0.906
 9184SOL    HW228452   3.515   3.272   1.017
 9185SOL     OW28453   0.821   0.055   6.395
 9185SOL    HW128454   0.840   0.102   6.481
 9185SOL    HW228455   0.903   0.005   6.366
 9186SOL     OW28456   5.800   1.045   6.278
 9186SOL    HW128457   5.704   1.045   6.305
 9186SOL    HW228458   5.854   1.094   6.346
 9187SOL     OW28459   4.725   1.874   0.669
 9187SOL    HW128460   4.668   1.896   0.748
 9187SOL    HW228461   4.761   1.781   0.679
 9188SOL     OW28462   1.115   0.610   1.635
 9188SOL    HW128463   1.166   0.525   1.649
 9188SOL    HW228464   1.019   0.596   1.659
 9189SOL     OW28465   3.910   1.503   3.989
 9189SOL    HW128466   3.823   1.520   4.035
 9189SOL    HW228467   3.910   1.410   3.951
 9190SOL     OW28468   6.218   3.841   5.368
 9190SOL    HW128469   6.133   3.893   5.369
 9190SOL    HW228470   6.209   3.761   5.309
 9191SOL     OW28471   5.621   6.169   0.382
 9191SOL    HW128472   5.711   6.182   0.424
 9191SOL    HW228473   5.555   6.231   0.424
 9192SOL     OW28474   6.287   4.420   5.084
 9192SOL    HW128475   6.306   4.471   5.168
 9192SOL    HW228476   6.302   4.479   5.005
 9193SOL     OW28477   3.411   3.521   3.511
 9193SOL    HW128478   3.334   3.478   3.464
 9193SOL    HW228479   3.439   3.464   3.589
 9194SOL     OW28480   3.279   5.428   2.705
 9194SOL    HW128481   3.350   5.497   2.719
 9194SOL    HW228482   3.256   5.386   2.792
 9195SOL     OW28483   6.692   3.250   2.702
 9195SOL    HW128484   6.695   3.157   2.665
 9195SOL    HW228485   6.598   3.282   2.705
 9196SOL     OW28486   4.700   0.220   3.654
 9196SOL    HW128487   4.666   0.131   3.624
 9196SOL    HW228488   4.693   0.227   3.753
 9197SOL     OW28489   3.704   3.510   6.452
 9197SOL    HW128490   3.723   3.413   6.439
 9197SOL    HW228491   3.787   3.557   6.482
 9198SOL     OW28492   5.984   2.682   5.361
 9198SOL    HW128493   6.030   2.724   5.282
 9198SOL    HW228494   5.960   2.753   5.427
 9199SOL     OW28495   1.459   3.824   6.958
 9199SOL    HW128496   1.396   3.896   6.989
 9199SOL    HW228497   1.546   3.865   6.930
 9200SOL     OW28498   6.563   0.768   0.172
 9200SOL    HW128499   6.505   0.838   0.213
 9200SOL    HW228500   6.637   0.812   0.121
 9201SOL     OW28501   1.071   3.854   2.513
 9201SOL    HW128502   1.126   3.934   2.487
 9201SOL    HW228503   1.131   3.777   2.531
 9202SOL     OW28504   3.053   5.255   4.372
 9202SOL    HW128505   3.148   5.224   4.371
 9202SOL    HW228506   3.039   5.318   4.448
 9203SOL     OW28507   5.114   0.759   5.725
 9203SOL    HW128508   5.167   0.751   5.641
 9203SOL    HW228509   5.065   0.846   5.726
 9204SOL     OW28510   4.626   4.383   2.303
 9204SOL    HW128511   4.701   4.449   2.302
 9204SOL    HW228512   4.618   4.340   2.213
 9205SOL     OW28513   5.199   2.596   2.539
 9205SOL    HW128514   5.186   2.695   2.545
 9205SOL    HW228515   5.184   2.566   2.444
 9206SOL     OW28516   0.732   0.071   3.250
 9206SOL    HW128517   0.760   0.163   3.222
 9206SOL    HW228518   0.718   0.069   3.349
 9207SOL     OW28519   4.221   6.853   0.524
 9207SOL    HW128520   4.219   6.946   0.488
 9207SOL    HW228521   4.136   6.834   0.572
 9208SOL     OW28522   5.216   4.218   1.710
 9208SOL    HW128523   5.149   4.267   1.655
 9208SOL    HW228524   5.184   4.211   1.805
 9209SOL     OW28525   4.214   1.103   2.508
 9209SOL    HW128526   4.270   1.021   2.498
 9209SOL    HW228527   4.121   1.076   2.534
 9210SOL     OW28528   1.340   0.300   1.203
 9210SOL    HW128529   1.263   0.343   1.156
 9210SOL    HW228530   1.348   0.205   1.174
 9211SOL     OW28531   5.108   1.259   6.804
 9211SOL    HW128532   5.153   1.170   6.802
 9211SOL    HW228533   5.178   1.330   6.815
 9212SOL     OW28534   5.484   3.608   4.505
 9212SOL    HW128535   5.503   3.691   4.558
 9212SOL    HW228536   5.387   3.586   4.512
 9213SOL     OW28537   5.961   6.772   3.041
 9213SOL    HW128538   5.935   6.763   3.137
 9213SOL    HW228539   5.983   6.867   3.022
 9214SOL     OW28540   2.091   2.250   4.792
 9214SOL    HW128541   2.144   2.226   4.873
 9214SOL    HW228542   2.128   2.333   4.750
 9215SOL     OW28543   0.741   3.514   2.995
 9215SOL    HW128544   0.699   3.588   2.942
 9215SOL    HW228545   0.669   3.452   3.027
 9216SOL     OW28546   2.315   5.620   4.725
 9216SOL    HW128547   2.295   5.533   4.680
 9216SOL    HW228548   2.234   5.651   4.775
 9217SOL     OW28549   4.416   1.077   6.344
 9217SOL    HW128550   4.385   1.154   6.399
 9217SOL    HW228551   4.339   1.044   6.289
 9218SOL     OW28552   5.754   5.519   6.133
 9218SOL    HW128553   5.668   5.495   6.088
 9218SOL    HW228554   5.802   5.435   6.160
 9219SOL     OW28555   3.606   2.762   5.758
 9219SOL    HW128556   3.587   2.779   5.662
 9219SOL    HW228557   3.556   2.828   5.815
 9220SOL     OW28558   1.555   6.292   3.435
 9220SOL    HW128559   1.517   6.315   3.525
 9220SOL    HW228560   1.654   6.284   3.442
 9221SOL     OW28561   2.480   0.929   0.086
 9221SOL    HW128562   2.502   0.838   0.052
 9221SOL    HW228563   2.400   0.965   0.036
 9222SOL     OW28564   1.495   3.723   3.587
 9222SOL    HW128565   1.578   3.767   3.554
 9222SOL    HW228566   1.462   3.658   3.519
 9223SOL     OW28567   0.703   3.695   4.678
 9223SOL    HW128568   0.705   3.775   4.738
 9223SOL    HW228569   0.610   3.679   4.645
 9224SOL     OW28570   2.173   4.172   4.432
 9224SOL    HW128571   2.201   4.137   4.342
 9224SOL    HW228572   2.242   4.237   4.465
 9225SOL     OW28573   4.685   6.507   7.007
 9225SOL    HW128574   4.641   6.426   6.970
 9225SOL    HW228575   4.641   6.589   6.969
 9226SOL     OW28576   0.772   1.106   0.944
 9226SOL    HW128577   0.674   1.090   0.929
 9226SOL    HW228578   0.812   1.147   0.862
 9227SOL     OW28579   2.482   5.717   0.795
 9227SOL    HW128580   2.416   5.667   0.851
 9227SOL    HW228581   2.553   5.654   0.763
 9228SOL     OW28582   2.896   2.744   5.677
 9228SOL    HW128583   2.978   2.688   5.660
 9228SOL    HW228584   2.866   2.731   5.771
 9229SOL     OW28585   0.265   4.723   6.892
 9229SOL    HW128586   0.262   4.822   6.908
 9229SOL    HW228587   0.360   4.693   6.885
 9230SOL     OW28588   4.444   1.510   4.359
 9230SOL    HW128589   4.542   1.521   4.344
 9230SOL    HW228590   4.396   1.593   4.330
 9231SOL     OW28591   6.927   5.835   4.003
 9231SOL    HW128592   6.833   5.800   4.006
 9231SOL    HW228593   6.991   5.758   3.999
 9232SOL     OW28594   1.503   5.187   1.980
 9232SOL    HW128595   1.503   5.119   2.054
 9232SOL    HW228596   1.578   5.169   1.917
 9233SOL     OW28597   1.022   6.710   0.403
 9233SOL    HW128598   1.061   6.631   0.356
 9233SOL    HW228599   0.982   6.772   0.335
 9234SOL     OW28600   2.271   4.351   0.493
 9234SOL    HW128601   2.213   4.270   0.502
 9234SOL    HW228602   2.223   4.420   0.438
 9235SOL     OW28603   2.400   2.396   3.917
 9235SOL    HW128604   2.386   2.443   3.831
 9235SOL    HW228605   2.356   2.306   3.914
 9236SOL     OW28606   2.382   4.012   6.382
 9236SOL    HW128607   2.357   4.032   6.287
 9236SOL    HW228608   2.480   4.026   6.395
 9237SOL     OW28609   6.340   5.026   3.240
 9237SOL    HW128610   6.256   5.019   3.293
 9237SOL    HW228611   6.338   4.960   3.165
 9238SOL     OW28612   1.805   3.006   5.430
 9238SOL    HW128613   1.765   3.011   5.521
 9238SOL    HW228614   1.737   3.032   5.362
 9239SOL     OW28615   0.525   4.646   6.852
 9239SOL    HW128616   0.530   4.687   6.761
 9239SOL    HW228617   0.611   4.662   6.901
 9240SOL     OW28618   4.815   2.262   2.839
 9240SOL    HW128619   4.781   2.344   2.886
 9240SOL    HW228620   4.903   2.282   2.797
 9241SOL     OW28621   5.901   0.072   0.860
 9241SOL    HW128622   5.947   7.007   0.869
 9241SOL    HW228623   5.931   0.132   0.934
 9242SOL     OW28624   1.237   2.806   0.791
 9242SOL    HW128625   1.287   2.720   0.796
 9242SOL    HW228626   1.159   2.804   0.853
 9243SOL     OW28627   1.097   0.919   7.022
 9243SOL    HW128628   1.179   0.974   0.013
 9243SOL    HW228629   1.048   0.908   0.084
 9244SOL     OW28630   4.233   6.313   5.337
 9244SOL    HW128631   4.139   6.329   5.309
 9244SOL    HW228632   4.253   6.368   5.418
 9245SOL     OW28633   0.929   4.163   2.987
 9245SOL    HW128634   0.887   4.249   2.959
 9245SOL    HW228635   0.952   4.168   3.084
 9246SOL     OW28636   6.499   0.902   5.238
 9246SOL    HW128637   6.416   0.850   5.258
 9246SOL    HW228638   6.506   0.917   5.139
 9247SOL     OW28639   3.626   6.183   3.416
 9247SOL    HW128640   3.668   6.106   3.368
 9247SOL    HW228641   3.564   6.231   3.354
 9248SOL     OW28642   2.165   1.395   5.843
 9248SOL    HW128643   2.197   1.364   5.754
 9248SOL    HW228644   2.111   1.323   5.886
 9249SOL     OW28645   3.916   5.440   1.492
 9249SOL    HW128646   3.990   5.455   1.557
 9249SOL    HW228647   3.924   5.505   1.417
 9250SOL     OW28648   0.348   2.748   3.960
 9250SOL    HW128649   0.320   2.654   3.939
 9250SOL    HW228650   0.410   2.747   4.039
 9251SOL     OW28651   3.383   2.786   1.254
 9251SOL    HW128652   3.408   2.728   1.177
 9251SOL    HW228653   3.418   2.747   1.339
 9252SOL     OW28654   5.447   1.123   5.963
 9252SOL    HW128655   5.518   1.192   5.968
 9252SOL    HW228656   5.357   1.167   5.973
 9253SOL     OW28657   1.010   5.335   5.191
 9253SOL    HW128658   1.011   5.262   5.122
 9253SOL    HW228659   1.104   5.363   5.211
 9254SOL     OW28660   7.001   4.867   3.205
 9254SOL    HW128661   6.948   4.897   3.126
 9254SOL    HW228662   6.938   4.842   3.279
 9255SOL     OW28663   6.679   4.382   0.466
 9255SOL    HW128664   6.771   4.421   0.459
 9255SOL    HW228665   6.612   4.454   0.453
 9256SOL     OW28666   1.893   6.592   1.442
 9256SOL    HW128667   1.936   6.621   1.356
 9256SOL    HW228668   1.858   6.673   1.490
 9257SOL     OW28669   6.585   5.814   3.979
 9257SOL    HW128670   6.618   5.742   3.917
 9257SOL    HW228671   6.626   5.901   3.952
 9258SOL     OW28672   3.566   4.549   1.114
 9258SOL    HW128673   3.477   4.527   1.154
 9258SOL    HW228674   3.570   4.516   1.020
 9259SOL     OW28675   1.971   1.515   6.307
 9259SOL    HW128676   1.901   1.526   6.377
 9259SOL    HW228677   1.969   1.594   6.245
 9260SOL     OW28678   5.809   3.717   4.804
 9260SOL    HW128679   5.714   3.749   4.810
 9260SOL    HW228680   5.859   3.775   4.739
 9261SOL     OW28681   3.872   2.428   1.693
 9261SOL    HW128682   3.897   2.523   1.711
 9261SOL    HW228683   3.800   2.400   1.756
 9262SOL     OW28684   5.978   5.907   4.022
 9262SOL    HW128685   6.075   5.905   4.047
 9262SOL    HW228686   5.968   5.938   3.928
 9263SOL     OW28687   2.079   3.688   3.723
 9263SOL    HW128688   2.137   3.733   3.791
 9263SOL    HW228689   1.984   3.689   3.754
 9264SOL     OW28690   4.359   3.963   0.077
 9264SOL    HW128691   4.411   4.035   0.122
 9264SOL    HW228692   4.398   3.874   0.101
 9265SOL     OW28693   5.309   2.052   0.410
 9265SOL    HW128694   5.407   2.063   0.392
 9265SOL    HW228695   5.285   2.101   0.494
 9266SOL     OW28696   0.226   4.133   1.139
 9266SOL    HW128697   0.165   4.193   1.191
 9266SOL    HW228698   0.321   4.162   1.155
 9267SOL     OW28699   0.219   0.944   4.572
 9267SOL    HW128700   0.170   0.916   4.655
 9267SOL    HW228701   0.154   0.979   4.505
 9268SOL     OW28702   0.845   6.497   2.295
 9268SOL    HW128703   0.812   6.518   2.203
 9268SOL    HW228704   0.773   6.514   2.361
 9269SOL     OW28705   4.037   0.584   1.314
 9269SOL    HW128706   4.115   0.608   1.371
 9269SOL    HW228707   4.066   0.578   1.218
 9270SOL     OW28708   1.567   0.691   6.028
 9270SOL    HW128709   1.535   0.749   5.953
 9270SOL    HW228710   1.606   0.748   6.101
 9271SOL     OW28711   1.504   0.324   4.703
 9271SOL    HW128712   1.548   0.239   4.732
 9271SOL    HW228713   1.451   0.307   4.620
 9272SOL     OW28714   6.554   6.655   6.183
 9272SOL    HW128715   6.594   6.645   6.092
 9272SOL    HW228716   6.507   6.743   6.190
 9273SOL     OW28717   4.666   4.873   4.690
 9273SOL    HW128718   4.602   4.797   4.683
 9273SOL    HW228719   4.733   4.867   4.615
 9274SOL     OW28720   1.234   2.961   7.001
 9274SOL    HW128721   1.301   2.931   0.046
 9274SOL    HW228722   1.152   2.994   0.024
 9275SOL     OW28723   0.597   0.153   0.729
 9275SOL    HW128724   0.652   0.222   0.775
 9275SOL    HW228725   0.649   0.067   0.724
 9276SOL     OW28726   3.091   4.945   0.556
 9276SOL    HW128727   3.111   5.005   0.633
 9276SOL    HW228728   3.126   4.986   0.472
 9277SOL     OW28729   5.189   5.397   2.239
 9277SOL    HW128730   5.286   5.424   2.240
 9277SOL    HW228731   5.140   5.453   2.173
 9278SOL     OW28732   0.408   0.537   4.666
 9278SOL    HW128733   0.475   0.521   4.594
 9278SOL    HW228734   0.451   0.521   4.755
 9279SOL     OW28735   4.529   6.007   1.248
 9279SOL    HW128736   4.617   5.995   1.293
 9279SOL    HW228737   4.506   6.104   1.245
 9280SOL     OW28738   1.720   0.541   2.832
 9280SOL    HW128739   1.660   0.501   2.901
 9280SOL    HW228740   1.734   0.638   2.853
 9281SOL     OW28741   2.818   5.076   0.320
 9281SOL    HW128742   2.881   5.107   0.391
 9281SOL    HW228743   2.760   5.002   0.356
 9282SOL     OW28744   3.138   6.661   4.808
 9282SOL    HW128745   3.222   6.634   4.855
 9282SOL    HW228746   3.073   6.697   4.875
 9283SOL     OW28747   4.389   6.067   6.860
 9283SOL    HW128748   4.311   6.109   6.813
 9283SOL    HW228749   4.429   5.997   6.801
 9284SOL     OW28750   3.232   3.666   4.922
 9284SOL    HW128751   3.210   3.623   4.835
 9284SOL    HW228752   3.323   3.706   4.917
 9285SOL     OW28753   6.990   4.096   2.200
 9285SOL    HW128754   0.005   4.020   2.147
 9285SOL    HW228755   0.029   4.174   2.197
 9286SOL     OW28756   4.822   5.713   1.411
 9286SOL    HW128757   4.829   5.812   1.424
 9286SOL    HW228758   4.798   5.670   1.498
 9287SOL     OW28759   3.377   4.859   6.132
 9287SOL    HW128760   3.350   4.770   6.169
 9287SOL    HW228761   3.317   4.930   6.169
 9288SOL     OW28762   4.217   2.282   2.862
 9288SOL    HW128763   4.128   2.241   2.883
 9288SOL    HW228764   4.213   2.324   2.771
 9289SOL     OW28765   4.923   5.937   0.063
 9289SOL    HW128766   4.868   5.903   7.009
 9289SOL    HW228767   4.936   5.863   0.129
 9290SOL     OW28768   5.172   0.342   4.679
 9290SOL    HW128769   5.109   0.406   4.723
 9290SOL    HW228770   5.142   0.326   4.585
 9291SOL     OW28771   1.268   4.650   5.732
 9291SOL    HW128772   1.283   4.635   5.830
 9291SOL    HW228773   1.274   4.562   5.684
 9292SOL     OW28774   1.743   1.862   6.514
 9292SOL    HW128775   1.698   1.941   6.473
 9292SOL    HW228776   1.791   1.890   6.596
 9293SOL     OW28777   5.407   2.624   5.165
 9293SOL    HW128778   5.329   2.638   5.103
 9293SOL    HW228779   5.472   2.699   5.153
 9294SOL     OW28780   4.332   1.101   0.167
 9294SOL    HW128781   4.271   1.047   0.110
 9294SOL    HW228782   4.306   1.197   0.162
 9295SOL     OW28783   0.691   1.480   5.703
 9295SOL    HW128784   0.623   1.428   5.651
 9295SOL    HW228785   0.749   1.416   5.754
 9296SOL     OW28786   1.481   4.523   0.316
 9296SOL    HW128787   1.450   4.439   0.359
 9296SOL    HW228788   1.528   4.580   0.383
 9297SOL     OW28789   5.585   6.213   2.752
 9297SOL    HW128790   5.641   6.277   2.697
 9297SOL    HW228791   5.599   6.232   2.849
 9298SOL     OW28792   1.313   6.156   5.944
 9298SOL    HW128793   1.266   6.169   6.031
 9298SOL    HW228794   1.263   6.089   5.888
 9299SOL     OW28795   2.045   2.584   4.952
 9299SOL    HW128796   1.961   2.531   4.969
 9299SOL    HW228797   2.061   2.590   4.853
 9300SOL     OW28798   1.464   6.004   6.132
 9300SOL    HW128799   1.429   6.064   6.059
 9300SOL    HW228800   1.529   5.939   6.093
 9301SOL     OW28801   0.204   3.985   5.058
 9301SOL    HW128802   0.245   4.069   5.092
 9301SOL    HW228803   0.277   3.921   5.033
 9302SOL     OW28804   1.714   3.427   5.043
 9302SOL    HW128805   1.714   3.514   4.995
 9302SOL    HW228806   1.778   3.432   5.120
 9303SOL     OW28807   2.378   4.684   0.967
 9303SOL    HW128808   2.340   4.766   1.008
 9303SOL    HW228809   2.380   4.693   0.868
 9304SOL     OW28810   4.781   5.259   0.616
 9304SOL    HW128811   4.717   5.228   0.546
 9304SOL    HW228812   4.847   5.322   0.575
 9305SOL     OW28813   2.327   1.639   1.702
 9305SOL    HW128814   2.231   1.659   1.682
 9305SOL    HW228815   2.383   1.720   1.683
 9306SOL     OW28816   0.235   5.539   4.724
 9306SOL    HW128817   0.135   5.537   4.736
 9306SOL    HW228818   0.265   5.633   4.707
 9307SOL     OW28819   2.605   3.133   1.701
 9307SOL    HW128820   2.682   3.069   1.701
 9307SOL    HW228821   2.523   3.086   1.735
 9308SOL     OW28822   1.981   3.531   1.945
 9308SOL    HW128823   2.017   3.612   1.898
 9308SOL    HW228824   2.045   3.503   2.017
 9309SOL     OW28825   5.076   5.823   5.671
 9309SOL    HW128826   5.133   5.876   5.608
 9309SOL    HW228827   5.083   5.861   5.763
 9310SOL     OW28828   5.346   6.087   6.524
 9310SOL    HW128829   5.257   6.129   6.513
 9310SOL    HW228830   5.345   5.995   6.484
 9311SOL     OW28831   4.560   3.425   1.448
 9311SOL    HW128832   4.590   3.520   1.440
 9311SOL    HW228833   4.501   3.415   1.528
 9312SOL     OW28834   0.476   2.388   2.165
 9312SOL    HW128835   0.444   2.311   2.221
 9312SOL    HW228836   0.397   2.442   2.135
 9313SOL     OW28837   0.465   6.214   2.368
 9313SOL    HW128838   0.402   6.141   2.395
 9313SOL    HW228839   0.422   6.270   2.297
 9314SOL     OW28840   4.917   3.257   6.965
 9314SOL    HW128841   4.907   3.173   6.911
 9314SOL    HW228842   4.855   3.255   0.019
 9315SOL     OW28843   5.919   0.801   6.226
 9315SOL    HW128844   5.897   0.721   6.282
 9315SOL    HW228845   5.858   0.877   6.251
 9316SOL     OW28846   4.282   0.708   5.607
 9316SOL    HW128847   4.239   0.670   5.688
 9316SOL    HW228848   4.370   0.664   5.591
 9317SOL     OW28849   4.060   6.044   3.425
 9317SOL    HW128850   3.976   6.094   3.446
 9317SOL    HW228851   4.075   6.045   3.326
 9318SOL     OW28852   4.922   6.211   1.253
 9318SOL    HW128853   4.878   6.292   1.293
 9318SOL    HW228854   4.919   6.217   1.153
 9319SOL     OW28855   2.335   3.982   0.116
 9319SOL    HW128856   2.371   3.960   0.025
 9319SOL    HW228857   2.292   3.900   0.155
 9320SOL     OW28858   6.403   6.512   6.672
 9320SOL    HW128859   6.497   6.501   6.705
 9320SOL    HW228860   6.362   6.422   6.658
 9321SOL     OW28861   0.414   3.702   4.622
 9321SOL    HW128862   0.332   3.755   4.601
 9321SOL    HW228863   0.402   3.608   4.589
 9322SOL     OW28864   5.659   3.951   5.640
 9322SOL    HW128865   5.677   4.049   5.631
 9322SOL    HW228866   5.561   3.936   5.647
 9323SOL     OW28867   1.210   2.629   4.387
 9323SOL    HW128868   1.281   2.656   4.452
 9323SOL    HW228869   1.124   2.673   4.410
 9324SOL     OW28870   0.491   4.232   1.463
 9324SOL    HW128871   0.399   4.234   1.501
 9324SOL    HW228872   0.554   4.279   1.525
 9325SOL     OW28873   1.178   5.003   2.765
 9325SOL    HW128874   1.228   5.063   2.828
 9325SOL    HW228875   1.210   5.018   2.672
 9326SOL     OW28876   4.105   4.131   0.744
 9326SOL    HW128877   4.060   4.155   0.830
 9326SOL    HW228878   4.193   4.087   0.763
 9327SOL     OW28879   4.163   7.015   4.036
 9327SOL    HW128880   4.254   6.979   4.057
 9327SOL    HW228881   4.097   6.977   4.101
 9328SOL     OW28882   2.737   6.355   4.753
 9328SOL    HW128883   2.744   6.451   4.782
 9328SOL    HW228884   2.826   6.325   4.718
 9329SOL     OW28885   7.017   5.459   6.622
 9329SOL    HW128886   0.085   5.497   6.633
 9329SOL    HW228887   6.950   5.525   6.654
 9330SOL     OW28888   5.991   5.434   6.402
 9330SOL    HW128889   6.078   5.442   6.452
 9330SOL    HW228890   5.927   5.381   6.457
 9331SOL     OW28891   1.422   3.021   4.592
 9331SOL    HW128892   1.341   3.073   4.620
 9331SOL    HW228893   1.502   3.055   4.640
 9332SOL     OW28894   4.627   5.462   1.056
 9332SOL    HW128895   4.722   5.493   1.063
 9332SOL    HW228896   4.569   5.540   1.030
 9333SOL     OW28897   3.819   4.653   0.619
 9333SOL    HW128898   3.897   4.590   0.626
 9333SOL    HW228899   3.750   4.629   0.687
 9334SOL     OW28900   5.682   6.324   5.467
 9334SOL    HW128901   5.702   6.248   5.404
 9334SOL    HW228902   5.659   6.288   5.557
 9335SOL     OW28903   2.124   2.876   1.463
 9335SOL    HW128904   2.171   2.854   1.378
 9335SOL    HW228905   2.094   2.792   1.508
 9336SOL     OW28906   6.834   0.199   5.238
 9336SOL    HW128907   6.906   0.259   5.272
 9336SOL    HW228908   6.863   0.103   5.247
 9337SOL     OW28909   2.230   0.702   6.543
 9337SOL    HW128910   2.174   0.745   6.613
 9337SOL    HW228911   2.326   0.704   6.572
 9338SOL     OW28912   5.992   6.325   6.711
 9338SOL    HW128913   5.894   6.319   6.727
 9338SOL    HW228914   6.038   6.248   6.756
 9339SOL     OW28915   6.630   4.407   5.457
 9339SOL    HW128916   6.537   4.371   5.456
 9339SOL    HW228917   6.644   4.461   5.540
 9340SOL     OW28918   4.275   6.074   2.262
 9340SOL    HW128919   4.346   6.144   2.264
 9340SOL    HW228920   4.190   6.114   2.228
 9341SOL     OW28921   5.385   3.665   6.669
 9341SOL    HW128922   5.312   3.692   6.606
 9341SOL    HW228923   5.474   3.685   6.629
 9342SOL     OW28924   2.898   0.316   4.246
 9342SOL    HW128925   2.801   0.293   4.259
 9342SOL    HW228926   2.917   0.325   4.148
 9343SOL     OW28927   5.015   4.334   1.563
 9343SOL    HW128928   5.006   4.379   1.474
 9343SOL    HW228929   4.931   4.345   1.615
 9344SOL     OW28930   5.774   5.597   4.611
 9344SOL    HW128931   5.847   5.653   4.571
 9344SOL    HW228932   5.706   5.576   4.540
 9345SOL     OW28933   0.629   6.605   1.481
 9345SOL    HW128934   0.658   6.697   1.504
 9345SOL    HW228935   0.540   6.608   1.437
 9346SOL     OW28936   5.548   6.202   1.452
 9346SOL    HW128937   5.504   6.152   1.527
 9346SOL    HW228938   5.481   6.260   1.406
 9347SOL     OW28939   3.575   5.523   0.913
 9347SOL    HW128940   3.668   5.486   0.913
 9347SOL    HW228941   3.579   5.623   0.921
 9348SOL     OW28942   1.896   5.818   1.685
 9348SOL    HW128943   1.863   5.833   1.592
 9348SOL    HW228944   1.965   5.746   1.686
 9349SOL     OW28945   6.178   5.628   1.823
 9349SOL    HW128946   6.182   5.577   1.737
 9349SOL    HW228947   6.098   5.687   1.823
 9350SOL     OW28948   0.089   1.091   5.022
 9350SOL    HW128949   0.104   1.015   4.960
 9350SOL    HW228950   0.095   1.059   5.116
 9351SOL     OW28951   3.137   1.381   6.540
 9351SOL    HW128952   3.040   1.365   6.560
 9351SOL    HW228953   3.183   1.293   6.527
 9352SOL     OW28954   3.267   1.804   6.532
 9352SOL    HW128955   3.275   1.902   6.518
 9352SOL    HW228956   3.301   1.780   6.623
 9353SOL     OW28957   1.394   3.574   1.032
 9353SOL    HW128958   1.458   3.650   1.023
 9353SOL    HW228959   1.403   3.533   1.123
 9354SOL     OW28960   5.223   1.825   1.326
 9354SOL    HW128961   5.129   1.807   1.296
 9354SOL    HW228962   5.225   1.908   1.382
 9355SOL     OW28963   6.369   6.830   3.518
 9355SOL    HW128964   6.461   6.861   3.494
 9355SOL    HW228965   6.313   6.908   3.542
 9356SOL     OW28966   4.245   4.994   2.048
 9356SOL    HW128967   4.182   4.944   2.107
 9356SOL    HW228968   4.339   4.969   2.072
 9357SOL     OW28969   2.916   2.971   0.980
 9357SOL    HW128970   2.848   3.040   0.958
 9357SOL    HW228971   2.903   2.941   1.075
 9358SOL     OW28972   6.237   4.502   2.029
 9358SOL    HW128973   6.275   4.461   1.946
 9358SOL    HW228974   6.169   4.441   2.069
 9359SOL     OW28975   0.090   4.071   6.077
 9359SOL    HW128976   0.050   3.984   6.048
 9359SOL    HW228977   0.163   4.054   6.144
 9360SOL     OW28978   2.337   1.220   6.228
 9360SOL    HW128979   2.427   1.183   6.250
 9360SOL    HW228980   2.289   1.158   6.166
 9361SOL     OW28981   2.912   6.490   2.209
 9361SOL    HW128982   2.876   6.402   2.176
 9361SOL    HW228983   2.887   6.562   2.145
 9362SOL     OW28984   2.414   1.337   2.497
 9362SOL    HW128985   2.488   1.396   2.530
 9362SOL    HW228986   2.326   1.383   2.508
 9363SOL     OW28987   3.214   6.256   2.808
 9363SOL    HW128988   3.172   6.185   2.865
 9363SOL    HW228989   3.214   6.226   2.712
 9364SOL     OW28990   4.252   3.100   6.756
 9364SOL    HW128991   4.224   3.156   6.834
 9364SOL    HW228992   4.254   3.004   6.783
 9365SOL     OW28993   2.677   1.897   4.865
 9365SOL    HW128994   2.669   1.985   4.818
 9365SOL    HW228995   2.609   1.834   4.828
 9366SOL     OW28996   3.335   2.011   0.320
 9366SOL    HW128997   3.275   2.087   0.345
 9366SOL    HW228998   3.392   2.038   0.242
 9367SOL     OW28999   6.718   5.501   3.183
 9367SOL    HW129000   6.782   5.425   3.181
 9367SOL    HW229001   6.660   5.498   3.101
 9368SOL     OW29002   3.338   2.139   1.799
 9368SOL    HW129003   3.409   2.117   1.866
 9368SOL    HW229004   3.358   2.091   1.713
 9369SOL     OW29005   0.442   1.984   5.614
 9369SOL    HW129006   0.374   2.055   5.631
 9369SOL    HW229007   0.402   1.913   5.555
 9370SOL     OW29008   6.364   0.771   2.309
 9370SOL    HW129009   6.378   0.742   2.404
 9370SOL    HW229010   6.400   0.864   2.298
 9371SOL     OW29011   1.031   6.144   0.685
 9371SOL    HW129012   1.120   6.141   0.639
 9371SOL    HW229013   0.981   6.225   0.654
 9372SOL     OW29014   5.736   6.549   3.398
 9372SOL    HW129015   5.758   6.534   3.494
 9372SOL    HW229016   5.707   6.463   3.356
 9373SOL     OW29017   4.451   1.627   3.066
 9373SOL    HW129018   4.490   1.550   3.016
 9373SOL    HW229019   4.496   1.712   3.037
 9374SOL     OW29020   5.698   2.685   0.409
 9374SOL    HW129021   5.774   2.654   0.467
 9374SOL    HW229022   5.620   2.623   0.422
 9375SOL     OW29023   0.041   1.133   2.629
 9375SOL    HW129024   0.090   1.165   2.547
 9375SOL    HW229025   0.072   1.186   2.708
 9376SOL     OW29026   2.972   3.563   0.523
 9376SOL    HW129027   2.964   3.486   0.586
 9376SOL    HW229028   2.897   3.560   0.457
 9377SOL     OW29029   6.648   5.674   3.773
 9377SOL    HW129030   6.712   5.697   3.700
 9377SOL    HW229031   6.581   5.608   3.740
 9378SOL     OW29032   2.066   0.339   0.048
 9378SOL    HW129033   2.050   0.245   0.077
 9378SOL    HW229034   2.159   0.348   0.012
 9379SOL     OW29035   4.836   4.654   4.110
 9379SOL    HW129036   4.829   4.640   4.012
 9379SOL    HW229037   4.843   4.752   4.130
 9380SOL     OW29038   6.197   0.000   5.805
 9380SOL    HW129039   6.223   6.961   5.732
 9380SOL    HW229040   6.268   0.069   5.817
 9381SOL     OW29041   2.541   2.366   5.473
 9381SOL    HW129042   2.482   2.446   5.462
 9381SOL    HW229043   2.495   2.285   5.437
 9382SOL     OW29044   3.888   0.978   2.862
 9382SOL    HW129045   3.927   1.067   2.836
 9382SOL    HW229046   3.870   0.977   2.960
 9383SOL     OW29047   3.674   6.579   4.633
 9383SOL    HW129048   3.580   6.573   4.667
 9383SOL    HW229049   3.675   6.619   4.542
 9384SOL     OW29050   4.973   6.054   2.650
 9384SOL    HW129051   4.910   6.019   2.581
 9384SOL    HW229052   5.067   6.048   2.615
 9385SOL     OW29053   3.955   1.223   3.534
 9385SOL    HW129054   3.943   1.125   3.517
 9385SOL    HW229055   4.052   1.244   3.541
 9386SOL     OW29056   3.329   6.373   5.565
 9386SOL    HW129057   3.282   6.425   5.637
 9386SOL    HW229058   3.271   6.369   5.484
 9387SOL     OW29059   3.296   6.778   1.391
 9387SOL    HW129060   3.385   6.789   1.346
 9387SOL    HW229061   3.223   6.796   1.325
 9388SOL     OW29062   0.504   0.160   3.124
 9388SOL    HW129063   0.446   0.206   3.192
 9388SOL    HW229064   0.579   0.114   3.170
 9389SOL     OW29065   2.264   0.400   5.537
 9389SOL    HW129066   2.337   0.452   5.492
 9389SOL    HW229067   2.305   0.330   5.597
 9390SOL     OW29068   3.621   5.366   2.717
 9390SOL    HW129069   3.566   5.443   2.746
 9390SOL    HW229070   3.701   5.357   2.776
 9391SOL     OW29071   1.253   1.692   5.576
 9391SOL    HW129072   1.180   1.760   5.573
 9391SOL    HW229073   1.233   1.619   5.511
 9392SOL     OW29074   1.481   6.749   4.788
 9392SOL    HW129075   1.557   6.782   4.732
 9392SOL    HW229076   1.441   6.667   4.746
 9393SOL     OW29077   4.075   2.070   5.527
 9393SOL    HW129078   3.984   2.059   5.566
 9393SOL    HW229079   4.142   2.076   5.600
 9394SOL     OW29080   6.235   2.655   2.910
 9394SOL    HW129081   6.179   2.659   2.828
 9394SOL    HW229082   6.224   2.567   2.954
 9395SOL     OW29083   2.544   2.922   0.374
 9395SOL    HW129084   2.450   2.894   0.397
 9395SOL    HW229085   2.574   2.991   0.440
 9396SOL     OW29086   6.262   6.921   5.352
 9396SOL    HW129087   6.297   6.828   5.341
 9396SOL    HW229088   6.244   6.961   5.262
 9397SOL     OW29089   1.744   0.610   6.854
 9397SOL    HW129090   1.707   0.642   6.941
 9397SOL    HW229091   1.671   0.604   6.786
 9398SOL     OW29092   2.427   1.719   0.070
 9398SOL    HW129093   2.426   1.621   0.051
 9398SOL    HW229094   2.520   1.754   0.060
 9399SOL     OW29095   6.493   1.667   6.122
 9399SOL    HW129096   6.468   1.627   6.210
 9399SOL    HW229097   6.578   1.718   6.131
 9400SOL     OW29098   4.976   3.307   1.494
 9400SOL    HW129099   4.996   3.290   1.591
 9400SOL    HW229100   5.041   3.256   1.438
 9401SOL     OW29101   2.961   6.205   3.872
 9401SOL    HW129102   2.976   6.203   3.773
 9401SOL    HW229103   2.968   6.112   3.908
 9402SOL     OW29104   2.661   5.362   6.742
 9402SOL    HW129105   2.760   5.351   6.730
 9402SOL    HW229106   2.620   5.384   6.653
 9403SOL     OW29107   5.575   1.360   3.410
 9403SOL    HW129108   5.566   1.414   3.327
 9403SOL    HW229109   5.548   1.415   3.489
 9404SOL     OW29110   0.775   5.031   6.774
 9404SOL    HW129111   0.768   4.947   6.829
 9404SOL    HW229112   0.750   5.010   6.679
 9405SOL     OW29113   5.971   6.488   1.559
 9405SOL    HW129114   5.897   6.464   1.496
 9405SOL    HW229115   5.977   6.588   1.566
 9406SOL     OW29116   0.228   1.966   5.362
 9406SOL    HW129117   0.248   1.918   5.447
 9406SOL    HW229118   0.141   1.935   5.326
 9407SOL     OW29119   3.192   6.474   3.609
 9407SOL    HW129120   3.202   6.381   3.645
 9407SOL    HW229121   3.099   6.486   3.574
 9408SOL     OW29122   3.518   1.549   6.600
 9408SOL    HW129123   3.508   1.455   6.566
 9408SOL    HW229124   3.608   1.558   6.645
 9409SOL     OW29125   5.381   3.828   3.779
 9409SOL    HW129126   5.337   3.784   3.857
 9409SOL    HW229127   5.334   3.914   3.758
 9410SOL     OW29128   4.046   6.231   2.184
 9410SOL    HW129129   3.999   6.315   2.208
 9410SOL    HW229130   4.065   6.230   2.085
 9411SOL     OW29131   4.069   5.645   0.983
 9411SOL    HW129132   4.007   5.711   0.941
 9411SOL    HW229133   4.125   5.692   1.052
 9412SOL     OW29134   0.343   3.109   1.267
 9412SOL    HW129135   0.277   3.061   1.209
 9412SOL    HW229136   0.298   3.143   1.349
 9413SOL     OW29137   4.558   5.461   5.471
 9413SOL    HW129138   4.556   5.549   5.423
 9413SOL    HW229139   4.651   5.442   5.503
 9414SOL     OW29140   3.179   1.732   2.612
 9414SOL    HW129141   3.245   1.789   2.563
 9414SOL    HW229142   3.229   1.667   2.670
 9415SOL     OW29143   1.971   6.573   2.332
 9415SOL    HW129144   1.922   6.603   2.250
 9415SOL    HW229145   1.905   6.559   2.406
 9416SOL     OW29146   1.043   1.743   1.643
 9416SOL    HW129147   1.066   1.831   1.601
 9416SOL    HW229148   0.944   1.731   1.644
 9417SOL     OW29149   2.871   5.956   5.399
 9417SOL    HW129150   2.788   5.920   5.359
 9417SOL    HW229151   2.947   5.946   5.335
 9418SOL     OW29152   2.431   5.505   1.582
 9418SOL    HW129153   2.484   5.478   1.501
 9418SOL    HW229154   2.494   5.531   1.655
 9419SOL     OW29155   2.651   6.385   5.184
 9419SOL    HW129156   2.599   6.365   5.102
 9419SOL    HW229157   2.657   6.484   5.196
 9420SOL     OW29158   6.731   1.363   4.645
 9420SOL    HW129159   6.696   1.340   4.554
 9420SOL    HW229160   6.666   1.333   4.715
 9421SOL     OW29161   1.602   4.785   5.533
 9421SOL    HW129162   1.695   4.751   5.546
 9421SOL    HW229163   1.586   4.803   5.436
 9422SOL     OW29164   5.530   0.070   2.379
 9422SOL    HW129165   5.527   0.137   2.305
 9422SOL    HW229166   5.437   0.056   2.415
 9423SOL     OW29167   4.305   1.074   3.389
 9423SOL    HW129168   4.261   1.143   3.447
 9423SOL    HW229169   4.236   1.017   3.346
 9424SOL     OW29170   4.761   0.227   5.607
 9424SOL    HW129171   4.801   0.140   5.575
 9424SOL    HW229172   4.664   0.230   5.583
 9425SOL     OW29173   0.536   3.641   5.401
 9425SOL    HW129174   0.609   3.584   5.365
 9425SOL    HW229175   0.480   3.588   5.465
 9426SOL     OW29176   2.823   0.845   0.145
 9426SOL    HW129177   2.805   0.876   0.052
 9426SOL    HW229178   2.885   0.909   0.190
 9427SOL     OW29179   2.858   5.063   4.814
 9427SOL    HW129180   2.816   5.058   4.724
 9427SOL    HW229181   2.914   4.982   4.829
 9428SOL     OW29182   6.021   0.011   3.006
 9428SOL    HW129183   6.089   0.035   2.937
 9428SOL    HW229184   6.010   0.087   3.070
 9429SOL     OW29185   1.223   4.265   2.152
 9429SOL    HW129186   1.138   4.255   2.204
 9429SOL    HW229187   1.211   4.331   2.079
 9430SOL     OW29188   6.622   6.963   2.333
 9430SOL    HW129189   6.580   6.983   2.421
 9430SOL    HW229190   6.702   6.905   2.345
 9431SOL     OW29191   6.340   4.101   6.598
 9431SOL    HW129192   6.405   4.027   6.617
 9431SOL    HW229193   6.263   4.095   6.661
 9432SOL     OW29194   6.056   0.075   3.652
 9432SOL    HW129195   6.037   0.029   3.565
 9432SOL    HW229196   6.073   0.172   3.635
 9433SOL     OW29197   3.180   5.127   5.361
 9433SOL    HW129198   3.164   5.036   5.398
 9433SOL    HW229199   3.253   5.124   5.293
 9434SOL     OW29200   5.914   4.393   3.159
 9434SOL    HW129201   5.827   4.396   3.110
 9434SOL    HW229202   5.968   4.473   3.136
 9435SOL     OW29203   1.856   1.616   4.035
 9435SOL    HW129204   1.833   1.584   4.127
 9435SOL    HW229205   1.772   1.634   3.984
 9436SOL     OW29206   1.689   3.745   0.710
 9436SOL    HW129207   1.598   3.722   0.676
 9436SOL    HW229208   1.759   3.709   0.648
 9437SOL     OW29209   1.185   5.487   3.270
 9437SOL    HW129210   1.120   5.562   3.282
 9437SOL    HW229211   1.137   5.400   3.281
 9438SOL     OW29212   0.720   6.152   2.266
 9438SOL    HW129213   0.795   6.143   2.333
 9438SOL    HW229214   0.637   6.182   2.313
 9439SOL     OW29215   6.855   3.322   2.008
 9439SOL    HW129216   6.783   3.371   2.057
 9439SOL    HW229217   6.941   3.371   2.016
 9440SOL     OW29218   4.878   6.420   4.869
 9440SOL    HW129219   4.977   6.426   4.854
 9440SOL    HW229220   4.861   6.395   4.965
 9441SOL     OW29221   1.677   5.214   5.029
 9441SOL    HW129222   1.733   5.287   5.069
 9441SOL    HW229223   1.627   5.167   5.102
 9442SOL     OW29224   0.001   2.039   6.953
 9442SOL    HW129225   6.993   1.945   6.964
 9442SOL    HW229226   0.085   2.052   7.006
 9443SOL     OW29227   1.827   4.876   1.482
 9443SOL    HW129228   1.878   4.809   1.537
 9443SOL    HW229229   1.797   4.833   1.397
 9444SOL     OW29230   0.542   2.956   0.093
 9444SOL    HW129231   0.475   2.901   0.143
 9444SOL    HW229232   0.634   2.937   0.127
 9445SOL     OW29233   4.896   3.768   2.018
 9445SOL    HW129234   4.871   3.854   1.973
 9445SOL    HW229235   4.868   3.691   1.961
 9446SOL     OW29236   6.641   6.405   2.764
 9446SOL    HW129237   6.690   6.484   2.800
 9446SOL    HW229238   6.543   6.414   2.782
 9447SOL     OW29239   5.338   3.487   1.834
 9447SOL    HW129240   5.336   3.388   1.823
 9447SOL    HW229241   5.306   3.511   1.926
 9448SOL     OW29242   5.429   6.234   6.052
 9448SOL    HW129243   5.478   6.220   6.137
 9448SOL    HW229244   5.353   6.297   6.067
 9449SOL     OW29245   6.493   5.569   5.239
 9449SOL    HW129246   6.569   5.504   5.237
 9449SOL    HW229247   6.466   5.584   5.334
 9450SOL     OW29248   2.257   4.888   4.750
 9450SOL    HW129249   2.319   4.963   4.771
 9450SOL    HW229250   2.294   4.835   4.674
 9451SOL     OW29251   5.037   5.650   6.213
 9451SOL    HW129252   5.077   5.599   6.137
 9451SOL    HW229253   5.106   5.664   6.284
 9452SOL     OW29254   2.405   3.634   1.123
 9452SOL    HW129255   2.390   3.557   1.061
 9452SOL    HW229256   2.411   3.600   1.217
 9453SOL     OW29257   2.074   4.815   3.078
 9453SOL    HW129258   2.137   4.757   3.026
 9453SOL    HW229259   1.980   4.787   3.059
 9454SOL     OW29260   1.321   4.143   6.018
 9454SOL    HW129261   1.233   4.101   5.992
 9454SOL    HW229262   1.396   4.082   5.993
 9455SOL     OW29263   3.422   1.673   2.781
 9455SOL    HW129264   3.447   1.692   2.876
 9455SOL    HW229265   3.501   1.689   2.722
 9456SOL     OW29266   0.659   4.056   0.923
 9456SOL    HW129267   0.707   4.014   1.000
 9456SOL    HW229268   0.701   4.027   0.837
 9457SOL     OW29269   1.902   3.515   6.671
 9457SOL    HW129270   1.905   3.430   6.618
 9457SOL    HW229271   1.846   3.500   6.753
 9458SOL     OW29272   0.215   4.873   5.843
 9458SOL    HW129273   0.230   4.967   5.813
 9458SOL    HW229274   0.269   4.811   5.786
 9459SOL     OW29275   6.177   5.341   2.174
 9459SOL    HW129276   6.114   5.362   2.249
 9459SOL    HW229277   6.130   5.353   2.087
 9460SOL     OW29278   0.425   2.436   4.746
 9460SOL    HW129279   0.395   2.403   4.835
 9460SOL    HW229280   0.345   2.453   4.688
 9461SOL     OW29281   0.186   1.272   2.866
 9461SOL    HW129282   0.269   1.327   2.861
 9461SOL    HW229283   0.202   1.193   2.926
 9462SOL     OW29284   1.697   3.318   2.988
 9462SOL    HW129285   1.763   3.303   2.915
 9462SOL    HW229286   1.743   3.359   3.067
 9463SOL     OW29287   0.022   0.827   0.764
 9463SOL    HW129288   0.045   0.921   0.787
 9463SOL    HW229289   0.001   0.776   0.848
 9464SOL     OW29290   5.923   6.911   6.403
 9464SOL    HW129291   5.862   6.923   6.325
 9464SOL    HW229292   5.872   6.870   6.479
 9465SOL     OW29293   6.674   0.577   3.111
 9465SOL    HW129294   6.577   0.589   3.091
 9465SOL    HW229295   6.689   0.577   3.210
 9466SOL     OW29296   2.777   3.001   5.527
 9466SOL    HW129297   2.766   2.944   5.608
 9466SOL    HW229298   2.752   2.949   5.445
 9467SOL     OW29299   1.769   2.569   1.682
 9467SOL    HW129300   1.709   2.579   1.603
 9467SOL    HW229301   1.752   2.641   1.748
 9468SOL     OW29302   6.141   3.035   5.685
 9468SOL    HW129303   6.079   3.095   5.736
 9468SOL    HW229304   6.201   3.090   5.627
 9469SOL     OW29305   6.307   5.606   2.079
 9469SOL    HW129306   6.271   5.604   1.985
 9469SOL    HW229307   6.278   5.691   2.124
 9470SOL     OW29308   5.128   2.932   6.650
 9470SOL    HW129309   5.194   2.899   6.718
 9470SOL    HW229310   5.151   3.026   6.624
 9471SOL     OW29311   6.751   2.609   5.691
 9471SOL    HW129312   6.652   2.602   5.681
 9471SOL    HW229313   6.777   2.706   5.694
 9472SOL     OW29314   6.527   4.370   4.541
 9472SOL    HW129315   6.538   4.298   4.609
 9472SOL    HW229316   6.617   4.407   4.516
 9473SOL     OW29317   3.503   6.436   5.891
 9473SOL    HW129318   3.482   6.346   5.929
 9473SOL    HW229319   3.553   6.425   5.805
 9474SOL     OW29320   5.635   4.188   1.921
 9474SOL    HW129321   5.693   4.183   2.003
 9474SOL    HW229322   5.546   4.146   1.941
 9475SOL     OW29323   3.354   3.287   1.122
 9475SOL    HW129324   3.382   3.346   1.198
 9475SOL    HW229325   3.262   3.252   1.138
 9476SOL     OW29326   3.636   3.304   5.318
 9476SOL    HW129327   3.722   3.293   5.267
 9476SOL    HW229328   3.561   3.263   5.266
 9477SOL     OW29329   0.938   2.824   0.882
 9477SOL    HW129330   0.875   2.894   0.916
 9477SOL    HW229331   0.930   2.742   0.938
 9478SOL     OW29332   5.115   4.109   5.440
 9478SOL    HW129333   5.057   4.099   5.359
 9478SOL    HW229334   5.209   4.128   5.412
 9479SOL     OW29335   6.012   5.500   5.866
 9479SOL    HW129336   5.914   5.505   5.843
 9479SOL    HW229337   6.022   5.485   5.965
 9480SOL     OW29338   4.277   4.248   6.656
 9480SOL    HW129339   4.292   4.150   6.665
 9480SOL    HW229340   4.356   4.290   6.612
 9481SOL     OW29341   6.421   3.828   1.522
 9481SOL    HW129342   6.518   3.850   1.514
 9481SOL    HW229343   6.367   3.895   1.470
 9482SOL     OW29344   5.838   0.458   3.311
 9482SOL    HW129345   5.739   0.472   3.303
 9482SOL    HW229346   5.878   0.529   3.368
 9483SOL     OW29347   1.514   2.153   1.045
 9483SOL    HW129348   1.602   2.173   1.087
 9483SOL    HW229349   1.481   2.064   1.078
 9484SOL     OW29350   6.088   1.311   3.889
 9484SOL    HW129351   6.048   1.303   3.798
 9484SOL    HW229352   6.063   1.399   3.928
 9485SOL     OW29353   1.634   0.785   1.533
 9485SOL    HW129354   1.548   0.737   1.517
 9485SOL    HW229355   1.616   0.881   1.553
 9486SOL     OW29356   2.347   5.425   0.693
 9486SOL    HW129357   2.299   5.499   0.646
 9486SOL    HW229358   2.445   5.447   0.698
 9487SOL     OW29359   3.575   4.168   3.595
 9487SOL    HW129360   3.617   4.149   3.507
 9487SOL    HW229361   3.593   4.264   3.620
 9488SOL     OW29362   1.739   5.952   1.423
 9488SOL    HW129363   1.778   6.028   1.371
 9488SOL    HW229364   1.794   5.869   1.408
 9489SOL     OW29365   4.183   4.093   1.140
 9489SOL    HW129366   4.114   4.025   1.162
 9489SOL    HW229367   4.145   4.161   1.077
 9490SOL     OW29368   4.979   0.996   1.257
 9490SOL    HW129369   5.066   0.949   1.240
 9490SOL    HW229370   4.905   0.943   1.215
 9491SOL     OW29371   6.853   4.933   4.786
 9491SOL    HW129372   6.877   4.856   4.846
 9491SOL    HW229373   6.757   4.957   4.800
 9492SOL     OW29374   3.268   3.709   2.225
 9492SOL    HW129375   3.219   3.672   2.146
 9492SOL    HW229376   3.211   3.777   2.270
 9493SOL     OW29377   4.694   5.010   3.604
 9493SOL    HW129378   4.673   4.984   3.510
 9493SOL    HW229379   4.694   5.110   3.611
 9494SOL     OW29380   5.224   3.648   6.920
 9494SOL    HW129381   5.288   3.665   6.845
 9494SOL    HW229382   5.273   3.607   6.996
 9495SOL     OW29383   6.126   2.322   3.643
 9495SOL    HW129384   6.173   2.410   3.637
 9495SOL    HW229385   6.168   2.258   3.578
 9496SOL     OW29386   5.440   3.894   6.299
 9496SOL    HW129387   5.421   3.849   6.212
 9496SOL    HW229388   5.359   3.946   6.328
 9497SOL     OW29389   5.059   4.407   0.722
 9497SOL    HW129390   4.985   4.458   0.679
 9497SOL    HW229391   5.130   4.388   0.654
 9498SOL     OW29392   4.065   6.681   5.273
 9498SOL    HW129393   4.163   6.663   5.271
 9498SOL    HW229394   4.038   6.711   5.365
 9499SOL     OW29395   2.480   4.393   5.599
 9499SOL    HW129396   2.502   4.307   5.553
 9499SOL    HW229397   2.385   4.418   5.580
 9500SOL     OW29398   4.376   6.612   1.787
 9500SOL    HW129399   4.318   6.677   1.736
 9500SOL    HW229400   4.336   6.596   1.877
 9501SOL     OW29401   3.587   1.911   4.852
 9501SOL    HW129402   3.550   1.981   4.913
 9501SOL    HW229403   3.684   1.929   4.835
 9502SOL     OW29404   6.598   2.129   4.652
 9502SOL    HW129405   6.581   2.034   4.677
 9502SOL    HW229406   6.552   2.149   4.565
 9503SOL     OW29407   0.380   1.002   1.731
 9503SOL    HW129408   0.386   0.983   1.829
 9503SOL    HW229409   0.464   1.047   1.701
 9504SOL     OW29410   6.705   2.770   1.247
 9504SOL    HW129411   6.803   2.749   1.253
 9504SOL    HW229412   6.666   2.723   1.168
 9505SOL     OW29413   6.430   3.688   3.110
 9505SOL    HW129414   6.483   3.631   3.048
 9505SOL    HW229415   6.337   3.700   3.075
 9506SOL     OW29416   7.016   3.216   0.245
 9506SOL    HW129417   0.090   3.230   0.230
 9506SOL    HW229418   6.964   3.268   0.177
 9507SOL     OW29419   2.103   1.271   4.349
 9507SOL    HW129420   2.121   1.173   4.341
 9507SOL    HW229421   2.092   1.295   4.445
 9508SOL     OW29422   5.633   2.371   0.176
 9508SOL    HW129423   5.553   2.326   0.137
 9508SOL    HW229424   5.615   2.395   0.271
 9509SOL     OW29425   1.314   6.569   5.495
 9509SOL    HW129426   1.250   6.540   5.424
 9509SOL    HW229427   1.372   6.492   5.521
 9510SOL     OW29428   6.624   3.776   2.243
 9510SOL    HW129429   6.593   3.843   2.310
 9510SOL    HW229430   6.596   3.805   2.151
 9511SOL     OW29431   0.804   2.129   0.160
 9511SOL    HW129432   0.716   2.095   0.195
 9511SOL    HW229433   0.790   2.216   0.114
 9512SOL     OW29434   6.524   2.103   3.528
 9512SOL    HW129435   6.591   2.168   3.491
 9512SOL    HW229436   6.492   2.135   3.617
 9513SOL     OW29437   1.840   4.052   4.816
 9513SOL    HW129438   1.747   4.016   4.806
 9513SOL    HW229439   1.841   4.147   4.786
 9514SOL     OW29440   1.685   3.741   6.530
 9514SOL    HW129441   1.650   3.711   6.442
 9514SOL    HW229442   1.769   3.691   6.552
 9515SOL     OW29443   1.173   6.159   0.120
 9515SOL    HW129444   1.170   6.235   0.055
 9515SOL    HW229445   1.116   6.182   0.200
 9516SOL     OW29446   4.929   3.417   4.093
 9516SOL    HW129447   4.840   3.424   4.137
 9516SOL    HW229448   4.991   3.486   4.131
 9517SOL     OW29449   1.111   5.148   1.685
 9517SOL    HW129450   1.185   5.101   1.638
 9517SOL    HW229451   1.087   5.231   1.634
 9518SOL     OW29452   1.163   3.019   5.905
 9518SOL    HW129453   1.174   3.066   5.993
 9518SOL    HW229454   1.253   3.004   5.864
 9519SOL     OW29455   2.922   3.486   2.734
 9519SOL    HW129456   2.902   3.388   2.729
 9519SOL    HW229457   2.954   3.518   2.644
 9520SOL     OW29458   6.548   0.940   4.622
 9520SOL    HW129459   6.468   0.987   4.586
 9520SOL    HW229460   6.627   0.959   4.563
 9521SOL     OW29461   3.083   5.614   1.708
 9521SOL    HW129462   3.066   5.536   1.768
 9521SOL    HW229463   3.015   5.616   1.635
 9522SOL     OW29464   4.194   5.262   2.116
 9522SOL    HW129465   4.290   5.281   2.135
 9522SOL    HW229466   4.179   5.163   2.118
 9523SOL     OW29467   2.335   5.315   4.841
 9523SOL    HW129468   2.374   5.225   4.861
 9523SOL    HW229469   2.327   5.327   4.742
 9524SOL     OW29470   0.966   3.855   1.580
 9524SOL    HW129471   1.042   3.901   1.625
 9524SOL    HW229472   0.988   3.840   1.484
 9525SOL     OW29473   1.796   2.611   6.047
 9525SOL    HW129474   1.852   2.640   5.969
 9525SOL    HW229475   1.700   2.617   6.023
 9526SOL     OW29476   5.540   4.888   0.624
 9526SOL    HW129477   5.460   4.861   0.678
 9526SOL    HW229478   5.510   4.929   0.538
 9527SOL     OW29479   2.804   7.015   4.191
 9527SOL    HW129480   2.771   0.085   4.197
 9527SOL    HW229481   2.790   6.968   4.279
 9528SOL     OW29482   5.762   0.895   1.280
 9528SOL    HW129483   5.710   0.964   1.228
 9528SOL    HW229484   5.731   0.895   1.375
 9529SOL     OW29485   6.120   3.382   0.623
 9529SOL    HW129486   6.200   3.353   0.675
 9529SOL    HW229487   6.059   3.305   0.609
 9530SOL     OW29488   1.548   5.913   4.705
 9530SOL    HW129489   1.477   5.846   4.684
 9530SOL    HW229490   1.510   5.988   4.759
 9531SOL     OW29491   4.402   4.518   3.136
 9531SOL    HW129492   4.490   4.472   3.122
 9531SOL    HW229493   4.350   4.472   3.207
 9532SOL     OW29494   6.158   4.814   1.515
 9532SOL    HW129495   6.253   4.809   1.482
 9532SOL    HW229496   6.156   4.858   1.605
 9533SOL     OW29497   1.074   5.742   4.729
 9533SOL    HW129498   1.003   5.681   4.762
 9533SOL    HW229499   1.044   5.837   4.739
 9534SOL     OW29500   5.951   4.682   4.951
 9534SOL    HW129501   5.917   4.596   4.989
 9534SOL    HW229502   5.963   4.749   5.024
 9535SOL     OW29503   1.883   1.875   5.420
 9535SOL    HW129504   1.845   1.827   5.499
 9535SOL    HW229505   1.941   1.950   5.450
 9536SOL     OW29506   3.536   2.938   4.688
 9536SOL    HW129507   3.516   3.027   4.647
 9536SOL    HW229508   3.451   2.889   4.706
 9537SOL     OW29509   2.656   1.719   4.105
 9537SOL    HW129510   2.624   1.631   4.069
 9537SOL    HW229511   2.739   1.746   4.057
 9538SOL     OW29512   3.923   1.213   4.479
 9538SOL    HW129513   3.901   1.131   4.531
 9538SOL    HW229514   3.978   1.188   4.399
 9539SOL     OW29515   3.441   3.130   4.127
 9539SOL    HW129516   3.351   3.147   4.086
 9539SOL    HW229517   3.439   3.043   4.176
 9540SOL     OW29518   4.801   5.235   4.108
 9540SOL    HW129519   4.726   5.240   4.042
 9540SOL    HW229520   4.795   5.149   4.159
 9541SOL     OW29521   0.889   0.729   5.624
 9541SOL    HW129522   0.801   0.749   5.668
 9541SOL    HW229523   0.890   0.767   5.531
 9542SOL     OW29524   5.845   4.808   4.458
 9542SOL    HW129525   5.886   4.816   4.549
 9542SOL    HW229526   5.757   4.857   4.457
 9543SOL     OW29527   3.059   0.256   6.018
 9543SOL    HW129528   3.050   0.198   6.099
 9543SOL    HW229529   3.130   0.219   5.959
 9544SOL     OW29530   5.007   4.059   3.847
 9544SOL    HW129531   4.911   4.083   3.864
 9544SOL    HW229532   5.011   3.988   3.776
 9545SOL     OW29533   0.687   5.127   2.190
 9545SOL    HW129534   0.731   5.112   2.101
 9545SOL    HW229535   0.590   5.149   2.175
 9546SOL     OW29536   3.365   1.897   6.158
 9546SOL    HW129537   3.456   1.939   6.165
 9546SOL    HW229538   3.306   1.955   6.101
 9547SOL     OW29539   3.308   5.800   4.224
 9547SOL    HW129540   3.344   5.709   4.201
 9547SOL    HW229541   3.260   5.795   4.311
 9548SOL     OW29542   0.980   5.407   5.477
 9548SOL    HW129543   0.932   5.444   5.397
 9548SOL    HW229544   0.959   5.309   5.486
 9549SOL     OW29545   3.469   0.694   2.694
 9549SOL    HW129546   3.400   0.692   2.622
 9549SOL    HW229547   3.489   0.600   2.724
 9550SOL     OW29548   6.168   2.500   0.732
 9550SOL    HW129549   6.239   2.439   0.766
 9550SOL    HW229550   6.134   2.466   0.645
 9551SOL     OW29551   6.037   3.134   5.937
 9551SOL    HW129552   5.954   3.107   5.986
 9551SOL    HW229553   6.118   3.106   5.989
 9552SOL     OW29554   2.218   0.449   5.959
 9552SOL    HW129555   2.161   0.416   5.883
 9552SOL    HW229556   2.282   0.378   5.986
 9553SOL     OW29557   5.607   2.002   0.353
 9553SOL    HW129558   5.588   1.904   0.343
 9553SOL    HW229559   5.636   2.040   0.265
 9554SOL     OW29560   2.249   6.485   3.547
 9554SOL    HW129561   2.267   6.574   3.505
 9554SOL    HW229562   2.333   6.451   3.590
 9555SOL     OW29563   6.945   1.484   3.606
 9555SOL    HW129564   6.892   1.513   3.526
 9555SOL    HW229565   7.010   1.556   3.630
 9556SOL     OW29566   1.465   4.885   1.408
 9556SOL    HW129567   1.525   4.937   1.347
 9556SOL    HW229568   1.398   4.834   1.353
 9557SOL     OW29569   5.046   6.889   1.509
 9557SOL    HW129570   4.956   6.909   1.470
 9557SOL    HW229571   5.065   6.953   1.583
 9558SOL     OW29572   5.650   6.538   5.287
 9558SOL    HW129573   5.677   6.469   5.354
 9558SOL    HW229574   5.671   6.629   5.322
 9559SOL     OW29575   1.160   3.633   0.163
 9559SOL    HW129576   1.121   3.725   0.155
 9559SOL    HW229577   1.258   3.640   0.182
 9560SOL     OW29578   2.815   0.982   2.485
 9560SOL    HW129579   2.863   0.985   2.398
 9560SOL    HW229580   2.727   1.030   2.476
 9561SOL     OW29581   0.334   0.845   1.520
 9561SOL    HW129582   0.356   0.909   1.593
 9561SOL    HW229583   0.394   0.861   1.442
 9562SOL     OW29584   2.942   6.422   4.320
 9562SOL    HW129585   3.025   6.392   4.273
 9562SOL    HW229586   2.966   6.455   4.411
 9563SOL     OW29587   0.322   6.430   0.632
 9563SOL    HW129588   0.305   6.513   0.684
 9563SOL    HW229589   0.420   6.409   0.634
 9564SOL     OW29590   1.762   1.642   1.286
 9564SOL    HW129591   1.701   1.677   1.358
 9564SOL    HW229592   1.709   1.589   1.220
 9565SOL     OW29593   3.554   1.360   4.752
 9565SOL    HW129594   3.501   1.363   4.667
 9565SOL    HW229595   3.499   1.397   4.827
 9566SOL     OW29596   2.365   6.404   0.277
 9566SOL    HW129597   2.355   6.318   0.228
 9566SOL    HW229598   2.351   6.389   0.374
 9567SOL     OW29599   5.902   4.171   0.348
 9567SOL    HW129600   5.963   4.160   0.426
 9567SOL    HW229601   5.941   4.124   0.269
 9568SOL     OW29602   4.247   1.217   0.600
 9568SOL    HW129603   4.258   1.130   0.553
 9568SOL    HW229604   4.165   1.263   0.564
 9569SOL     OW29605   0.123   0.759   2.210
 9569SOL    HW129606   0.151   0.696   2.138
 9569SOL    HW229607   0.141   0.717   2.300
 9570SOL     OW29608   0.737   2.995   0.994
 9570SOL    HW129609   0.732   3.005   1.093
 9570SOL    HW229610   0.646   3.008   0.954
 9571SOL     OW29611   2.266   2.579   5.909
 9571SOL    HW129612   2.204   2.506   5.940
 9571SOL    HW229613   2.296   2.561   5.816
 9572SOL     OW29614   2.497   4.822   2.816
 9572SOL    HW129615   2.461   4.901   2.766
 9572SOL    HW229616   2.439   4.742   2.798
 9573SOL     OW29617   6.901   1.276   5.572
 9573SOL    HW129618   6.851   1.293   5.657
 9573SOL    HW229619   7.000   1.279   5.590
 9574SOL     OW29620   3.558   2.810   2.010
 9574SOL    HW129621   3.602   2.764   1.933
 9574SOL    HW229622   3.628   2.841   2.074
 9575SOL     OW29623   6.421   0.886   1.959
 9575SOL    HW129624   6.490   0.824   1.920
 9575SOL    HW229625   6.466   0.965   2.000
 9576SOL     OW29626   1.663   2.200   6.981
 9576SOL    HW129627   1.759   2.170   6.973
 9576SOL    HW229628   1.604   2.131   6.939
 9577SOL     OW29629   0.038   5.918   6.717
 9577SOL    HW129630   6.976   5.959   6.748
 9577SOL    HW229631   0.097   5.989   6.680
 9578SOL     OW29632   1.478   2.553   2.798
 9578SOL    HW129633   1.384   2.586   2.812
 9578SOL    HW229634   1.502   2.490   2.872
 9579SOL     OW29635   6.547   6.028   2.571
 9579SOL    HW129636   6.574   5.936   2.541
 9579SOL    HW229637   6.520   6.083   2.493
 9580SOL     OW29638   5.134   3.603   1.105
 9580SOL    HW129639   5.171   3.612   1.012
 9580SOL    HW229640   5.208   3.614   1.171
 9581SOL     OW29641   0.520   0.254   6.313
 9581SOL    HW129642   0.515   0.174   6.372
 9581SOL    HW229643   0.527   0.337   6.369
 9582SOL     OW29644   3.797   5.466   4.842
 9582SOL    HW129645   3.829   5.391   4.784
 9582SOL    HW229646   3.709   5.441   4.883
 9583SOL     OW29647   3.012   4.218   1.140
 9583SOL    HW129648   3.048   4.287   1.204
 9583SOL    HW229649   2.912   4.221   1.141
 9584SOL     OW29650   1.444   5.108   5.825
 9584SOL    HW129651   1.495   5.180   5.778
 9584SOL    HW229652   1.432   5.030   5.763
 9585SOL     OW29653   5.490   6.403   2.404
 9585SOL    HW129654   5.549   6.377   2.480
 9585SOL    HW229655   5.395   6.381   2.427
 9586SOL     OW29656   4.466   5.255   2.159
 9586SOL    HW129657   4.448   5.315   2.237
 9586SOL    HW229658   4.531   5.184   2.186
 9587SOL     OW29659   1.094   6.602   2.643
 9587SOL    HW129660   1.021   6.537   2.664
 9587SOL    HW229661   1.178   6.553   2.622
 9588SOL     OW29662   6.197   6.121   0.521
 9588SOL    HW129663   6.225   6.213   0.547
 9588SOL    HW229664   6.273   6.057   0.536
 9589SOL     OW29665   1.663   3.996   6.905
 9589SOL    HW129666   1.643   4.094   6.906
 9589SOL    HW229667   1.672   3.964   6.811
 9590SOL     OW29668   6.238   2.443   1.687
 9590SOL    HW129669   6.258   2.420   1.592
 9590SOL    HW229670   6.310   2.407   1.746
 9591SOL     OW29671   4.067   5.658   6.109
 9591SOL    HW129672   4.126   5.733   6.079
 9591SOL    HW229673   4.123   5.588   6.153
 9592SOL     OW29674   3.285   5.282   1.141
 9592SOL    HW129675   3.302   5.255   1.236
 9592SOL    HW229676   3.290   5.382   1.133
 9593SOL     OW29677   1.048   1.888   5.506
 9593SOL    HW129678   1.011   1.971   5.548
 9593SOL    HW229679   1.106   1.912   5.429
 9594SOL     OW29680   2.454   6.327   4.692
 9594SOL    HW129681   2.554   6.323   4.702
 9594SOL    HW229682   2.427   6.278   4.609
 9595SOL     OW29683   0.583   2.705   3.687
 9595SOL    HW129684   0.625   2.710   3.778
 9595SOL    HW229685   0.653   2.686   3.619
 9596SOL     OW29686   0.900   4.934   0.555
 9596SOL    HW129687   0.837   4.857   0.562
 9596SOL    HW229688   0.955   4.926   0.472
 9597SOL     OW29689   0.129   4.282   1.362
 9597SOL    HW129690   0.206   4.275   1.426
 9597SOL    HW229691   0.061   4.212   1.383
 9598SOL     OW29692   2.131   4.021   3.469
 9598SOL    HW129693   2.037   4.042   3.494
 9598SOL    HW229694   2.148   3.923   3.481
 9599SOL     OW29695   3.175   0.230   4.279
 9599SOL    HW129696   3.235   0.222   4.359
 9599SOL    HW229697   3.086   0.265   4.307
 9600SOL     OW29698   2.796   0.142   0.083
 9600SOL    HW129699   2.849   0.187   0.012
 9600SOL    HW229700   2.781   0.205   0.159
 9601SOL     OW29701   5.660   4.391   0.047
 9601SOL    HW129702   5.708   4.304   0.059
 9601SOL    HW229703   5.617   4.417   0.134
 9602SOL     OW29704   4.744   3.731   5.519
 9602SOL    HW129705   4.713   3.822   5.546
 9602SOL    HW229706   4.726   3.666   5.593
 9603SOL     OW29707   5.185   6.839   6.572
 9603SOL    HW129708   5.126   6.758   6.573
 9603SOL    HW229709   5.186   6.880   6.663
 9604SOL     OW29710   5.199   6.642   1.503
 9604SOL    HW129711   5.167   6.664   1.411
 9604SOL    HW229712   5.188   6.722   1.562
 9605SOL     OW29713   0.901   5.501   2.772
 9605SOL    HW129714   0.809   5.528   2.743
 9605SOL    HW229715   0.903   5.491   2.871
 9606SOL     OW29716   1.378   6.683   6.532
 9606SOL    HW129717   1.337   6.629   6.606
 9606SOL    HW229718   1.365   6.780   6.552
 9607SOL     OW29719   3.015   1.022   0.227
 9607SOL    HW129720   2.993   1.119   0.221
 9607SOL    HW229721   3.105   1.010   0.269
 9608SOL     OW29722   0.167   4.772   1.877
 9608SOL    HW129723   0.214   4.856   1.849
 9608SOL    HW229724   0.101   4.747   1.807
 9609SOL     OW29725   3.918   3.043   0.249
 9609SOL    HW129726   3.882   3.028   0.342
 9609SOL    HW229727   3.970   3.129   0.248
 9610SOL     OW29728   1.632   4.624   3.450
 9610SOL    HW129729   1.625   4.612   3.351
 9610SOL    HW229730   1.562   4.688   3.482
 9611SOL     OW29731   1.408   5.932   0.631
 9611SOL    HW129732   1.408   6.030   0.611
 9611SOL    HW229733   1.372   5.918   0.724
 9612SOL     OW29734   0.622   3.012   1.909
 9612SOL    HW129735   0.661   3.101   1.885
 9612SOL    HW229736   0.694   2.953   1.945
 9613SOL     OW29737   5.338   6.667   3.911
 9613SOL    HW129738   5.323   6.631   3.819
 9613SOL    HW229739   5.270   6.628   3.974
 9614SOL     OW29740   3.678   2.021   1.838
 9614SOL    HW129741   3.645   2.063   1.753
 9614SOL    HW229742   3.684   2.092   1.909
 9615SOL     OW29743   2.240   1.314   1.308
 9615SOL    HW129744   2.331   1.291   1.342
 9615SOL    HW229745   2.201   1.386   1.366
 9616SOL     OW29746   3.528   3.872   0.894
 9616SOL    HW129747   3.525   3.775   0.918
 9616SOL    HW229748   3.623   3.901   0.882
 9617SOL     OW29749   1.796   3.141   3.445
 9617SOL    HW129750   1.842   3.150   3.356
 9617SOL    HW229751   1.716   3.202   3.447
 9618SOL     OW29752   2.478   0.188   0.793
 9618SOL    HW129753   2.545   0.129   0.840
 9618SOL    HW229754   2.521   0.228   0.712
 9619SOL     OW29755   1.732   0.118   5.673
 9619SOL    HW129756   1.733   0.083   5.579
 9619SOL    HW229757   1.695   0.211   5.674
 9620SOL     OW29758   4.440   6.922   5.347
 9620SOL    HW129759   4.408   6.827   5.343
 9620SOL    HW229760   4.384   6.974   5.410
 9621SOL     OW29761   1.926   3.155   1.832
 9621SOL    HW129762   1.851   3.090   1.836
 9621SOL    HW229763   1.890   3.248   1.825
 9622SOL     OW29764   6.344   1.584   0.522
 9622SOL    HW129765   6.307   1.496   0.491
 9622SOL    HW229766   6.329   1.653   0.452
 9623SOL     OW29767   2.723   3.550   5.744
 9623SOL    HW129768   2.762   3.499   5.668
 9623SOL    HW229769   2.633   3.584   5.719
 9624SOL     OW29770   5.953   4.091   2.953
 9624SOL    HW129771   5.913   4.009   2.911
 9624SOL    HW229772   5.954   4.080   3.052
 9625SOL     OW29773   5.353   5.338   6.819
 9625SOL    HW129774   5.366   5.398   6.898
 9625SOL    HW229775   5.412   5.258   6.827
 9626SOL     OW29776   4.365   5.187   0.666
 9626SOL    HW129777   4.328   5.133   0.590
 9626SOL    HW229778   4.456   5.220   0.641
 9627SOL     OW29779   0.719   6.007   6.336
 9627SOL    HW129780   0.665   5.939   6.385
 9627SOL    HW229781   0.783   6.051   6.399
 9628SOL     OW29782   5.458   4.717   0.971
 9628SOL    HW129783   5.482   4.656   0.896
 9628SOL    HW229784   5.533   4.721   1.037
 9629SOL     OW29785   1.821   0.412   0.942
 9629SOL    HW129786   1.822   0.471   0.861
 9629SOL    HW229787   1.782   0.462   1.019
 9630SOL     OW29788   6.222   6.819   4.537
 9630SOL    HW129789   6.128   6.848   4.520
 9630SOL    HW229790   6.224   6.757   4.616
 9631SOL     OW29791   6.971   6.284   6.407
 9631SOL    HW129792   6.888   6.242   6.370
 9631SOL    HW229793   0.018   6.284   6.337
 9632SOL     OW29794   1.628   6.621   2.960
 9632SOL    HW129795   1.664   6.633   2.867
 9632SOL    HW229796   1.658   6.697   3.017
 9633SOL     OW29797   5.021   5.007   6.598
 9633SOL    HW129798   5.025   4.921   6.649
 9633SOL    HW229799   4.957   4.998   6.522
 9634SOL     OW29800   1.359   6.406   3.900
 9634SOL    HW129801   1.392   6.367   3.814
 9634SOL    HW229802   1.436   6.446   3.951
 9635SOL     OW29803   2.063   6.422   4.968
 9635SOL    HW129804   2.099   6.347   4.913
 9635SOL    HW229805   2.030   6.386   5.056
 9636SOL     OW29806   3.972   1.220   5.637
 9636SOL    HW129807   3.946   1.123   5.638
 9636SOL    HW229808   3.918   1.268   5.567
 9637SOL     OW29809   2.571   2.546   0.108
 9637SOL    HW129810   2.483   2.513   0.142
 9637SOL    HW229811   2.567   2.646   0.100
 9638SOL     OW29812   0.093   3.263   6.007
 9638SOL    HW129813   0.045   3.180   5.977
 9638SOL    HW229814   0.191   3.251   5.992
 9639SOL     OW29815   4.026   1.734   2.068
 9639SOL    HW129816   4.125   1.746   2.070
 9639SOL    HW229817   3.987   1.784   1.991
 9640SOL     OW29818   2.097   3.001   3.889
 9640SOL    HW129819   2.149   3.081   3.919
 9640SOL    HW229820   2.060   3.018   3.798
 9641SOL     OW29821   4.650   0.169   0.392
 9641SOL    HW129822   4.748   0.183   0.379
 9641SOL    HW229823   4.607   0.147   0.304
 9642SOL     OW29824   2.919   7.017   4.948
 9642SOL    HW129825   2.928   0.092   4.963
 9642SOL    HW229826   2.824   6.990   4.962
 9643SOL     OW29827   5.607   4.333   3.584
 9643SOL    HW129828   5.622   4.240   3.551
 9643SOL    HW229829   5.531   4.374   3.534
 9644SOL     OW29830   0.677   3.737   6.249
 9644SOL    HW129831   0.762   3.784   6.230
 9644SOL    HW229832   0.651   3.752   6.345
 9645SOL     OW29833   2.447   5.060   4.847
 9645SOL    HW129834   2.499   5.028   4.926
 9645SOL    HW229835   2.491   5.027   4.763
 9646SOL     OW29836   3.699   5.034   2.804
 9646SOL    HW129837   3.761   5.016   2.728
 9646SOL    HW229838   3.701   4.957   2.868
 9647SOL     OW29839   6.348   4.205   1.132
 9647SOL    HW129840   6.382   4.246   1.047
 9647SOL    HW229841   6.251   4.182   1.120
 9648SOL     OW29842   4.328   1.396   1.123
 9648SOL    HW129843   4.376   1.412   1.037
 9648SOL    HW229844   4.233   1.368   1.104
 9649SOL     OW29845   2.565   7.014   0.119
 9649SOL    HW129846   2.651   0.040   0.111
 9649SOL    HW229847   2.515   0.021   0.200
 9650SOL     OW29848   6.882   5.256   2.443
 9650SOL    HW129849   6.806   5.196   2.466
 9650SOL    HW229850   6.965   5.202   2.430
 9651SOL     OW29851   0.209   1.872   5.772
 9651SOL    HW129852   0.116   1.845   5.745
 9651SOL    HW229853   0.209   1.969   5.798
 9652SOL     OW29854   1.212   4.927   1.156
 9652SOL    HW129855   1.193   5.025   1.150
 9652SOL    HW229856   1.142   4.876   1.106
 9653SOL     OW29857   4.088   4.866   5.226
 9653SOL    HW129858   4.107   4.962   5.203
 9653SOL    HW229859   3.990   4.850   5.225
 9654SOL     OW29860   2.742   2.008   1.578
 9654SOL    HW129861   2.744   1.984   1.481
 9654SOL    HW229862   2.674   2.080   1.593
 9655SOL     OW29863   6.875   1.792   6.369
 9655SOL    HW129864   6.972   1.768   6.378
 9655SOL    HW229865   6.839   1.822   6.458
 9656SOL     OW29866   2.544   0.739   3.074
 9656SOL    HW129867   2.484   0.693   3.139
 9656SOL    HW229868   2.519   0.836   3.069
 9657SOL     OW29869   5.348   0.990   4.213
 9657SOL    HW129870   5.385   0.982   4.120
 9657SOL    HW229871   5.419   0.967   4.279
 9658SOL     OW29872   0.015   1.987   2.640
 9658SOL    HW129873   0.041   1.890   2.637
 9658SOL    HW229874   6.995   2.006   2.728
 9659SOL     OW29875   6.899   4.156   0.064
 9659SOL    HW129876   6.928   4.190   0.153
 9659SOL    HW229877   6.977   4.114   0.017
 9660SOL     OW29878   0.601   6.142   1.044
 9660SOL    HW129879   0.527   6.128   1.110
 9660SOL    HW229880   0.641   6.232   1.058
 9661SOL     OW29881   4.596   5.927   0.985
 9661SOL    HW129882   4.623   6.002   0.925
 9661SOL    HW229883   4.546   5.963   1.063
 9662SOL     OW29884   6.102   2.883   4.620
 9662SOL    HW129885   6.139   2.976   4.624
 9662SOL    HW229886   6.041   2.868   4.698
 9663SOL     OW29887   1.458   5.432   4.008
 9663SOL    HW129888   1.512   5.499   3.958
 9663SOL    HW229889   1.361   5.445   3.988
 9664SOL     OW29890   4.413   6.575   2.770
 9664SOL    HW129891   4.471   6.593   2.691
 9664SOL    HW229892   4.451   6.621   2.850
 9665SOL     OW29893   5.981   4.679   5.614
 9665SOL    HW129894   5.923   4.638   5.685
 9665SOL    HW229895   5.928   4.691   5.530
 9666SOL     OW29896   5.971   4.296   0.873
 9666SOL    HW129897   6.046   4.291   0.807
 9666SOL    HW229898   6.003   4.343   0.956
 9667SOL     OW29899   4.142   3.529   4.050
 9667SOL    HW129900   4.219   3.469   4.029
 9667SOL    HW229901   4.103   3.565   3.965
 9668SOL     OW29902   6.743   1.554   5.355
 9668SOL    HW129903   6.823   1.514   5.310
 9668SOL    HW229904   6.682   1.481   5.386
 9669SOL     OW29905   0.503   1.102   0.811
 9669SOL    HW129906   0.476   1.189   0.771
 9669SOL    HW229907   0.520   1.036   0.738
 9670SOL     OW29908   4.338   4.456   5.947
 9670SOL    HW129909   4.405   4.509   5.895
 9670SOL    HW229910   4.279   4.518   5.999
 9671SOL     OW29911   6.803   5.266   6.185
 9671SOL    HW129912   6.792   5.197   6.113
 9671SOL    HW229913   6.717   5.274   6.236
 9672SOL     OW29914   1.147   6.528   5.242
 9672SOL    HW129915   1.103   6.618   5.248
 9672SOL    HW229916   1.201   6.523   5.158
 9673SOL     OW29917   3.730   5.034   6.885
 9673SOL    HW129918   3.742   5.088   6.802
 9673SOL    HW229919   3.763   4.941   6.870
 9674SOL     OW29920   2.552   6.383   2.154
 9674SOL    HW129921   2.509   6.437   2.226
 9674SOL    HW229922   2.622   6.324   2.194
 9675SOL     OW29923   6.013   0.546   2.236
 9675SOL    HW129924   5.964   0.540   2.149
 9675SOL    HW229925   6.112   0.547   2.219
 9676SOL     OW29926   1.538   3.621   5.865
 9676SOL    HW129927   1.536   3.563   5.783
 9676SOL    HW229928   1.629   3.619   5.905
 9677SOL     OW29929   2.171   4.165   5.686
 9677SOL    HW129930   2.134   4.258   5.695
 9677SOL    HW229931   2.186   4.126   5.777
 9678SOL     OW29932   3.682   3.756   2.847
 9678SOL    HW129933   3.773   3.731   2.813
 9678SOL    HW229934   3.654   3.692   2.918
 9679SOL     OW29935   0.872   2.838   2.232
 9679SOL    HW129936   0.929   2.921   2.228
 9679SOL    HW229937   0.931   2.757   2.232
 9680SOL     OW29938   5.851   6.549   3.645
 9680SOL    HW129939   5.838   6.609   3.724
 9680SOL    HW229940   5.884   6.460   3.676
 9681SOL     OW29941   2.072   0.896   1.287
 9681SOL    HW129942   2.091   0.994   1.278
 9681SOL    HW229943   2.052   0.875   1.383
 9682SOL     OW29944   4.865   5.122   3.322
 9682SOL    HW129945   4.779   5.167   3.297
 9682SOL    HW229946   4.872   5.034   3.274
 9683SOL     OW29947   4.033   5.461   0.484
 9683SOL    HW129948   4.133   5.467   0.473
 9683SOL    HW229949   4.007   5.365   0.499
 9684SOL     OW29950   0.180   3.600   4.810
 9684SOL    HW129951   0.177   3.685   4.757
 9684SOL    HW229952   0.252   3.608   4.880
 9685SOL     OW29953   2.586   2.889   1.153
 9685SOL    HW129954   2.679   2.914   1.179
 9685SOL    HW229955   2.553   2.816   1.213
 9686SOL     OW29956   6.988   1.307   1.067
 9686SOL    HW129957   6.945   1.386   1.023
 9686SOL    HW229958   6.950   1.297   1.159
 9687SOL     OW29959   2.005   0.937   3.181
 9687SOL    HW129960   1.944   1.010   3.213
 9687SOL    HW229961   1.974   0.849   3.218
 9688SOL     OW29962   6.980   2.330   2.797
 9688SOL    HW129963   0.001   2.409   2.839
 9688SOL    HW229964   6.895   2.359   2.754
 9689SOL     OW29965   1.802   6.957   0.449
 9689SOL    HW129966   1.845   6.912   0.371
 9689SOL    HW229967   1.791   0.031   0.430
 9690SOL     OW29968   6.070   4.719   7.009
 9690SOL    HW129969   6.059   4.802   6.955
 9690SOL    HW229970   6.069   4.639   6.949
 9691SOL     OW29971   2.126   5.088   2.083
 9691SOL    HW129972   2.074   5.158   2.131
 9691SOL    HW229973   2.134   5.112   1.987
 9692SOL     OW29974   2.588   5.014   2.343
 9692SOL    HW129975   2.654   4.962   2.289
 9692SOL    HW229976   2.631   5.099   2.374
 9693SOL     OW29977   6.726   5.730   2.122
 9693SOL    HW129978   6.791   5.730   2.046
 9693SOL    HW229979   6.644   5.679   2.095
 9694SOL     OW29980   2.183   2.115   6.785
 9694SOL    HW129981   2.219   2.030   6.822
 9694SOL    HW229982   2.198   2.117   6.686
 9695SOL     OW29983   5.882   4.415   0.489
 9695SOL    HW129984   5.884   4.341   0.423
 9695SOL    HW229985   5.940   4.490   0.458
 9696SOL     OW29986   3.843   2.670   1.443
 9696SOL    HW129987   3.784   2.589   1.439
 9696SOL    HW229988   3.878   2.681   1.535
 9697SOL     OW29989   0.786   4.785   6.941
 9697SOL    HW129990   0.843   4.704   6.926
 9697SOL    HW229991   0.779   4.802   0.015
 9698SOL     OW29992   5.925   0.545   4.758
 9698SOL    HW129993   5.888   0.623   4.809
 9698SOL    HW229994   5.898   0.552   4.662
 9699SOL     OW29995   0.749   3.975   5.825
 9699SOL    HW129996   0.779   4.067   5.801
 9699SOL    HW229997   0.703   3.932   5.747
 9700SOL     OW29998   3.532   4.805   5.235
 9700SOL    HW129999   3.617   4.857   5.239
 9700SOL    HW230000   3.542   4.720   5.287
 9701SOL     OW30001   3.805   5.904   5.476
 9701SOL    HW130002   3.889   5.905   5.421
 9701SOL    HW230003   3.825   5.941   5.567
 9702SOL     OW30004   5.429   1.281   0.487
 9702SOL    HW130005   5.429   1.181   0.484
 9702SOL    HW230006   5.338   1.315   0.465
 9703SOL     OW30007   3.056   6.062   4.462
 9703SOL    HW130008   3.094   5.970   4.466
 9703SOL    HW230009   3.098   6.112   4.386
 9704SOL     OW30010   3.250   6.910   2.977
 9704SOL    HW130011   3.208   6.914   2.886
 9704SOL    HW230012   3.347   6.932   2.969
 9705SOL     OW30013   4.280   5.051   0.449
 9705SOL    HW130014   4.323   4.965   0.422
 9705SOL    HW230015   4.227   5.087   0.373
 9706SOL     OW30016   6.737   2.288   0.881
 9706SOL    HW130017   6.670   2.330   0.942
 9706SOL    HW230018   6.727   2.325   0.789
 9707SOL     OW30019   1.010   4.182   1.831
 9707SOL    HW130020   1.047   4.090   1.843
 9707SOL    HW230021   1.001   4.201   1.733
 9708SOL     OW30022   1.971   2.632   3.871
 9708SOL    HW130023   2.000   2.541   3.900
 9708SOL    HW230024   1.956   2.690   3.951
 9709SOL     OW30025   0.921   6.254   3.832
 9709SOL    HW130026   0.943   6.350   3.849
 9709SOL    HW230027   0.984   6.218   3.763
 9710SOL     OW30028   0.144   0.813   2.615
 9710SOL    HW130029   0.118   0.734   2.561
 9710SOL    HW230030   0.081   0.889   2.597
 9711SOL     OW30031   1.547   3.105   6.016
 9711SOL    HW130032   1.489   3.026   6.035
 9711SOL    HW230033   1.513   3.151   5.933
 9712SOL     OW30034   5.410   2.341   4.768
 9712SOL    HW130035   5.491   2.352   4.712
 9712SOL    HW230036   5.352   2.423   4.760
 9713SOL     OW30037   0.307   4.397   2.891
 9713SOL    HW130038   0.327   4.493   2.906
 9713SOL    HW230039   0.378   4.341   2.934
 9714SOL     OW30040   2.171   1.359   1.594
 9714SOL    HW130041   2.238   1.353   1.668
 9714SOL    HW230042   2.125   1.447   1.599
 9715SOL     OW30043   6.196   5.468   4.793
 9715SOL    HW130044   6.239   5.389   4.837
 9715SOL    HW230045   6.265   5.538   4.776
 9716SOL     OW30046   3.673   1.924   6.590
 9716SOL    HW130047   3.685   1.868   6.508
 9716SOL    HW230048   3.600   1.991   6.574
 9717SOL     OW30049   5.075   5.823   4.340
 9717SOL    HW130050   5.134   5.824   4.259
 9717SOL    HW230051   5.131   5.819   4.422
 9718SOL     OW30052   4.232   2.697   1.200
 9718SOL    HW130053   4.225   2.765   1.272
 9718SOL    HW230054   4.327   2.687   1.172
 9719SOL     OW30055   0.850   2.423   0.586
 9719SOL    HW130056   0.884   2.394   0.496
 9719SOL    HW230057   0.779   2.493   0.573
 9720SOL     OW30058   0.435   6.208   1.957
 9720SOL    HW130059   0.533   6.218   1.970
 9720SOL    HW230060   0.401   6.283   1.900
 9721SOL     OW30061   0.769   3.334   2.172
 9721SOL    HW130062   0.672   3.322   2.194
 9721SOL    HW230063   0.800   3.424   2.203
 9722SOL     OW30064   0.567   0.709   3.698
 9722SOL    HW130065   0.666   0.714   3.710
 9722SOL    HW230066   0.541   0.755   3.613
 9723SOL     OW30067   1.004   6.167   2.821
 9723SOL    HW130068   0.945   6.240   2.784
 9723SOL    HW230069   1.081   6.208   2.870
 9724SOL     OW30070   2.888   2.677   1.698
 9724SOL    HW130071   2.791   2.691   1.719
 9724SOL    HW230072   2.921   2.595   1.746
 9725SOL     OW30073   4.090   3.564   6.462
 9725SOL    HW130074   4.166   3.626   6.484
 9725SOL    HW230075   4.089   3.546   6.364
 9726SOL     OW30076   5.485   6.847   4.635
 9726SOL    HW130077   5.455   6.871   4.727
 9726SOL    HW230078   5.465   6.923   4.573
 9727SOL     OW30079   1.238   3.854   5.568
 9727SOL    HW130080   1.243   3.809   5.657
 9727SOL    HW230081   1.306   3.815   5.506
 9728SOL     OW30082   1.608   6.619   6.414
 9728SOL    HW130083   1.650   6.709   6.426
 9728SOL    HW230084   1.510   6.625   6.434
 9729SOL     OW30085   1.309   4.716   3.264
 9729SOL    HW130086   1.235   4.718   3.331
 9729SOL    HW230087   1.358   4.803   3.265
 9730SOL     OW30088   6.764   3.518   2.586
 9730SOL    HW130089   6.856   3.556   2.582
 9730SOL    HW230090   6.765   3.434   2.641
 9731SOL     OW30091   4.066   5.082   0.747
 9731SOL    HW130092   4.128   5.008   0.721
 9731SOL    HW230093   4.005   5.050   0.820
 9732SOL     OW30094   6.761   6.161   2.665
 9732SOL    HW130095   6.739   6.258   2.679
 9732SOL    HW230096   6.682   6.114   2.626
 9733SOL     OW30097   6.075   5.010   4.414
 9733SOL    HW130098   6.051   5.094   4.365
 9733SOL    HW230099   6.006   4.940   4.396
 9734SOL     OW30100   5.791   1.734   4.050
 9734SOL    HW130101   5.795   1.793   4.131
 9734SOL    HW230102   5.848   1.653   4.064
 9735SOL     OW30103   2.209   5.067   3.084
 9735SOL    HW130104   2.169   4.976   3.094
 9735SOL    HW230105   2.292   5.062   3.028
 9736SOL     OW30106   5.194   1.005   6.813
 9736SOL    HW130107   5.139   0.944   6.870
 9736SOL    HW230108   5.224   0.957   6.731
 9737SOL     OW30109   4.196   2.198   4.580
 9737SOL    HW130110   4.105   2.195   4.621
 9737SOL    HW230111   4.260   2.236   4.646
 9738SOL     OW30112   1.313   0.659   3.008
 9738SOL    HW130113   1.324   0.720   3.087
 9738SOL    HW230114   1.390   0.595   3.005
 9739SOL     OW30115   0.125   4.996   1.625
 9739SOL    HW130116   0.122   4.918   1.562
 9739SOL    HW230117   0.033   5.036   1.631
 9740SOL     OW30118   5.817   3.856   2.887
 9740SOL    HW130119   5.818   3.775   2.828
 9740SOL    HW230120   5.821   3.827   2.983
 9741SOL     OW30121   4.680   1.494   2.909
 9741SOL    HW130122   4.708   1.459   2.999
 9741SOL    HW230123   4.686   1.421   2.841
 9742SOL     OW30124   5.120   0.121   3.424
 9742SOL    HW130125   5.056   0.078   3.360
 9742SOL    HW230126   5.142   0.213   3.392
 9743SOL     OW30127   2.014   2.912   6.034
 9743SOL    HW130128   1.959   2.876   6.109
 9743SOL    HW230129   2.111   2.896   6.053
 9744SOL     OW30130   1.524   0.703   2.228
 9744SOL    HW130131   1.612   0.731   2.266
 9744SOL    HW230132   1.467   0.783   2.212
 9745SOL     OW30133   0.670   2.373   5.160
 9745SOL    HW130134   0.715   2.294   5.119
 9745SOL    HW230135   0.595   2.341   5.219
 9746SOL     OW30136   5.663   1.021   5.345
 9746SOL    HW130137   5.568   1.031   5.375
 9746SOL    HW230138   5.723   1.074   5.406
 9747SOL     OW30139   1.380   1.435   1.183
 9747SOL    HW130140   1.328   1.350   1.190
 9747SOL    HW230141   1.390   1.460   1.087
 9748SOL     OW30142   1.293   6.119   5.275
 9748SOL    HW130143   1.292   6.169   5.188
 9748SOL    HW230144   1.202   6.081   5.292
 9749SOL     OW30145   1.194   2.985   5.437
 9749SOL    HW130146   1.276   2.941   5.400
 9749SOL    HW230147   1.219   3.068   5.486
 9750SOL     OW30148   5.381   4.839   3.509
 9750SOL    HW130149   5.419   4.879   3.425
 9750SOL    HW230150   5.428   4.878   3.588
 9751SOL     OW30151   1.860   2.097   0.766
 9751SOL    HW130152   1.898   2.006   0.780
 9751SOL    HW230153   1.760   2.092   0.767
 9752SOL     OW30154   4.653   0.528   6.158
 9752SOL    HW130155   4.661   0.448   6.099
 9752SOL    HW230156   4.572   0.581   6.132
 9753SOL     OW30157   6.611   6.278   4.913
 9753SOL    HW130158   6.548   6.352   4.937
 9753SOL    HW230159   6.698   6.316   4.881
 9754SOL     OW30160   1.560   1.742   7.001
 9754SOL    HW130161   1.502   1.778   0.050
 9754SOL    HW230162   1.503   1.708   6.926
 9755SOL     OW30163   4.221   3.496   4.936
 9755SOL    HW130164   4.308   3.472   4.894
 9755SOL    HW230165   4.146   3.460   4.880
 9756SOL     OW30166   5.779   2.713   6.846
 9756SOL    HW130167   5.726   2.791   6.877
 9756SOL    HW230168   5.810   2.660   6.925
 9757SOL     OW30169   5.291   3.063   3.605
 9757SOL    HW130170   5.256   3.149   3.641
 9757SOL    HW230171   5.328   3.008   3.680
 9758SOL     OW30172   1.981   0.225   5.474
 9758SOL    HW130173   2.067   0.177   5.491
 9758SOL    HW230174   1.967   0.234   5.375
 9759SOL     OW30175   1.899   6.764   1.200
 9759SOL    HW130176   1.894   6.750   1.101
 9759SOL    HW230177   1.823   6.822   1.229
 9760SOL     OW30178   5.564   4.625   4.796
 9760SOL    HW130179   5.620   4.548   4.766
 9760SOL    HW230180   5.532   4.609   4.889
 9761SOL     OW30181   5.804   5.077   1.482
 9761SOL    HW130182   5.815   5.011   1.556
 9761SOL    HW230183   5.725   5.052   1.426
 9762SOL     OW30184   2.147   1.989   4.373
 9762SOL    HW130185   2.207   2.059   4.413
 9762SOL    HW230186   2.122   2.016   4.280
 9763SOL     OW30187   4.610   1.422   1.576
 9763SOL    HW130188   4.538   1.447   1.511
 9763SOL    HW230189   4.611   1.323   1.588
 9764SOL     OW30190   1.499   2.684   3.695
 9764SOL    HW130191   1.400   2.696   3.682
 9764SOL    HW230192   1.539   2.771   3.723
 9765SOL     OW30193   6.981   1.857   5.295
 9765SOL    HW130194   6.939   1.780   5.344
 9765SOL    HW230195   6.913   1.930   5.284
 9766SOL     OW30196   3.088   0.760   3.346
 9766SOL    HW130197   3.145   0.840   3.369
 9766SOL    HW230198   3.065   0.762   3.249
 9767SOL     OW30199   5.356   1.372   5.002
 9767SOL    HW130200   5.314   1.430   4.933
 9767SOL    HW230201   5.328   1.403   5.093
 9768SOL     OW30202   4.627   2.083   2.756
 9768SOL    HW130203   4.564   2.078   2.834
 9768SOL    HW230204   4.698   2.150   2.776
 9769SOL     OW30205   1.295   2.695   1.070
 9769SOL    HW130206   1.214   2.746   1.098
 9769SOL    HW230207   1.342   2.661   1.151
 9770SOL     OW30208   5.879   5.290   5.730
 9770SOL    HW130209   5.940   5.288   5.808
 9770SOL    HW230210   5.903   5.367   5.670
 9771SOL     OW30211   4.281   4.424   1.148
 9771SOL    HW130212   4.336   4.394   1.071
 9771SOL    HW230213   4.312   4.514   1.179
 9772SOL     OW30214   0.323   6.874   1.653
 9772SOL    HW130215   0.257   6.807   1.617
 9772SOL    HW230216   0.382   6.905   1.579
 9773SOL     OW30217   5.479   5.527   3.800
 9773SOL    HW130218   5.405   5.537   3.866
 9773SOL    HW230219   5.441   5.496   3.713
 9774SOL     OW30220   6.083   5.340   3.918
 9774SOL    HW130221   6.042   5.308   3.833
 9774SOL    HW230222   6.145   5.416   3.898
 9775SOL     OW30223   2.125   2.501   4.695
 9775SOL    HW130224   2.204   2.524   4.638
 9775SOL    HW230225   2.041   2.508   4.640
 9776SOL     OW30226   0.003   5.613   4.512
 9776SOL    HW130227   6.949   5.554   4.492
 9776SOL    HW230228   7.021   5.645   4.607
 9777SOL     OW30229   6.029   4.479   5.995
 9777SOL    HW130230   6.128   4.474   5.990
 9777SOL    HW230231   6.001   4.574   6.013
 9778SOL     OW30232   4.569   6.733   2.960
 9778SOL    HW130233   4.647   6.752   2.900
 9778SOL    HW230234   4.573   6.792   3.040
 9779SOL     OW30235   2.715   1.429   4.799
 9779SOL    HW130236   2.799   1.415   4.852
 9779SOL    HW230237   2.720   1.518   4.752
 9780SOL     OW30238   2.351   3.182   0.463
 9780SOL    HW130239   2.376   3.111   0.529
 9780SOL    HW230240   2.278   3.239   0.502
 9781SOL     OW30241   1.720   4.493   4.546
 9781SOL    HW130242   1.712   4.460   4.452
 9781SOL    HW230243   1.659   4.571   4.559
 9782SOL     OW30244   6.815   0.173   1.513
 9782SOL    HW130245   6.724   0.132   1.512
 9782SOL    HW230246   6.810   0.269   1.539
 9783SOL     OW30247   5.926   1.001   1.655
 9783SOL    HW130248   5.837   0.981   1.614
 9783SOL    HW230249   5.916   1.011   1.754
 9784SOL     OW30250   4.516   1.234   3.265
 9784SOL    HW130251   4.521   1.318   3.318
 9784SOL    HW230252   4.463   1.166   3.315
 9785SOL     OW30253   6.978   2.834   2.733
 9785SOL    HW130254   6.964   2.812   2.830
 9785SOL    HW230255   0.043   2.878   2.722
 9786SOL     OW30256   2.397   5.477   5.904
 9786SOL    HW130257   2.491   5.495   5.876
 9786SOL    HW230258   2.341   5.458   5.824
 9787SOL     OW30259   5.093   3.871   1.726
 9787SOL    HW130260   5.015   3.914   1.772
 9787SOL    HW230261   5.157   3.942   1.696
 9788SOL     OW30262   0.210   0.055   4.236
 9788SOL    HW130263   0.281   0.051   4.307
 9788SOL    HW230264   0.237   0.119   4.165
 9789SOL     OW30265   2.279   5.823   5.707
 9789SOL    HW130266   2.324   5.767   5.637
 9789SOL    HW230267   2.348   5.876   5.757
 9790SOL     OW30268   5.398   1.862   4.484
 9790SOL    HW130269   5.321   1.892   4.539
 9790SOL    HW230270   5.464   1.937   4.474
 9791SOL     OW30271   1.617   1.198   1.028
 9791SOL    HW130272   1.535   1.175   1.081
 9791SOL    HW230273   1.693   1.141   1.060
 9792SOL     OW30274   4.814   4.861   0.971
 9792SOL    HW130275   4.854   4.769   0.972
 9792SOL    HW230276   4.817   4.899   1.064
 9793SOL     OW30277   5.308   6.225   2.697
 9793SOL    HW130278   5.408   6.217   2.696
 9793SOL    HW230279   5.278   6.268   2.611
 9794SOL     OW30280   5.346   2.757   5.887
 9794SOL    HW130281   5.376   2.664   5.866
 9794SOL    HW230282   5.254   2.755   5.927
 9795SOL     OW30283   1.413   3.346   4.690
 9795SOL    HW130284   1.368   3.345   4.601
 9795SOL    HW230285   1.512   3.355   4.678
 9796SOL     OW30286   3.114   5.142   0.993
 9796SOL    HW130287   3.166   5.186   1.066
 9796SOL    HW230288   3.062   5.065   1.030
 9797SOL     OW30289   4.314   3.787   6.635
 9797SOL    HW130290   4.407   3.825   6.633
 9797SOL    HW230291   4.267   3.821   6.716
 9798SOL     OW30292   2.707   0.435   0.935
 9798SOL    HW130293   2.638   0.496   0.974
 9798SOL    HW230294   2.699   0.436   0.835
 9799SOL     OW30295   3.106   3.045   2.451
 9799SOL    HW130296   3.147   3.081   2.368
 9799SOL    HW230297   3.179   3.009   2.511
 9800SOL     OW30298   4.386   5.781   6.473
 9800SOL    HW130299   4.362   5.760   6.568
 9800SOL    HW230300   4.351   5.709   6.413
 9801SOL     OW30301   4.627   5.696   0.599
 9801SOL    HW130302   4.556   5.766   0.607
 9801SOL    HW230303   4.716   5.740   0.589
 9802SOL     OW30304   0.708   3.331   0.943
 9802SOL    HW130305   0.649   3.303   1.019
 9802SOL    HW230306   0.798   3.289   0.953
 9803SOL     OW30307   6.212   0.078   0.126
 9803SOL    HW130308   6.179   7.021   0.078
 9803SOL    HW230309   6.236   0.054   0.220
 9804SOL     OW30310   0.284   5.339   3.672
 9804SOL    HW130311   0.359   5.366   3.731
 9804SOL    HW230312   0.252   5.418   3.620
 9805SOL     OW30313   1.196   5.327   6.903
 9805SOL    HW130314   1.187   5.390   6.980
 9805SOL    HW230315   1.205   5.379   6.818
 9806SOL     OW30316   0.208   2.568   1.835
 9806SOL    HW130317   0.245   2.534   1.922
 9806SOL    HW230318   0.178   2.663   1.847
 9807SOL     OW30319   4.114   1.768   0.242
 9807SOL    HW130320   4.213   1.774   0.259
 9807SOL    HW230321   4.065   1.806   0.321
 9808SOL     OW30322   6.688   1.840   4.772
 9808SOL    HW130323   6.636   1.773   4.719
 9808SOL    HW230324   6.725   1.795   4.854
 9809SOL     OW30325   0.764   1.680   4.391
 9809SOL    HW130326   0.706   1.602   4.413
 9809SOL    HW230327   0.772   1.739   4.471
 9810SOL     OW30328   2.745   1.636   3.245
 9810SOL    HW130329   2.750   1.640   3.145
 9810SOL    HW230330   2.831   1.668   3.284
 9811SOL     OW30331   6.711   6.258   3.001
 9811SOL    HW130332   6.775   6.321   3.047
 9811SOL    HW230333   6.689   6.294   2.911
 9812SOL     OW30334   4.877   2.390   5.891
 9812SOL    HW130335   4.824   2.321   5.940
 9812SOL    HW230336   4.854   2.387   5.793
 9813SOL     OW30337   6.540   5.504   0.126
 9813SOL    HW130338   6.598   5.529   0.204
 9813SOL    HW230339   6.589   5.522   0.041
 9814SOL     OW30340   6.667   6.653   5.904
 9814SOL    HW130341   6.764   6.677   5.916
 9814SOL    HW230342   6.660   6.559   5.871
 9815SOL     OW30343   6.246   3.591   1.555
 9815SOL    HW130344   6.243   3.538   1.640
 9815SOL    HW230345   6.300   3.674   1.570
 9816SOL     OW30346   6.387   0.281   0.060
 9816SOL    HW130347   6.321   0.214   0.095
 9816SOL    HW230348   6.376   0.367   0.110
 9817SOL     OW30349   3.190   5.920   1.260
 9817SOL    HW130350   3.142   5.833   1.247
 9817SOL    HW230351   3.152   5.988   1.198
 9818SOL     OW30352   1.755   0.753   3.618
 9818SOL    HW130353   1.676   0.794   3.572
 9818SOL    HW230354   1.725   0.709   3.703
 9819SOL     OW30355   6.105   3.579   4.896
 9819SOL    HW130356   6.180   3.519   4.924
 9819SOL    HW230357   6.137   3.641   4.823
 9820SOL     OW30358   2.641   2.405   6.263
 9820SOL    HW130359   2.671   2.395   6.358
 9820SOL    HW230360   2.709   2.456   6.212
 9821SOL     OW30361   4.590   2.165   1.990
 9821SOL    HW130362   4.526   2.241   2.000
 9821SOL    HW230363   4.643   2.176   1.906
 9822SOL     OW30364   4.071   5.707   4.583
 9822SOL    HW130365   4.049   5.630   4.522
 9822SOL    HW230366   4.131   5.771   4.535
 9823SOL     OW30367   1.795   0.957   2.938
 9823SOL    HW130368   1.711   0.942   2.886
 9823SOL    HW230369   1.799   0.892   3.014
 9824SOL     OW30370   0.984   6.189   5.744
 9824SOL    HW130371   1.038   6.257   5.795
 9824SOL    HW230372   1.004   6.098   5.779
 9825SOL     OW30373   5.050   6.216   6.065
 9825SOL    HW130374   5.100   6.200   6.151
 9825SOL    HW230375   5.043   6.315   6.049
 9826SOL     OW30376   2.791   6.466   5.765
 9826SOL    HW130377   2.866   6.532   5.769
 9826SOL    HW230378   2.720   6.500   5.702
 9827SOL     OW30379   1.799   5.819   2.232
 9827SOL    HW130380   1.744   5.737   2.218
 9827SOL    HW230381   1.755   5.876   2.301
 9828SOL     OW30382   3.930   1.709   5.439
 9828SOL    HW130383   3.929   1.804   5.469
 9828SOL    HW230384   4.015   1.689   5.391
 9829SOL     OW30385   4.353   5.483   6.075
 9829SOL    HW130386   4.313   5.491   5.984
 9829SOL    HW230387   4.354   5.387   6.103
 9830SOL     OW30388   5.618   1.820   2.947
 9830SOL    HW130389   5.664   1.867   2.872
 9830SOL    HW230390   5.520   1.813   2.927
 9831SOL     OW30391   0.568   4.101   1.992
 9831SOL    HW130392   0.469   4.104   2.004
 9831SOL    HW230393   0.592   4.024   1.932
 9832SOL     OW30394   4.856   4.035   4.558
 9832SOL    HW130395   4.941   4.076   4.591
 9832SOL    HW230396   4.785   4.106   4.554
 9833SOL     OW30397   3.368   3.701   4.240
 9833SOL    HW130398   3.349   3.771   4.308
 9833SOL    HW230399   3.459   3.717   4.200
 9834SOL     OW30400   2.581   5.499   5.281
 9834SOL    HW130401   2.681   5.493   5.278
 9834SOL    HW230402   2.550   5.577   5.227
 9835SOL     OW30403   3.680   4.214   4.762
 9835SOL    HW130404   3.746   4.141   4.783
 9835SOL    HW230405   3.694   4.290   4.824
 9836SOL     OW30406   0.892   3.508   5.673
 9836SOL    HW130407   0.893   3.411   5.697
 9836SOL    HW230408   0.822   3.556   5.727
 9837SOL     OW30409   5.237   2.241   1.657
 9837SOL    HW130410   5.281   2.233   1.746
 9837SOL    HW230411   5.164   2.309   1.663
 9838SOL     OW30412   0.900   6.343   1.841
 9838SOL    HW130413   0.994   6.334   1.810
 9838SOL    HW230414   0.874   6.262   1.895
 9839SOL     OW30415   4.333   0.820   2.505
 9839SOL    HW130416   4.378   0.742   2.462
 9839SOL    HW230417   4.392   0.858   2.576
 9840SOL     OW30418   6.088   1.749   6.599
 9840SOL    HW130419   6.097   1.658   6.558
 9840SOL    HW230420   6.119   1.746   6.694
 9841SOL     OW30421   0.183   6.247   3.278
 9841SOL    HW130422   0.249   6.267   3.351
 9841SOL    HW230423   0.190   6.316   3.207
 9842SOL     OW30424   2.623   2.410   6.876
 9842SOL    HW130425   2.585   2.480   6.936
 9842SOL    HW230426   2.565   2.328   6.879
 9843SOL     OW30427   0.023   6.721   0.762
 9843SOL    HW130428   0.093   6.654   0.789
 9843SOL    HW230429   0.056   6.772   0.683
 9844SOL     OW30430   4.748   0.071   4.348
 9844SOL    HW130431   4.798   0.088   4.433
 9844SOL    HW230432   4.812   0.044   4.276
 9845SOL     OW30433   1.465   3.195   1.812
 9845SOL    HW130434   1.386   3.173   1.755
 9845SOL    HW230435   1.434   3.235   1.898
 9846SOL     OW30436   5.043   1.204   1.406
 9846SOL    HW130437   4.984   1.124   1.392
 9846SOL    HW230438   5.007   1.282   1.355
 9847SOL     OW30439   4.118   3.828   0.668
 9847SOL    HW130440   4.030   3.851   0.626
 9847SOL    HW230441   4.104   3.802   0.763
 9848SOL     OW30442   3.855   3.717   5.344
 9848SOL    HW130443   3.763   3.726   5.382
 9848SOL    HW230444   3.923   3.731   5.416
 9849SOL     OW30445   0.913   1.669   5.719
 9849SOL    HW130446   0.868   1.585   5.689
 9849SOL    HW230447   0.974   1.701   5.647
 9850SOL     OW30448   0.889   0.425   4.601
 9850SOL    HW130449   0.925   0.343   4.646
 9850SOL    HW230450   0.895   0.503   4.664
 9851SOL     OW30451   3.686   4.978   4.430
 9851SOL    HW130452   3.692   4.994   4.331
 9851SOL    HW230453   3.772   4.939   4.462
 9852SOL     OW30454   1.906   1.521   6.761
 9852SOL    HW130455   1.854   1.528   6.676
 9852SOL    HW230456   1.990   1.575   6.754
 9853SOL     OW30457   6.920   4.408   3.838
 9853SOL    HW130458   6.905   4.354   3.920
 9853SOL    HW230459   7.007   4.382   3.796
 9854SOL     OW30460   1.411   5.467   6.160
 9854SOL    HW130461   1.402   5.413   6.244
 9854SOL    HW230462   1.339   5.537   6.159
 9855SOL     OW30463   1.828   3.616   1.570
 9855SOL    HW130464   1.803   3.701   1.616
 9855SOL    HW230465   1.757   3.591   1.506
 9856SOL     OW30466   5.976   4.000   3.206
 9856SOL    HW130467   6.066   3.963   3.229
 9856SOL    HW230468   5.914   3.925   3.180
 9857SOL     OW30469   4.135   1.670   3.660
 9857SOL    HW130470   4.225   1.684   3.620
 9857SOL    HW230471   4.135   1.702   3.755
 9858SOL     OW30472   6.434   6.210   2.403
 9858SOL    HW130473   6.448   6.309   2.401
 9858SOL    HW230474   6.344   6.188   2.366
 9859SOL     OW30475   7.014   5.835   4.333
 9859SOL    HW130476   6.953   5.829   4.254
 9859SOL    HW230477   7.014   5.748   4.383
 9860SOL     OW30478   1.762   3.018   5.046
 9860SOL    HW130479   1.681   2.977   5.002
 9860SOL    HW230480   1.734   3.064   5.131
 9861SOL     OW30481   3.685   1.221   4.340
 9861SOL    HW130482   3.750   1.229   4.416
 9861SOL    HW230483   3.592   1.225   4.375
 9862SOL     OW30484   1.355   5.361   0.811
 9862SOL    HW130485   1.348   5.272   0.856
 9862SOL    HW230486   1.380   5.430   0.879
 9863SOL     OW30487   4.154   6.190   1.056
 9863SOL    HW130488   4.224   6.258   1.037
 9863SOL    HW230489   4.132   6.190   1.153
 9864SOL     OW30490   2.948   5.995   5.137
 9864SOL    HW130491   2.928   6.012   5.040
 9864SOL    HW230492   2.916   6.073   5.191
 9865SOL     OW30493   0.745   6.231   5.830
 9865SOL    HW130494   0.839   6.247   5.800
 9865SOL    HW230495   0.746   6.173   5.912
 9866SOL     OW30496   6.406   5.121   4.148
 9866SOL    HW130497   6.493   5.072   4.149
 9866SOL    HW230498   6.331   5.056   4.155
 9867SOL     OW30499   4.696   1.993   1.553
 9867SOL    HW130500   4.794   2.010   1.545
 9867SOL    HW230501   4.673   1.968   1.647
 9868SOL     OW30502   1.631   4.356   3.611
 9868SOL    HW130503   1.577   4.279   3.579
 9868SOL    HW230504   1.595   4.441   3.572
 9869SOL     OW30505   6.919   2.479   1.184
 9869SOL    HW130506   6.994   2.465   1.248
 9869SOL    HW230507   6.845   2.415   1.205
 9870SOL     OW30508   3.190   1.396   2.376
 9870SOL    HW130509   3.144   1.376   2.290
 9870SOL    HW230510   3.269   1.455   2.358
 9871SOL     OW30511   6.866   3.928   4.640
 9871SOL    HW130512   6.877   4.016   4.594
 9871SOL    HW230513   6.913   3.929   4.728
 9872SOL     OW30514   1.557   5.075   5.238
 9872SOL    HW130515   1.538   4.977   5.229
 9872SOL    HW230516   1.653   5.088   5.264
 9873SOL     OW30517   2.176   1.766   5.351
 9873SOL    HW130518   2.147   1.680   5.395
 9873SOL    HW230519   2.100   1.830   5.350
 9874SOL     OW30520   0.137   2.538   4.774
 9874SOL    HW130521   0.059   2.600   4.762
 9874SOL    HW230522   0.111   2.464   4.836
 9875SOL     OW30523   6.844   5.964   0.536
 9875SOL    HW130524   6.914   6.035   0.526
 9875SOL    HW230525   6.878   5.878   0.499
 9876SOL     OW30526   2.176   6.884   3.666
 9876SOL    HW130527   2.143   6.969   3.708
 9876SOL    HW230528   2.197   6.901   3.570
 9877SOL     OW30529   0.736   5.311   4.786
 9877SOL    HW130530   0.743   5.273   4.879
 9877SOL    HW230531   0.805   5.269   4.728
 9878SOL     OW30532   2.133   3.192   0.240
 9878SOL    HW130533   2.191   3.176   0.320
 9878SOL    HW230534   2.069   3.116   0.229
 9879SOL     OW30535   0.454   5.069   6.327
 9879SOL    HW130536   0.377   5.007   6.346
 9879SOL    HW230537   0.535   5.016   6.306
 9880SOL     OW30538   2.813   1.939   0.392
 9880SOL    HW130539   2.858   1.942   0.481
 9880SOL    HW230540   2.864   1.993   0.326
 9881SOL     OW30541   5.608   0.230   4.619
 9881SOL    HW130542   5.700   0.199   4.642
 9881SOL    HW230543   5.592   0.321   4.657
 9882SOL     OW30544   4.007   3.870   4.371
 9882SOL    HW130545   4.020   3.874   4.470
 9882SOL    HW230546   4.058   3.792   4.334
 9883SOL     OW30547   2.055   0.117   1.098
 9883SOL    HW130548   2.076   0.138   1.194
 9883SOL    HW230549   2.098   0.031   1.073
 9884SOL     OW30550   1.741   3.817   6.188
 9884SOL    HW130551   1.707   3.727   6.216
 9884SOL    HW230552   1.815   3.845   6.250
 9885SOL     OW30553   6.511   3.515   4.285
 9885SOL    HW130554   6.435   3.579   4.269
 9885SOL    HW230555   6.514   3.491   4.382
 9886SOL     OW30556   4.781   6.035   1.410
 9886SOL    HW130557   4.814   6.099   1.341
 9886SOL    HW230558   4.838   6.040   1.492
 9887SOL     OW30559   3.493   0.070   0.355
 9887SOL    HW130560   3.424   0.056   0.426
 9887SOL    HW230561   3.545   7.009   0.342
 9888SOL     OW30562   6.129   4.957   2.322
 9888SOL    HW130563   6.211   5.001   2.285
 9888SOL    HW230564   6.056   5.024   2.328
 9889SOL     OW30565   0.082   5.218   3.816
 9889SOL    HW130566   0.115   5.126   3.834
 9889SOL    HW230567   0.148   5.265   3.756
 9890SOL     OW30568   6.878   4.233   1.834
 9890SOL    HW130569   6.817   4.241   1.913
 9890SOL    HW230570   6.964   4.281   1.853
 9891SOL     OW30571   5.537   4.575   0.764
 9891SOL    HW130572   5.586   4.492   0.791
 9891SOL    HW230573   5.590   4.624   0.695
 9892SOL     OW30574   1.938   5.490   4.237
 9892SOL    HW130575   2.018   5.431   4.246
 9892SOL    HW230576   1.947   5.567   4.300
 9893SOL     OW30577   5.842   5.149   3.116
 9893SOL    HW130578   5.823   5.056   3.147
 9893SOL    HW230579   5.872   5.147   3.021
 9894SOL     OW30580   3.879   2.817   6.055
 9894SOL    HW130581   3.881   2.899   5.997
 9894SOL    HW230582   3.826   2.836   6.138
 9895SOL     OW30583   4.982   2.550   6.807
 9895SOL    HW130584   4.916   2.604   6.754
 9895SOL    HW230585   4.987   2.585   6.900
 9896SOL     OW30586   3.966   4.049   0.520
 9896SOL    HW130587   4.004   4.089   0.604
 9896SOL    HW230588   3.964   4.118   0.448
 9897SOL     OW30589   5.797   2.005   3.061
 9897SOL    HW130590   5.834   2.007   3.154
 9897SOL    HW230591   5.744   1.921   3.048
 9898SOL     OW30592   1.435   5.320   5.614
 9898SOL    HW130593   1.343   5.337   5.647
 9898SOL    HW230594   1.431   5.274   5.525
 9899SOL     OW30595   5.584   4.857   2.506
 9899SOL    HW130596   5.568   4.863   2.408
 9899SOL    HW230597   5.637   4.775   2.526
 9900SOL     OW30598   1.232   2.325   4.346
 9900SOL    HW130599   1.323   2.302   4.380
 9900SOL    HW230600   1.221   2.425   4.347
 9901SOL     OW30601   2.780   2.483   6.011
 9901SOL    HW130602   2.854   2.416   6.008
 9901SOL    HW230603   2.815   2.574   5.990
 9902SOL     OW30604   4.001   3.415   0.084
 9902SOL    HW130605   3.903   3.408   0.065
 9902SOL    HW230606   4.015   3.448   0.177
 9903SOL     OW30607   4.268   2.166   1.861
 9903SOL    HW130608   4.259   2.197   1.955
 9903SOL    HW230609   4.226   2.232   1.799
 9904SOL     OW30610   6.747   1.768   0.974
 9904SOL    HW130611   6.687   1.766   1.054
 9904SOL    HW230612   6.731   1.686   0.918
 9905SOL     OW30613   1.128   0.195   5.898
 9905SOL    HW130614   1.191   0.237   5.964
 9905SOL    HW230615   1.056   0.146   5.947
 9906SOL     OW30616   2.635   3.633   6.499
 9906SOL    HW130617   2.647   3.709   6.563
 9906SOL    HW230618   2.702   3.641   6.425
 9907SOL     OW30619   2.845   6.462   2.476
 9907SOL    HW130620   2.898   6.465   2.391
 9907SOL    HW230621   2.863   6.544   2.530
 9908SOL     OW30622   1.052   4.066   5.849
 9908SOL    HW130623   0.963   4.109   5.837
 9908SOL    HW230624   1.094   4.050   5.759
 9909SOL     OW30625   3.148   1.097   2.669
 9909SOL    HW130626   3.241   1.086   2.633
 9909SOL    HW230627   3.134   1.033   2.744
 9910SOL     OW30628   6.645   4.049   0.128
 9910SOL    HW130629   6.736   4.080   0.102
 9910SOL    HW230630   6.645   3.949   0.135
 9911SOL     OW30631   3.379   5.171   3.410
 9911SOL    HW130632   3.378   5.109   3.489
 9911SOL    HW230633   3.382   5.116   3.326
 9912SOL     OW30634   5.293   0.431   1.441
 9912SOL    HW130635   5.340   0.469   1.521
 9912SOL    HW230636   5.317   0.334   1.432
 9913SOL     OW30637   5.060   2.478   2.975
 9913SOL    HW130638   5.078   2.382   2.951
 9913SOL    HW230639   5.026   2.527   2.895
 9914SOL     OW30640   0.950   0.622   4.787
 9914SOL    HW130641   1.046   0.648   4.799
 9914SOL    HW230642   0.895   0.664   4.858
 9915SOL     OW30643   4.867   3.303   3.686
 9915SOL    HW130644   4.860   3.402   3.676
 9915SOL    HW230645   4.963   3.276   3.693
 9916SOL     OW30646   2.246   2.773   2.611
 9916SOL    HW130647   2.214   2.796   2.703
 9916SOL    HW230648   2.168   2.771   2.549
 9917SOL     OW30649   3.313   4.006   5.992
 9917SOL    HW130650   3.276   3.927   5.943
 9917SOL    HW230651   3.410   3.992   6.011
 9918SOL     OW30652   2.219   1.844   5.816
 9918SOL    HW130653   2.136   1.793   5.791
 9918SOL    HW230654   2.280   1.849   5.736
 9919SOL     OW30655   0.262   5.300   3.154
 9919SOL    HW130656   0.293   5.271   3.245
 9919SOL    HW230657   0.337   5.293   3.089
 9920SOL     OW30658   4.124   6.463   1.628
 9920SOL    HW130659   4.161   6.554   1.644
 9920SOL    HW230660   4.192   6.394   1.655
 9921SOL     OW30661   5.985   0.632   2.996
 9921SOL    HW130662   5.986   0.564   2.923
 9921SOL    HW230663   6.055   0.610   3.063
 9922SOL     OW30664   4.189   4.827   0.630
 9922SOL    HW130665   4.119   4.761   0.657
 9922SOL    HW230666   4.157   4.880   0.552
 9923SOL     OW30667   6.657   2.229   5.953
 9923SOL    HW130668   6.573   2.176   5.941
 9923SOL    HW230669   6.694   2.212   6.045
 9924SOL     OW30670   6.653   0.847   2.752
 9924SOL    HW130671   6.559   0.813   2.749
 9924SOL    HW230672   6.656   0.931   2.806
 9925SOL     OW30673   2.633   2.584   5.293
 9925SOL    HW130674   2.558   2.617   5.236
 9925SOL    HW230675   2.668   2.498   5.257
 9926SOL     OW30676   1.246   1.221   0.289
 9926SOL    HW130677   1.303   1.285   0.340
 9926SOL    HW230678   1.229   1.257   0.197
 9927SOL     OW30679   0.248   1.607   2.046
 9927SOL    HW130680   0.227   1.704   2.053
 9927SOL    HW230681   0.307   1.580   2.122
 9928SOL     OW30682   0.297   4.085   2.052
 9928SOL    HW130683   0.235   4.012   2.082
 9928SOL    HW230684   0.314   4.148   2.128
 9929SOL     OW30685   2.527   4.065   0.292
 9929SOL    HW130686   2.448   4.037   0.238
 9929SOL    HW230687   2.600   3.998   0.282
 9930SOL     OW30688   0.139   6.498   6.006
 9930SOL    HW130689   0.171   6.574   6.062
 9930SOL    HW230690   0.136   6.414   6.061
 9931SOL     OW30691   1.656   6.327   5.970
 9931SOL    HW130692   1.708   6.250   5.932
 9931SOL    HW230693   1.598   6.366   5.898
 9932SOL     OW30694   1.370   1.805   0.184
 9932SOL    HW130695   1.442   1.848   0.238
 9932SOL    HW230696   1.296   1.870   0.170
 9933SOL     OW30697   2.107   1.402   3.630
 9933SOL    HW130698   2.195   1.425   3.672
 9933SOL    HW230699   2.053   1.485   3.617
 9934SOL     OW30700   4.844   1.408   5.699
 9934SOL    HW130701   4.826   1.324   5.649
 9934SOL    HW230702   4.758   1.444   5.736
 9935SOL     OW30703   3.081   2.125   0.815
 9935SOL    HW130704   3.025   2.172   0.884
 9935SOL    HW230705   3.171   2.105   0.853
 9936SOL     OW30706   5.892   5.735   5.561
 9936SOL    HW130707   5.795   5.758   5.569
 9936SOL    HW230708   5.934   5.795   5.492
 9937SOL     OW30709   0.910   6.956   3.019
 9937SOL    HW130710   0.917   6.863   3.058
 9937SOL    HW230711   0.938   7.023   3.088
 9938SOL     OW30712   6.593   0.928   4.255
 9938SOL    HW130713   6.683   0.957   4.287
 9938SOL    HW230714   6.575   0.835   4.286
 9939SOL     OW30715   2.106   4.412   1.581
 9939SOL    HW130716   2.157   4.332   1.549
 9939SOL    HW230717   2.024   4.381   1.629
 9940SOL     OW30718   0.874   0.340   3.140
 9940SOL    HW130719   0.936   0.419   3.144
 9940SOL    HW230720   0.790   0.363   3.188
 9941SOL     OW30721   4.862   4.939   6.204
 9941SOL    HW130722   4.850   4.842   6.183
 9941SOL    HW230723   4.955   4.967   6.180
 9942SOL     OW30724   4.433   4.714   3.914
 9942SOL    HW130725   4.476   4.639   3.965
 9942SOL    HW230726   4.494   4.793   3.914
 9943SOL     OW30727   2.421   4.335   6.885
 9943SOL    HW130728   2.467   4.376   6.807
 9943SOL    HW230729   2.443   4.386   6.968
 9944SOL     OW30730   1.406   4.730   0.551
 9944SOL    HW130731   1.371   4.797   0.486
 9944SOL    HW230732   1.336   4.711   0.620
 9945SOL     OW30733   5.661   3.579   6.413
 9945SOL    HW130734   5.712   3.500   6.448
 9945SOL    HW230735   5.669   3.655   6.477
 9946SOL     OW30736   5.528   1.429   2.405
 9946SOL    HW130737   5.549   1.343   2.357
 9946SOL    HW230738   5.465   1.483   2.349
 9947SOL     OW30739   1.637   1.838   3.647
 9947SOL    HW130740   1.539   1.820   3.642
 9947SOL    HW230741   1.652   1.928   3.688
 9948SOL     OW30742   6.479   0.070   4.229
 9948SOL    HW130743   6.498   7.000   4.200
 9948SOL    HW230744   6.554   0.129   4.203
 9949SOL     OW30745   6.316   4.541   4.572
 9949SOL    HW130746   6.304   4.603   4.494
 9949SOL    HW230747   6.386   4.473   4.551
 9950SOL     OW30748   6.219   4.787   5.780
 9950SOL    HW130749   6.151   4.844   5.826
 9950SOL    HW230750   6.173   4.727   5.714
 9951SOL     OW30751   0.446   2.190   2.349
 9951SOL    HW130752   0.533   2.158   2.312
 9951SOL    HW230753   0.450   2.192   2.448
 9952SOL     OW30754   0.656   4.343   1.933
 9952SOL    HW130755   0.664   4.327   1.835
 9952SOL    HW230756   0.621   4.261   1.978
 9953SOL     OW30757   5.947   2.341   3.410
 9953SOL    HW130758   6.002   2.342   3.494
 9953SOL    HW230759   5.980   2.411   3.347
 9954SOL     OW30760   2.810   1.856   6.216
 9954SOL    HW130761   2.866   1.774   6.208
 9954SOL    HW230762   2.724   1.843   6.167
 9955SOL     OW30763   5.579   3.122   0.370
 9955SOL    HW130764   5.482   3.147   0.370
 9955SOL    HW230765   5.598   3.065   0.449
 9956SOL     OW30766   2.152   3.749   3.457
 9956SOL    HW130767   2.130   3.716   3.549
 9956SOL    HW230768   2.242   3.716   3.431
 9957SOL     OW30769   5.291   6.674   0.852
 9957SOL    HW130770   5.223   6.610   0.885
 9957SOL    HW230771   5.255   6.767   0.858
 9958SOL     OW30772   4.919   4.866   0.099
 9958SOL    HW130773   4.952   4.894   0.189
 9958SOL    HW230774   4.934   4.940   0.033
 9959SOL     OW30775   4.221   4.231   0.503
 9959SOL    HW130776   4.185   4.181   0.582
 9959SOL    HW230777   4.317   4.254   0.518
 9960SOL     OW30778   6.615   7.022   6.689
 9960SOL    HW130779   6.571   0.068   6.634
 9960SOL    HW230780   6.702   6.996   6.648
 9961SOL     OW30781   2.591   5.028   2.004
 9961SOL    HW130782   2.541   5.052   2.087
 9961SOL    HW230783   2.685   5.062   2.012
 9962SOL     OW30784   2.792   6.250   2.183
 9962SOL    HW130785   2.833   6.175   2.235
 9962SOL    HW230786   2.778   6.222   2.088
 9963SOL     OW30787   1.430   1.498   6.297
 9963SOL    HW130788   1.480   1.583   6.315
 9963SOL    HW230789   1.414   1.489   6.199
 9964SOL     OW30790   4.592   3.946   5.622
 9964SOL    HW130791   4.583   4.046   5.625
 9964SOL    HW230792   4.622   3.913   5.712
 9965SOL     OW30793   2.907   5.662   4.479
 9965SOL    HW130794   2.917   5.588   4.545
 9965SOL    HW230795   2.822   5.712   4.498
 9966SOL     OW30796   3.594   4.897   2.248
 9966SOL    HW130797   3.618   4.860   2.159
 9966SOL    HW230798   3.523   4.839   2.290
 9967SOL     OW30799   6.597   6.942   3.388
 9967SOL    HW130800   6.557   6.906   3.304
 9967SOL    HW230801   6.697   6.948   3.378
 9968SOL     OW30802   3.915   6.525   1.189
 9968SOL    HW130803   3.925   6.462   1.266
 9968SOL    HW230804   3.820   6.555   1.181
 9969SOL     OW30805   1.477   5.062   3.772
 9969SOL    HW130806   1.563   5.075   3.724
 9969SOL    HW230807   1.493   5.069   3.871
 9970SOL     OW30808   6.260   3.978   1.330
 9970SOL    HW130809   6.204   3.907   1.287
 9970SOL    HW230810   6.265   4.057   1.268
 9971SOL     OW30811   0.941   4.271   2.294
 9971SOL    HW130812   0.934   4.334   2.217
 9971SOL    HW230813   0.863   4.208   2.293
 9972SOL     OW30814   3.337   3.990   0.180
 9972SOL    HW130815   3.326   3.913   0.244
 9972SOL    HW230816   3.381   3.957   0.096
 9973SOL     OW30817   3.563   1.518   3.495
 9973SOL    HW130818   3.662   1.524   3.478
 9973SOL    HW230819   3.527   1.437   3.449
 9974SOL     OW30820   0.584   2.498   3.414
 9974SOL    HW130821   0.564   2.484   3.511
 9974SOL    HW230822   0.543   2.584   3.384
 9975SOL     OW30823   1.098   5.006   6.686
 9975SOL    HW130824   1.144   5.056   6.613
 9975SOL    HW230825   1.113   4.908   6.673
 9976SOL     OW30826   2.818   4.530   6.609
 9976SOL    HW130827   2.846   4.480   6.691
 9976SOL    HW230828   2.847   4.480   6.528
 9977SOL     OW30829   5.172   6.258   4.992
 9977SOL    HW130830   5.197   6.280   4.898
 9977SOL    HW230831   5.254   6.252   5.048
 9978SOL     OW30832   0.479   2.735   6.352
 9978SOL    HW130833   0.570   2.707   6.382
 9978SOL    HW230834   0.410   2.698   6.414
 9979SOL     OW30835   4.699   3.054   5.312
 9979SOL    HW130836   4.600   3.069   5.315
 9979SOL    HW230837   4.745   3.138   5.285
 9980SOL     OW30838   0.793   0.564   0.167
 9980SOL    HW130839   0.738   0.528   0.092
 9980SOL    HW230840   0.883   0.520   0.166
 9981SOL     OW30841   0.331   2.546   1.567
 9981SOL    HW130842   0.265   2.565   1.640
 9981SOL    HW230843   0.286   2.496   1.493
 9982SOL     OW30844   2.208   1.782   4.807
 9982SOL    HW130845   2.132   1.832   4.764
 9982SOL    HW230846   2.262   1.736   4.737
 9983SOL     OW30847   0.124   2.954   2.059
 9983SOL    HW130848   0.102   2.903   1.975
 9983SOL    HW230849   0.199   3.018   2.040
 9984SOL     OW30850   0.115   5.853   1.376
 9984SOL    HW130851   0.055   5.911   1.321
 9984SOL    HW230852   0.140   5.772   1.323
 9985SOL     OW30853   4.133   5.385   0.882
 9985SOL    HW130854   4.136   5.484   0.896
 9985SOL    HW230855   4.037   5.356   0.874
 9986SOL     OW30856   4.736   4.498   0.079
 9986SOL    HW130857   4.727   4.553   7.020
 9986SOL    HW230858   4.814   4.436   0.069
 9987SOL     OW30859   5.394   3.068   1.447
 9987SOL    HW130860   5.359   3.026   1.532
 9987SOL    HW230861   5.477   3.020   1.418
 9988SOL     OW30862   5.225   6.271   4.620
 9988SOL    HW130863   5.156   6.343   4.623
 9988SOL    HW230864   5.223   6.226   4.531
 9989SOL     OW30865   6.366   5.336   2.416
 9989SOL    HW130866   6.402   5.425   2.445
 9989SOL    HW230867   6.312   5.348   2.333
 9990SOL     OW30868   0.176   7.013   3.413
 9990SOL    HW130869   0.271   6.981   3.408
 9990SOL    HW230870   0.169   0.061   3.482
 9991SOL     OW30871   1.845   4.133   4.386
 9991SOL    HW130872   1.941   4.142   4.413
 9991SOL    HW230873   1.804   4.224   4.379
 9992SOL     OW30874   3.331   4.315   1.146
 9992SOL    HW130875   3.325   4.377   1.067
 9992SOL    HW230876   3.271   4.348   1.218
 9993SOL     OW30877   3.723   6.941   4.069
 9993SOL    HW130878   3.692   6.870   4.005
 9993SOL    HW230879   3.655   7.014   4.073
 9994SOL     OW30880   0.058   4.402   4.193
 9994SOL    HW130881   0.112   4.452   4.261
 9994SOL    HW230882   0.040   4.310   4.228
 9995SOL     OW30883   2.811   0.561   4.843
 9995SOL    HW130884   2.731   0.502   4.840
 9995SOL    HW230885   2.893   0.507   4.860
 9996SOL     OW30886   1.990   4.048   1.206
 9996SOL    HW130887   1.923   3.985   1.248
 9996SOL    HW230888   2.046   3.998   1.141
 9997SOL     OW30889   6.397   2.163   4.421
 9997SOL    HW130890   6.354   2.206   4.342
 9997SOL    HW230891   6.326   2.127   4.482
 9998SOL     OW30892   4.858   3.715   2.762
 9998SOL    HW130893   4.842   3.634   2.819
 9998SOL    HW230894   4.881   3.685   2.669
 9999SOL     OW30895   6.785   6.660   4.198
 9999SOL    HW130896   6.857   6.591   4.200
 9999SOL    HW230897   6.812   6.738   4.254
10000SOL     OW30898   4.930   2.003   1.710
10000SOL    HW130899   5.018   1.990   1.666
10000SOL    HW230900   4.902   1.919   1.756
10001SOL     OW30901   3.166   6.149   2.527
10001SOL    HW130902   3.158   6.053   2.500
10001SOL    HW230903   3.079   6.180   2.565
10002SOL     OW30904   2.413   0.945   1.147
10002SOL    HW130905   2.421   1.043   1.127
10002SOL    HW230906   2.467   0.893   1.080
10003SOL     OW30907   2.056   1.700   3.410
10003SOL    HW130908   2.129   1.719   3.475
10003SOL    HW230909   2.065   1.761   3.331
10004SOL     OW30910   5.617   4.134   4.605
10004SOL    HW130911   5.632   4.183   4.519
10004SOL    HW230912   5.690   4.157   4.669
10005SOL     OW30913   2.766   5.761   3.596
10005SOL    HW130914   2.720   5.849   3.610
10005SOL    HW230915   2.707   5.701   3.542
10006SOL     OW30916   5.207   0.829   5.394
10006SOL    HW130917   5.255   0.905   5.438
10006SOL    HW230918   5.124   0.863   5.351
10007SOL     OW30919   1.000   4.134   4.555
10007SOL    HW130920   0.962   4.226   4.565
10007SOL    HW230921   1.066   4.133   4.480
10008SOL     OW30922   3.817   1.929   4.478
10008SOL    HW130923   3.850   1.849   4.427
10008SOL    HW230924   3.864   2.011   4.445
10009SOL     OW30925   1.699   4.254   1.740
10009SOL    HW130926   1.740   4.317   1.673
10009SOL    HW230927   1.621   4.297   1.784
10010SOL     OW30928   2.490   5.171   6.856
10010SOL    HW130929   2.542   5.166   6.941
10010SOL    HW230930   2.526   5.245   6.799
10011SOL     OW30931   0.414   3.577   0.098
10011SOL    HW130932   0.509   3.566   0.066
10011SOL    HW230933   0.415   3.617   0.189
10012SOL     OW30934   5.148   0.942   2.232
10012SOL    HW130935   5.113   0.952   2.139
10012SOL    HW230936   5.076   0.963   2.298
10013SOL     OW30937   1.195   5.582   4.989
10013SOL    HW130938   1.101   5.601   5.017
10013SOL    HW230939   1.232   5.660   4.940
10014SOL     OW30940   0.386   6.649   3.392
10014SOL    HW130941   0.388   6.572   3.328
10014SOL    HW230942   0.299   6.650   3.440
10015SOL     OW30943   3.501   5.347   6.462
10015SOL    HW130944   3.567   5.344   6.387
10015SOL    HW230945   3.549   5.333   6.549
10016SOL     OW30946   1.970   0.367   4.215
10016SOL    HW130947   1.951   0.347   4.311
10016SOL    HW230948   2.023   0.452   4.208
10017SOL     OW30949   2.980   1.870   3.466
10017SOL    HW130950   2.945   1.887   3.374
10017SOL    HW230951   3.064   1.922   3.481
10018SOL     OW30952   6.652   3.745   5.832
10018SOL    HW130953   6.656   3.724   5.735
10018SOL    HW230954   6.580   3.812   5.849
10019SOL     OW30955   0.462   1.485   2.851
10019SOL    HW130956   0.497   1.485   2.945
10019SOL    HW230957   0.415   1.571   2.833
10020SOL     OW30958   6.821   0.506   2.022
10020SOL    HW130959   6.823   0.585   1.961
10020SOL    HW230960   6.796   0.534   2.114
10021SOL     OW30961   1.373   3.489   1.299
10021SOL    HW130962   1.445   3.420   1.294
10021SOL    HW230963   1.332   3.489   1.390
10022SOL     OW30964   2.459   6.680   0.289
10022SOL    HW130965   2.542   6.693   0.234
10022SOL    HW230966   2.433   6.584   0.287
10023SOL     OW30967   2.573   6.710   5.985
10023SOL    HW130968   2.662   6.734   6.024
10023SOL    HW230969   2.553   6.614   6.005
10024SOL     OW30970   1.663   4.926   3.103
10024SOL    HW130971   1.736   4.994   3.099
10024SOL    HW230972   1.696   4.845   3.153
10025SOL     OW30973   1.656   3.862   1.967
10025SOL    HW130974   1.608   3.779   1.996
10025SOL    HW230975   1.729   3.883   2.032
10026SOL     OW30976   4.905   1.143   2.362
10026SOL    HW130977   4.947   1.233   2.376
10026SOL    HW230978   4.806   1.153   2.362
10027SOL     OW30979   1.549   2.644   5.400
10027SOL    HW130980   1.627   2.611   5.346
10027SOL    HW230981   1.484   2.569   5.414
10028SOL     OW30982   2.971   0.844   1.713
10028SOL    HW130983   2.962   0.878   1.620
10028SOL    HW230984   3.032   0.765   1.714
10029SOL     OW30985   0.020   2.911   4.289
10029SOL    HW130986   0.045   2.906   4.192
10029SOL    HW230987   0.099   2.890   4.346
10030SOL     OW30988   2.583   6.659   5.181
10030SOL    HW130989   2.589   6.752   5.143
10030SOL    HW230990   2.504   6.653   5.241
10031SOL     OW30991   3.515   5.251   4.492
10031SOL    HW130992   3.577   5.326   4.471
10031SOL    HW230993   3.568   5.167   4.505
10032SOL     OW30994   3.189   6.083   5.675
10032SOL    HW130995   3.269   6.052   5.727
10032SOL    HW230996   3.134   6.145   5.731
10033SOL     OW30997   4.900   1.656   4.026
10033SOL    HW130998   4.905   1.657   3.926
10033SOL    HW230999   4.855   1.572   4.056
10034SOL     OW31000   1.978   0.660   3.250
10034SOL    HW131001   2.019   0.673   3.340
10034SOL    HW231002   1.885   0.624   3.261
10035SOL     OW31003   6.306   3.657   0.141
10035SOL    HW131004   6.274   3.576   0.092
10035SOL    HW231005   6.376   3.630   0.207
10036SOL     OW31006   6.959   0.885   6.891
10036SOL    HW131007   6.974   0.941   6.810
10036SOL    HW231008   6.886   0.819   6.872
10037SOL     OW31009   6.421   0.131   6.048
10037SOL    HW131010   6.329   0.164   6.068
10037SOL    HW231011   6.467   0.104   6.133
10038SOL     OW31012   4.524   0.092   0.116
10038SOL    HW131013   4.467   0.012   0.097
10038SOL    HW231014   4.544   0.139   0.030
10039SOL     OW31015   4.754   5.218   4.748
10039SOL    HW131016   4.669   5.166   4.743
10039SOL    HW231017   4.831   5.155   4.757
10040SOL     OW31018   4.330   0.072   0.896
10040SOL    HW131019   4.352   7.021   0.834
10040SOL    HW231020   4.376   0.057   0.983
10041SOL     OW31021   0.069   4.814   5.588
10041SOL    HW131022   0.042   4.720   5.609
10041SOL    HW231023   0.054   4.872   5.668
10042SOL     OW31024   0.755   1.012   5.654
10042SOL    HW131025   0.768   0.928   5.707
10042SOL    HW231026   0.659   1.040   5.660
10043SOL     OW31027   0.769   0.884   2.635
10043SOL    HW131028   0.786   0.964   2.693
10043SOL    HW231029   0.817   0.805   2.672
10044SOL     OW31030   2.513   1.728   4.699
10044SOL    HW131031   2.450   1.769   4.633
10044SOL    HW231032   2.466   1.656   4.750
10045SOL     OW31033   4.948   0.119   4.546
10045SOL    HW131034   5.044   0.107   4.574
10045SOL    HW231035   4.899   0.168   4.618
10046SOL     OW31036   7.016   1.703   1.898
10046SOL    HW131037   0.030   1.614   1.923
10046SOL    HW231038   0.035   1.775   1.952
10047SOL     OW31039   6.121   2.435   5.283
10047SOL    HW131040   6.098   2.338   5.276
10047SOL    HW231041   6.042   2.485   5.318
10048SOL     OW31042   3.324   1.519   1.488
10048SOL    HW131043   3.293   1.466   1.567
10048SOL    HW231044   3.412   1.484   1.456
10049SOL     OW31045   1.456   0.768   6.989
10049SOL    HW131046   1.416   0.831   0.032
10049SOL    HW231047   1.529   0.715   0.009
10050SOL     OW31048   5.589   3.386   4.953
10050SOL    HW131049   5.566   3.328   5.031
10050SOL    HW231050   5.686   3.374   4.931
10051SOL     OW31051   6.539   3.061   4.568
10051SOL    HW131052   6.636   3.087   4.568
10051SOL    HW231053   6.530   2.966   4.541
10052SOL     OW31054   1.978   3.122   1.455
10052SOL    HW131055   2.057   3.182   1.470
10052SOL    HW231056   2.007   3.026   1.462
10053SOL     OW31057   3.769   4.868   3.062
10053SOL    HW131058   3.756   4.847   3.159
10053SOL    HW231059   3.857   4.832   3.032
10054SOL     OW31060   4.655   5.612   6.426
10054SOL    HW131061   4.577   5.580   6.479
10054SOL    HW231062   4.631   5.618   6.329
10055SOL     OW31063   6.175   2.467   4.731
10055SOL    HW131064   6.098   2.455   4.793
10055SOL    HW231065   6.254   2.415   4.765
10056SOL     OW31066   6.160   5.238   0.907
10056SOL    HW131067   6.193   5.271   0.996
10056SOL    HW231068   6.237   5.224   0.846
10057SOL     OW31069   4.068   1.902   4.264
10057SOL    HW131070   3.981   1.856   4.251
10057SOL    HW231071   4.116   1.909   4.176
10058SOL     OW31072   6.425   4.850   4.508
10058SOL    HW131073   6.455   4.759   4.481
10058SOL    HW231074   6.339   4.872   4.463
10059SOL     OW31075   5.612   6.608   0.408
10059SOL    HW131076   5.571   6.645   0.492
10059SOL    HW231077   5.710   6.594   0.422
10060SOL     OW31078   2.643   2.334   2.029
10060SOL    HW131079   2.741   2.334   2.010
10060SOL    HW231080   2.625   2.281   2.111
10061SOL     OW31081   5.544   1.188   3.915
10061SOL    HW131082   5.572   1.263   3.975
10061SOL    HW231083   5.453   1.207   3.879
10062SOL     OW31084   5.966   6.871   4.450
10062SOL    HW131085   5.910   6.920   4.383
10062SOL    HW231086   5.915   6.792   4.484
10063SOL     OW31087   1.569   1.861   3.036
10063SOL    HW131088   1.658   1.902   3.019
10063SOL    HW231089   1.581   1.765   3.062
10064SOL     OW31090   6.134   5.330   5.191
10064SOL    HW131091   6.172   5.402   5.248
10064SOL    HW231092   6.150   5.241   5.234
10065SOL     OW31093   1.338   0.553   1.789
10065SOL    HW131094   1.253   0.607   1.791
10065SOL    HW231095   1.413   0.610   1.822
10066SOL     OW31096   1.221   0.790   3.881
10066SOL    HW131097   1.225   0.785   3.781
10066SOL    HW231098   1.287   0.857   3.914
10067SOL     OW31099   5.854   4.590   4.275
10067SOL    HW131100   5.873   4.655   4.348
10067SOL    HW231101   5.873   4.497   4.306
10068SOL     OW31102   4.959   2.971   4.425
10068SOL    HW131103   4.932   3.011   4.337
10068SOL    HW231104   4.882   2.918   4.462
10069SOL     OW31105   2.066   6.599   3.691
10069SOL    HW131106   2.113   6.687   3.681
10069SOL    HW231107   2.112   6.530   3.634
10070SOL     OW31108   0.463   6.541   4.822
10070SOL    HW131109   0.374   6.584   4.839
10070SOL    HW231110   0.451   6.465   4.758
10071SOL     OW31111   4.654   5.059   4.332
10071SOL    HW131112   4.661   5.144   4.385
10071SOL    HW231113   4.721   4.993   4.365
10072SOL     OW31114   0.594   6.516   3.840
10072SOL    HW131115   0.571   6.555   3.751
10072SOL    HW231116   0.599   6.589   3.908
10073SOL     OW31117   6.054   4.457   4.724
10073SOL    HW131118   6.058   4.376   4.782
10073SOL    HW231119   6.147   4.486   4.699
10074SOL     OW31120   0.909   0.120   5.689
10074SOL    HW131121   0.914   0.127   5.789
10074SOL    HW231122   0.911   0.023   5.663
10075SOL     OW31123   1.424   2.323   3.058
10075SOL    HW131124   1.354   2.388   3.027
10075SOL    HW231125   1.388   2.230   3.051
10076SOL     OW31126   5.475   0.111   4.424
10076SOL    HW131127   5.518   0.146   4.507
10076SOL    HW231128   5.500   0.170   4.347
10077SOL     OW31129   3.906   2.400   6.663
10077SOL    HW131130   3.876   2.304   6.668
10077SOL    HW231131   3.875   2.440   6.577
10078SOL     OW31132   6.067   6.366   4.391
10078SOL    HW131133   6.093   6.413   4.306
10078SOL    HW231134   6.065   6.432   4.466
10079SOL     OW31135   1.823   3.307   2.217
10079SOL    HW131136   1.819   3.208   2.210
10079SOL    HW231137   1.803   3.348   2.128
10080SOL     OW31138   3.205   2.153   6.624
10080SOL    HW131139   3.204   2.247   6.592
10080SOL    HW231140   3.130   2.102   6.582
10081SOL     OW31141   0.410   6.947   6.261
10081SOL    HW131142   0.452   6.995   6.339
10081SOL    HW231143   0.407   6.849   6.280
10082SOL     OW31144   6.714   2.649   2.406
10082SOL    HW131145   6.658   2.578   2.449
10082SOL    HW231146   6.785   2.678   2.470
10083SOL     OW31147   4.988   1.043   3.316
10083SOL    HW131148   4.969   0.963   3.374
10083SOL    HW231149   4.906   1.065   3.263
10084SOL     OW31150   3.215   0.431   5.657
10084SOL    HW131151   3.190   0.486   5.577
10084SOL    HW231152   3.202   0.334   5.637
10085SOL     OW31153   0.528   5.017   3.069
10085SOL    HW131154   0.571   5.086   3.011
10085SOL    HW231155   0.450   4.978   3.021
10086SOL     OW31156   5.782   5.301   2.527
10086SOL    HW131157   5.685   5.281   2.517
10086SOL    HW231158   5.803   5.319   2.623
10087SOL     OW31159   1.032   1.116   4.000
10087SOL    HW131160   1.104   1.111   4.069
10087SOL    HW231161   1.022   1.027   3.956
10088SOL     OW31162   0.224   6.459   5.528
10088SOL    HW131163   0.212   6.374   5.476
10088SOL    HW231164   0.191   6.536   5.474
10089SOL     OW31165   2.673   1.542   3.516
10089SOL    HW131166   2.700   1.553   3.421
10089SOL    HW231167   2.755   1.530   3.573
10090SOL     OW31168   0.489   4.423   1.066
10090SOL    HW131169   0.514   4.333   1.102
10090SOL    HW231170   0.509   4.427   0.969
10091SOL     OW31171   1.053   3.241   4.900
10091SOL    HW131172   1.063   3.339   4.916
10091SOL    HW231173   0.973   3.206   4.949
10092SOL     OW31174   1.518   4.245   5.052
10092SOL    HW131175   1.516   4.147   5.032
10092SOL    HW231176   1.570   4.261   5.135
10093SOL     OW31177   0.758   5.180   5.022
10093SOL    HW131178   0.857   5.167   5.025
10093SOL    HW231179   0.712   5.092   5.033
10094SOL     OW31180   2.624   7.018   2.347
10094SOL    HW131181   2.684   0.061   2.390
10094SOL    HW231182   2.631   0.002   2.247
10095SOL     OW31183   6.349   1.699   4.912
10095SOL    HW131184   6.281   1.633   4.945
10095SOL    HW231185   6.429   1.698   4.971
10096SOL     OW31186   6.894   5.135   2.816
10096SOL    HW131187   6.840   5.216   2.795
10096SOL    HW231188   6.873   5.064   2.748
10097SOL     OW31189   0.863   1.265   0.033
10097SOL    HW131190   0.825   1.357   0.037
10097SOL    HW231191   0.951   1.268   7.011
10098SOL     OW31192   1.920   6.867   5.927
10098SOL    HW131193   1.947   6.963   5.938
10098SOL    HW231194   1.825   6.856   5.954
10099SOL     OW31195   0.270   4.081   6.307
10099SOL    HW131196   0.353   4.050   6.354
10099SOL    HW231197   0.271   4.181   6.300
10100SOL     OW31198   5.335   6.897   5.493
10100SOL    HW131199   5.322   6.975   5.556
10100SOL    HW231200   5.267   6.901   5.420
10101SOL     OW31201   6.001   4.577   1.624
10101SOL    HW131202   6.040   4.485   1.625
10101SOL    HW231203   6.056   4.636   1.565
10102SOL     OW31204   2.308   0.736   3.286
10102SOL    HW131205   2.215   0.751   3.253
10102SOL    HW231206   2.352   0.824   3.303
10103SOL     OW31207   3.100   1.073   4.687
10103SOL    HW131208   3.107   1.165   4.649
10103SOL    HW231209   3.028   1.023   4.640
10104SOL     OW31210   0.576   3.899   5.280
10104SOL    HW131211   0.639   3.969   5.313
10104SOL    HW231212   0.569   3.826   5.347
10105SOL     OW31213   1.225   1.231   6.213
10105SOL    HW131214   1.171   1.263   6.135
10105SOL    HW231215   1.318   1.267   6.207
10106SOL     OW31216   5.687   4.684   1.292
10106SOL    HW131217   5.639   4.606   1.335
10106SOL    HW231218   5.783   4.661   1.282
10107SOL     OW31219   6.741   1.844   6.138
10107SOL    HW131220   6.797   1.828   6.219
10107SOL    HW231221   6.724   1.942   6.128
10108SOL     OW31222   6.529   6.459   6.953
10108SOL    HW131223   6.544   6.528   0.000
10108SOL    HW231224   6.430   6.447   6.939
10109SOL     OW31225   3.886   6.453   2.621
10109SOL    HW131226   3.841   6.499   2.544
10109SOL    HW231227   3.979   6.487   2.631
10110SOL     OW31228   4.009   6.802   5.527
10110SOL    HW131229   3.953   6.745   5.587
10110SOL    HW231230   4.000   6.898   5.554
10111SOL     OW31231   6.811   3.509   2.924
10111SOL    HW131232   6.860   3.579   2.872
10111SOL    HW231233   6.844   3.418   2.897
10112SOL     OW31234   6.169   3.799   4.745
10112SOL    HW131235   6.101   3.746   4.694
10112SOL    HW231236   6.153   3.897   4.731
10113SOL     OW31237   4.011   1.168   6.930
10113SOL    HW131238   4.056   1.176   7.019
10113SOL    HW231239   3.975   1.257   6.903
10114SOL     OW31240   5.755   0.617   1.175
10114SOL    HW131241   5.752   0.698   1.234
10114SOL    HW231242   5.801   0.641   1.089
10115SOL     OW31243   2.892   1.882   3.216
10115SOL    HW131244   2.806   1.911   3.175
10115SOL    HW231245   2.948   1.835   3.147
10116SOL     OW31246   0.760   6.399   0.800
10116SOL    HW131247   0.684   6.362   0.747
10116SOL    HW231248   0.749   6.375   0.897
10117SOL     OW31249   6.190   0.486   4.746
10117SOL    HW131250   6.236   0.573   4.728
10117SOL    HW231251   6.092   0.497   4.730
10118SOL     OW31252   6.928   4.663   2.709
10118SOL    HW131253   6.995   4.620   2.769
10118SOL    HW231254   6.903   4.600   2.635
10119SOL     OW31255   1.686   6.736   4.468
10119SOL    HW131256   1.673   6.756   4.371
10119SOL    HW231257   1.674   6.638   4.484
10120SOL     OW31258   0.621   3.031   4.215
10120SOL    HW131259   0.699   3.080   4.253
10120SOL    HW231260   0.604   3.062   4.121
10121SOL     OW31261   6.709   5.123   5.052
10121SOL    HW131262   6.674   5.076   4.971
10121SOL    HW231263   6.703   5.062   5.131
10122SOL     OW31264   5.851   3.047   0.253
10122SOL    HW131265   5.782   3.119   0.253
10122SOL    HW231266   5.817   2.968   0.202
10123SOL     OW31267   6.548   6.169   0.419
10123SOL    HW131268   6.567   6.154   0.516
10123SOL    HW231269   6.606   6.109   0.364
10124SOL     OW31270   1.975   3.973   6.864
10124SOL    HW131271   1.944   3.969   6.959
10124SOL    HW231272   2.062   4.022   6.859
10125SOL     OW31273   2.242   0.544   2.606
10125SOL    HW131274   2.153   0.572   2.640
10125SOL    HW231275   2.232   0.462   2.550
10126SOL     OW31276   6.483   6.144   6.343
10126SOL    HW131277   6.487   6.056   6.391
10126SOL    HW231278   6.400   6.148   6.287
10127SOL     OW31279   2.628   5.678   5.969
10127SOL    HW131280   2.573   5.761   5.976
10127SOL    HW231281   2.587   5.606   6.026
10128SOL     OW31282   1.005   2.013   1.210
10128SOL    HW131283   1.019   2.077   1.134
10128SOL    HW231284   1.089   2.008   1.265
10129SOL     OW31285   4.691   2.850   3.941
10129SOL    HW131286   4.664   2.767   3.892
10129SOL    HW231287   4.665   2.842   4.037
10130SOL     OW31288   2.606   4.570   2.936
10130SOL    HW131289   2.580   4.564   2.839
10130SOL    HW231290   2.701   4.599   2.943
10131SOL     OW31291   0.855   1.689   3.032
10131SOL    HW131292   0.799   1.759   2.987
10131SOL    HW231293   0.849   1.603   2.982
10132SOL     OW31294   2.769   6.545   3.066
10132SOL    HW131295   2.865   6.549   3.097
10132SOL    HW231296   2.726   6.463   3.103
10133SOL     OW31297   4.332   6.422   2.388
10133SOL    HW131298   4.308   6.411   2.292
10133SOL    HW231299   4.286   6.503   2.425
10134SOL     OW31300   0.072   0.318   3.863
10134SOL    HW131301   0.103   0.394   3.920
10134SOL    HW231302   7.009   0.284   3.898
10135SOL     OW31303   5.127   3.436   3.261
10135SOL    HW131304   5.151   3.436   3.164
10135SOL    HW231305   5.044   3.490   3.274
10136SOL     OW31306   5.503   6.958   2.914
10136SOL    HW131307   5.427   7.023   2.919
10136SOL    HW231308   5.505   6.903   2.998
10137SOL     OW31309   6.711   5.366   3.815
10137SOL    HW131310   6.615   5.373   3.841
10137SOL    HW231311   6.737   5.445   3.759
10138SOL     OW31312   4.457   2.399   1.146
10138SOL    HW131313   4.514   2.481   1.152
10138SOL    HW231314   4.496   2.335   1.081
10139SOL     OW31315   4.126   3.366   2.994
10139SOL    HW131316   4.225   3.360   2.983
10139SOL    HW231317   4.081   3.327   2.913
10140SOL     OW31318   6.298   5.435   5.818
10140SOL    HW131319   6.208   5.399   5.841
10140SOL    HW231320   6.291   5.534   5.804
10141SOL     OW31321   3.573   1.815   4.554
10141SOL    HW131322   3.653   1.861   4.515
10141SOL    HW231323   3.572   1.829   4.653
10142SOL     OW31324   5.571   6.251   4.991
10142SOL    HW131325   5.626   6.334   5.007
10142SOL    HW231326   5.522   6.260   4.905
10143SOL     OW31327   5.012   0.334   1.333
10143SOL    HW131328   5.054   0.251   1.296
10143SOL    HW231329   4.934   0.360   1.277
10144SOL     OW31330   4.848   6.375   6.674
10144SOL    HW131331   4.812   6.467   6.689
10144SOL    HW231332   4.947   6.374   6.688
10145SOL     OW31333   3.913   5.941   6.095
10145SOL    HW131334   4.013   5.932   6.096
10145SOL    HW231335   3.887   6.022   6.148
10146SOL     OW31336   3.447   5.115   5.432
10146SOL    HW131337   3.394   5.135   5.514
10146SOL    HW231338   3.441   5.017   5.411
10147SOL     OW31339   5.266   4.683   4.308
10147SOL    HW131340   5.341   4.657   4.247
10147SOL    HW231341   5.296   4.675   4.403
10148SOL     OW31342   5.932   4.956   6.795
10148SOL    HW131343   5.866   5.018   6.836
10148SOL    HW231344   6.023   4.974   6.832
10149SOL     OW31345   5.237   1.825   0.804
10149SOL    HW131346   5.306   1.840   0.874
10149SOL    HW231347   5.167   1.762   0.838
10150SOL     OW31348   4.119   4.119   0.150
10150SOL    HW131349   4.186   4.192   0.167
10150SOL    HW231350   4.167   4.038   0.116
10151SOL     OW31351   0.543   0.006   6.462
10151SOL    HW131352   0.530   6.934   6.486
10151SOL    HW231353   0.638   0.021   6.435
10152SOL     OW31354   1.669   5.790   4.377
10152SOL    HW131355   1.686   5.736   4.460
10152SOL    HW231356   1.686   5.887   4.396
10153SOL     OW31357   4.740   5.848   4.479
10153SOL    HW131358   4.800   5.768   4.472
10153SOL    HW231359   4.795   5.931   4.488
10154SOL     OW31360   5.843   6.783   5.005
10154SOL    HW131361   5.934   6.792   4.966
10154SOL    HW231362   5.810   6.689   4.991
10155SOL     OW31363   4.089   1.745   5.773
10155SOL    HW131364   4.005   1.765   5.822
10155SOL    HW231365   4.101   1.646   5.767
10156SOL     OW31366   6.096   0.285   2.085
10156SOL    HW131367   6.077   0.247   2.176
10156SOL    HW231368   6.191   0.316   2.081
10157SOL     OW31369   5.845   2.433   5.995
10157SOL    HW131370   5.860   2.405   5.900
10157SOL    HW231371   5.911   2.505   6.018
10158SOL     OW31372   4.720   3.603   0.001
10158SOL    HW131373   4.744   3.595   0.098
10158SOL    HW231374   4.747   3.519   6.977
10159SOL     OW31375   2.672   3.532   6.016
10159SOL    HW131376   2.700   3.557   5.923
10159SOL    HW231377   2.600   3.595   6.047
10160SOL     OW31378   1.566   3.904   2.327
10160SOL    HW131379   1.529   3.993   2.300
10160SOL    HW231380   1.645   3.917   2.386
10161SOL     OW31381   3.499   4.401   0.287
10161SOL    HW131382   3.456   4.486   0.319
10161SOL    HW231383   3.434   4.326   0.294
10162SOL     OW31384   2.514   4.238   0.491
10162SOL    HW131385   2.517   4.169   0.419
10162SOL    HW231386   2.430   4.290   0.484
10163SOL     OW31387   5.451   4.763   6.741
10163SOL    HW131388   5.519   4.745   6.671
10163SOL    HW231389   5.360   4.744   6.705
10164SOL     OW31390   6.183   3.216   4.893
10164SOL    HW131391   6.221   3.187   4.805
10164SOL    HW231392   6.084   3.229   4.883
10165SOL     OW31393   1.064   2.535   3.600
10165SOL    HW131394   1.068   2.515   3.502
10165SOL    HW231395   1.058   2.449   3.651
10166SOL     OW31396   3.438   1.316   2.163
10166SOL    HW131397   3.445   1.227   2.207
10166SOL    HW231398   3.410   1.385   2.230
10167SOL     OW31399   4.375   2.021   6.277
10167SOL    HW131400   4.335   2.042   6.188
10167SOL    HW231401   4.455   2.079   6.293
10168SOL     OW31402   6.499   3.848   5.007
10168SOL    HW131403   6.429   3.919   4.999
10168SOL    HW231404   6.485   3.779   4.937
10169SOL     OW31405   6.307   4.092   3.202
10169SOL    HW131406   6.406   4.107   3.199
10169SOL    HW231407   6.271   4.086   3.109
10170SOL     OW31408   0.838   4.253   5.829
10170SOL    HW131409   0.860   4.253   5.926
10170SOL    HW231410   0.848   4.345   5.792
10171SOL     OW31411   6.420   3.899   5.855
10171SOL    HW131412   6.354   3.838   5.899
10171SOL    HW231413   6.401   3.904   5.757
10172SOL     OW31414   6.404   6.674   3.984
10172SOL    HW131415   6.329   6.739   3.973
10172SOL    HW231416   6.367   6.582   3.992
10173SOL     OW31417   1.527   2.862   0.998
10173SOL    HW131418   1.560   2.903   0.913
10173SOL    HW231419   1.430   2.840   0.989
10174SOL     OW31420   5.557   5.241   2.400
10174SOL    HW131421   5.596   5.208   2.314
10174SOL    HW231422   5.488   5.176   2.432
10175SOL     OW31423   6.682   2.452   3.603
10175SOL    HW131424   6.689   2.414   3.510
10175SOL    HW231425   6.760   2.511   3.621
10176SOL     OW31426   1.791   3.637   5.959
10176SOL    HW131427   1.794   3.714   6.023
10176SOL    HW231428   1.824   3.554   6.005
10177SOL     OW31429   2.103   0.946   0.362
10177SOL    HW131430   2.058   0.932   0.450
10177SOL    HW231431   2.202   0.952   0.376
10178SOL     OW31432   6.752   2.385   5.050
10178SOL    HW131433   6.692   2.324   4.999
10178SOL    HW231434   6.797   2.333   5.123
10179SOL     OW31435   1.364   1.658   5.839
10179SOL    HW131436   1.338   1.680   5.745
10179SOL    HW231437   1.444   1.599   5.838
10180SOL     OW31438   4.115   6.636   0.110
10180SOL    HW131439   4.214   6.643   0.099
10180SOL    HW231440   4.083   6.550   0.071
10181SOL     OW31441   4.935   3.425   2.147
10181SOL    HW131442   4.881   3.434   2.231
10181SOL    HW231443   4.888   3.471   2.072
10182SOL     OW31444   5.470   1.244   1.981
10182SOL    HW131445   5.456   1.199   1.893
10182SOL    HW231446   5.517   1.331   1.967
10183SOL     OW31447   0.868   1.982   6.382
10183SOL    HW131448   0.880   1.980   6.481
10183SOL    HW231449   0.944   2.031   6.340
10184SOL     OW31450   4.071   0.540   6.067
10184SOL    HW131451   4.044   0.561   6.161
10184SOL    HW231452   4.059   0.442   6.050
10185SOL     OW31453   5.553   6.006   1.766
10185SOL    HW131454   5.512   6.097   1.766
10185SOL    HW231455   5.649   6.013   1.791
10186SOL     OW31456   5.715   3.294   2.646
10186SOL    HW131457   5.765   3.319   2.729
10186SOL    HW231458   5.702   3.375   2.589
10187SOL     OW31459   0.850   2.713   1.378
10187SOL    HW131460   0.778   2.766   1.333
10187SOL    HW231461   0.871   2.755   1.467
10188SOL     OW31462   3.720   6.347   0.950
10188SOL    HW131463   3.671   6.305   0.873
10188SOL    HW231464   3.795   6.403   0.916
10189SOL     OW31465   1.778   0.889   5.316
10189SOL    HW131466   1.733   0.978   5.318
10189SOL    HW231467   1.740   0.831   5.388
10190SOL     OW31468   4.453   3.147   1.470
10190SOL    HW131469   4.535   3.100   1.436
10190SOL    HW231470   4.412   3.200   1.395
10191SOL     OW31471   4.862   4.394   6.730
10191SOL    HW131472   4.810   4.462   6.677
10191SOL    HW231473   4.820   4.304   6.719
10192SOL     OW31474   4.600   0.741   5.889
10192SOL    HW131475   4.561   0.806   5.824
10192SOL    HW231476   4.548   0.743   5.974
10193SOL     OW31477   4.176   3.626   1.915
10193SOL    HW131478   4.227   3.546   1.948
10193SOL    HW231479   4.120   3.663   1.988
10194SOL     OW31480   5.841   4.232   5.110
10194SOL    HW131481   5.741   4.228   5.101
10194SOL    HW231482   5.882   4.228   5.019
10195SOL     OW31483   6.015   5.048   1.087
10195SOL    HW131484   6.014   5.000   1.175
10195SOL    HW231485   6.090   5.114   1.087
10196SOL     OW31486   4.975   1.648   4.743
10196SOL    HW131487   4.949   1.736   4.704
10196SOL    HW231488   4.923   1.632   4.827
10197SOL     OW31489   6.924   1.948   4.654
10197SOL    HW131490   6.906   1.928   4.558
10197SOL    HW231491   6.849   1.914   4.710
10198SOL     OW31492   3.713   0.633   1.820
10198SOL    HW131493   3.812   0.645   1.831
10198SOL    HW231494   3.674   0.716   1.781
10199SOL     OW31495   2.601   2.985   5.971
10199SOL    HW131496   2.687   3.003   5.924
10199SOL    HW231497   2.534   3.055   5.947
10200SOL     OW31498   4.656   2.201   1.049
10200SOL    HW131499   4.745   2.157   1.059
10200SOL    HW231500   4.645   2.234   0.955
10201SOL     OW31501   0.779   4.620   0.735
10201SOL    HW131502   0.801   4.602   0.831
10201SOL    HW231503   0.691   4.669   0.730
10202SOL     OW31504   3.770   2.401   6.440
10202SOL    HW131505   3.703   2.466   6.404
10202SOL    HW231506   3.739   2.308   6.423
10203SOL     OW31507   5.779   2.854   3.975
10203SOL    HW131508   5.796   2.793   4.052
10203SOL    HW231509   5.699   2.823   3.925
10204SOL     OW31510   5.660   0.111   6.582
10204SOL    HW131511   5.695   0.109   6.488
10204SOL    HW231512   5.658   0.019   6.619
10205SOL     OW31513   0.897   1.186   0.671
10205SOL    HW131514   0.953   1.146   0.599
10205SOL    HW231515   0.953   1.247   0.727
10206SOL     OW31516   0.365   0.618   5.885
10206SOL    HW131517   0.390   0.714   5.898
10206SOL    HW231518   0.363   0.597   5.788
10207SOL     OW31519   0.970   1.647   6.534
10207SOL    HW131520   1.038   1.675   6.465
10207SOL    HW231521   0.880   1.643   6.491
10208SOL     OW31522   6.091   4.835   3.896
10208SOL    HW131523   6.151   4.874   3.966
10208SOL    HW231524   6.051   4.750   3.929
10209SOL     OW31525   6.746   6.880   6.349
10209SOL    HW131526   6.656   6.840   6.366
10209SOL    HW231527   6.793   6.895   6.436
10210SOL     OW31528   4.864   6.444   1.383
10210SOL    HW131529   4.947   6.493   1.355
10210SOL    HW231530   4.836   6.477   1.473
10211SOL     OW31531   3.926   6.801   4.456
10211SOL    HW131532   4.004   6.780   4.515
10211SOL    HW231533   3.876   6.717   4.435
10212SOL     OW31534   1.051   0.745   5.190
10212SOL    HW131535   1.128   0.720   5.248
10212SOL    HW231536   0.968   0.748   5.244
10213SOL     OW31537   4.167   2.931   1.374
10213SOL    HW131538   4.079   2.958   1.414
10213SOL    HW231539   4.201   3.005   1.316
10214SOL     OW31540   0.936   2.609   1.890
10214SOL    HW131541   0.844   2.576   1.868
10214SOL    HW231542   1.002   2.534   1.878
10215SOL     OW31543   4.013   3.125   3.289
10215SOL    HW131544   4.025   3.180   3.372
10215SOL    HW231545   3.942   3.057   3.305
10216SOL     OW31546   0.189   1.169   1.081
10216SOL    HW131547   0.213   1.140   1.173
10216SOL    HW231548   0.119   1.241   1.086
10217SOL     OW31549   2.358   1.188   3.324
10217SOL    HW131550   2.268   1.228   3.342
10217SOL    HW231551   2.411   1.249   3.266
10218SOL     OW31552   1.248   3.209   2.164
10218SOL    HW131553   1.204   3.240   2.248
10218SOL    HW231554   1.322   3.272   2.140
10219SOL     OW31555   0.374   1.926   2.935
10219SOL    HW131556   0.458   1.912   2.987
10219SOL    HW231557   0.329   2.010   2.965
10220SOL     OW31558   3.774   2.871   1.259
10220SOL    HW131559   3.745   2.920   1.341
10220SOL    HW231560   3.809   2.781   1.284
10221SOL     OW31561   0.716   5.669   3.202
10221SOL    HW131562   0.745   5.761   3.228
10221SOL    HW231563   0.700   5.615   3.284
10222SOL     OW31564   2.820   3.369   5.267
10222SOL    HW131565   2.900   3.328   5.311
10222SOL    HW231566   2.738   3.320   5.296
10223SOL     OW31567   0.505   4.832   1.328
10223SOL    HW131568   0.425   4.888   1.350
10223SOL    HW231569   0.572   4.889   1.280
10224SOL     OW31570   6.269   3.194   3.539
10224SOL    HW131571   6.227   3.121   3.486
10224SOL    HW231572   6.366   3.201   3.517
10225SOL     OW31573   1.798   4.158   6.131
10225SOL    HW131574   1.876   4.145   6.070
10225SOL    HW231575   1.719   4.109   6.093
10226SOL     OW31576   4.102   0.574   6.759
10226SOL    HW131577   4.043   0.528   6.825
10226SOL    HW231578   4.182   0.610   6.807
10227SOL     OW31579   4.880   4.100   0.442
10227SOL    HW131580   4.883   4.139   0.534
10227SOL    HW231581   4.971   4.108   0.400
10228SOL     OW31582   6.636   6.912   0.987
10228SOL    HW131583   6.678   7.003   0.987
10228SOL    HW231584   6.554   6.913   0.929
10229SOL     OW31585   0.840   3.390   5.092
10229SOL    HW131586   0.792   3.312   5.054
10229SOL    HW231587   0.897   3.432   5.021
10230SOL     OW31588   6.614   5.685   2.757
10230SOL    HW131589   6.523   5.662   2.790
10230SOL    HW231590   6.677   5.693   2.834
10231SOL     OW31591   1.422   6.098   4.890
10231SOL    HW131592   1.483   6.095   4.969
10231SOL    HW231593   1.377   6.187   4.886
10232SOL     OW31594   2.494   0.937   3.340
10232SOL    HW131595   2.588   0.909   3.319
10232SOL    HW231596   2.472   1.020   3.290
10233SOL     OW31597   3.825   4.023   5.378
10233SOL    HW131598   3.863   4.056   5.464
10233SOL    HW231599   3.791   3.929   5.390
10234SOL     OW31600   6.110   6.808   1.473
10234SOL    HW131601   6.179   6.747   1.434
10234SOL    HW231602   6.154   6.894   1.502
10235SOL     OW31603   1.569   1.823   2.315
10235SOL    HW131604   1.601   1.881   2.240
10235SOL    HW231605   1.476   1.792   2.296
10236SOL     OW31606   2.086   6.259   7.022
10236SOL    HW131607   2.084   6.355   0.026
10236SOL    HW231608   2.160   6.211   0.046
10237SOL     OW31609   0.237   3.443   6.979
10237SOL    HW131610   0.281   3.503   0.023
10237SOL    HW231611   0.138   3.455   6.985
10238SOL     OW31612   4.083   4.826   1.103
10238SOL    HW131613   4.081   4.776   1.016
10238SOL    HW231614   4.134   4.772   1.171
10239SOL     OW31615   1.159   2.788   4.762
10239SOL    HW131616   1.173   2.690   4.746
10239SOL    HW231617   1.081   2.800   4.824
10240SOL     OW31618   2.712   6.592   1.660
10240SOL    HW131619   2.801   6.627   1.630
10240SOL    HW231620   2.697   6.617   1.755
10241SOL     OW31621   5.041   2.129   1.914
10241SOL    HW131622   4.978   2.113   1.837
10241SOL    HW231623   4.992   2.120   2.000
10242SOL     OW31624   0.396   2.052   0.682
10242SOL    HW131625   0.324   1.987   0.709
10242SOL    HW231626   0.412   2.045   0.584
10243SOL     OW31627   2.482   4.525   1.409
10243SOL    HW131628   2.529   4.591   1.466
10243SOL    HW231629   2.383   4.533   1.423
10244SOL     OW31630   2.270   3.891   1.133
10244SOL    HW131631   2.317   3.803   1.134
10244SOL    HW231632   2.331   3.962   1.169
10245SOL     OW31633   3.558   3.934   1.361
10245SOL    HW131634   3.645   3.921   1.312
10245SOL    HW231635   3.527   3.846   1.396
10246SOL     OW31636   3.248   3.176   4.380
10246SOL    HW131637   3.272   3.095   4.326
10246SOL    HW231638   3.227   3.252   4.318
10247SOL     OW31639   0.703   4.149   5.370
10247SOL    HW131640   0.679   4.160   5.274
10247SOL    HW231641   0.770   4.218   5.397
10248SOL     OW31642   1.305   0.239   3.483
10248SOL    HW131643   1.325   0.285   3.570
10248SOL    HW231644   1.381   0.177   3.461
10249SOL     OW31645   1.969   4.651   0.182
10249SOL    HW131646   1.920   4.732   0.215
10249SOL    HW231647   1.961   4.578   0.250
10250SOL     OW31648   6.505   3.609   0.304
10250SOL    HW131649   6.563   3.645   0.378
10250SOL    HW231650   6.522   3.512   0.292
10251SOL     OW31651   2.095   0.944   4.146
10251SOL    HW131652   2.122   0.930   4.051
10251SOL    HW231653   2.015   1.004   4.149
10252SOL     OW31654   4.549   3.414   5.579
10252SOL    HW131655   4.513   3.398   5.487
10252SOL    HW231656   4.484   3.380   5.647
10253SOL     OW31657   3.893   6.528   0.847
10253SOL    HW131658   3.903   6.587   0.927
10253SOL    HW231659   3.980   6.522   0.799
10254SOL     OW31660   4.601   1.318   5.355
10254SOL    HW131661   4.670   1.325   5.283
10254SOL    HW231662   4.533   1.249   5.330
10255SOL     OW31663   2.365   6.557   1.081
10255SOL    HW131664   2.389   6.623   1.152
10255SOL    HW231665   2.266   6.552   1.072
10256SOL     OW31666   5.096   0.953   1.841
10256SOL    HW131667   5.164   0.908   1.898
10256SOL    HW231668   5.142   0.999   1.764
10257SOL     OW31669   2.666   4.620   3.941
10257SOL    HW131670   2.678   4.657   3.849
10257SOL    HW231671   2.597   4.548   3.940
10258SOL     OW31672   3.561   1.936   3.264
10258SOL    HW131673   3.520   1.853   3.302
10258SOL    HW231674   3.654   1.916   3.232
10259SOL     OW31675   0.939   4.083   3.802
10259SOL    HW131676   0.958   4.175   3.836
10259SOL    HW231677   0.846   4.056   3.827
10260SOL     OW31678   1.165   1.594   3.542
10260SOL    HW131679   1.220   1.552   3.614
10260SOL    HW231680   1.089   1.534   3.518
10261SOL     OW31681   0.472   4.283   0.386
10261SOL    HW131682   0.386   4.334   0.389
10261SOL    HW231683   0.520   4.295   0.473
10262SOL     OW31684   3.406   0.031   6.410
10262SOL    HW131685   3.451   0.111   6.449
10262SOL    HW231686   3.475   6.995   6.369
10263SOL     OW31687   5.664   0.620   0.250
10263SOL    HW131688   5.591   0.675   0.208
10263SOL    HW231689   5.651   0.524   0.224
10264SOL     OW31690   5.803   5.017   6.573
10264SOL    HW131691   5.715   4.971   6.561
10264SOL    HW231692   5.850   4.980   6.653
10265SOL     OW31693   2.625   2.612   0.409
10265SOL    HW131694   2.675   2.687   0.364
10265SOL    HW231695   2.545   2.588   0.355
10266SOL     OW31696   3.215   2.993   2.864
10266SOL    HW131697   3.192   3.039   2.950
10266SOL    HW231698   3.280   2.920   2.882
10267SOL     OW31699   5.274   1.041   0.962
10267SOL    HW131700   5.286   1.027   1.060
10267SOL    HW231701   5.201   0.983   0.928
10268SOL     OW31702   5.621   6.603   2.021
10268SOL    HW131703   5.549   6.646   1.968
10268SOL    HW231704   5.706   6.603   1.969
10269SOL     OW31705   1.307   2.826   6.779
10269SOL    HW131706   1.285   2.888   6.854
10269SOL    HW231707   1.377   2.866   6.720
10270SOL     OW31708   3.523   5.927   2.381
10270SOL    HW131709   3.616   5.965   2.384
10270SOL    HW231710   3.476   5.961   2.300
10271SOL     OW31711   3.126   2.798   0.108
10271SOL    HW131712   3.165   2.763   0.193
10271SOL    HW231713   3.026   2.789   0.111
10272SOL     OW31714   0.454   1.163   3.867
10272SOL    HW131715   0.462   1.118   3.956
10272SOL    HW231716   0.364   1.143   3.827
10273SOL     OW31717   2.979   4.868   4.492
10273SOL    HW131718   2.967   4.807   4.414
10273SOL    HW231719   2.912   4.847   4.563
10274SOL     OW31720   0.834   4.947   5.967
10274SOL    HW131721   0.926   4.907   5.971
10274SOL    HW231722   0.767   4.875   5.951
10275SOL     OW31723   6.956   0.387   2.386
10275SOL    HW131724   6.910   0.312   2.433
10275SOL    HW231725   0.017   0.354   2.344
10276SOL     OW31726   4.582   5.801   5.746
10276SOL    HW131727   4.496   5.765   5.709
10276SOL    HW231728   4.658   5.765   5.692
10277SOL     OW31729   0.893   0.092   3.991
10277SOL    HW131730   0.821   0.137   3.937
10277SOL    HW231731   0.890   7.017   3.974
10278SOL     OW31732   0.157   0.701   4.347
10278SOL    HW131733   0.124   0.795   4.336
10278SOL    HW231734   0.115   0.660   4.428
10279SOL     OW31735   2.617   5.586   3.811
10279SOL    HW131736   2.670   5.521   3.757
10279SOL    HW231737   2.527   5.599   3.768
10280SOL     OW31738   5.418   3.375   6.823
10280SOL    HW131739   5.348   3.429   6.777
10280SOL    HW231740   5.508   3.398   6.785
10281SOL     OW31741   0.095   2.557   2.896
10281SOL    HW131742   0.054   2.630   2.951
10281SOL    HW231743   0.192   2.549   2.920
10282SOL     OW31744   5.113   3.050   3.366
10282SOL    HW131745   5.015   3.064   3.384
10282SOL    HW231746   5.161   3.040   3.453
10283SOL     OW31747   0.766   2.983   0.462
10283SOL    HW131748   0.669   3.005   0.467
10283SOL    HW231749   0.789   2.918   0.533
10284SOL     OW31750   6.559   2.096   4.057
10284SOL    HW131751   6.497   2.021   4.035
10284SOL    HW231752   6.607   2.125   3.974
10285SOL     OW31753   3.874   6.681   3.206
10285SOL    HW131754   3.938   6.690   3.283
10285SOL    HW231755   3.925   6.668   3.121
10286SOL     OW31756   3.642   0.360   4.103
10286SOL    HW131757   3.597   0.275   4.132
10286SOL    HW231758   3.669   0.412   4.184
10287SOL     OW31759   1.719   5.834   1.902
10287SOL    HW131760   1.717   5.740   1.935
10287SOL    HW231761   1.776   5.841   1.820
10288SOL     OW31762   3.729   6.944   4.571
10288SOL    HW131763   3.722   0.019   4.556
10288SOL    HW231764   3.812   6.910   4.528
10289SOL     OW31765   3.373   6.338   1.232
10289SOL    HW131766   3.320   6.356   1.315
10289SOL    HW231767   3.310   6.334   1.154
10290SOL     OW31768   2.910   3.233   2.455
10290SOL    HW131769   2.836   3.178   2.416
10290SOL    HW231770   2.989   3.174   2.473
10291SOL     OW31771   3.785   1.591   3.285
10291SOL    HW131772   3.854   1.560   3.351
10291SOL    HW231773   3.745   1.512   3.239
10292SOL     OW31774   0.638   1.308   6.057
10292SOL    HW131775   0.569   1.299   5.984
10292SOL    HW231776   0.641   1.402   6.089
10293SOL     OW31777   0.734   3.013   3.641
10293SOL    HW131778   0.783   2.928   3.620
10293SOL    HW231779   0.636   2.996   3.643
10294SOL     OW31780   4.004   1.838   3.015
10294SOL    HW131781   3.972   1.777   2.942
10294SOL    HW231782   4.093   1.807   3.048
10295SOL     OW31783   1.249   2.580   5.933
10295SOL    HW131784   1.287   2.553   6.021
10295SOL    HW231785   1.322   2.614   5.874
10296SOL     OW31786   5.960   1.013   5.868
10296SOL    HW131787   5.916   1.057   5.946
10296SOL    HW231788   5.964   0.914   5.883
10297SOL     OW31789   2.201   1.300   6.592
10297SOL    HW131790   2.128   1.272   6.529
10297SOL    HW231791   2.235   1.390   6.566
10298SOL     OW31792   1.399   4.529   2.030
10298SOL    HW131793   1.453   4.582   1.965
10298SOL    HW231794   1.310   4.508   1.991
10299SOL     OW31795   4.132   6.612   2.430
10299SOL    HW131796   4.155   6.698   2.384
10299SOL    HW231797   4.072   6.557   2.371
10300SOL     OW31798   1.351   4.008   1.932
10300SOL    HW131799   1.296   3.947   1.876
10300SOL    HW231800   1.334   3.990   2.029
10301SOL     OW31801   4.531   1.593   5.430
10301SOL    HW131802   4.572   1.508   5.398
10301SOL    HW231803   4.577   1.623   5.514
10302SOL     OW31804   2.490   6.135   3.844
10302SOL    HW131805   2.554   6.080   3.791
10302SOL    HW231806   2.515   6.132   3.941
10303SOL     OW31807   1.176   5.504   3.925
10303SOL    HW131808   1.111   5.579   3.911
10303SOL    HW231809   1.131   5.417   3.905
10304SOL     OW31810   6.163   0.500   0.975
10304SOL    HW131811   6.114   0.466   1.055
10304SOL    HW231812   6.262   0.488   0.990
10305SOL     OW31813   2.581   4.376   6.075
10305SOL    HW131814   2.517   4.433   6.023
10305SOL    HW231815   2.671   4.379   6.031
10306SOL     OW31816   5.532   5.906   0.357
10306SOL    HW131817   5.487   5.918   0.269
10306SOL    HW231818   5.578   5.990   0.384
10307SOL     OW31819   3.292   1.573   4.640
10307SOL    HW131820   3.284   1.658   4.693
10307SOL    HW231821   3.325   1.593   4.548
10308SOL     OW31822   2.269   4.275   2.201
10308SOL    HW131823   2.339   4.346   2.205
10308SOL    HW231824   2.291   4.211   2.128
10309SOL     OW31825   6.576   1.389   6.024
10309SOL    HW131826   6.632   1.351   6.098
10309SOL    HW231827   6.492   1.428   6.063
10310SOL     OW31828   3.389   3.590   0.045
10310SOL    HW131829   3.450   3.667   0.030
10310SOL    HW231830   3.424   3.534   0.120
10311SOL     OW31831   6.752   5.763   0.147
10311SOL    HW131832   6.733   5.706   0.227
10311SOL    HW231833   6.667   5.779   0.097
10312SOL     OW31834   4.265   0.029   2.656
10312SOL    HW131835   4.183   0.082   2.676
10312SOL    HW231836   4.242   6.956   2.649
10313SOL     OW31837   3.786   6.000   2.350
10313SOL    HW131838   3.795   5.905   2.378
10313SOL    HW231839   3.787   6.059   2.431
10314SOL     OW31840   0.017   0.441   0.320
10314SOL    HW131841   6.984   0.505   0.268
10314SOL    HW231842   6.984   0.391   0.385
10315SOL     OW31843   5.275   6.354   4.223
10315SOL    HW131844   5.363   6.391   4.254
10315SOL    HW231845   5.234   6.301   4.297
10316SOL     OW31846   6.682   2.550   6.064
10316SOL    HW131847   6.760   2.587   6.014
10316SOL    HW231848   6.636   2.481   6.008
10317SOL     OW31849   4.611   6.442   6.420
10317SOL    HW131850   4.576   6.483   6.336
10317SOL    HW231851   4.683   6.376   6.398
10318SOL     OW31852   4.837   1.084   6.191
10318SOL    HW131853   4.815   0.989   6.212
10318SOL    HW231854   4.753   1.132   6.165
10319SOL     OW31855   1.020   4.341   5.263
10319SOL    HW131856   0.948   4.384   5.317
10319SOL    HW231857   1.105   4.340   5.317
10320SOL     OW31858   0.360   6.236   3.080
10320SOL    HW131859   0.329   6.170   3.147
10320SOL    HW231860   0.327   6.210   2.989
10321SOL     OW31861   5.854   1.680   1.999
10321SOL    HW131862   5.791   1.715   2.068
10321SOL    HW231863   5.948   1.699   2.026
10322SOL     OW31864   4.109   5.150   5.148
10322SOL    HW131865   4.022   5.199   5.153
10322SOL    HW231866   4.183   5.210   5.177
10323SOL     OW31867   6.543   4.826   5.030
10323SOL    HW131868   6.603   4.812   5.108
10323SOL    HW231869   6.537   4.742   4.976
10324SOL     OW31870   3.544   3.282   3.098
10324SOL    HW131871   3.643   3.289   3.089
10324SOL    HW231872   3.501   3.294   3.008
10325SOL     OW31873   0.275   4.983   2.526
10325SOL    HW131874   0.316   5.045   2.593
10325SOL    HW231875   0.336   4.974   2.447
10326SOL     OW31876   6.072   3.902   6.476
10326SOL    HW131877   6.027   3.879   6.562
10326SOL    HW231878   6.032   3.986   6.439
10327SOL     OW31879   2.392   2.994   1.772
10327SOL    HW131880   2.322   3.063   1.753
10327SOL    HW231881   2.350   2.913   1.813
10328SOL     OW31882   5.994   2.339   1.261
10328SOL    HW131883   5.990   2.386   1.173
10328SOL    HW231884   5.905   2.344   1.306
10329SOL     OW31885   2.338   1.300   3.028
10329SOL    HW131886   2.240   1.294   3.045
10329SOL    HW231887   2.369   1.394   3.041
10330SOL     OW31888   4.257   0.523   1.720
10330SOL    HW131889   4.286   0.441   1.672
10330SOL    HW231890   4.305   0.529   1.808
10331SOL     OW31891   6.245   6.305   6.460
10331SOL    HW131892   6.156   6.350   6.459
10331SOL    HW231893   6.295   6.327   6.376
10332SOL     OW31894   6.824   0.211   6.498
10332SOL    HW131895   6.861   0.205   6.405
10332SOL    HW231896   6.870   0.143   6.556
10333SOL     OW31897   0.562   5.541   4.949
10333SOL    HW131898   0.525   5.634   4.951
10333SOL    HW231899   0.625   5.532   4.873
10334SOL     OW31900   3.161   0.521   4.378
10334SOL    HW131901   3.206   0.585   4.316
10334SOL    HW231902   3.072   0.559   4.405
10335SOL     OW31903   1.191   4.000   6.763
10335SOL    HW131904   1.223   3.996   6.857
10335SOL    HW231905   1.270   4.008   6.701
10336SOL     OW31906   6.490   0.176   2.315
10336SOL    HW131907   6.568   0.117   2.295
10336SOL    HW231908   6.517   0.245   2.382
10337SOL     OW31909   0.609   6.024   6.682
10337SOL    HW131910   0.596   5.940   6.629
10337SOL    HW231911   0.635   5.999   6.776
10338SOL     OW31912   1.676   6.204   2.490
10338SOL    HW131913   1.712   6.276   2.550
10338SOL    HW231914   1.587   6.231   2.456
10339SOL     OW31915   6.121   3.462   5.805
10339SOL    HW131916   6.145   3.559   5.808
10339SOL    HW231917   6.068   3.438   5.886
10340SOL     OW31918   1.851   3.150   6.943
10340SOL    HW131919   1.770   3.147   6.884
10340SOL    HW231920   1.881   3.245   6.952
10341SOL     OW31921   2.106   3.479   2.294
10341SOL    HW131922   2.113   3.392   2.342
10341SOL    HW231923   2.125   3.466   2.197
10342SOL     OW31924   1.776   0.436   3.740
10342SOL    HW131925   1.822   0.410   3.656
10342SOL    HW231926   1.810   0.381   3.816
10343SOL     OW31927   2.708   5.266   0.173
10343SOL    HW131928   2.642   5.227   0.109
10343SOL    HW231929   2.757   5.191   0.219
10344SOL     OW31930   3.859   4.082   0.118
10344SOL    HW131931   3.808   4.167   0.124
10344SOL    HW231932   3.957   4.101   0.128
10345SOL     OW31933   1.662   2.987   5.696
10345SOL    HW131934   1.722   3.015   5.771
10345SOL    HW231935   1.656   2.888   5.694
10346SOL     OW31936   0.224   5.610   1.267
10346SOL    HW131937   0.306   5.582   1.217
10346SOL    HW231938   0.150   5.629   1.203
10347SOL     OW31939   5.062   1.003   3.017
10347SOL    HW131940   5.137   0.942   2.993
10347SOL    HW231941   5.006   0.962   3.089
10348SOL     OW31942   6.517   2.602   0.236
10348SOL    HW131943   6.457   2.634   0.163
10348SOL    HW231944   6.607   2.643   0.227
10349SOL     OW31945   0.805   0.670   6.785
10349SOL    HW131946   0.867   0.593   6.799
10349SOL    HW231947   0.859   0.754   6.777
10350SOL     OW31948   2.733   5.228   5.029
10350SOL    HW131949   2.738   5.147   4.970
10350SOL    HW231950   2.637   5.258   5.036
10351SOL     OW31951   4.783   5.179   0.163
10351SOL    HW131952   4.828   5.152   0.078
10351SOL    HW231953   4.684   5.167   0.153
10352SOL     OW31954   3.078   0.666   6.340
10352SOL    HW131955   3.084   0.608   6.259
10352SOL    HW231956   2.988   0.656   6.381
10353SOL     OW31957   6.837   3.034   4.539
10353SOL    HW131958   6.909   3.030   4.609
10353SOL    HW231959   6.821   2.943   4.502
10354SOL     OW31960   5.538   1.425   1.384
10354SOL    HW131961   5.475   1.500   1.404
10354SOL    HW231962   5.605   1.455   1.316
10355SOL     OW31963   2.716   6.296   1.888
10355SOL    HW131964   2.649   6.225   1.909
10355SOL    HW231965   2.669   6.384   1.876
10356SOL     OW31966   0.315   4.347   6.288
10356SOL    HW131967   0.333   4.344   6.189
10356SOL    HW231968   0.221   4.377   6.304
10357SOL     OW31969   2.042   2.749   6.470
10357SOL    HW131970   2.073   2.844   6.480
10357SOL    HW231971   2.108   2.697   6.416
10358SOL     OW31972   0.255   2.291   2.754
10358SOL    HW131973   0.258   2.297   2.654
10358SOL    HW231974   0.160   2.303   2.785
10359SOL     OW31975   0.660   1.404   0.899
10359SOL    HW131976   0.739   1.363   0.944
10359SOL    HW231977   0.576   1.363   0.935
10360SOL     OW31978   4.561   5.153   3.351
10360SOL    HW131979   4.520   5.077   3.300
10360SOL    HW231980   4.545   5.238   3.302
10361SOL     OW31981   2.593   6.658   2.394
10361SOL    HW131982   2.665   6.589   2.392
10361SOL    HW231983   2.584   6.694   2.487
10362SOL     OW31984   1.924   4.635   4.680
10362SOL    HW131985   1.853   4.592   4.624
10362SOL    HW231986   1.973   4.703   4.624
10363SOL     OW31987   4.675   0.741   3.293
10363SOL    HW131988   4.646   0.802   3.219
10363SOL    HW231989   4.596   0.715   3.347
10364SOL     OW31990   3.094   3.813   1.584
10364SOL    HW131991   3.062   3.894   1.535
10364SOL    HW231992   3.060   3.816   1.678
10365SOL     OW31993   3.705   5.953   0.307
10365SOL    HW131994   3.694   5.965   0.406
10365SOL    HW231995   3.615   5.947   0.264
10366SOL     OW31996   2.640   0.224   4.255
10366SOL    HW131997   2.566   0.237   4.189
10366SOL    HW231998   2.603   0.229   4.347
10367SOL     OW31999   5.765   1.983   2.487
10367SOL    HW132000   5.700   2.053   2.518
10367SOL    HW232001   5.770   1.910   2.554
10368SOL     OW32002   2.527   0.772   1.366
10368SOL    HW132003   2.451   0.759   1.429
10368SOL    HW232004   2.512   0.855   1.312
10369SOL     OW32005   4.003   0.862   0.414
10369SOL    HW132006   4.009   0.772   0.372
10369SOL    HW232007   4.095   0.900   0.424
10370SOL     OW32008   4.453   0.729   5.041
10370SOL    HW132009   4.534   0.761   5.090
10370SOL    HW232010   4.474   0.642   4.996
10371SOL     OW32011   3.182   5.601   5.786
10371SOL    HW132012   3.238   5.571   5.863
10371SOL    HW232013   3.085   5.598   5.812
10372SOL     OW32014   2.466   1.044   5.081
10372SOL    HW132015   2.443   0.959   5.128
10372SOL    HW232016   2.551   1.033   5.031
10373SOL     OW32017   1.658   6.466   4.585
10373SOL    HW132018   1.560   6.487   4.596
10373SOL    HW232019   1.697   6.444   4.675
10374SOL     OW32020   2.928   1.413   3.644
10374SOL    HW132021   2.929   1.495   3.702
10374SOL    HW232022   3.022   1.392   3.616
10375SOL     OW32023   5.152   2.188   0.224
10375SOL    HW132024   5.202   2.130   0.288
10375SOL    HW232025   5.056   2.161   0.222
10376SOL     OW32026   0.945   0.862   3.888
10376SOL    HW132027   0.888   0.781   3.873
10376SOL    HW232028   1.041   0.835   3.888
10377SOL     OW32029   0.329   0.518   3.576
10377SOL    HW132030   0.385   0.591   3.617
10377SOL    HW232031   0.235   0.552   3.564
10378SOL     OW32032   6.998   0.932   6.122
10378SOL    HW132033   6.928   0.964   6.187
10378SOL    HW232034   6.955   0.875   6.052
10379SOL     OW32035   5.234   0.370   5.443
10379SOL    HW132036   5.311   0.334   5.390
10379SOL    HW232037   5.257   0.460   5.479
10380SOL     OW32038   5.687   0.674   2.684
10380SOL    HW132039   5.623   0.679   2.607
10380SOL    HW232040   5.772   0.632   2.653
10381SOL     OW32041   4.729   5.440   5.994
10381SOL    HW132042   4.653   5.496   6.027
10381SOL    HW232043   4.816   5.483   6.019
10382SOL     OW32044   2.594   5.448   6.114
10382SOL    HW132045   2.691   5.464   6.135
10382SOL    HW232046   2.551   5.400   6.190
10383SOL     OW32047   1.562   3.383   0.524
10383SOL    HW132048   1.510   3.330   0.590
10383SOL    HW232049   1.602   3.321   0.456
10384SOL     OW32050   6.798   0.136   1.006
10384SOL    HW132051   6.832   0.141   1.100
10384SOL    HW232052   6.858   0.077   0.952
10385SOL     OW32053   5.828   0.176   6.326
10385SOL    HW132054   5.810   0.124   6.242
10385SOL    HW232055   5.906   0.135   6.373
10386SOL     OW32056   6.325   3.456   4.982
10386SOL    HW132057   6.341   3.461   5.081
10386SOL    HW232058   6.303   3.362   4.956
10387SOL     OW32059   2.785   2.339   3.297
10387SOL    HW132060   2.846   2.415   3.319
10387SOL    HW232061   2.757   2.344   3.202
10388SOL     OW32062   0.939   5.069   3.309
10388SOL    HW132063   1.025   5.078   3.360
10388SOL    HW232064   0.931   5.145   3.245
10389SOL     OW32065   0.654   4.770   3.205
10389SOL    HW132066   0.606   4.855   3.185
10389SOL    HW232067   0.730   4.758   3.141
10390SOL     OW32068   1.884   3.873   2.924
10390SOL    HW132069   1.905   3.916   2.836
10390SOL    HW232070   1.964   3.880   2.984
10391SOL     OW32071   1.427   6.094   6.403
10391SOL    HW132072   1.467   6.014   6.449
10391SOL    HW232073   1.426   6.078   6.304
10392SOL     OW32074   5.823   4.741   0.229
10392SOL    HW132075   5.847   4.677   0.155
10392SOL    HW232076   5.905   4.791   0.257
10393SOL     OW32077   1.083   1.383   3.953
10393SOL    HW132078   1.081   1.283   3.955
10393SOL    HW232079   1.049   1.419   4.039
10394SOL     OW32080   2.121   6.523   6.867
10394SOL    HW132081   2.103   6.552   6.960
10394SOL    HW232082   2.042   6.544   6.809
10395SOL     OW32083   0.116   0.789   3.927
10395SOL    HW132084   0.210   0.818   3.904
10395SOL    HW232085   0.071   0.863   3.977
10396SOL     OW32086   0.904   0.091   3.684
10396SOL    HW132087   0.975   0.040   3.734
10396SOL    HW232088   0.939   0.182   3.660
10397SOL     OW32089   4.226   0.941   3.123
10397SOL    HW132090   4.271   0.953   3.035
10397SOL    HW232091   4.145   1.000   3.127
10398SOL     OW32092   6.365   3.004   1.460
10398SOL    HW132093   6.295   3.071   1.433
10398SOL    HW232094   6.453   3.032   1.422
10399SOL     OW32095   4.490   2.147   5.647
10399SOL    HW132096   4.508   2.061   5.599
10399SOL    HW232097   4.542   2.220   5.604
10400SOL     OW32098   2.490   5.866   2.832
10400SOL    HW132099   2.417   5.924   2.797
10400SOL    HW232100   2.453   5.775   2.852
10401SOL     OW32101   6.892   5.778   2.465
10401SOL    HW132102   6.795   5.805   2.469
10401SOL    HW232103   6.947   5.857   2.437
10402SOL     OW32104   1.087   3.414   5.198
10402SOL    HW132105   0.994   3.403   5.163
10402SOL    HW232106   1.132   3.490   5.151
10403SOL     OW32107   5.179   1.593   1.945
10403SOL    HW132108   5.205   1.581   1.849
10403SOL    HW232109   5.211   1.682   1.977
10404SOL     OW32110   0.217   6.568   4.070
10404SOL    HW132111   0.206   6.644   4.006
10404SOL    HW232112   0.249   6.487   4.022
10405SOL     OW32113   1.825   6.298   5.658
10405SOL    HW132114   1.894   6.230   5.681
10405SOL    HW232115   1.828   6.372   5.725
10406SOL     OW32116   2.638   4.699   6.512
10406SOL    HW132117   2.602   4.663   6.425
10406SOL    HW232118   2.707   4.635   6.547
10407SOL     OW32119   1.138   1.724   6.304
10407SOL    HW132120   1.148   1.695   6.209
10407SOL    HW232121   1.180   1.814   6.315
10408SOL     OW32122   4.583   4.405   3.551
10408SOL    HW132123   4.488   4.428   3.526
10408SOL    HW232124   4.645   4.464   3.500
10409SOL     OW32125   0.336   3.903   1.848
10409SOL    HW132126   0.314   3.957   1.929
10409SOL    HW232127   0.435   3.893   1.840
10410SOL     OW32128   4.469   0.853   1.164
10410SOL    HW132129   4.454   0.952   1.153
10410SOL    HW232130   4.464   0.829   1.260
10411SOL     OW32131   2.475   4.819   3.085
10411SOL    HW132132   2.461   4.828   2.986
10411SOL    HW232133   2.539   4.744   3.103
10412SOL     OW32134   1.440   2.350   0.274
10412SOL    HW132135   1.532   2.379   0.301
10412SOL    HW232136   1.445   2.265   0.223
10413SOL     OW32137   0.282   2.200   6.758
10413SOL    HW132138   0.295   2.177   6.661
10413SOL    HW232139   0.330   2.133   6.815
10414SOL     OW32140   5.316   6.568   6.712
10414SOL    HW132141   5.379   6.588   6.787
10414SOL    HW232142   5.366   6.523   6.638
10415SOL     OW32143   0.401   6.270   3.449
10415SOL    HW132144   0.464   6.326   3.395
10415SOL    HW232145   0.454   6.206   3.505
10416SOL     OW32146   5.920   2.423   4.889
10416SOL    HW132147   5.820   2.422   4.894
10416SOL    HW232148   5.955   2.330   4.902
10417SOL     OW32149   4.040   4.917   3.038
10417SOL    HW132150   4.007   4.988   3.100
10417SOL    HW232151   4.077   4.841   3.091
10418SOL     OW32152   6.748   4.212   6.158
10418SOL    HW132153   6.691   4.190   6.078
10418SOL    HW232154   6.693   4.260   6.226
10419SOL     OW32155   2.773   0.961   5.330
10419SOL    HW132156   2.719   0.987   5.410
10419SOL    HW232157   2.742   1.013   5.250
10420SOL     OW32158   6.718   3.241   3.107
10420SOL    HW132159   6.633   3.189   3.093
10420SOL    HW232160   6.708   3.300   3.187
10421SOL     OW32161   1.076   4.646   3.905
10421SOL    HW132162   1.135   4.726   3.915
10421SOL    HW232163   1.113   4.570   3.958
10422SOL     OW32164   6.919   3.583   4.381
10422SOL    HW132165   6.985   3.568   4.308
10422SOL    HW232166   6.875   3.497   4.405
10423SOL     OW32167   3.560   4.912   3.918
10423SOL    HW132168   3.549   5.009   3.898
10423SOL    HW232169   3.507   4.858   3.852
10424SOL     OW32170   3.726   1.119   6.611
10424SOL    HW132171   3.798   1.168   6.561
10424SOL    HW232172   3.747   1.021   6.612
10425SOL     OW32173   2.293   0.892   0.607
10425SOL    HW132174   2.347   0.963   0.653
10425SOL    HW232175   2.344   0.806   0.607
10426SOL     OW32176   5.728   2.688   5.943
10426SOL    HW132177   5.686   2.779   5.938
10426SOL    HW232178   5.826   2.697   5.960
10427SOL     OW32179   5.886   6.728   4.676
10427SOL    HW132180   5.862   6.654   4.739
10427SOL    HW232181   5.832   6.809   4.697
10428SOL     OW32182   1.983   0.959   3.636
10428SOL    HW132183   1.985   0.879   3.576
10428SOL    HW232184   2.034   1.034   3.593
10429SOL     OW32185   0.792   3.529   2.687
10429SOL    HW132186   0.883   3.543   2.649
10429SOL    HW232187   0.746   3.455   2.638
10430SOL     OW32188   3.491   0.658   3.813
10430SOL    HW132189   3.589   0.671   3.824
10430SOL    HW232190   3.471   0.633   3.718
10431SOL     OW32191   3.300   2.156   3.891
10431SOL    HW132192   3.251   2.088   3.945
10431SOL    HW232193   3.275   2.248   3.922
10432SOL     OW32194   6.923   6.656   5.975
10432SOL    HW132195   6.982   6.578   5.995
10432SOL    HW232196   6.933   6.725   6.047
10433SOL     OW32197   1.654   0.010   2.082
10433SOL    HW132198   1.703   0.072   2.020
10433SOL    HW232199   1.579   0.060   2.126
10434SOL     OW32200   4.528   6.438   5.759
10434SOL    HW132201   4.603   6.397   5.812
10434SOL    HW232202   4.442   6.425   5.808
10435SOL     OW32203   1.032   2.753   6.779
10435SOL    HW132204   1.130   2.767   6.791
10435SOL    HW232205   0.983   2.833   6.815
10436SOL     OW32206   0.350   4.563   5.037
10436SOL    HW132207   0.449   4.573   5.046
10436SOL    HW232208   0.311   4.649   5.003
10437SOL     OW32209   5.704   5.125   5.010
10437SOL    HW132210   5.742   5.035   4.990
10437SOL    HW232211   5.779   5.191   5.022
10438SOL     OW32212   6.781   6.104   6.263
10438SOL    HW132213   6.689   6.068   6.252
10438SOL    HW232214   6.797   6.176   6.195
10439SOL     OW32215   6.876   6.896   4.340
10439SOL    HW132216   6.792   6.893   4.393
10439SOL    HW232217   6.952   6.924   4.400
10440SOL     OW32218   6.905   2.135   6.424
10440SOL    HW132219   6.853   2.161   6.505
10440SOL    HW232220   6.975   2.068   6.450
10441SOL     OW32221   3.710   2.119   0.768
10441SOL    HW132222   3.729   2.170   0.852
10441SOL    HW232223   3.713   2.181   0.690
10442SOL     OW32224   2.358   1.840   5.550
10442SOL    HW132225   2.390   1.934   5.542
10442SOL    HW232226   2.312   1.813   5.466
10443SOL     OW32227   0.302   1.168   3.094
10443SOL    HW132228   0.361   1.209   3.164
10443SOL    HW232229   0.294   1.070   3.111
10444SOL     OW32230   3.978   5.462   4.411
10444SOL    HW132231   3.892   5.480   4.458
10444SOL    HW232232   4.012   5.372   4.439
10445SOL     OW32233   2.007   4.245   2.813
10445SOL    HW132234   1.925   4.246   2.757
10445SOL    HW232235   1.982   4.228   2.909
10446SOL     OW32236   1.965   4.053   5.055
10446SOL    HW132237   1.968   4.151   5.070
10446SOL    HW232238   1.903   4.032   4.979
10447SOL     OW32239   0.141   1.596   3.081
10447SOL    HW132240   0.214   1.615   3.015
10447SOL    HW232241   0.092   1.513   3.053
10448SOL     OW32242   2.604   6.563   2.832
10448SOL    HW132243   2.607   6.640   2.769
10448SOL    HW232244   2.668   6.579   2.907
10449SOL     OW32245   3.701   5.842   6.573
10449SOL    HW132246   3.747   5.802   6.653
10449SOL    HW232247   3.640   5.774   6.533
10450SOL     OW32248   6.954   0.251   6.251
10450SOL    HW132249   6.995   0.341   6.264
10450SOL    HW232250   7.024   0.180   6.263
10451SOL     OW32251   2.366   0.687   3.779
10451SOL    HW132252   2.452   0.720   3.740
10451SOL    HW232253   2.295   0.755   3.763
10452SOL     OW32254   7.021   3.532   4.139
10452SOL    HW132255   0.073   3.576   4.186
10452SOL    HW232256   0.031   3.485   4.057
10453SOL     OW32257   4.489   5.468   3.453
10453SOL    HW132258   4.447   5.546   3.407
10453SOL    HW232259   4.417   5.409   3.491
10454SOL     OW32260   6.596   0.695   5.958
10454SOL    HW132261   6.554   0.718   5.870
10454SOL    HW232262   6.583   0.598   5.977
10455SOL     OW32263   5.833   6.574   4.341
10455SOL    HW132264   5.824   6.502   4.410
10455SOL    HW232265   5.921   6.565   4.295
10456SOL     OW32266   0.287   5.166   0.078
10456SOL    HW132267   0.279   5.266   0.079
10456SOL    HW232268   0.262   5.130   0.168
10457SOL     OW32269   3.965   2.523   0.013
10457SOL    HW132270   4.038   2.581   0.050
10457SOL    HW232271   4.006   2.448   6.984
10458SOL     OW32272   6.885   6.229   6.667
10458SOL    HW132273   6.935   6.264   6.587
10458SOL    HW232274   6.788   6.248   6.655
10459SOL     OW32275   6.860   5.698   0.784
10459SOL    HW132276   6.787   5.654   0.836
10459SOL    HW232277   6.948   5.675   0.825
10460SOL     OW32278   0.628   3.277   0.235
10460SOL    HW132279   0.696   3.279   0.162
10460SOL    HW232280   0.537   3.297   0.197
10461SOL     OW32281   0.258   5.612   5.128
10461SOL    HW132282   0.163   5.584   5.140
10461SOL    HW232283   0.313   5.572   5.202
10462SOL     OW32284   4.229   1.606   0.828
10462SOL    HW132285   4.197   1.629   0.736
10462SOL    HW232286   4.312   1.551   0.821
10463SOL     OW32287   4.928   2.988   5.893
10463SOL    HW132288   4.927   3.087   5.878
10463SOL    HW232289   4.834   2.955   5.897
10464SOL     OW32290   5.938   5.151   2.881
10464SOL    HW132291   5.967   5.056   2.883
10464SOL    HW232292   5.962   5.192   2.793
10465SOL     OW32293   5.686   3.651   1.946
10465SOL    HW132294   5.593   3.626   1.974
10465SOL    HW232295   5.682   3.735   1.891
10466SOL     OW32296   5.534   4.959   6.493
10466SOL    HW132297   5.573   4.881   6.444
10466SOL    HW232298   5.496   5.024   6.427
10467SOL     OW32299   1.569   2.903   6.920
10467SOL    HW132300   1.658   2.862   6.941
10467SOL    HW232301   1.504   2.879   6.991
10468SOL     OW32302   2.965   4.793   3.874
10468SOL    HW132303   3.031   4.823   3.943
10468SOL    HW232304   2.987   4.700   3.845
10469SOL     OW32305   6.050   1.580   5.014
10469SOL    HW132306   6.110   1.500   5.004
10469SOL    HW232307   6.034   1.621   4.924
10470SOL     OW32308   2.654   2.402   4.023
10470SOL    HW132309   2.562   2.374   3.996
10470SOL    HW232310   2.713   2.404   3.943
10471SOL     OW32311   2.966   0.414   0.705
10471SOL    HW132312   3.037   0.378   0.646
10471SOL    HW232313   2.956   0.513   0.689
10472SOL     OW32314   3.427   5.062   0.621
10472SOL    HW132315   3.380   5.126   0.562
10472SOL    HW232316   3.517   5.098   0.645
10473SOL     OW32317   5.368   4.495   6.616
10473SOL    HW132318   5.378   4.523   6.711
10473SOL    HW232319   5.287   4.437   6.606
10474SOL     OW32320   5.435   0.941   3.970
10474SOL    HW132321   5.495   1.016   3.942
10474SOL    HW232322   5.375   0.916   3.894
10475SOL     OW32323   1.297   6.412   1.892
10475SOL    HW132324   1.248   6.498   1.899
10475SOL    HW232325   1.311   6.389   1.796
10476SOL     OW32326   4.020   6.259   0.498
10476SOL    HW132327   3.953   6.258   0.424
10476SOL    HW232328   4.023   6.170   0.543
10477SOL     OW32329   6.277   6.430   3.991
10477SOL    HW132330   6.316   6.345   4.025
10477SOL    HW232331   6.191   6.448   4.038
10478SOL     OW32332   6.370   0.086   0.357
10478SOL    HW132333   6.335   0.049   0.443
10478SOL    HW232334   6.462   0.121   0.370
10479SOL     OW32335   0.131   1.716   2.595
10479SOL    HW132336   0.076   1.638   2.624
10479SOL    HW232337   0.129   1.723   2.495
10480SOL     OW32338   1.266   0.582   2.209
10480SOL    HW132339   1.357   0.623   2.216
10480SOL    HW232340   1.210   0.635   2.146
10481SOL     OW32341   0.461   0.334   2.914
10481SOL    HW132342   0.467   0.247   2.964
10481SOL    HW232343   0.375   0.380   2.938
10482SOL     OW32344   5.387   3.464   3.352
10482SOL    HW132345   5.413   3.560   3.342
10482SOL    HW232346   5.287   3.456   3.345
10483SOL     OW32347   6.016   5.374   0.540
10483SOL    HW132348   5.973   5.361   0.629
10483SOL    HW232349   6.023   5.472   0.520
10484SOL     OW32350   6.634   1.068   1.312
10484SOL    HW132351   6.574   1.029   1.382
10484SOL    HW232352   6.580   1.127   1.252
10485SOL     OW32353   4.957   3.815   5.902
10485SOL    HW132354   4.858   3.830   5.911
10485SOL    HW232355   4.973   3.722   5.868
10486SOL     OW32356   6.073   2.755   0.614
10486SOL    HW132357   6.112   2.708   0.693
10486SOL    HW232358   6.031   2.688   0.553
10487SOL     OW32359   5.955   6.322   1.232
10487SOL    HW132360   5.917   6.315   1.140
10487SOL    HW232361   6.032   6.386   1.232
10488SOL     OW32362   2.719   2.908   6.639
10488SOL    HW132363   2.738   2.873   6.731
10488SOL    HW232364   2.764   2.996   6.628
10489SOL     OW32365   6.880   5.699   6.630
10489SOL    HW132366   6.925   5.752   6.701
10489SOL    HW232367   6.908   5.733   6.540
10490SOL     OW32368   6.829   1.110   3.483
10490SOL    HW132369   6.736   1.107   3.521
10490SOL    HW232370   6.882   1.181   3.529
10491SOL     OW32371   2.299   4.243   6.097
10491SOL    HW132372   2.353   4.190   6.031
10491SOL    HW232373   2.327   4.339   6.091
10492SOL     OW32374   4.814   3.334   5.233
10492SOL    HW132375   4.750   3.409   5.217
10492SOL    HW232376   4.879   3.330   5.157
10493SOL     OW32377   3.596   0.855   1.737
10493SOL    HW132378   3.497   0.867   1.730
10493SOL    HW232379   3.638   0.881   1.650
10494SOL     OW32380   5.488   1.991   4.029
10494SOL    HW132381   5.580   1.984   4.067
10494SOL    HW232382   5.420   1.983   4.102
10495SOL     OW32383   2.365   6.738   0.551
10495SOL    HW132384   2.400   6.663   0.607
10495SOL    HW232385   2.423   6.749   0.469
10496SOL     OW32386   0.095   6.847   6.848
10496SOL    HW132387   0.194   6.858   6.852
10496SOL    HW232388   0.050   6.928   6.884
10497SOL     OW32389   1.498   0.516   0.733
10497SOL    HW132390   1.424   0.584   0.728
10497SOL    HW232391   1.465   0.434   0.779
10498SOL     OW32392   1.932   6.938   6.373
10498SOL    HW132393   2.008   6.927   6.437
10498SOL    HW232394   1.900   6.848   6.344
10499SOL     OW32395   3.072   6.018   3.255
10499SOL    HW132396   3.157   6.043   3.302
10499SOL    HW232397   3.031   5.939   3.301
10500SOL     OW32398   1.059   2.374   5.983
10500SOL    HW132399   1.118   2.448   5.950
10500SOL    HW232400   0.965   2.406   5.991
10501SOL     OW32401   2.276   4.276   2.811
10501SOL    HW132402   2.317   4.322   2.731
10501SOL    HW232403   2.177   4.283   2.806
10502SOL     OW32404   3.301   6.825   0.313
10502SOL    HW132405   3.349   6.793   0.395
10502SOL    HW232406   3.367   6.848   0.242
10503SOL     OW32407   4.015   2.731   0.345
10503SOL    HW132408   3.950   2.658   0.367
10503SOL    HW232409   3.966   2.818   0.339
10504SOL     OW32410   2.576   2.835   0.100
10504SOL    HW132411   2.549   2.887   0.181
10504SOL    HW232412   2.514   2.857   0.024
10505SOL     OW32413   6.207   5.995   0.972
10505SOL    HW132414   6.143   6.047   0.915
10505SOL    HW232415   6.186   6.012   1.068
10506SOL     OW32416   0.644   4.323   6.231
10506SOL    HW132417   0.642   4.354   6.326
10506SOL    HW232418   0.557   4.279   6.209
10507SOL     OW32419   1.171   0.619   6.552
10507SOL    HW132420   1.174   0.543   6.487
10507SOL    HW232421   1.126   0.590   6.636
10508SOL     OW32422   5.537   4.993   3.688
10508SOL    HW132423   5.515   5.070   3.628
10508SOL    HW232424   5.635   4.995   3.709
10509SOL     OW32425   1.326   6.541   0.137
10509SOL    HW132426   1.377   6.469   0.090
10509SOL    HW232427   1.229   6.515   0.141
10510SOL     OW32428   5.648   5.335   6.337
10510SOL    HW132429   5.570   5.390   6.367
10510SOL    HW232430   5.710   5.320   6.414
10511SOL     OW32431   4.159   3.370   0.357
10511SOL    HW132432   4.087   3.350   0.423
10511SOL    HW232433   4.229   3.298   0.360
10512SOL     OW32434   4.673   0.560   6.459
10512SOL    HW132435   4.675   0.535   6.362
10512SOL    HW232436   4.765   0.586   6.489
10513SOL     OW32437   0.755   2.212   6.190
10513SOL    HW132438   0.751   2.141   6.261
10513SOL    HW232439   0.706   2.180   6.109
10514SOL     OW32440   6.140   4.294   0.025
10514SOL    HW132441   6.226   4.320   7.006
10514SOL    HW232442   6.069   4.360   0.000
10515SOL     OW32443   6.608   1.604   2.802
10515SOL    HW132444   6.705   1.626   2.790
10515SOL    HW232445   6.565   1.597   2.713
10516SOL     OW32446   4.324   0.670   6.566
10516SOL    HW132447   4.346   0.639   6.658
10516SOL    HW232448   4.301   0.592   6.508
10517SOL     OW32449   6.256   1.702   2.689
10517SOL    HW132450   6.341   1.660   2.657
10517SOL    HW232451   6.268   1.801   2.692
10518SOL     OW32452   0.964   5.823   0.332
10518SOL    HW132453   0.985   5.726   0.343
10518SOL    HW232454   1.026   5.863   0.264
10519SOL     OW32455   3.467   2.963   5.885
10519SOL    HW132456   3.386   2.938   5.938
10519SOL    HW232457   3.450   3.049   5.837
10520SOL     OW32458   2.933   2.863   6.272
10520SOL    HW132459   2.972   2.828   6.357
10520SOL    HW232460   2.849   2.913   6.292
10521SOL     OW32461   6.331   6.244   1.170
10521SOL    HW132462   6.255   6.190   1.207
10521SOL    HW232463   6.415   6.191   1.175
10522SOL     OW32464   6.725   1.386   0.541
10522SOL    HW132465   6.784   1.306   0.530
10522SOL    HW232466   6.736   1.446   0.461
10523SOL     OW32467   0.211   5.286   6.021
10523SOL    HW132468   0.131   5.274   5.962
10523SOL    HW232469   0.259   5.199   6.029
10524SOL     OW32470   2.097   6.727   4.278
10524SOL    HW132471   2.130   6.750   4.186
10524SOL    HW232472   2.006   6.686   4.271
10525SOL     OW32473   1.703   6.968   5.004
10525SOL    HW132474   1.684   6.870   4.992
10525SOL    HW232475   1.766   6.999   4.933
10526SOL     OW32476   0.767   0.820   2.380
10526SOL    HW132477   0.685   0.781   2.339
10526SOL    HW232478   0.749   0.844   2.476
10527SOL     OW32479   0.872   2.578   4.685
10527SOL    HW132480   0.960   2.547   4.720
10527SOL    HW232481   0.874   2.677   4.671
10528SOL     OW32482   0.656   5.012   4.622
10528SOL    HW132483   0.576   5.062   4.655
10528SOL    HW232484   0.708   5.070   4.560
10529SOL     OW32485   0.797   6.412   3.539
10529SOL    HW132486   0.720   6.473   3.561
10529SOL    HW232487   0.766   6.340   3.477
10530SOL     OW32488   2.391   1.978   6.301
10530SOL    HW132489   2.409   2.075   6.288
10530SOL    HW232490   2.364   1.937   6.214
10531SOL     OW32491   1.885   3.555   4.665
10531SOL    HW132492   1.971   3.510   4.641
10531SOL    HW232493   1.878   3.561   4.765
10532SOL     OW32494   2.887   2.833   6.835
10532SOL    HW132495   2.887   2.734   6.823
10532SOL    HW232496   2.904   2.855   6.932
10533SOL     OW32497   3.406   1.262   5.481
10533SOL    HW132498   3.358   1.345   5.450
10533SOL    HW232499   3.502   1.268   5.455
10534SOL     OW32500   0.000   6.058   1.112
10534SOL    HW132501   6.929   6.074   1.137
10534SOL    HW232502   0.057   6.133   1.146
10535SOL     OW32503   0.246   1.380   2.531
10535SOL    HW132504   0.267   1.331   2.446
10535SOL    HW232505   0.321   1.367   2.596
10536SOL     OW32506   4.803   0.296   3.383
10536SOL    HW132507   4.791   0.266   3.478
10536SOL    HW232508   4.832   0.219   3.327
10537SOL     OW32509   3.285   5.425   3.072
10537SOL    HW132510   3.262   5.361   2.999
10537SOL    HW232511   3.205   5.440   3.130
10538SOL     OW32512   4.213   3.847   6.911
10538SOL    HW132513   4.183   3.776   6.975
10538SOL    HW232514   4.256   3.922   6.961
10539SOL     OW32515   0.467   3.626   6.118
10539SOL    HW132516   0.536   3.675   6.171
10539SOL    HW232517   0.424   3.556   6.175
10540SOL     OW32518   1.399   0.883   5.626
10540SOL    HW132519   1.333   0.912   5.556
10540SOL    HW232520   1.429   0.789   5.606
10541SOL     OW32521   3.972   3.470   0.992
10541SOL    HW132522   3.919   3.490   0.910
10541SOL    HW232523   3.944   3.382   1.030
10542SOL     OW32524   0.485   2.127   0.222
10542SOL    HW132525   0.530   2.095   0.138
10542SOL    HW232526   0.499   2.061   0.295
10543SOL     OW32527   0.439   1.904   5.907
10543SOL    HW132528   0.457   1.962   5.828
10543SOL    HW232529   0.343   1.877   5.909
10544SOL     OW32530   2.673   2.349   3.058
10544SOL    HW132531   2.719   2.334   2.970
10544SOL    HW232532   2.585   2.302   3.058
10545SOL     OW32533   6.873   0.181   2.550
10545SOL    HW132534   6.789   0.162   2.602
10545SOL    HW232535   6.925   0.097   2.538
10546SOL     OW32536   1.965   6.996   4.673
10546SOL    HW132537   1.964   0.040   4.600
10546SOL    HW232538   2.056   6.954   4.679
10547SOL     OW32539   4.295   0.951   1.943
10547SOL    HW132540   4.373   1.010   1.963
10547SOL    HW232541   4.298   0.871   2.002
10548SOL     OW32542   5.362   3.863   4.305
10548SOL    HW132543   5.314   3.832   4.387
10548SOL    HW232544   5.438   3.802   4.286
10549SOL     OW32545   0.779   0.360   2.276
10549SOL    HW132546   0.817   0.439   2.325
10549SOL    HW232547   0.759   0.287   2.340
10550SOL     OW32548   5.218   6.858   4.246
10550SOL    HW132549   5.166   6.895   4.323
10550SOL    HW232550   5.163   6.788   4.200
10551SOL     OW32551   1.267   2.150   5.165
10551SOL    HW132552   1.344   2.146   5.101
10551SOL    HW232553   1.299   2.177   5.256
10552SOL     OW32554   4.285   1.928   5.752
10552SOL    HW132555   4.361   1.897   5.695
10552SOL    HW232556   4.212   1.861   5.750
10553SOL     OW32557   0.847   5.279   0.977
10553SOL    HW132558   0.771   5.232   1.023
10553SOL    HW232559   0.906   5.211   0.933
10554SOL     OW32560   6.484   4.961   6.976
10554SOL    HW132561   6.498   4.988   0.047
10554SOL    HW232562   6.572   4.948   6.931
10555SOL     OW32563   3.392   1.744   1.907
10555SOL    HW132564   3.384   1.647   1.883
10555SOL    HW232565   3.385   1.800   1.824
10556SOL     OW32566   2.046   3.419   5.043
10556SOL    HW132567   2.016   3.470   5.124
10556SOL    HW232568   2.052   3.481   4.965
10557SOL     OW32569   0.382   2.577   2.887
10557SOL    HW132570   0.444   2.649   2.920
10557SOL    HW232571   0.431   2.518   2.822
10558SOL     OW32572   4.661   6.437   5.477
10558SOL    HW132573   4.721   6.511   5.445
10558SOL    HW232574   4.653   6.440   5.576
10559SOL     OW32575   3.969   1.678   0.968
10559SOL    HW132576   4.045   1.662   0.905
10559SOL    HW232577   4.005   1.699   1.059
10560SOL     OW32578   1.614   4.806   5.245
10560SOL    HW132579   1.527   4.776   5.204
10560SOL    HW232580   1.689   4.754   5.205
10561SOL     OW32581   1.790   4.845   7.012
10561SOL    HW132582   1.704   4.794   7.008
10561SOL    HW232583   1.847   4.819   6.934
10562SOL     OW32584   4.651   0.064   0.776
10562SOL    HW132585   4.644   0.153   0.730
10562SOL    HW232586   4.578   0.004   0.742
10563SOL     OW32587   1.771   1.729   4.718
10563SOL    HW132588   1.696   1.667   4.693
10563SOL    HW232589   1.827   1.748   4.637
10564SOL     OW32590   6.039   0.591   1.434
10564SOL    HW132591   6.063   0.688   1.439
10564SOL    HW232592   6.122   0.535   1.441
10565SOL     OW32593   6.807   1.103   5.402
10565SOL    HW132594   6.857   1.162   5.466
10565SOL    HW232595   6.709   1.108   5.423
10566SOL     OW32596   3.621   4.205   6.243
10566SOL    HW132597   3.699   4.189   6.182
10566SOL    HW232598   3.590   4.299   6.235
10567SOL     OW32599   1.786   3.195   4.417
10567SOL    HW132600   1.721   3.270   4.432
10567SOL    HW232601   1.866   3.209   4.476
10568SOL     OW32602   5.988   1.160   2.149
10568SOL    HW132603   6.051   1.194   2.079
10568SOL    HW232604   5.922   1.232   2.172
10569SOL     OW32605   6.020   3.262   2.470
10569SOL    HW132606   5.948   3.326   2.495
10569SOL    HW232607   5.984   3.197   2.403
10570SOL     OW32608   2.101   4.506   2.591
10570SOL    HW132609   2.026   4.482   2.530
10570SOL    HW232610   2.179   4.446   2.573
10571SOL     OW32611   6.677   5.504   3.457
10571SOL    HW132612   6.740   5.559   3.512
10571SOL    HW232613   6.684   5.532   3.361
10572SOL     OW32614   5.792   3.658   2.711
10572SOL    HW132615   5.814   3.591   2.639
10572SOL    HW232616   5.706   3.704   2.688
10573SOL     OW32617   5.756   5.909   3.754
10573SOL    HW132618   5.725   5.903   3.659
10573SOL    HW232619   5.684   5.950   3.810
10574SOL     OW32620   1.377   2.263   3.834
10574SOL    HW132621   1.310   2.205   3.881
10574SOL    HW232622   1.428   2.317   3.901
10575SOL     OW32623   0.786   0.621   4.313
10575SOL    HW132624   0.716   0.676   4.267
10575SOL    HW232625   0.800   0.656   4.406
10576SOL     OW32626   1.507   5.913   5.304
10576SOL    HW132627   1.432   5.962   5.260
10576SOL    HW232628   1.536   5.963   5.386
10577SOL     OW32629   2.076   3.012   6.382
10577SOL    HW132630   2.045   3.101   6.350
10577SOL    HW232631   2.150   2.979   6.324
10578SOL     OW32632   5.605   0.605   5.338
10578SOL    HW132633   5.507   0.616   5.322
10578SOL    HW232634   5.620   0.541   5.413
10579SOL     OW32635   4.096   1.253   0.859
10579SOL    HW132636   4.161   1.253   0.783
10579SOL    HW232637   4.091   1.162   0.900
10580SOL     OW32638   6.276   6.589   6.445
10580SOL    HW132639   6.322   6.551   6.525
10580SOL    HW232640   6.345   6.629   6.383
10581SOL     OW32641   6.181   0.504   3.169
10581SOL    HW132642   6.199   0.413   3.206
10581SOL    HW232643   6.168   0.569   3.244
10582SOL     OW32644   3.203   5.083   0.324
10582SOL    HW132645   3.164   5.072   0.233
10582SOL    HW232646   3.219   5.180   0.342
10583SOL     OW32647   3.770   0.801   6.662
10583SOL    HW132648   3.863   0.815   6.697
10583SOL    HW232649   3.704   0.828   6.732
10584SOL     OW32650   5.574   5.976   1.258
10584SOL    HW132651   5.657   5.927   1.231
10584SOL    HW232652   5.599   6.059   1.309
10585SOL     OW32653   1.381   3.276   5.823
10585SOL    HW132654   1.320   3.331   5.880
10585SOL    HW232655   1.442   3.335   5.771
10586SOL     OW32656   2.509   6.047   5.771
10586SOL    HW132657   2.597   6.089   5.797
10586SOL    HW232658   2.513   6.017   5.676
10587SOL     OW32659   6.184   3.422   0.079
10587SOL    HW132660   6.232   3.387   7.023
10587SOL    HW232661   6.145   3.346   0.131
10588SOL     OW32662   0.892   4.655   2.355
10588SOL    HW132663   0.903   4.590   2.430
10588SOL    HW232664   0.801   4.646   2.315
10589SOL     OW32665   5.625   2.720   4.231
10589SOL    HW132666   5.717   2.743   4.265
10589SOL    HW232667   5.612   2.621   4.238
10590SOL     OW32668   1.253   6.696   2.837
10590SOL    HW132669   1.178   6.699   2.770
10590SOL    HW232670   1.282   6.789   2.858
10591SOL     OW32671   1.728   1.641   5.563
10591SOL    HW132672   1.734   1.547   5.530
10591SOL    HW232673   1.731   1.641   5.663
10592SOL     OW32674   6.638   1.289   0.213
10592SOL    HW132675   6.675   1.378   0.187
10592SOL    HW232676   6.559   1.302   0.272
10593SOL     OW32677   2.333   5.744   1.731
10593SOL    HW132678   2.319   5.665   1.671
10593SOL    HW232679   2.282   5.822   1.695
10594SOL     OW32680   6.154   1.855   3.535
10594SOL    HW132681   6.058   1.876   3.553
10594SOL    HW232682   6.195   1.813   3.616
10595SOL     OW32683   3.298   6.868   5.870
10595SOL    HW132684   3.317   6.825   5.958
10595SOL    HW232685   3.311   6.801   5.796
10596SOL     OW32686   3.939   6.767   2.008
10596SOL    HW132687   3.929   6.783   2.106
10596SOL    HW232688   3.893   6.840   1.957
10597SOL     OW32689   2.452   1.328   4.640
10597SOL    HW132690   2.492   1.411   4.680
10597SOL    HW232691   2.520   1.254   4.643
10598SOL     OW32692   1.893   2.541   0.133
10598SOL    HW132693   1.964   2.471   0.123
10598SOL    HW232694   1.811   2.512   0.084
10599SOL     OW32695   6.316   1.365   6.940
10599SOL    HW132696   6.377   1.396   6.867
10599SOL    HW232697   6.359   1.289   6.989
10600SOL     OW32698   2.849   3.180   6.300
10600SOL    HW132699   2.798   3.207   6.218
10600SOL    HW232700   2.799   3.108   6.348
10601SOL     OW32701   2.732   6.387   6.372
10601SOL    HW132702   2.634   6.374   6.357
10601SOL    HW232703   2.773   6.428   6.290
10602SOL     OW32704   4.629   1.150   1.656
10602SOL    HW132705   4.663   1.072   1.605
10602SOL    HW232706   4.543   1.126   1.701
10603SOL     OW32707   1.344   6.053   3.721
10603SOL    HW132708   1.346   6.065   3.820
10603SOL    HW232709   1.327   5.957   3.699
10604SOL     OW32710   6.567   4.066   4.602
10604SOL    HW132711   6.558   3.968   4.586
10604SOL    HW232712   6.622   4.082   4.684
10605SOL     OW32713   1.056   5.155   0.491
10605SOL    HW132714   0.988   5.086   0.518
10605SOL    HW232715   1.144   5.132   0.533
10606SOL     OW32716   0.057   0.798   1.586
10606SOL    HW132717   7.011   0.851   1.538
10606SOL    HW232718   0.147   0.838   1.568
10607SOL     OW32719   4.462   4.641   6.409
10607SOL    HW132720   4.433   4.736   6.424
10607SOL    HW232721   4.420   4.582   6.478
10608SOL     OW32722   6.005   1.688   4.404
10608SOL    HW132723   6.077   1.719   4.341
10608SOL    HW232724   5.924   1.662   4.352
10609SOL     OW32725   4.243   5.932   1.433
10609SOL    HW132726   4.173   5.913   1.502
10609SOL    HW232727   4.333   5.907   1.469
10610SOL     OW32728   1.407   3.552   6.141
10610SOL    HW132729   1.434   3.608   6.062
10610SOL    HW232730   1.345   3.480   6.110
10611SOL     OW32731   5.450   2.739   6.184
10611SOL    HW132732   5.452   2.747   6.084
10611SOL    HW232733   5.543   2.748   6.220
10612SOL     OW32734   2.459   0.328   6.037
10612SOL    HW132735   2.538   0.321   5.976
10612SOL    HW232736   2.483   0.383   6.117
10613SOL     OW32737   0.295   6.942   5.404
10613SOL    HW132738   0.385   6.931   5.362
10613SOL    HW232739   0.270   6.857   5.451
10614SOL     OW32740   6.304   0.974   4.355
10614SOL    HW132741   6.336   1.037   4.427
10614SOL    HW232742   6.374   0.904   4.340
10615SOL     OW32743   4.686   5.668   5.101
10615SOL    HW132744   4.617   5.707   5.163
10615SOL    HW232745   4.724   5.741   5.044
10616SOL     OW32746   2.895   6.025   0.607
10616SOL    HW132747   2.849   6.011   0.695
10616SOL    HW232748   2.978   5.969   0.603
10617SOL     OW32749   2.339   2.545   0.263
10617SOL    HW132750   2.275   2.550   0.187
10617SOL    HW232751   2.303   2.481   0.332
10618SOL     OW32752   6.288   2.270   0.529
10618SOL    HW132753   6.333   2.188   0.493
10618SOL    HW232754   6.238   2.315   0.455
10619SOL     OW32755   0.839   3.920   2.965
10619SOL    HW132756   0.881   4.010   2.973
10619SOL    HW232757   0.858   3.883   2.874
10620SOL     OW32758   1.325   6.276   5.560
10620SOL    HW132759   1.239   6.235   5.532
10620SOL    HW232760   1.401   6.216   5.535
10621SOL     OW32761   1.267   5.876   6.759
10621SOL    HW132762   1.362   5.870   6.728
10621SOL    HW232763   1.237   5.971   6.754
10622SOL     OW32764   4.121   0.481   2.169
10622SOL    HW132765   4.076   0.415   2.108
10622SOL    HW232766   4.093   0.574   2.144
10623SOL     OW32767   5.722   2.554   3.742
10623SOL    HW132768   5.696   2.581   3.835
10623SOL    HW232769   5.759   2.461   3.744
10624SOL     OW32770   1.880   1.131   4.575
10624SOL    HW132771   1.895   1.226   4.603
10624SOL    HW232772   1.841   1.130   4.483
10625SOL     OW32773   0.587   3.640   6.669
10625SOL    HW132774   0.512   3.644   6.735
10625SOL    HW232775   0.659   3.581   6.705
10626SOL     OW32776   1.089   2.404   1.807
10626SOL    HW132777   1.103   2.445   1.717
10626SOL    HW232778   1.061   2.308   1.796
10627SOL     OW32779   6.381   6.620   2.659
10627SOL    HW132780   6.354   6.615   2.755
10627SOL    HW232781   6.443   6.697   2.645
10628SOL     OW32782   6.435   5.216   5.205
10628SOL    HW132783   6.532   5.219   5.181
10628SOL    HW232784   6.403   5.309   5.224
10629SOL     OW32785   2.291   4.864   5.948
10629SOL    HW132786   2.387   4.847   5.972
10629SOL    HW232787   2.260   4.794   5.883
10630SOL     OW32788   6.375   0.651   3.018
10630SOL    HW132789   6.312   0.605   3.081
10630SOL    HW232790   6.401   0.740   3.056
10631SOL     OW32791   0.422   6.841   3.737
10631SOL    HW132792   0.487   6.814   3.666
10631SOL    HW232793   0.466   6.833   3.826
10632SOL     OW32794   6.406   2.629   4.616
10632SOL    HW132795   6.379   2.648   4.522
10632SOL    HW232796   6.347   2.556   4.653
10633SOL     OW32797   2.501   5.007   1.528
10633SOL    HW132798   2.554   5.064   1.591
10633SOL    HW232799   2.409   5.044   1.519
10634SOL     OW32800   3.066   6.043   0.964
10634SOL    HW132801   2.987   6.005   0.916
10634SOL    HW232802   3.137   5.972   0.972
10635SOL     OW32803   2.914   0.765   1.082
10635SOL    HW132804   3.007   0.740   1.056
10635SOL    HW232805   2.858   0.778   1.000
10636SOL     OW32806   0.899   2.060   1.536
10636SOL    HW132807   0.839   1.981   1.551
10636SOL    HW232808   0.870   2.108   1.453
10637SOL     OW32809   3.362   4.018   5.196
10637SOL    HW132810   3.448   3.978   5.164
10637SOL    HW232811   3.315   4.063   5.120
10638SOL     OW32812   6.698   6.365   4.486
10638SOL    HW132813   6.659   6.401   4.402
10638SOL    HW232814   6.740   6.276   4.469
10639SOL     OW32815   0.615   1.088   4.571
10639SOL    HW132816   0.571   1.169   4.533
10639SOL    HW232817   0.577   1.006   4.528
10640SOL     OW32818   5.102   0.551   0.274
10640SOL    HW132819   5.163   0.539   0.196
10640SOL    HW232820   5.155   0.544   0.359
10641SOL     OW32821   5.165   1.802   0.172
10641SOL    HW132822   5.124   1.867   0.108
10641SOL    HW232823   5.096   1.774   0.239
10642SOL     OW32824   0.565   2.196   1.855
10642SOL    HW132825   0.657   2.233   1.863
10642SOL    HW232826   0.552   2.122   1.921
10643SOL     OW32827   2.268   3.752   5.286
10643SOL    HW132828   2.318   3.838   5.286
10643SOL    HW232829   2.331   3.676   5.302
10644SOL     OW32830   4.550   1.466   4.034
10644SOL    HW132831   4.489   1.391   4.059
10644SOL    HW232832   4.496   1.547   4.012
10645SOL     OW32833   1.500   0.645   4.688
10645SOL    HW132834   1.489   0.548   4.709
10645SOL    HW232835   1.442   0.669   4.611
10646SOL     OW32836   1.010   2.551   5.712
10646SOL    HW132837   0.955   2.634   5.720
10646SOL    HW232838   1.009   2.503   5.800
10647SOL     OW32839   6.380   4.841   0.667
10647SOL    HW132840   6.369   4.742   0.670
10647SOL    HW232841   6.296   4.885   0.699
10648SOL     OW32842   4.359   3.244   6.397
10648SOL    HW132843   4.396   3.325   6.351
10648SOL    HW232844   4.416   3.222   6.476
10649SOL     OW32845   0.183   5.132   5.721
10649SOL    HW132846   0.242   5.194   5.773
10649SOL    HW232847   0.194   5.150   5.623
10650SOL     OW32848   2.127   5.997   4.026
10650SOL    HW132849   2.065   5.938   4.078
10650SOL    HW232850   2.214   6.004   4.074
10651SOL     OW32851   4.682   6.677   5.765
10651SOL    HW132852   4.584   6.660   5.764
10651SOL    HW232853   4.731   6.592   5.786
10652SOL     OW32854   3.276   0.421   6.201
10652SOL    HW132855   3.182   0.431   6.170
10652SOL    HW232856   3.325   0.507   6.184
10653SOL     OW32857   5.118   4.601   4.079
10653SOL    HW132858   5.152   4.642   4.163
10653SOL    HW232859   5.019   4.588   4.085
10654SOL     OW32860   2.813   0.673   1.335
10654SOL    HW132861   2.840   0.667   1.238
10654SOL    HW232862   2.716   0.693   1.341
10655SOL     OW32863   3.200   6.140   1.996
10655SOL    HW132864   3.128   6.193   1.951
10655SOL    HW232865   3.165   6.051   2.023
10656SOL     OW32866   6.264   2.350   0.283
10656SOL    HW132867   6.333   2.397   0.228
10656SOL    HW232868   6.240   2.263   0.239
10657SOL     OW32869   5.450   0.075   0.810
10657SOL    HW132870   5.432   0.095   0.713
10657SOL    HW232871   5.441   0.159   0.863
10658SOL     OW32872   1.012   5.157   4.004
10658SOL    HW132873   1.099   5.109   4.013
10658SOL    HW232874   0.982   5.155   3.909
10659SOL     OW32875   5.979   0.171   0.623
10659SOL    HW132876   5.947   0.131   0.709
10659SOL    HW232877   6.014   0.263   0.639
10660SOL     OW32878   4.082   3.766   5.509
10660SOL    HW132879   4.112   3.835   5.444
10660SOL    HW232880   4.157   3.701   5.526
10661SOL     OW32881   0.414   6.468   1.861
10661SOL    HW132882   0.484   6.447   1.793
10661SOL    HW232883   0.456   6.511   1.940
10662SOL     OW32884   6.817   1.721   0.509
10662SOL    HW132885   6.777   1.654   0.445
10662SOL    HW232886   6.915   1.704   0.517
10663SOL     OW32887   0.582   0.469   1.068
10663SOL    HW132888   0.507   0.507   1.014
10663SOL    HW232889   0.669   0.504   1.034
10664SOL     OW32890   2.066   4.816   0.404
10664SOL    HW132891   2.023   4.872   0.332
10664SOL    HW232892   2.086   4.725   0.367
10665SOL     OW32893   0.055   2.314   0.560
10665SOL    HW132894   7.004   2.250   0.543
10665SOL    HW232895   0.069   2.323   0.659
10666SOL     OW32896   2.569   5.880   0.108
10666SOL    HW132897   2.470   5.895   0.107
10666SOL    HW232898   2.601   5.868   0.015
10667SOL     OW32899   3.881   1.867   5.906
10667SOL    HW132900   3.857   1.912   5.820
10667SOL    HW232901   3.799   1.825   5.946
10668SOL     OW32902   1.393   1.959   6.581
10668SOL    HW132903   1.386   1.862   6.558
10668SOL    HW232904   1.305   1.992   6.612
10669SOL     OW32905   1.441   0.118   0.018
10669SOL    HW132906   1.368   0.134   6.975
10669SOL    HW232907   1.525   0.161   7.010
10670SOL     OW32908   5.566   4.534   5.755
10670SOL    HW132909   5.491   4.470   5.736
10670SOL    HW232910   5.555   4.570   5.848
10671SOL     OW32911   2.497   2.555   2.967
10671SOL    HW132912   2.545   2.492   3.028
10671SOL    HW232913   2.435   2.504   2.908
10672SOL     OW32914   0.281   2.611   1.252
10672SOL    HW132915   0.257   2.704   1.280
10672SOL    HW232916   0.270   2.602   1.153
10673SOL     OW32917   2.709   2.843   5.322
10673SOL    HW132918   2.683   2.746   5.320
10673SOL    HW232919   2.628   2.900   5.309
10674SOL     OW32920   4.137   3.347   1.548
10674SOL    HW132921   4.058   3.321   1.602
10674SOL    HW232922   4.219   3.306   1.588
10675SOL     OW32923   0.234   6.794   5.680
10675SOL    HW132924   0.142   6.772   5.649
10675SOL    HW232925   0.245   6.765   5.775
10676SOL     OW32926   6.049   0.107   6.583
10676SOL    HW132927   6.077   0.110   6.679
10676SOL    HW232928   6.078   0.020   6.543
10677SOL     OW32929   0.229   0.671   1.297
10677SOL    HW132930   0.273   0.582   1.309
10677SOL    HW232931   0.249   0.729   1.377
10678SOL     OW32932   2.364   6.083   2.271
10678SOL    HW132933   2.310   6.082   2.187
10678SOL    HW232934   2.303   6.072   2.350
10679SOL     OW32935   5.628   5.295   3.941
10679SOL    HW132936   5.586   5.205   3.950
10679SOL    HW232937   5.561   5.359   3.904
10680SOL     OW32938   1.014   3.550   2.534
10680SOL    HW132939   0.989   3.567   2.438
10680SOL    HW232940   1.113   3.532   2.539
10681SOL     OW32941   6.449   2.608   5.674
10681SOL    HW132942   6.409   2.656   5.753
10681SOL    HW232943   6.426   2.511   5.679
10682SOL     OW32944   0.077   1.281   2.140
10682SOL    HW132945   0.078   1.356   2.206
10682SOL    HW232946   7.010   1.275   2.099
10683SOL     OW32947   1.790   1.932   4.415
10683SOL    HW132948   1.854   1.856   4.426
10683SOL    HW232949   1.702   1.897   4.382
10684SOL     OW32950   6.285   4.785   0.141
10684SOL    HW132951   6.202   4.743   0.104
10684SOL    HW232952   6.343   4.816   0.066
10685SOL     OW32953   0.270   3.049   3.438
10685SOL    HW132954   0.205   3.073   3.510
10685SOL    HW232955   0.341   2.990   3.476
10686SOL     OW32956   3.064   5.554   0.606
10686SOL    HW132957   3.021   5.554   0.696
10686SOL    HW232958   3.069   5.460   0.572
10687SOL     OW32959   0.187   4.794   2.698
10687SOL    HW132960   0.211   4.870   2.638
10687SOL    HW232961   0.103   4.816   2.748
10688SOL     OW32962   6.829   4.877   1.840
10688SOL    HW132963   6.851   4.921   1.927
10688SOL    HW232964   6.734   4.846   1.841
10689SOL     OW32965   0.394   0.445   2.473
10689SOL    HW132966   0.333   0.385   2.524
10689SOL    HW232967   0.438   0.509   2.537
10690SOL     OW32968   4.501   4.922   2.100
10690SOL    HW132969   4.574   4.977   2.058
10690SOL    HW232970   4.517   4.913   2.198
10691SOL     OW32971   6.927   1.411   1.492
10691SOL    HW132972   7.021   1.429   1.522
10691SOL    HW232973   6.878   1.364   1.565
10692SOL     OW32974   3.522   5.656   3.508
10692SOL    HW132975   3.571   5.698   3.585
10692SOL    HW232976   3.585   5.645   3.431
10693SOL     OW32977   6.678   1.607   1.526
10693SOL    HW132978   6.722   1.591   1.615
10693SOL    HW232979   6.704   1.535   1.463
10694SOL     OW32980   4.506   6.211   0.942
10694SOL    HW132981   4.443   6.269   0.994
10694SOL    HW232982   4.546   6.265   0.868
10695SOL     OW32983   7.018   2.280   4.177
10695SOL    HW132984   6.932   2.294   4.127
10695SOL    HW232985   0.034   2.369   4.200
10696SOL     OW32986   6.938   6.038   1.393
10696SOL    HW132987   7.001   6.035   1.470
10696SOL    HW232988   6.858   5.982   1.413
10697SOL     OW32989   1.190   6.388   4.687
10697SOL    HW132990   1.215   6.380   4.783
10697SOL    HW232991   1.098   6.350   4.673
10698SOL     OW32992   2.906   6.993   3.961
10698SOL    HW132993   2.894   6.997   4.060
10698SOL    HW232994   2.899   0.061   3.922
10699SOL     OW32995   3.272   1.953   2.788
10699SOL    HW132996   3.371   1.964   2.783
10699SOL    HW232997   3.238   1.996   2.872
10700SOL     OW32998   6.745   6.635   1.186
10700SOL    HW132999   6.777   6.728   1.169
10700SOL    HW233000   6.809   6.570   1.146
10701SOL     OW33001   2.961   6.527   0.389
10701SOL    HW133002   3.023   6.464   0.343
10701SOL    HW233003   2.872   6.483   0.402
10702SOL     OW33004   5.972   2.589   0.413
10702SOL    HW133005   5.958   2.498   0.452
10702SOL    HW233006   6.014   2.581   0.323
10703SOL     OW33007   3.946   3.902   3.759
10703SOL    HW133008   3.983   3.912   3.851
10703SOL    HW233009   3.848   3.921   3.759
10704SOL     OW33010   4.856   0.200   2.668
10704SOL    HW133011   4.824   0.168   2.578
10704SOL    HW233012   4.951   0.230   2.660
10705SOL     OW33013   6.898   3.043   6.181
10705SOL    HW133014   6.900   3.093   6.094
10705SOL    HW233015   6.970   3.078   6.241
10706SOL     OW33016   3.121   0.887   2.464
10706SOL    HW133017   3.029   0.909   2.498
10706SOL    HW233018   3.187   0.896   2.538
10707SOL     OW33019   6.103   0.210   5.995
10707SOL    HW133020   6.110   0.230   5.897
10707SOL    HW233021   6.083   0.113   6.008
10708SOL     OW33022   4.249   0.990   0.396
10708SOL    HW133023   4.283   1.029   0.311
10708SOL    HW233024   4.276   0.895   0.403
10709SOL     OW33025   5.959   6.735   5.557
10709SOL    HW133026   5.903   6.783   5.625
10709SOL    HW233027   6.055   6.740   5.584
10710SOL     OW33028   6.235   5.265   3.533
10710SOL    HW133029   6.291   5.253   3.451
10710SOL    HW233030   6.261   5.196   3.601
10711SOL     OW33031   1.590   0.118   3.852
10711SOL    HW133032   1.496   0.118   3.887
10711SOL    HW233033   1.652   0.150   3.923
10712SOL     OW33034   3.711   1.001   5.297
10712SOL    HW133035   3.723   0.901   5.293
10712SOL    HW233036   3.640   1.029   5.232
10713SOL     OW33037   1.394   5.989   1.366
10713SOL    HW133038   1.389   5.945   1.277
10713SOL    HW233039   1.308   6.035   1.386
10714SOL     OW33040   0.252   5.419   5.556
10714SOL    HW133041   0.238   5.331   5.509
10714SOL    HW233042   0.282   5.402   5.649
10715SOL     OW33043   4.926   1.863   4.618
10715SOL    HW133044   4.870   1.914   4.684
10715SOL    HW233045   4.881   1.864   4.529
10716SOL     OW33046   6.564   0.437   4.005
10716SOL    HW133047   6.467   0.451   4.024
10716SOL    HW233048   6.592   0.346   4.038
10717SOL     OW33049   0.151   0.342   1.666
10717SOL    HW133050   0.123   0.436   1.683
10717SOL    HW233051   0.071   0.281   1.671
10718SOL     OW33052   6.131   5.224   6.781
10718SOL    HW133053   6.104   5.219   6.685
10718SOL    HW233054   6.226   5.253   6.787
10719SOL     OW33055   5.775   1.091   1.914
10719SOL    HW133056   5.729   1.007   1.943
10719SOL    HW233057   5.767   1.160   1.986
10720SOL     OW33058   0.149   3.670   6.320
10720SOL    HW133059   0.074   3.630   6.267
10720SOL    HW233060   0.220   3.703   6.257
10721SOL     OW33061   5.050   2.896   4.830
10721SOL    HW133062   5.122   2.907   4.762
10721SOL    HW233063   5.063   2.963   4.904
10722SOL     OW33064   6.987   3.513   6.949
10722SOL    HW133065   6.962   3.459   6.868
10722SOL    HW233066   7.022   3.602   6.921
10723SOL     OW33067   5.703   3.785   6.626
10723SOL    HW133068   5.644   3.857   6.664
10723SOL    HW233069   5.787   3.779   6.680
10724SOL     OW33070   4.427   6.341   6.651
10724SOL    HW133071   4.482   6.354   6.569
10724SOL    HW233072   4.366   6.263   6.638
10725SOL     OW33073   0.099   6.038   4.947
10725SOL    HW133074   0.003   6.044   4.920
10725SOL    HW233075   0.129   5.943   4.942
10726SOL     OW33076   4.904   0.896   4.409
10726SOL    HW133077   5.003   0.889   4.423
10726SOL    HW233078   4.864   0.956   4.478
10727SOL     OW33079   2.420   6.472   5.936
10727SOL    HW133080   2.375   6.425   6.013
10727SOL    HW233081   2.393   6.427   5.851
10728SOL     OW33082   4.817   6.071   3.092
10728SOL    HW133083   4.757   6.149   3.105
10728SOL    HW233084   4.895   6.098   3.035
10729SOL     OW33085   5.751   2.699   2.894
10729SOL    HW133086   5.671   2.747   2.931
10729SOL    HW233087   5.816   2.766   2.858
10730SOL     OW33088   2.126   6.567   2.874
10730SOL    HW133089   2.036   6.537   2.906
10730SOL    HW233090   2.115   6.648   2.817
10731SOL     OW33091   3.174   6.959   6.444
10731SOL    HW133092   3.158   6.986   6.539
10731SOL    HW233093   3.263   6.994   6.414
10732SOL     OW33094   5.869   5.788   3.299
10732SOL    HW133095   5.844   5.830   3.386
10732SOL    HW233096   5.827   5.697   3.293
10733SOL     OW33097   0.079   0.428   5.856
10733SOL    HW133098   7.016   0.465   5.890
10733SOL    HW233099   0.143   0.417   5.932
10734SOL     OW33100   1.411   1.247   5.561
10734SOL    HW133101   1.352   1.325   5.539
10734SOL    HW233102   1.355   1.168   5.585
10735SOL     OW33103   1.238   5.283   1.911
10735SOL    HW133104   1.182   5.203   1.892
10735SOL    HW233105   1.325   5.255   1.952
10736SOL     OW33106   6.021   0.120   3.938
10736SOL    HW133107   5.942   0.180   3.929
10736SOL    HW233108   6.048   0.088   3.847
10737SOL     OW33109   6.801   1.279   1.725
10737SOL    HW133110   6.708   1.255   1.752
10737SOL    HW233111   6.863   1.265   1.802
10738SOL     OW33112   3.145   0.600   1.708
10738SOL    HW133113   3.115   0.565   1.796
10738SOL    HW233114   3.230   0.651   1.719
10739SOL     OW33115   5.926   2.472   2.926
10739SOL    HW133116   5.945   2.418   2.844
10739SOL    HW233117   5.879   2.557   2.899
10740SOL     OW33118   1.380   6.688   6.231
10740SOL    HW133119   1.441   6.633   6.173
10740SOL    HW233120   1.366   6.642   6.318
10741SOL     OW33121   2.584   2.535   3.603
10741SOL    HW133122   2.490   2.547   3.634
10741SOL    HW233123   2.635   2.482   3.670
10742SOL     OW33124   5.974   6.215   3.111
10742SOL    HW133125   5.949   6.274   3.034
10742SOL    HW233126   5.891   6.174   3.149
10743SOL     OW33127   3.692   0.958   6.016
10743SOL    HW133128   3.616   1.015   5.986
10743SOL    HW233129   3.775   1.013   6.022
10744SOL     OW33130   1.765   0.412   0.159
10744SOL    HW133131   1.690   0.347   0.171
10744SOL    HW233132   1.852   0.363   0.159
10745SOL     OW33133   2.260   4.856   1.461
10745SOL    HW133134   2.228   4.767   1.428
10745SOL    HW233135   2.358   4.853   1.476
10746SOL     OW33136   1.728   6.491   6.216
10746SOL    HW133137   1.676   6.463   6.135
10746SOL    HW233138   1.665   6.526   6.286
10747SOL     OW33139   6.496   1.639   4.662
10747SOL    HW133140   6.434   1.652   4.740
10747SOL    HW233141   6.538   1.548   4.669
10748SOL     OW33142   4.110   6.170   1.312
10748SOL    HW133143   4.034   6.219   1.356
10748SOL    HW233144   4.149   6.104   1.377
10749SOL     OW33145   5.504   5.355   2.826
10749SOL    HW133146   5.428   5.356   2.760
10749SOL    HW233147   5.562   5.276   2.807
10750SOL     OW33148   4.737   2.589   4.231
10750SOL    HW133149   4.743   2.686   4.207
10750SOL    HW233150   4.771   2.534   4.155
10751SOL     OW33151   0.618   4.956   5.103
10751SOL    HW133152   0.523   4.945   5.074
10751SOL    HW233153   0.638   4.893   5.178
10752SOL     OW33154   6.110   6.435   0.902
10752SOL    HW133155   6.027   6.385   0.925
10752SOL    HW233156   6.168   6.378   0.844
10753SOL     OW33157   4.749   6.025   4.035
10753SOL    HW133158   4.799   6.103   3.998
10753SOL    HW233159   4.678   5.997   3.970
10754SOL     OW33160   1.497   3.672   1.658
10754SOL    HW133161   1.520   3.575   1.657
10754SOL    HW233162   1.515   3.710   1.749
10755SOL     OW33163   6.161   3.205   1.085
10755SOL    HW133164   6.255   3.200   1.050
10755SOL    HW233165   6.164   3.218   1.185
10756SOL     OW33166   0.274   2.535   0.941
10756SOL    HW133167   0.179   2.522   0.968
10756SOL    HW233168   0.304   2.458   0.885
10757SOL     OW33169   6.753   4.421   1.647
10757SOL    HW133170   6.796   4.352   1.705
10757SOL    HW233171   6.816   4.497   1.633
10758SOL     OW33172   0.778   0.112   6.818
10758SOL    HW133173   0.766   0.156   6.906
10758SOL    HW233174   0.761   0.178   6.745
10759SOL     OW33175   2.414   2.231   6.224
10759SOL    HW133176   2.500   2.283   6.230
10759SOL    HW233177   2.338   2.288   6.253
10760SOL     OW33178   0.221   5.434   0.456
10760SOL    HW133179   0.308   5.475   0.482
10760SOL    HW233180   0.171   5.495   0.395
10761SOL     OW33181   0.705   1.931   6.041
10761SOL    HW133182   0.618   1.955   5.998
10761SOL    HW233183   0.769   1.900   5.971
10762SOL     OW33184   3.607   6.449   6.247
10762SOL    HW133185   3.606   6.481   6.152
10762SOL    HW233186   3.701   6.424   6.273
10763SOL     OW33187   5.484   0.488   2.976
10763SOL    HW133188   5.498   0.519   2.882
10763SOL    HW233189   5.392   0.450   2.985
10764SOL     OW33190   4.003   0.835   4.773
10764SOL    HW133191   4.023   0.781   4.855
10764SOL    HW233192   4.089   0.868   4.733
10765SOL     OW33193   6.867   1.692   2.842
10765SOL    HW133194   6.843   1.752   2.919
10765SOL    HW233195   6.932   1.623   2.874
10766SOL     OW33196   1.909   4.925   6.068
10766SOL    HW133197   1.924   4.944   6.165
10766SOL    HW233198   1.901   5.012   6.018
10767SOL     OW33199   1.705   5.774   0.751
10767SOL    HW133200   1.784   5.828   0.722
10767SOL    HW233201   1.663   5.817   0.831
10768SOL     OW33202   5.828   5.652   0.517
10768SOL    HW133203   5.735   5.618   0.506
10768SOL    HW233204   5.872   5.658   0.428
10769SOL     OW33205   3.184   3.246   4.874
10769SOL    HW133206   3.127   3.257   4.955
10769SOL    HW233207   3.157   3.312   4.804
10770SOL     OW33208   5.077   6.742   3.769
10770SOL    HW133209   5.145   6.732   3.842
10770SOL    HW233210   5.028   6.828   3.780
10771SOL     OW33211   4.690   6.057   6.058
10771SOL    HW133212   4.777   6.010   6.072
10771SOL    HW233213   4.615   5.997   6.088
10772SOL     OW33214   5.854   4.658   2.782
10772SOL    HW133215   5.817   4.642   2.690
10772SOL    HW233216   5.932   4.598   2.798
10773SOL     OW33217   6.559   4.788   0.951
10773SOL    HW133218   6.461   4.793   0.970
10773SOL    HW233219   6.585   4.862   0.889
10774SOL     OW33220   1.520   3.195   0.712
10774SOL    HW133221   1.438   3.140   0.692
10774SOL    HW233222   1.587   3.138   0.759
10775SOL     OW33223   0.904   4.271   1.234
10775SOL    HW133224   0.920   4.287   1.136
10775SOL    HW233225   0.875   4.356   1.277
10776SOL     OW33226   1.183   2.055   3.231
10776SOL    HW133227   1.273   2.080   3.268
10776SOL    HW233228   1.191   2.036   3.133
10777SOL     OW33229   3.449   1.510   2.359
10777SOL    HW133230   3.453   1.519   2.458
10777SOL    HW233231   3.517   1.571   2.317
10778SOL     OW33232   5.958   6.274   3.537
10778SOL    HW133233   5.985   6.342   3.469
10778SOL    HW233234   5.961   6.316   3.628
10779SOL     OW33235   5.487   4.121   4.272
10779SOL    HW133236   5.583   4.094   4.271
10779SOL    HW233237   5.430   4.040   4.280
10780SOL     OW33238   1.330   5.828   4.957
10780SOL    HW133239   1.313   5.919   4.920
10780SOL    HW233240   1.418   5.794   4.925
10781SOL     OW33241   6.053   2.029   5.572
10781SOL    HW133242   5.954   2.016   5.577
10781SOL    HW233243   6.076   2.082   5.490
10782SOL     OW33244   1.362   2.692   5.030
10782SOL    HW133245   1.359   2.677   4.931
10782SOL    HW233246   1.270   2.714   5.063
10783SOL     OW33247   1.336   2.835   2.983
10783SOL    HW133248   1.330   2.920   3.035
10783SOL    HW233249   1.416   2.838   2.923
10784SOL     OW33250   3.715   6.326   2.306
10784SOL    HW133251   3.619   6.323   2.278
10784SOL    HW233252   3.725   6.276   2.392
10785SOL     OW33253   1.865   6.266   2.269
10785SOL    HW133254   1.791   6.233   2.328
10785SOL    HW233255   1.941   6.298   2.326
10786SOL     OW33256   4.052   1.003   1.831
10786SOL    HW133257   3.980   1.019   1.898
10786SOL    HW233258   4.130   0.959   1.876
10787SOL     OW33259   3.710   1.117   3.440
10787SOL    HW133260   3.632   1.150   3.493
10787SOL    HW233261   3.793   1.164   3.470
10788SOL     OW33262   0.518   4.744   0.731
10788SOL    HW133263   0.453   4.699   0.793
10788SOL    HW233264   0.494   4.841   0.723
10789SOL     OW33265   6.651   1.582   0.338
10789SOL    HW133266   6.686   1.579   0.245
10789SOL    HW233267   6.563   1.629   0.339
10790SOL     OW33268   0.256   2.311   4.944
10790SOL    HW133269   0.156   2.308   4.937
10790SOL    HW233270   0.295   2.226   4.909
10791SOL     OW33271   1.634   1.570   3.491
10791SOL    HW133272   1.629   1.668   3.473
10791SOL    HW233273   1.604   1.520   3.410
10792SOL     OW33274   3.768   2.099   1.278
10792SOL    HW133275   3.842   2.036   1.299
10792SOL    HW233276   3.685   2.048   1.255
10793SOL     OW33277   4.678   1.347   4.955
10793SOL    HW133278   4.703   1.415   4.885
10793SOL    HW233279   4.699   1.384   5.046
10794SOL     OW33280   4.507   3.474   0.558
10794SOL    HW133281   4.558   3.560   0.554
10794SOL    HW233282   4.427   3.486   0.616
10795SOL     OW33283   0.105   3.362   3.117
10795SOL    HW133284   0.132   3.424   3.043
10795SOL    HW233285   0.186   3.312   3.149
10796SOL     OW33286   6.921   6.894   0.080
10796SOL    HW133287   6.902   6.942   0.166
10796SOL    HW233288   6.981   6.950   0.023
10797SOL     OW33289   4.063   3.730   0.289
10797SOL    HW133290   4.150   3.732   0.337
10797SOL    HW233291   4.019   3.820   0.294
10798SOL     OW33292   2.366   0.071   6.128
10798SOL    HW133293   2.398   0.012   6.053
10798SOL    HW233294   2.396   0.165   6.112
10799SOL     OW33295   2.975   1.866   2.747
10799SOL    HW133296   3.055   1.832   2.698
10799SOL    HW233297   2.905   1.893   2.682
10800SOL     OW33298   1.530   0.319   5.414
10800SOL    HW133299   1.568   0.338   5.504
10800SOL    HW233300   1.446   0.373   5.401
10801SOL     OW33301   2.883   6.447   6.147
10801SOL    HW133302   2.807   6.433   6.084
10801SOL    HW233303   2.961   6.485   6.098
10802SOL     OW33304   0.331   4.283   5.094
10802SOL    HW133305   0.384   4.318   5.171
10802SOL    HW233306   0.269   4.353   5.061
10803SOL     OW33307   6.845   4.570   5.389
10803SOL    HW133308   6.771   4.503   5.404
10803SOL    HW233309   6.824   4.654   5.439
10804SOL     OW33310   5.216   4.692   1.502
10804SOL    HW133311   5.272   4.664   1.580
10804SOL    HW233312   5.222   4.623   1.430
10805SOL     OW33313   4.459   6.892   0.725
10805SOL    HW133314   4.449   6.845   0.812
10805SOL    HW233315   4.390   6.857   0.660
10806SOL     OW33316   5.030   3.829   0.189
10806SOL    HW133317   4.959   3.777   0.141
10806SOL    HW233318   5.070   3.896   0.127
10807SOL     OW33319   4.136   6.369   3.487
10807SOL    HW133320   4.050   6.320   3.468
10807SOL    HW233321   4.153   6.369   3.585
10808SOL     OW33322   0.018   2.779   6.188
10808SOL    HW133323   0.113   2.810   6.177
10808SOL    HW233324   6.979   2.854   6.167
10809SOL     OW33325   2.341   0.559   3.478
10809SOL    HW133326   2.333   0.625   3.404
10809SOL    HW233327   2.384   0.602   3.557
10810SOL     OW33328   6.669   1.203   5.171
10810SOL    HW133329   6.702   1.160   5.255
10810SOL    HW233330   6.743   1.253   5.127
10811SOL     OW33331   4.562   4.686   5.505
10811SOL    HW133332   4.535   4.766   5.451
10811SOL    HW233333   4.520   4.691   5.595
10812SOL     OW33334   6.717   2.337   2.999
10812SOL    HW133335   6.723   2.435   2.982
10812SOL    HW233336   6.682   2.291   2.917
10813SOL     OW33337   3.026   6.225   1.808
10813SOL    HW133338   2.931   6.258   1.808
10813SOL    HW233339   3.052   6.199   1.715
10814SOL     OW33340   1.590   0.073   4.756
10814SOL    HW133341   1.608   7.001   4.735
10814SOL    HW233342   1.673   0.115   4.792
10815SOL     OW33343   5.139   2.905   3.151
10815SOL    HW133344   5.134   2.972   3.225
10815SOL    HW233345   5.063   2.841   3.159
10816SOL     OW33346   2.266   1.631   2.221
10816SOL    HW133347   2.167   1.614   2.216
10816SOL    HW233348   2.283   1.711   2.278
10817SOL     OW33349   4.455   6.863   2.001
10817SOL    HW133350   4.374   6.810   2.026
10817SOL    HW233351   4.441   6.904   1.911
10818SOL     OW33352   4.471   3.198   6.630
10818SOL    HW133353   4.391   3.163   6.678
10818SOL    HW233354   4.502   3.282   6.673
10819SOL     OW33355   7.005   4.008   6.681
10819SOL    HW133356   0.034   4.002   6.766
10819SOL    HW233357   0.032   3.967   6.606
10820SOL     OW33358   0.178   6.442   4.724
10820SOL    HW133359   0.079   6.453   4.733
10820SOL    HW233360   0.207   6.360   4.772
10821SOL     OW33361   6.703   0.521   0.699
10821SOL    HW133362   6.625   0.581   0.716
10821SOL    HW233363   6.712   0.456   0.775
10822SOL     OW33364   1.046   3.875   1.901
10822SOL    HW133365   1.067   3.840   1.992
10822SOL    HW233366   1.017   3.800   1.842
10823SOL     OW33367   1.405   0.279   0.871
10823SOL    HW133368   1.473   0.233   0.814
10823SOL    HW233369   1.412   0.245   0.965
10824SOL     OW33370   5.550   0.326   2.601
10824SOL    HW133371   5.619   0.309   2.672
10824SOL    HW233372   5.544   0.246   2.542
10825SOL     OW33373   3.512   1.324   0.877
10825SOL    HW133374   3.611   1.312   0.886
10825SOL    HW233375   3.478   1.373   0.957
10826SOL     OW33376   6.317   3.003   2.119
10826SOL    HW133377   6.293   3.080   2.178
10826SOL    HW233378   6.402   3.024   2.071
10827SOL     OW33379   6.678   2.672   4.212
10827SOL    HW133380   6.688   2.713   4.121
10827SOL    HW233381   6.624   2.588   4.204
10828SOL     OW33382   0.944   5.882   0.584
10828SOL    HW133383   0.933   5.866   0.486
10828SOL    HW233384   0.939   5.981   0.602
10829SOL     OW33385   3.107   3.569   1.439
10829SOL    HW133386   3.162   3.611   1.366
10829SOL    HW233387   3.058   3.641   1.489
10830SOL     OW33388   4.718   2.856   4.230
10830SOL    HW133389   4.753   2.949   4.214
10830SOL    HW233390   4.700   2.844   4.327
10831SOL     OW33391   5.350   1.747   2.891
10831SOL    HW133392   5.396   1.670   2.847
10831SOL    HW233393   5.252   1.741   2.872
10832SOL     OW33394   0.114   1.908   0.670
10832SOL    HW133395   0.151   1.836   0.729
10832SOL    HW233396   0.029   1.944   0.711
10833SOL     OW33397   3.271   6.976   4.857
10833SOL    HW133398   3.342   6.931   4.804
10833SOL    HW233399   3.201   7.012   4.796
10834SOL     OW33400   0.797   1.612   4.897
10834SOL    HW133401   0.877   1.663   4.865
10834SOL    HW233402   0.718   1.636   4.840
10835SOL     OW33403   6.630   1.504   2.285
10835SOL    HW133404   6.680   1.555   2.355
10835SOL    HW233405   6.534   1.496   2.311
10836SOL     OW33406   1.825   2.519   6.845
10836SOL    HW133407   1.862   2.612   6.835
10836SOL    HW233408   1.895   2.452   6.819
10837SOL     OW33409   0.619   4.839   0.981
10837SOL    HW133410   0.635   4.820   0.884
10837SOL    HW233411   0.525   4.814   1.005
10838SOL     OW33412   5.725   6.763   6.972
10838SOL    HW133413   5.782   6.744   6.891
10838SOL    HW233414   5.750   6.852   7.010
10839SOL     OW33415   2.197   1.691   0.442
10839SOL    HW133416   2.187   1.749   0.361
10839SOL    HW233417   2.291   1.693   0.474
10840SOL     OW33418   4.063   5.535   1.891
10840SOL    HW133419   4.141   5.594   1.872
10840SOL    HW233420   4.064   5.507   1.987
10841SOL     OW33421   3.645   4.782   6.402
10841SOL    HW133422   3.668   4.702   6.347
10841SOL    HW233423   3.553   4.771   6.440
10842SOL     OW33424   6.133   2.682   1.606
10842SOL    HW133425   6.126   2.589   1.642
10842SOL    HW233426   6.230   2.706   1.595
10843SOL     OW33427   0.192   1.476   1.830
10843SOL    HW133428   0.121   1.409   1.851
10843SOL    HW233429   0.223   1.519   1.915
10844SOL     OW33430   4.829   6.796   3.922
10844SOL    HW133431   4.866   6.887   3.936
10844SOL    HW233432   4.758   6.778   3.991
10845SOL     OW33433   1.599   2.659   0.768
10845SOL    HW133434   1.563   2.571   0.797
10845SOL    HW233435   1.679   2.683   0.823
10846SOL     OW33436   3.897   1.616   1.654
10846SOL    HW133437   3.980   1.561   1.653
10846SOL    HW233438   3.907   1.691   1.720
10847SOL     OW33439   3.891   2.917   6.556
10847SOL    HW133440   3.955   2.869   6.616
10847SOL    HW233441   3.941   2.985   6.502
10848SOL     OW33442   1.284   0.751   6.293
10848SOL    HW133443   1.273   0.770   6.391
10848SOL    HW233444   1.356   0.682   6.281
10849SOL     OW33445   2.924   4.784   4.238
10849SOL    HW133446   2.994   4.813   4.174
10849SOL    HW233447   2.834   4.796   4.197
10850SOL     OW33448   5.275   6.711   0.551
10850SOL    HW133449   5.278   6.801   0.507
10850SOL    HW233450   5.367   6.685   0.579
10851SOL     OW33451   4.024   2.120   6.459
10851SOL    HW133452   3.967   2.126   6.541
10851SOL    HW233453   4.023   2.208   6.412
10852SOL     OW33454   0.263   0.413   6.059
10852SOL    HW133455   0.312   0.328   6.039
10852SOL    HW233456   0.312   0.490   6.017
10853SOL     OW33457   2.220   1.547   4.627
10853SOL    HW133458   2.293   1.568   4.562
10853SOL    HW233459   2.258   1.537   4.718
10854SOL     OW33460   6.955   6.413   0.100
10854SOL    HW133461   6.893   6.478   0.056
10854SOL    HW233462   6.904   6.361   0.169
10855SOL     OW33463   1.427   6.213   0.887
10855SOL    HW133464   1.460   6.122   0.912
10855SOL    HW233465   1.453   6.233   0.792
10856SOL     OW33466   6.408   6.836   6.668
10856SOL    HW133467   6.473   6.891   6.722
10856SOL    HW233468   6.429   6.739   6.680
10857SOL     OW33469   5.985   1.551   4.097
10857SOL    HW133470   5.964   1.453   4.096
10857SOL    HW233471   6.083   1.564   4.110
10858SOL     OW33472   2.178   2.096   0.214
10858SOL    HW133473   2.181   2.005   0.173
10858SOL    HW233474   2.225   2.094   0.302
10859SOL     OW33475   0.920   4.368   2.023
10859SOL    HW133476   0.822   4.384   2.012
10859SOL    HW233477   0.949   4.296   1.960
10860SOL     OW33478   6.538   2.127   0.232
10860SOL    HW133479   6.536   2.088   0.140
10860SOL    HW233480   6.572   2.221   0.228
10861SOL     OW33481   3.303   2.872   1.998
10861SOL    HW133482   3.281   2.956   2.049
10861SOL    HW233483   3.399   2.848   2.016
10862SOL     OW33484   3.740   3.088   5.679
10862SOL    HW133485   3.694   3.177   5.668
10862SOL    HW233486   3.680   3.016   5.646
10863SOL     OW33487   2.262   1.754   2.914
10863SOL    HW133488   2.258   1.663   2.872
10863SOL    HW233489   2.337   1.758   2.979
10864SOL     OW33490   3.042   4.781   2.020
10864SOL    HW133491   3.120   4.733   1.980
10864SOL    HW233492   2.965   4.718   2.028
10865SOL     OW33493   4.076   1.339   3.236
10865SOL    HW133494   3.997   1.369   3.291
10865SOL    HW233495   4.159   1.383   3.270
10866SOL     OW33496   0.028   3.744   3.255
10866SOL    HW133497   6.978   3.680   3.231
10866SOL    HW233498   0.112   3.718   3.208
10867SOL     OW33499   4.345   3.573   0.322
10867SOL    HW133500   4.392   3.549   0.407
10867SOL    HW233501   4.267   3.512   0.308
10868SOL     OW33502   1.248   1.306   4.444
10868SOL    HW133503   1.327   1.340   4.495
10868SOL    HW233504   1.165   1.319   4.498
10869NA      NA33505   6.912   2.450   5.595
10870NA      NA33506   4.253   4.704   5.209
10871NA      NA33507   1.015   4.815   2.749
10872NA      NA33508   5.855   4.209   3.291
10873NA      NA33509   4.064   2.100   5.272
10874NA      NA33510   2.472   4.924   0.544
10875NA      NA33511   0.998   5.152   6.841
10876NA      NA33512   3.442   4.127   1.239
10877NA      NA33513   4.258   5.168   0.891
10878NA      NA33514   3.164   0.803   6.527
10879NA      NA33515   5.553   6.435   2.165
10880NA      NA33516   1.608   6.840   5.499
10881NA      NA33517   4.137   5.081   1.842
10882NA      NA33518   3.383   3.339   6.722
   7.02384   7.02384   7.02384
